Membrane in water
40155
    1TCq1    O1    1   3.070   1.813  11.422 -0.7308 -0.1051 -0.5033
    1TCq1    C1    2   2.979   1.754  11.507  0.4268 -1.0178 -0.0923
    1TCq1    O2    3   2.985   1.755  11.631 -0.0301  0.4674  0.2777
    1TCq1    C2    4   2.895   1.663  11.423  0.4462 -0.7639 -0.3081
    1TCq1    C3    5   2.840   1.706  11.307 -0.4472  0.5163 -0.2842
    1TCq1    C4    6   2.741   1.626  11.251  0.1174 -0.1236 -0.6868
    1TCq1    C5    7   2.719   1.497  11.290 -0.8887  0.1049  0.2274
    1TCq1    C6    8   2.785   1.458  11.396  0.4201 -0.2030 -0.2523
    1TCq1    C7    9   2.865   1.540  11.474 -0.1744 -0.3711  0.0643
    1TCq1    C8   10   2.707   1.366  11.470  0.2325 -0.3786  0.8447
    1TCq1    O4   11   2.584   1.384  11.469  0.2865 -0.3368  0.1890
    1TCq1    C9   12   2.644   1.685  11.150 -0.2239 -0.5084  0.3054
    1TCq1    O5   13   2.549   1.618  11.103  0.0838  0.5103 -0.0605
    1TCq1    O6   14   2.662   1.812  11.130  0.2190 -0.1526 -0.6123
    1TCq1    H1   15   3.063   1.792  11.327  1.6849  2.9394 -1.3729
    1TCq1    H2   16   2.854   1.811  11.283 -2.8436  0.5311 -1.5410
    1TCq1    H3   17   2.644   1.430  11.249 -2.8493  1.6306  1.3298
    1TCq1    H4   18   2.908   1.517  11.570  1.1661 -2.0342 -0.9430
    2MPD2     C   19   2.624   0.918  11.713 -0.5962 -0.4418  0.3344
    2MPD2    C1   20   2.532   1.013  11.677 -0.1867  0.5463  1.1573
    2MPD2    C2   21   2.582   1.127  11.608 -0.1207 -0.2961 -0.2988
    2MPD2    C3   22   2.716   1.144  11.575 -0.3764  0.0687 -0.5072
    2MPD2    C4   23   2.801   1.042  11.614 -0.4431  0.2436 -0.2735
    2MPD2    C5   24   2.756   0.935  11.688 -0.2592  0.0135 -0.1439
    2MPD2     H   25   2.511   1.207  11.590  0.0352 -0.1948 -0.4658
    2MPD2    H1   26   2.908   1.045  11.601 -0.4680 -1.0413 -0.7412
    2MPD2    H2   27   2.581   0.841  11.776 -0.9873  0.6751  1.4341
    2MPD2    H3   28   2.827   0.861  11.724 -0.9457  0.0574  1.3237
    2MPD2     N   29   2.775   1.255  11.526 -0.0442  0.2475 -0.6607
    2MPD2    H5   30   2.876   1.244  11.521 -0.1287 -0.2535 -1.2034
    2MPD2    N1   31   2.394   1.007  11.704 -0.2885  0.7379 -0.0013
    2MPD2    H7   32   2.336   1.090  11.694 -3.3941 -1.5428 -0.9844
    3TCq1    O1   33   2.105   3.305   9.843 -0.4496  0.1752  0.3496
    3TCq1    C1   34   2.138   3.405   9.934  0.4410  0.4696 -0.5139
    3TCq1    O2   35   2.253   3.442   9.961 -0.6140  0.0188 -0.0867
    3TCq1    C2   36   2.045   3.410  10.043 -0.1295 -0.4187  0.0094
    3TCq1    C3   37   1.948   3.310  10.059  0.0387  0.8469  0.1804
    3TCq1    C4   38   1.863   3.312  10.170  0.4809  0.3676  0.6675
    3TCq1    C5   39   1.863   3.422  10.255  0.7336 -0.6412  0.8770
    3TCq1    C6   40   1.957   3.518  10.224  0.2798 -0.5656 -1.2176
    3TCq1    C7   41   2.048   3.522  10.122  0.1173 -0.2643 -0.0362
    3TCq1    C8   42   1.968   3.623  10.320 -0.3860 -0.1013  0.3551
    3TCq1    O4   43   2.045   3.714  10.291 -0.3786  0.2628 -0.0096
    3TCq1    C9   44   1.768   3.206  10.187  0.1151 -0.3148 -0.6637
    3TCq1    O5   45   1.677   3.221  10.268  0.4111  0.4809 -0.0158
    3TCq1    O6   46   1.786   3.098  10.120 -0.1947 -0.2213 -0.3900
    3TCq1    H1   47   2.011   3.294   9.817  0.8391 -1.0420 -3.7038
    3TCq1    H2   48   1.939   3.223   9.995  2.7323 -1.2569  2.6601
    3TCq1    H3   49   1.794   3.419  10.339  2.3943 -1.1176  2.2284
    3TCq1    H4   50   2.124   3.598  10.109 -0.2138  0.6049  3.0644
    4MPD2     C   51   1.904   3.823  10.783  0.6354 -0.2702  0.5177
    4MPD2    C1   52   1.836   3.696  10.778  1.2156 -0.7151  0.3673
    4MPD2    C2   53   1.834   3.623  10.664 -0.9658 -0.4241  0.4665
    4MPD2    C3   54   1.894   3.675  10.552 -0.7124  0.4700 -0.2091
    4MPD2    C4   55   1.964   3.795  10.549 -0.0961  0.5390 -0.6309
    4MPD2    C5   56   1.969   3.871  10.665 -0.3353  0.4253  0.4871
    4MPD2     H   57   1.770   3.537  10.650 -1.9483  0.3194  0.3888
    4MPD2    H1   58   2.015   3.835  10.462 -0.1337  0.9005 -0.4871
    4MPD2    H2   59   1.914   3.882  10.873 -0.3028  0.6919 -0.0153
    4MPD2    H3   60   2.012   3.970  10.668  1.3819 -0.3169  0.3692
    4MPD2     N   61   1.901   3.594  10.438  0.3472 -0.2296  0.2337
    4MPD2    H5   62   1.859   3.503  10.451 -1.6168  0.3004 -2.5979
    4MPD2    N1   63   1.770   3.641  10.887  0.2017 -0.5487  0.0812
    4MPD2    H7   64   1.723   3.553  10.868 -2.0583  0.5430  0.6141
    5TCq1    O1   65   2.763   3.665  11.917 -0.4709 -0.1172  0.0950
    5TCq1    C1   66   2.706   3.707  11.805  0.0626 -0.1750  0.6890
    5TCq1    O2   67   2.584   3.709  11.782  0.2045  0.3632 -0.0663
    5TCq1    C2   68   2.808   3.708  11.698  0.6105  0.1748 -0.1834
    5TCq1    C3   69   2.944   3.717  11.722 -0.0338  0.7539  0.0918
    5TCq1    C4   70   3.041   3.717  11.621  0.3309 -0.2004 -0.2296
    5TCq1    C5   71   2.992   3.710  11.491 -0.8027  0.5357 -0.3173
    5TCq1    C6   72   2.854   3.718  11.464  0.4822  0.0374  0.1909
    5TCq1    C7   73   2.765   3.711  11.571  0.4728  0.5201 -0.7449
    5TCq1    C8   74   2.798   3.739  11.330  0.2326  0.3714  0.3339
    5TCq1    O4   75   2.678   3.765  11.321  0.0258  1.0062  0.1062
    5TCq1    C9   76   3.182   3.734  11.652  0.7786  0.1247 -0.6540
    5TCq1    O5   77   3.212   3.762  11.770 -0.2138  0.0890 -0.1306
    5TCq1    O6   78   3.263   3.736  11.556  0.5863 -0.4437  0.0260
    5TCq1    H1   79   2.844   3.612  11.899 -0.0704  1.0865 -1.7115
    5TCq1    H2   80   2.994   3.716  11.819  1.9366 -2.2274 -0.9238
    5TCq1    H3   81   3.071   3.692  11.419  1.1193  3.3074  1.1157
    5TCq1    H4   82   2.657   3.719  11.559  0.5778  1.6427 -0.9603
    6MPD2     C   83   2.953   3.843  11.014  0.6518 -0.0520  0.4084
    6MPD2    C1   84   2.862   3.782  11.103  0.1646  0.1853  0.3124
    6MPD2    C2   85   2.741   3.752  11.053  0.3264  0.1564  0.4735
    6MPD2    C3   86   2.723   3.774  10.920  0.3220 -0.7070  0.4507
    6MPD2    C4   87   2.805   3.839  10.831 -0.2273 -0.1501  0.3892
    6MPD2    C5   88   2.922   3.876  10.885 -0.2134  0.9602  0.3137
    6MPD2     H   89   2.667   3.701  11.114  0.4778  0.1515  0.6533
    6MPD2    H1   90   2.772   3.874  10.734 -1.2572  0.5544  0.9867
    6MPD2    H2   91   3.051   3.872  11.049  0.7655  0.7123 -0.5464
    6MPD2    H3   92   2.988   3.929  10.818 -1.5378 -0.2246 -1.9339
    6MPD2     N   93   2.593   3.733  10.873 -0.2798 -0.4546  0.6438
    6MPD2    H5   94   2.522   3.722  10.945  1.0600  0.4542  2.0960
    6MPD2    N1   95   2.896   3.757  11.241 -0.0394 -0.7582 -0.3954
    6MPD2    H7   96   2.990   3.767  11.279 -0.5830 -0.9699  0.9754
    7TCq1    O1   97   0.066   4.201  13.275 -0.2060 -0.6086  0.2241
    7TCq1    C1   98   0.050   4.126  13.388 -0.1152  0.0853 -0.0759
    7TCq1    O2   99   0.109   4.142  13.495  0.2668  0.0596 -0.0686
    7TCq1    C2  100   4.653   4.045  13.378 -0.0655 -0.1613  0.5100
    7TCq1    C3  101   4.566   4.053  13.270 -0.0229  0.3320  0.4818
    7TCq1    C4  102   4.438   4.002  13.282  0.7658  0.2829  0.4505
    7TCq1    C5  103   4.395   3.936  13.393  0.3376 -0.3790  0.4253
    7TCq1    C6  104   4.489   3.932  13.500  0.1966  0.6535  0.7004
    7TCq1    C7  105   4.615   3.989  13.501  0.4005  0.2368 -0.3163
    7TCq1    C8  106   4.486   3.797  13.558 -0.2983 -0.7086  0.1697
    7TCq1    O4  107   4.440   3.703  13.493 -0.0209  0.2385 -0.2441
    7TCq1    C9  108   4.351   4.000  13.168 -0.0191 -0.0654 -0.2613
    7TCq1    O5  109   4.250   3.926  13.171 -0.1040  0.3149 -0.3991
    7TCq1    O6  110   4.389   4.058  13.066  0.3505  0.1078  0.0747
    7TCq1    H1  111   0.027   4.165  13.193 -0.3850  0.2935 -0.0825
    7TCq1    H2  112   4.599   4.091  13.174  0.1761 -0.0249  0.4109
    7TCq1    H3  113   4.292   3.912  13.414  0.5827 -1.9752 -0.1981
    7TCq1    H4  114   4.691   3.977  13.578 -0.5998  0.0540  0.6433
    8MPD2     C  115   4.678   3.481  13.905 -0.0923  0.5549 -0.6400
    8MPD2    C1  116   4.667   3.456  13.773 -0.4637 -0.1155 -0.3603
    8MPD2    C2  117   4.619   3.559  13.695 -0.3454 -0.0508  0.2564
    8MPD2    C3  118   4.595   3.691  13.744 -0.3097 -0.3556 -0.0158
    8MPD2    C4  119   4.622   3.712  13.881 -0.2083 -0.3064  0.3985
    8MPD2    C5  120   4.664   3.607  13.950  0.2877 -0.0936 -0.2631
    8MPD2     H  121   4.595   3.532  13.593  2.5638  0.0979 -0.4518
    8MPD2    H1  122   4.609   3.803  13.940  0.5349  0.7015 -1.0115
    8MPD2    H2  123   0.001   3.403  13.965 -0.9027  1.3421  0.9778
    8MPD2    H3  124   4.690   3.631  14.053  0.3807  0.3270 -0.3853
    8MPD2     N  125   4.558   3.803  13.672 -0.0299 -0.0426 -0.3955
    8MPD2    H5  126   4.572   3.895  13.712  0.1451 -0.0810 -0.3692
    8MPD2    N1  127   4.710   3.325  13.728  0.2590 -0.5899  0.0032
    8MPD2    H7  128   4.719   3.260  13.805  1.1331  1.3294  1.5238
    9TCq1    O1  129   1.741   2.675  10.500  0.5537  0.1043  0.4231
    9TCq1    C1  130   1.830   2.604  10.572 -0.0319  0.0177 -0.7356
    9TCq1    O2  131   1.793   2.535  10.668 -0.0613  0.0433 -0.4041
    9TCq1    C2  132   1.927   2.556  10.467  0.1430  0.1521 -0.1733
    9TCq1    C3  133   1.993   2.641  10.380  0.3140  0.3464  0.2147
    9TCq1    C4  134   2.074   2.580  10.287  0.0921  0.1527 -0.5582
    9TCq1    C5  135   2.081   2.441  10.279 -0.5340  0.4035  0.6074
    9TCq1    C6  136   2.025   2.361  10.374 -0.0715 -0.1056 -1.0208
    9TCq1    C7  137   1.948   2.417  10.470  0.1652  0.7144  0.5136
    9TCq1    C8  138   2.063   2.223  10.374  0.4444 -1.0217 -1.0446
    9TCq1    O4  139   2.121   2.181  10.276  0.1807 -0.3139 -0.0968
    9TCq1    C9  140   2.137   2.664  10.187  0.0114  0.4138 -0.7810
    9TCq1    O5  141   2.137   2.628  10.070 -0.1768 -0.1002  0.1964
    9TCq1    O6  142   2.193   2.765  10.233  0.5041 -0.3858 -0.0770
    9TCq1    H1  143   1.772   2.700  10.410 -3.6048  0.6817 -0.8777
    9TCq1    H2  144   1.982   2.746  10.403 -0.8900  0.4166 -0.6761
    9TCq1    H3  145   2.133   2.394  10.196 -0.3902  2.1602 -0.2909
    9TCq1    H4  146   1.883   2.365  10.539  1.0291 -0.3803  0.5015
   10MPD2     C  147   2.038   1.923  10.423 -0.6420 -0.2525  0.4213
   10MPD2    C1  148   1.993   2.022  10.509 -0.7740 -0.2006  1.0337
   10MPD2    C2  149   1.937   1.990  10.633  0.0242  0.1240  0.4087
   10MPD2    C3  150   1.937   1.857  10.671 -0.3033  0.3548  0.1943
   10MPD2    C4  151   1.978   1.753  10.578  0.0930 -0.4584  0.5786
   10MPD2    C5  152   2.026   1.789  10.455  0.6721  0.7425 -0.7378
   10MPD2     H  153   1.907   2.078  10.688  2.4828 -0.2040  2.2846
   10MPD2    H1  154   1.978   1.652  10.617  0.6491 -1.1010 -1.1096
   10MPD2    H2  155   2.092   1.960  10.336 -0.0505 -1.6049  0.2195
   10MPD2    H3  156   2.075   1.719  10.389  1.4465  0.9833 -0.4128
   10MPD2     N  157   1.917   1.820  10.805  0.2626 -0.2173 -0.3625
   10MPD2    H5  158   1.925   1.722  10.829 -1.2611  0.0045  1.0538
   10MPD2    N1  159   2.003   2.161  10.480  0.0048 -0.0293 -0.5238
   10MPD2    H7  160   1.963   2.219  10.553  1.4847  0.2997  0.0045
   11TCq1    O1  161   3.397   2.336  13.806  0.3616 -0.7372 -0.2894
   11TCq1    C1  162   3.269   2.362  13.785 -0.0311 -0.0038  0.3477
   11TCq1    O2  163   3.203   2.308  13.692 -0.3612  0.2847  0.2945
   11TCq1    C2  164   3.206   2.335  13.917  0.2524 -0.0115  0.0691
   11TCq1    C3  165   3.224   2.438  14.002  0.1152  0.0844 -0.5294
   11TCq1    C4  166   3.155   2.442  14.114  0.3631  0.3780 -0.1899
   11TCq1    C5  167   3.053   2.354  14.143 -0.2519 -0.1940 -1.0157
   11TCq1    C6  168   3.026   2.256  14.046  0.1769 -0.6985 -0.6731
   11TCq1    C7  169   3.107   2.246  13.932  0.5107 -0.5734  0.2875
   11TCq1    C8  170   2.921   2.169  14.070 -0.1594 -0.2830  0.1960
   11TCq1    O4  171   2.867   2.178  14.179  0.4269 -0.2636  0.4392
   11TCq1    C9  172   3.182   2.548  14.207  0.9079 -0.4194  0.0729
   11TCq1    O5  173   3.303   2.576  14.212  0.4181 -0.0473  0.0301
   11TCq1    O6  174   3.087   2.576  14.290 -0.4258 -0.9632  0.3147
   11TCq1    H1  175   3.432   2.374  13.889  4.3887 -0.6402 -2.0191
   11TCq1    H2  176   3.283   2.525  13.978  0.6969 -0.1075  0.2068
   11TCq1    H3  177   2.990   2.369  14.230 -1.3705 -1.1009 -1.6843
   11TCq1    H4  178   3.107   2.169  13.857  1.9177  0.3814 -0.7004
   12MPD2     C  179   2.649   2.081  14.038 -0.4387 -0.1102  0.7801
   12MPD2    C1  180   2.755   2.030  13.966 -0.8105 -0.5194  0.5017
   12MPD2    C2  181   2.740   1.932  13.873  0.3919 -0.2041 -0.6547
   12MPD2    C3  182   2.608   1.892  13.840  0.0238 -0.1670  0.1738
   12MPD2    C4  183   2.503   1.945  13.913 -0.7250  0.0868 -0.8053
   12MPD2    C5  184   2.525   2.027  14.019  0.1834  0.0714  0.3022
   12MPD2     H  185   2.828   1.904  13.817  0.6372  1.4028 -1.0759
   12MPD2    H1  186   2.400   1.926  13.886 -0.6900 -2.0653  0.5009
   12MPD2    H2  187   2.655   2.170  14.099  0.7154 -0.8296  1.7184
   12MPD2    H3  188   2.449   2.070  14.083 -1.0822 -1.5627 -0.1145
   12MPD2     N  189   2.567   1.796  13.744 -0.1743 -1.2223 -0.3147
   12MPD2    H5  190   2.469   1.783  13.722 -1.0503  2.1870  1.5047
   12MPD2    N1  191   2.889   2.080  13.972  0.5367 -0.3897 -0.8868
   12MPD2    H7  192   2.951   2.059  13.895  0.3823 -0.1227 -1.0835
   13TCq1    O1  193   1.758   2.455   9.714 -0.0429 -0.3794 -0.5023
   13TCq1    C1  194   1.776   2.360   9.809 -0.0885  1.0627  0.4765
   13TCq1    O2  195   1.833   2.254   9.789  0.5307  0.7331 -0.1271
   13TCq1    C2  196   1.762   2.411   9.943 -0.3634  0.1778  0.9716
   13TCq1    C3  197   1.756   2.545   9.971  0.1045 -0.5414  0.1488
   13TCq1    C4  198   1.746   2.582  10.101  0.7779 -0.0161  0.3897
   13TCq1    C5  199   1.725   2.490  10.202 -0.1873 -0.1797  0.1543
   13TCq1    C6  200   1.734   2.358  10.174  0.1897 -0.0259 -0.4720
   13TCq1    C7  201   1.746   2.318  10.043  0.5420  0.2308  0.0048
   13TCq1    C8  202   1.694   2.263  10.274  0.5651  0.3150 -0.3171
   13TCq1    O4  203   1.642   2.309  10.373 -0.3463  0.2725 -0.0531
   13TCq1    C9  204   1.745   2.726  10.141 -0.9473 -0.3426  0.4343
   13TCq1    O5  205   1.769   2.761  10.257  0.4596  0.4111 -0.3863
   13TCq1    O6  206   1.724   2.804  10.049 -0.5431 -0.3691  0.5990
   13TCq1    H1  207   1.701   2.529   9.744 -1.4770 -1.6795  0.0111
   13TCq1    H2  208   1.785   2.622   9.900 -0.1795 -0.3117  0.2773
   13TCq1    H3  209   1.704   2.525  10.302 -2.1395 -0.1100 -0.2780
   13TCq1    H4  210   1.749   2.214  10.011 -1.0594 -0.2064  1.2003
   14MPD2     C  211   1.676   1.900  10.261  0.9885 -0.1434  0.0101
   14MPD2    C1  212   1.679   2.021  10.318 -0.0456 -0.0498 -0.0835
   14MPD2    C2  213   1.655   2.036  10.455  0.2490 -0.4673  0.0034
   14MPD2    C3  214   1.629   1.931  10.536  0.0476  0.0911  0.2261
   14MPD2    C4  215   1.635   1.808  10.480 -0.0404 -0.3275  0.0948
   14MPD2    C5  216   1.659   1.792  10.346 -0.1465  0.3133 -0.0207
   14MPD2     H  217   1.650   2.133  10.504  0.3549 -1.1368  1.3303
   14MPD2    H1  218   1.627   1.725  10.549 -0.5090  0.8933  1.5316
   14MPD2    H2  219   1.696   1.886  10.156  2.3624  0.7565  0.1446
   14MPD2    H3  220   1.686   1.691  10.318 -0.0430  0.3413 -0.0208
   14MPD2     N  221   1.599   1.958  10.672  0.0736 -0.0554  0.6719
   14MPD2    H5  222   1.612   2.056  10.697 -3.0281  0.9962 -1.8486
   14MPD2    N1  223   1.712   2.131  10.238  0.1522 -0.4378  1.1936
   14MPD2    H7  224   1.733   2.112  10.141  1.5037 -0.5286  1.5131
   15TCq1    O1  225   2.579   1.405   1.682 -0.0815 -0.1077  0.2000
   15TCq1    C1  226   2.681   1.357   1.613  0.4187 -0.1355 -0.0554
   15TCq1    O2  227   2.706   1.367   1.493  0.7785 -0.4627  0.2340
   15TCq1    C2  228   2.767   1.280   1.702  0.0768  0.1869 -0.0635
   15TCq1    C3  229   2.723   1.225   1.820  0.0477  0.5332 -0.1606
   15TCq1    C4  230   2.807   1.174   1.902 -0.1701 -0.0478 -0.5565
   15TCq1    C5  231   2.940   1.149   1.865  0.1273 -0.2004  0.3124
   15TCq1    C6  232   2.987   1.187   1.744 -1.2409 -0.0022  0.5143
   15TCq1    C7  233   2.890   1.249   1.659  0.1086  0.1071 -0.1534
   15TCq1    C8  234   3.112   1.122   1.696  0.4197  0.1371  0.0086
   15TCq1    O4  235   3.191   1.078   1.786 -0.2322 -0.6049  0.1462
   15TCq1    C9  236   2.772   1.143   2.046 -0.0821  0.1424  0.9220
   15TCq1    O5  237   2.861   1.103   2.121 -0.1756 -0.2144  0.0544
   15TCq1    O6  238   2.654   1.159   2.078  0.5761  0.2825  1.0095
   15TCq1    H1  239   2.614   1.434   1.769  0.5831  2.2564 -0.8399
   15TCq1    H2  240   2.619   1.236   1.847 -0.2087 -0.9763 -0.5667
   15TCq1    H3  241   3.003   1.108   1.944  2.3132 -1.6255 -2.1635
   15TCq1    H4  242   2.918   1.296   1.565 -0.0139  1.7961  0.6462
   16MPD2     C  243   3.198   1.010   1.351 -0.5814  0.7181  0.2435
   16MPD2    C1  244   3.220   1.035   1.482  0.3797  0.0699  0.8099
   16MPD2    C2  245   3.338   0.985   1.535  0.3187  0.4986  0.0451
   16MPD2    C3  246   3.415   0.903   1.456  0.6744 -0.5366 -0.0850
   16MPD2    C4  247   3.385   0.869   1.321 -0.1522 -0.3049 -0.4312
   16MPD2    C5  248   3.272   0.926   1.272 -0.5134  0.3388 -0.8232
   16MPD2     H  249   3.366   0.992   1.640 -2.8948  0.9762  0.8609
   16MPD2    H1  250   3.452   0.821   1.251  0.7308  0.1464  0.1195
   16MPD2    H2  251   3.107   1.046   1.304  0.7695  1.7260 -1.6108
   16MPD2    H3  252   3.242   0.922   1.168  0.3832 -2.9452 -0.9615
   16MPD2     N  253   3.544   0.882   1.510  0.0831  0.1832  0.6520
   16MPD2    H5  254   3.552   0.927   1.600 -1.5321  0.5778  0.6033
   16MPD2    N1  255   3.117   1.106   1.558 -0.6367  0.7063 -0.6065
   16MPD2    H7  256   3.032   1.133   1.509 -0.6537  0.6435 -0.6113
   17TCq1    O1  257   1.719   0.932  11.090  0.1348  0.0581  0.0767
   17TCq1    C1  258   1.722   0.958  11.222 -0.0907 -0.2762  0.9999
   17TCq1    O2  259   1.666   0.893  11.305  0.1579 -0.3747 -0.0975
   17TCq1    C2  260   1.834   1.050  11.238 -0.1464  0.1655  0.1126
   17TCq1    C3  261   1.844   1.160  11.158  0.0233 -0.5333 -0.1465
   17TCq1    C4  262   1.959   1.230  11.156 -0.8072 -0.1751  0.0636
   17TCq1    C5  263   2.067   1.184  11.223  0.0934 -0.0024 -0.9709
   17TCq1    C6  264   2.059   1.069  11.294  0.2398 -0.1067  1.1506
   17TCq1    C7  265   1.939   1.000  11.301  0.0326 -0.1170  0.0924
   17TCq1    C8  266   2.180   0.993  11.325 -0.1785  0.0620 -0.4753
   17TCq1    O4  267   2.173   0.902  11.408 -0.1934  0.5317  0.5051
   17TCq1    C9  268   1.960   1.351  11.080 -0.1017 -0.7149 -0.0184
   17TCq1    O5  269   1.865   1.370  10.997  0.1251  0.0161  0.0734
   17TCq1    O6  270   2.061   1.423  11.098  0.4317  0.1955 -0.0901
   17TCq1    H1  271   1.776   0.988  11.034  3.2569 -2.3549  0.8372
   17TCq1    H2  272   1.764   1.193  11.091  0.9149 -0.4507 -1.1726
   17TCq1    H3  273   2.164   1.230  11.209  0.1281  0.1097 -0.3512
   17TCq1    H4  274   1.934   0.898  11.338 -0.2164 -0.8554 -1.9500
   18MPD2     C  275   2.470   0.902  11.345  0.9372 -0.4277  0.7590
   18MPD2    C1  276   2.422   1.005  11.261 -0.1743  0.6374  0.8303
   18MPD2    C2  277   2.505   1.087  11.188 -0.4701 -0.7863  0.8483
   18MPD2    C3  278   2.641   1.052  11.194  0.1468 -0.1923 -0.3188
   18MPD2    C4  279   2.687   0.946  11.272  0.7086 -0.1146 -0.1451
   18MPD2    C5  280   2.601   0.868  11.345 -0.0314  0.5770  0.0634
   18MPD2     H  281   2.469   1.177  11.140  1.3829 -0.4225  0.1482
   18MPD2    H1  282   2.793   0.923  11.276  0.4987 -1.1547 -0.4230
   18MPD2    H2  283   2.400   0.840  11.400  0.8862 -0.0859  1.0738
   18MPD2    H3  284   2.642   0.788  11.405  0.0538  0.9112  0.4591
   18MPD2     N  285   2.746   1.118  11.127 -0.4376  0.1949 -0.4117
   18MPD2    H5  286   2.844   1.098  11.148 -0.5690  0.0061  0.0133
   18MPD2    N1  287   2.288   1.041  11.252  0.1470  0.5766  0.9385
   18MPD2    H7  288   2.268   1.111  11.181 -2.0432 -1.5231 -0.5243
   19TMC2    C1  289   3.567   1.782  13.948 -0.3888 -0.0745 -0.3532
   19TMC2    C2  290   3.478   1.879  13.915 -0.3545 -0.8979  0.2251
   19TMC2    C3  291   3.346   1.848  13.905  0.0349 -0.1300  0.3999
   19TMC2    C4  292   3.530   1.662  13.995  0.5176  0.4633 -0.5724
   19TMC2    C5  293   3.397   1.637  13.999 -0.7433  0.8121  0.4065
   19TMC2    C6  294   3.303   1.726  13.953  1.8678  0.1183 -0.2115
   19TMC2     C  295   3.700   1.830  13.952 -0.0867 -0.5057  0.0202
   19TMC2     O  296   3.744   1.920  13.877  0.4338 -0.5763  0.1009
   19TMC2     H  297   3.513   1.981  13.903 -1.4516 -0.6000 -0.3761
   19TMC2    H1  298   3.608   1.592  14.020  1.4972  0.8310 -2.5313
   19TMC2    H2  299   3.197   1.704  13.948  1.6333  1.1498  0.1599
   19TMC2    C7  300   3.358   1.504  14.037  0.1216 -0.3146  0.3937
   19TMC2    C8  301   3.243   1.935  13.860 -0.5774 -0.5316  0.5212
   19TMC2    O1  302   3.441   1.415  14.047  0.3230 -0.1118  0.1257
   19TMC2    O2  303   3.128   1.915  13.883 -0.0911 -0.2326  0.3081
   19TMC2    O5  304   3.297   2.042  13.796 -0.8581  0.5700  0.1265
   19TMC2    H5  305   3.393   2.039  13.778 -1.0919  0.1141 -1.0678
   20MPD2     C  306   3.972   1.902  14.064 -0.3518 -0.2067  0.3314
   20MPD2    C1  307   3.881   1.805  14.113 -1.1146  0.3407  0.0697
   20MPD2    C2  308   3.914   1.729  14.223 -0.3875 -0.5212 -0.0252
   20MPD2    C3  309   4.033   1.734  14.283 -0.0004 -0.3683  0.7908
   20MPD2    C4  310   4.121   1.825  14.235 -0.2364 -0.3283 -0.1118
   20MPD2    C5  311   4.086   1.915  14.133  0.5210 -0.8607 -0.6151
   20MPD2     H  312   3.834   1.663  14.254  0.4989 -0.8523  1.5503
   20MPD2    H1  313   4.219   1.831  14.281 -0.8318  1.0090  0.9957
   20MPD2    H2  314   3.939   1.976  13.991 -2.3305  0.6648  2.1027
   20MPD2    H3  315   4.154   1.992  14.099 -0.6085  0.4361  0.0855
   20MPD2     N  316   4.061   1.658  14.398  0.0488  0.6239  0.3349
   20MPD2    H5  317   4.156   1.669  14.432  0.3011  0.1722 -0.2225
   20MPD2    N1  318   3.759   1.773  14.061  0.5736 -0.2775  0.2385
   20MPD2    H7  319   3.697   1.702  14.101 -0.4122  0.4314 -0.0367
   21MPD2     C  320   1.582   2.088  14.279  0.3568 -1.0759 -0.1737
   21MPD2    C1  321   1.594   1.957  14.316  0.1286 -0.9528 -0.1950
   21MPD2    C2  322   1.516   1.907  14.418  0.4471 -0.5746  0.4713
   21MPD2    C3  323   1.419   1.984  14.477  0.0303  0.6607 -0.8042
   21MPD2    C4  324   1.388   2.108  14.426  0.4171 -0.1012  0.3002
   21MPD2    C5  325   1.479   2.164  14.338 -0.9096  0.0909  0.3046
   21MPD2     H  326   1.548   1.809  14.450  1.9082 -0.3753 -0.4076
   21MPD2    H1  327   1.302   2.151  14.477 -0.3656  0.3230 -1.3847
   21MPD2    H2  328   1.653   2.138  14.214 -1.7240  0.8962 -0.8966
   21MPD2    H3  329   1.459   2.263  14.299  2.9202  1.4034  1.6740
   21MPD2     N  330   1.342   1.947  14.586  0.2078  0.2263 -0.4457
   21MPD2    H5  331   1.278   2.020  14.616 -0.0640  0.1781 -0.9192
   21MPD2    N1  332   1.683   1.859  14.263  0.2144  0.3317 -0.0924
   21MPD2    H7  333   1.699   1.769  14.307  0.7496  0.8713  0.8231
   22TCq2    C1  334   1.365   1.837  14.666 -0.0885 -0.8756 -0.1068
   22TCq2    O2  335   1.429   1.736  14.644  0.3534 -0.4508 -0.0218
   22TCq2    C2  336   1.298   1.833  14.803 -0.0456  0.8990  0.0533
   22TCq2    C3  337   1.335   1.739  14.888  0.0467  0.2635 -0.7270
   22TCq2    C4  338   1.280   1.720  15.007 -0.0190  0.8510  0.4496
   22TCq2    C5  339   1.176   1.806  15.042 -0.6345 -0.4909 -0.3817
   22TCq2    C6  340   1.126   1.896  14.949 -0.7529 -0.0207  0.5040
   22TCq2    C7  341   1.187   1.907  14.829 -0.5770 -0.1810  0.5097
   22TCq2    C8  342   1.049   1.996  14.995  0.7727  0.5403 -0.8054
   22TCq2    O4  343   1.075   2.036  15.109 -0.3551  0.2002  0.3438
   22TCq2    C9  344   1.347   1.633  15.106 -0.2439  0.2060 -0.2480
   22TCq2    O5  345   1.441   1.558  15.070 -0.3030 -0.0747 -0.2218
   22TCq2    O6  346   1.314   1.644  15.225  0.2583  0.3546  0.1504
   22TCq2    H2  347   1.435   1.699  14.880 -0.5282 -1.2172 -0.4967
   22TCq2    H3  348   1.126   1.806  15.138 -0.4210  0.7742 -0.2636
   22TCq2    H4  349   1.154   1.982  14.758 -0.5198 -0.5498  0.0951
   23MPD2     C  350   2.939   2.915  15.097 -0.1422 -0.1967 -0.6124
   23MPD2    C1  351   2.829   2.863  15.157  0.3908 -0.7991 -0.1471
   23MPD2    C2  352   2.702   2.882  15.102  0.0638  0.0180 -0.9666
   23MPD2    C3  353   2.692   2.966  14.995  0.6642 -0.4386 -0.2148
   23MPD2    C4  354   2.805   3.018  14.938  0.6027  0.5000 -0.0859
   23MPD2    C5  355   2.930   2.993  14.984  0.8503 -0.2246 -0.2989
   23MPD2     H  356   2.618   2.825  15.140  0.5049 -0.5893 -0.9085
   23MPD2    H1  357   2.797   3.070  14.844 -1.7372  2.6803  1.3047
   23MPD2    H2  358   3.038   2.897  15.137 -0.6462 -3.2739 -0.7370
   23MPD2    H3  359   3.020   3.033  14.939  0.8695 -1.3802 -1.3047
   23MPD2     N  360   2.565   2.998  14.937 -0.3554  0.2156 -0.2574
   23MPD2    H5  361   2.570   3.066  14.861  1.4477  1.0224  0.5827
   23MPD2    N1  362   2.848   2.769  15.262  0.7451  0.5361  0.2322
   23MPD2    H7  363   2.941   2.765  15.301  0.6618 -0.5556  0.3146
   24TCq2    C1  364   2.446   2.935  14.968 -0.4032 -0.3462  0.0221
   24TCq2    O2  365   2.425   2.848  15.055  0.3537 -0.2767 -0.3312
   24TCq2    C2  366   2.334   2.987  14.898 -0.2029 -0.0128  0.6513
   24TCq2    C3  367   2.341   3.124  14.871 -0.5630  0.7552 -0.0874
   24TCq2    C4  368   2.257   3.170  14.772  0.0822  0.5508  0.0848
   24TCq2    C5  369   2.169   3.086  14.711 -0.0416  0.0546 -0.3428
   24TCq2    C6  370   2.160   2.954  14.746 -0.2646  0.6197 -0.5440
   24TCq2    C7  371   2.242   2.902  14.838 -0.0301 -0.2008 -0.0993
   24TCq2    C8  372   2.101   2.863  14.649 -0.9763 -0.6163  0.0070
   24TCq2    O4  373   2.106   2.744  14.679  0.2492 -0.3561 -0.0431
   24TCq2    C9  374   2.261   3.309  14.739 -0.1727  0.2517 -0.2938
   24TCq2    O5  375   2.178   3.361  14.664 -0.3950  0.3453  0.5873
   24TCq2    O6  376   2.366   3.367  14.775 -0.1555  0.4685 -0.0596
   24TCq2    H2  377   2.417   3.179  14.925 -1.8567 -0.6820  3.2030
   24TCq2    H3  378   2.088   3.124  14.651  0.4795  1.1993 -0.3289
   24TCq2    H4  379   2.248   2.800  14.876  0.5109  0.8825  2.7194
   25TMC2    C1  380   2.249   4.472  12.112  0.3541 -0.3384  0.6297
   25TMC2    C2  381   2.338   4.485  12.214  0.5163  0.5081  0.0774
   25TMC2    C3  382   2.298   4.469  12.341  0.2643 -0.0128  0.4608
   25TMC2    C4  383   2.117   4.437  12.140 -0.6752 -0.5785  0.0288
   25TMC2    C5  384   2.079   4.418  12.274 -0.4299 -0.2796  0.1329
   25TMC2    C6  385   2.165   4.446  12.377 -0.1008  0.0593  0.0267
   25TMC2     C  386   2.295   4.479  11.979  0.0332  0.2243 -0.3008
   25TMC2     O  387   2.417   4.468  11.957 -0.3787  0.3658 -0.1707
   25TMC2     H  388   2.441   4.514  12.200  0.3897 -0.2837 -2.5398
   25TMC2    H1  389   2.051   4.403  12.060 -0.9561 -2.3072  1.0013
   25TMC2    H2  390   2.134   4.446  12.481 -2.0715  0.0253 -0.5589
   25TMC2    C7  391   1.942   4.417  12.320 -0.3287 -0.1060  0.0295
   25TMC2    C8  392   2.399   4.506  12.439 -0.2101  0.9192 -0.1303
   25TMC2    O1  393   1.917   4.398  12.434 -0.3071 -1.0020 -0.8869
   25TMC2    O2  394   2.501   4.441  12.451 -0.1590  0.0693 -0.2570
   25TMC2    O5  395   2.384   4.640  12.420  0.0036 -0.0529 -0.8804
   25TMC2    H5  396   2.288   4.657  12.416  0.4655  2.6208 -0.5908
   26MPD2     C  397   2.223   4.605  11.471  0.6411  0.9436  0.8499
   26MPD2    C1  398   2.106   4.621  11.546 -0.0827 -0.0537 -0.3465
   26MPD2    C2  399   2.108   4.595  11.679 -0.4821  0.2424  0.5561
   26MPD2    C3  400   2.216   4.543  11.745  0.7536  0.2864  0.3002
   26MPD2    C4  401   2.326   4.516  11.668 -0.3556 -0.4585 -1.2437
   26MPD2    C5  402   2.328   4.548  11.539 -0.4865 -0.6579 -0.3356
   26MPD2     H  403   2.024   4.605  11.747 -2.2099 -0.0041 -1.5437
   26MPD2    H1  404   2.417   4.473  11.711 -1.4609 -0.6639  0.9106
   26MPD2    H2  405   2.227   4.622  11.364  1.5271  0.8756  0.8724
   26MPD2    H3  406   2.421   4.521  11.490  1.3558 -0.2446  2.9035
   26MPD2     N  407   2.191   4.500  11.884  0.1824  0.2431 -0.2915
   26MPD2    H5  408   2.100   4.519  11.925 -1.1973 -0.3142 -3.0955
   26MPD2    N1  409   1.988   4.646  11.476  0.5197 -0.2787 -0.3858
   26MPD2    H7  410   1.979   4.653  11.375  0.0644 -0.2969 -0.3490
   27TMC2    C1  411   4.681   3.283  12.231 -0.4822 -0.1431  0.1904
   27TMC2    C2  412   0.024   3.323  12.117 -0.2050 -0.1816 -1.4036
   27TMC2    C3  413   0.159   3.308  12.103 -0.5673 -0.1992  0.0575
   27TMC2    C4  414   0.039   3.227  12.334  0.3869  0.1342  0.2911
   27TMC2    C5  415   0.175   3.235  12.319  0.3071  0.2298  0.0597
   27TMC2    C6  416   0.240   3.275  12.208  0.3339 -0.9512  0.4164
   27TMC2     C  417   4.551   3.210  12.211  0.2708 -0.4042  0.1525
   27TMC2     O  418   4.501   3.204  12.100  0.1147 -0.4083  0.5908
   27TMC2     H  419   4.679   3.349  12.036 -1.3913  2.0655  0.3041
   27TMC2    H1  420   0.004   3.175  12.423  0.1839 -0.5138 -0.1648
   27TMC2    H2  421   0.348   3.275  12.210  0.3386  1.9829 -0.6331
   27TMC2    C7  422   0.257   3.157  12.412 -0.3456  0.0449 -0.3867
   27TMC2    C8  423   0.216   3.349  11.979 -0.1221  0.5256 -0.0191
   27TMC2    O1  424   0.207   3.061  12.468 -0.3600 -0.3020 -0.1058
   27TMC2    O2  425   0.155   3.404  11.888  0.2462 -0.3351  0.6132
   27TMC2    O5  426   0.339   3.310  11.962 -0.0059  0.1153 -0.6734
   27TMC2    H5  427   0.378   3.249  12.027 -1.1019  0.2185  0.0820
   28MPD2     C  428   4.272   2.808  12.368  0.4663 -0.2500 -0.7262
   28MPD2    C1  429   4.308   2.882  12.478 -0.0028 -0.0446 -0.2470
   28MPD2    C2  430   4.375   3.002  12.465  0.7827 -0.3359  0.3276
   28MPD2    C3  431   4.415   3.047  12.340  0.1584 -0.1296 -0.0652
   28MPD2    C4  432   4.362   2.975  12.231  0.3265  0.2468  0.2183
   28MPD2    C5  433   4.290   2.857  12.245 -0.6615  0.2444 -0.8109
   28MPD2     H  434   4.401   3.053  12.557 -0.3526 -0.7297  0.8587
   28MPD2    H1  435   4.377   3.011  12.130  2.1020  1.0251  0.7724
   28MPD2    H2  436   4.216   2.716  12.383 -1.0594  0.4054 -2.4279
   28MPD2    H3  437   4.261   2.798  12.159 -0.3164  1.0288 -1.4770
   28MPD2     N  438   4.506   3.151  12.327 -0.4835 -0.2453 -0.4435
   28MPD2    H5  439   4.543   3.190  12.413 -0.2167 -0.4977 -0.4406
   28MPD2    N1  440   4.272   2.828  12.604  0.1346 -0.3258  0.4575
   28MPD2    H7  441   4.235   2.734  12.613 -1.2618  0.2427  0.7006
   29MPD2     C  442   4.226   4.543  14.490 -0.4647  0.0652  0.0449
   29MPD2    C1  443   4.312   4.516  14.592 -0.7174  0.6023  0.0083
   29MPD2    C2  444   4.348   4.614  14.682 -0.6503 -0.3421  0.4593
   29MPD2    C3  445   4.296   0.016  14.672 -0.0786 -0.0534  0.1145
   29MPD2    C4  446   4.207   0.053  14.568 -0.1556 -0.0250  0.3934
   29MPD2    C5  447   4.171   4.674  14.479  0.1977 -0.6691 -0.2449
   29MPD2     H  448   4.414   4.586  14.764 -0.1762 -1.5922 -0.3523
   29MPD2    H1  449   4.168   0.153  14.551 -1.1469 -0.3261  0.9051
   29MPD2    H2  450   4.192   4.471  14.416 -1.0753  0.8552 -0.4508
   29MPD2    H3  451   4.103   4.697  14.398  0.6011  1.1353 -0.0802
   29MPD2     N  452   4.321   0.112  14.765 -0.1804  0.1068 -0.6493
   29MPD2    H5  453   4.275   0.198  14.736  1.1624  0.4022 -1.9045
   29MPD2    N1  454   4.382   4.394  14.603  0.1233  0.5802 -0.4000
   29MPD2    H7  455   4.450   4.400  14.679  0.7994 -1.3598 -0.8608
   30TCq2    C1  456   4.404   0.109  14.881 -0.1741 -0.4259 -0.3579
   30TCq2    O2  457   4.458   0.014  14.932 -0.0328 -0.0605 -0.9689
   30TCq2    C2  458   4.453   0.240  14.927 -0.6818 -0.2800  0.5164
   30TCq2    C3  459   4.471   0.259  15.065 -0.1078 -0.3131 -0.2144
   30TCq2    C4  460   4.517   0.383  15.108  0.1834 -0.5380  0.2754
   30TCq2    C5  461   4.568   0.468  15.016  0.5829 -0.2208  0.1261
   30TCq2    C6  462   4.566   0.441  14.879 -0.5230  0.6467 -0.7858
   30TCq2    C7  463   4.498   0.329  14.833  0.3080  0.0429 -0.4720
   30TCq2    C8  464   4.607   0.542  14.778  0.1082  0.5571  0.4422
   30TCq2    O4  465   4.557   0.542  14.665  0.2196 -0.0755  0.7550
   30TCq2    C9  466   4.537   0.404  15.254  0.2201 -0.2100  0.4095
   30TCq2    O5  467   4.610   0.500  15.284 -0.0236  0.3733 -0.3372
   30TCq2    O6  468   4.464   0.330  15.331 -0.1578 -0.2707  0.1564
   30TCq2    H2  469   4.451   0.187  15.144 -0.0929  0.1853  0.2403
   30TCq2    H3  470   4.617   0.551  15.066 -1.3147  1.8677 -1.4796
   30TCq2    H4  471   4.505   0.311  14.727  0.8104  3.8210 -1.0849
   31MPD2     C  472   2.114   3.619  14.985 -0.3873 -0.0359  0.2676
   31MPD2    C1  473   2.205   3.715  15.021  0.2756 -0.3493  0.3029
   31MPD2    C2  474   2.238   3.751  15.148 -0.7217  0.5132 -0.1974
   31MPD2    C3  475   2.155   3.692  15.252 -0.7449  0.7592 -0.9034
   31MPD2    C4  476   2.066   3.593  15.223  0.2740 -0.3269 -0.3993
   31MPD2    C5  477   2.051   3.553  15.093  0.0327  0.2890 -0.2340
   31MPD2     H  478   2.297   3.840  15.164 -1.5775  1.3225 -1.5999
   31MPD2    H1  479   2.012   3.539  15.301 -1.3338 -0.3805 -1.5452
   31MPD2    H2  480   2.083   3.601  14.883  0.3901 -1.1916  0.2338
   31MPD2    H3  481   1.985   3.468  15.079  0.5071 -0.2458  0.7538
   31MPD2     N  482   2.181   3.713  15.388 -0.4920  0.0701  0.0212
   31MPD2    H5  483   2.118   3.672  15.456 -0.5556  0.9610  0.4886
   31MPD2    N1  484   2.267   3.765  14.902  0.8245  0.4553  0.2271
   31MPD2    H7  485   2.252   3.704  14.822  2.3142  1.2030 -0.6291
   32TCq2    C1  486   2.276   3.797  15.444  0.3173 -1.0941  0.4755
   32TCq2    O2  487   2.377   3.847  15.397  0.1486 -0.4507  0.2774
   32TCq2    C2  488   2.238   3.834  15.581 -0.5265  0.5022  0.0060
   32TCq2    C3  489   2.183   3.959  15.596  0.1961 -0.3727  0.4238
   32TCq2    C4  490   2.161   4.000  15.724  0.1657  0.4852 -0.2883
   32TCq2    C5  491   2.205   3.932  15.837 -0.5363 -0.3504 -0.4521
   32TCq2    C6  492   2.267   3.811  15.811  0.3391 -0.3890  0.3774
   32TCq2    C7  493   2.283   3.757  15.689 -0.8054 -1.0962  0.3745
   32TCq2    C8  494   2.296   3.729  15.930 -0.1918  0.3904  0.1349
   32TCq2    O4  495   2.313   3.605  15.916  0.0158 -0.5332 -0.4246
   32TCq2    C9  496   2.093   4.126  15.728  0.1707 -1.0085 -0.4642
   32TCq2    O5  497   2.107   4.195  15.830 -0.3834 -0.0433  0.3156
   32TCq2    O6  498   2.048   4.173  15.622 -0.4704 -0.7387 -0.4631
   32TCq2    H2  499   2.158   4.017  15.508 -0.5813 -2.8033 -0.9759
   32TCq2    H3  500   2.184   3.981  15.931  1.8667 -0.5379  0.1780
   32TCq2    H4  501   2.310   3.654  15.667 -1.3104 -0.9945 -0.7472
   33MPD2     C  502   3.055   1.844  10.670 -0.1669  0.4164 -0.4945
   33MPD2    C1  503   2.966   1.751  10.625 -0.4500  0.9674  0.5630
   33MPD2    C2  504   2.914   1.769  10.497 -0.1770 -0.1053  0.0763
   33MPD2    C3  505   2.961   1.871  10.416  0.3970  0.2110 -0.3176
   33MPD2    C4  506   3.059   1.963  10.465  0.3550  0.3454  0.1278
   33MPD2    C5  507   3.106   1.943  10.590  0.5200  0.1937 -0.5523
   33MPD2     H  508   2.843   1.695  10.463 -0.0710 -0.3450  0.3720
   33MPD2    H1  509   3.099   2.047  10.409  0.8872 -0.0718 -0.1146
   33MPD2    H2  510   3.097   1.838  10.770  1.2894  0.6772 -1.0980
   33MPD2    H3  511   3.187   2.006  10.626  0.6284 -0.6494  0.6820
   33MPD2     N  512   2.906   1.899  10.288 -0.1056 -0.0458  0.5777
   33MPD2    H5  513   2.950   1.969  10.229 -0.6920  0.5859  0.8892
   33MPD2    N1  514   2.925   1.636  10.702  0.0551 -0.1768 -0.1374
   33MPD2    H7  515   2.881   1.567  10.643  1.8531 -0.1322 -1.5495
   34TCq2    C1  516   2.803   1.838  10.228  0.4717 -0.6630  0.3028
   34TCq2    O2  517   2.746   1.733  10.250  0.1056  0.2900  0.0388
   34TCq2    C2  518   2.754   1.910  10.105 -0.6763  0.4232  0.8401
   34TCq2    C3  519   2.642   1.854  10.046  0.5959 -0.2872  0.2258
   34TCq2    C4  520   2.592   1.920   9.935  0.7527 -0.0762  0.0688
   34TCq2    C5  521   2.634   2.046   9.897 -0.0298 -0.3821  0.4260
   34TCq2    C6  522   2.732   2.105   9.970 -0.9473 -0.2500  0.4473
   34TCq2    C7  523   2.801   2.035  10.068  0.2417 -0.3287 -0.2211
   34TCq2    C8  524   2.796   2.224   9.915  0.2741  0.1523 -0.0150
   34TCq2    O4  525   2.867   2.291   9.986 -0.6752  0.2236  0.5301
   34TCq2    C9  526   2.483   1.866   9.855  0.2435  0.0111  0.0693
   34TCq2    O5  527   2.480   1.740   9.854  0.1863 -0.2787 -0.9161
   34TCq2    O6  528   2.421   1.946   9.786 -0.0028  0.3468  0.2200
   34TCq2    H2  529   2.602   1.758  10.077 -0.8917 -0.0654 -1.0323
   34TCq2    H3  530   2.578   2.105   9.826  1.0537  0.3201  0.1609
   34TCq2    H4  531   2.881   2.091  10.114 -1.1429  0.5083  1.2049
   35MPD2     C  532   3.726   3.175  11.806 -0.1645  0.6827 -0.1127
   35MPD2    C1  533   3.675   3.079  11.873 -0.5846  0.2570 -0.1017
   35MPD2    C2  534   3.547   3.034  11.841 -0.1466  0.6119 -0.0671
   35MPD2    C3  535   3.489   3.078  11.719  0.2402 -0.5439  0.4919
   35MPD2    C4  536   3.551   3.171  11.637 -0.0859  0.2028  0.2571
   35MPD2    C5  537   3.673   3.223  11.683  0.2467  0.4412 -0.3008
   35MPD2     H  538   3.495   2.956  11.895  0.6174 -1.0480 -1.7061
   35MPD2    H1  539   3.517   3.209  11.542 -0.0244 -0.4917 -0.0389
   35MPD2    H2  540   3.815   3.224  11.841 -1.6968  1.5514  2.5222
   35MPD2    H3  541   3.723   3.299  11.626 -0.1819  2.2258  1.7188
   35MPD2     N  542   3.370   3.017  11.677 -0.7979 -0.5983  0.0745
   35MPD2    H5  543   3.337   2.932  11.720  0.5818 -1.6024 -0.8382
   35MPD2    N1  544   3.746   3.038  11.990 -0.0327 -0.4269  0.5169
   35MPD2    H7  545   3.843   3.068  11.995 -0.1497  0.0949 -0.5019
   36TCq2    C1  546   3.280   3.066  11.580 -0.6324 -0.0646 -0.2218
   36TCq2    O2  547   3.268   3.174  11.516 -0.7477 -0.1898  0.2221
   36TCq2    C2  548   3.164   2.982  11.572  0.8169 -0.3652  0.3903
   36TCq2    C3  549   3.034   3.035  11.546  0.8146 -0.1588  0.0167
   36TCq2    C4  550   2.938   2.937  11.519  0.5695 -0.4390  0.4416
   36TCq2    C5  551   2.963   2.809  11.524 -0.2275  0.2547  0.6923
   36TCq2    C6  552   3.087   2.763  11.557  0.1992 -0.3156 -0.3894
   36TCq2    C7  553   3.189   2.847  11.585  0.4542 -0.2271  0.0818
   36TCq2    C8  554   3.114   2.617  11.549 -0.1247 -0.4750  0.1256
   36TCq2    O4  555   3.188   2.572  11.636  0.2066  0.4468 -0.5678
   36TCq2    C9  556   2.801   2.988  11.505 -0.0143 -0.3663  0.0745
   36TCq2    O5  557   2.717   2.898  11.479  0.0261 -0.3648  0.3628
   36TCq2    O6  558   2.783   3.111  11.530 -0.7304  0.1404 -0.3160
   36TCq2    H2  559   3.020   3.142  11.541 -0.1004 -0.3746 -2.3755
   36TCq2    H3  560   2.892   2.727  11.523 -1.0502  0.9506  1.9618
   36TCq2    H4  561   3.287   2.810  11.612  0.8228  1.2574  0.8188
   37TMC2    C1  562   1.434   3.214  11.915 -0.3104  0.3719  0.7431
   37TMC2    C2  563   1.368   3.297  11.828 -0.6754  0.1609 -0.2060
   37TMC2    C3  564   1.427   3.324  11.706  0.5585 -0.2045  0.1999
   37TMC2    C4  565   1.550   3.158  11.882 -0.2601  0.0058  0.6720
   37TMC2    C5  566   1.602   3.178  11.756 -0.2645 -0.1166  0.0852
   37TMC2    C6  567   1.540   3.260  11.668 -0.1502 -0.3461 -0.1840
   37TMC2     C  568   1.349   3.162  12.018 -0.6772 -0.3338 -0.2126
   37TMC2     O  569   1.246   3.213  12.055  0.0565 -0.0666  0.0798
   37TMC2     H  570   1.275   3.344  11.856 -0.8271 -0.2583 -0.0051
   37TMC2    H1  571   1.598   3.084  11.946 -0.7163 -1.5468 -0.7598
   37TMC2    H2  572   1.579   3.258  11.567 -0.5825  1.6440 -0.3932
   37TMC2    C7  573   1.721   3.110  11.720 -0.7988 -0.2175 -0.5461
   37TMC2    C8  574   1.384   3.446  11.638 -1.5126  0.0108 -0.2429
   37TMC2    O1  575   1.737   3.012  11.789 -0.0606  0.8788  0.0316
   37TMC2    O2  576   1.275   3.497  11.661  0.3365  0.2134  0.0613
   37TMC2    O5  577   1.484   3.495  11.566  0.4578 -0.5383 -0.1009
   37TMC2    H5  578   1.575   3.458  11.574 -0.1674 -1.7106  1.3775
   38MPD2     C  579   1.203   2.765  12.287 -1.6195  0.1967 -0.1670
   38MPD2    C1  580   1.327   2.738  12.237  0.0251 -0.1844  0.3896
   38MPD2    C2  581   1.383   2.823  12.145  0.4966  0.0204  0.3686
   38MPD2    C3  582   1.316   2.940  12.122  0.8044  0.2252 -0.1859
   38MPD2    C4  583   1.185   2.962  12.161 -0.4464 -0.1594  0.1898
   38MPD2    C5  584   1.129   2.871  12.243 -0.1979 -0.1143  0.4339
   38MPD2     H  585   1.484   2.803  12.109  0.6187  1.7452 -0.2782
   38MPD2    H1  586   1.113   3.037  12.131 -1.7159 -1.7748 -0.8296
   38MPD2    H2  587   1.150   2.692  12.347  2.6437 -0.9660  2.1700
   38MPD2    H3  588   1.023   2.885  12.258 -0.2226 -0.9058  1.0079
   38MPD2     N  589   1.387   3.028  12.038 -0.1734  0.4953  0.5570
   38MPD2    H5  590   1.478   2.994  12.009 -0.4373 -0.8163  1.2607
   38MPD2    N1  591   1.395   2.621  12.274 -0.4428 -0.3118 -0.3836
   38MPD2    H7  592   1.491   2.612  12.243  0.1398 -4.0522  2.4931
   39MPD2     C  593   3.954   1.175   2.166  0.4574 -0.3118 -0.4686
   39MPD2    C1  594   4.042   1.096   2.099  0.8641 -0.0115  1.2314
   39MPD2    C2  595   3.999   0.972   2.053 -0.2258 -0.0952  0.3359
   39MPD2    C3  596   3.881   0.915   2.095 -0.2964 -0.1861  1.4238
   39MPD2    C4  597   3.792   1.002   2.169  0.3592 -0.0075 -0.4607
   39MPD2    C5  598   3.828   1.126   2.199  0.2139 -0.2159 -0.2743
   39MPD2     H  599   4.064   0.911   1.991  2.3327  1.4564  1.5023
   39MPD2    H1  600   3.697   0.963   2.204  1.8806 -0.7518  2.8113
   39MPD2    H2  601   3.975   1.279   2.185  0.2268 -0.2774 -0.3961
   39MPD2    H3  602   3.756   1.180   2.259  0.9648  1.6031 -0.9964
   39MPD2     N  603   3.836   0.784   2.056 -0.0410 -0.6746 -0.4389
   39MPD2    H5  604   3.735   0.774   2.067  0.3652 -0.9979  3.0111
   39MPD2    N1  605   4.174   1.147   2.079  0.5029  0.6530 -0.5978
   39MPD2    H7  606   4.200   1.233   2.127  0.6075 -0.7829  1.8768
   40TCq2    C1  607   4.273   1.089   2.000  0.6915 -0.1338 -0.2016
   40TCq2    O2  608   4.277   0.971   1.965 -0.1233 -0.1475 -0.1887
   40TCq2    C2  609   4.394   1.174   1.973 -0.1331  0.0922  0.3606
   40TCq2    C3  610   4.412   1.296   2.024  0.3781  0.1412 -0.4254
   40TCq2    C4  611   4.547   1.333   2.039 -0.0916 -0.0906 -0.0173
   40TCq2    C5  612   4.655   1.256   1.995 -0.6232 -0.0352  0.2452
   40TCq2    C6  613   4.624   1.130   1.946  0.0232 -0.6433 -0.4567
   40TCq2    C7  614   4.495   1.093   1.931  1.2285 -0.7428  0.3890
   40TCq2    C8  615   0.009   1.031   1.934  0.2686 -0.0576  0.0880
   40TCq2    O4  616   4.696   0.909   1.938 -0.2031  0.2803  0.1850
   40TCq2    C9  617   4.571   1.456   2.105 -0.3534  1.2220 -0.2346
   40TCq2    O5  618   4.688   1.496   2.101 -0.3144  0.6099 -0.4648
   40TCq2    O6  619   4.477   1.492   2.179  0.7388  0.8297  0.1712
   40TCq2    H2  620   4.329   1.361   2.048  0.6341  1.1385 -2.2463
   40TCq2    H3  621   0.029   1.304   2.013 -0.3722 -0.7062  0.7441
   40TCq2    H4  622   4.481   0.988   1.905 -2.2358 -0.4392  0.9569
   41TMC2    C1  623   2.670   2.482  13.278 -0.9259 -0.2512  0.5140
   41TMC2    C2  624   2.564   2.412  13.330 -0.4185  0.4681 -0.4062
   41TMC2    C3  625   2.483   2.343  13.242  0.8498 -0.1638  0.5382
   41TMC2    C4  626   2.699   2.484  13.145 -0.4037 -0.1133  1.2732
   41TMC2    C5  627   2.617   2.418  13.059 -0.4154  0.1331  0.5411
   41TMC2    C6  628   2.506   2.358  13.108 -0.4589  0.8101  0.5188
   41TMC2     C  629   2.766   2.546  13.369  0.1656 -0.0540 -0.5089
   41TMC2     O  630   2.713   2.604  13.460  0.0460 -0.3778 -0.4513
   41TMC2     H  631   2.535   2.417  13.434  0.8459  1.7688 -0.1110
   41TMC2    H1  632   2.770   2.557  13.105 -2.3419  1.2833  0.3699
   41TMC2    H2  633   2.449   2.298  13.038 -0.1889  0.1017  0.9053
   41TMC2    C7  634   2.628   2.436  12.918  0.9419 -0.3005  0.0293
   41TMC2    C8  635   2.343   2.324  13.280  0.2293  0.3434 -0.1506
   41TMC2    O1  636   2.519   2.443  12.859 -0.0627 -0.1916  0.1786
   41TMC2    O2  637   2.271   2.231  13.249 -0.1125  0.0915  0.2953
   41TMC2    O5  638   2.293   2.438  13.343 -0.8245 -0.1881  0.1866
   41TMC2    H5  639   2.346   2.520  13.340  0.5372 -1.0383  0.7412
   42MPD2     C  640   3.136   2.507  13.354 -0.1344  0.6814 -0.4242
   42MPD2    C1  641   3.015   2.556  13.390 -0.3117 -0.7159  0.0472
   42MPD2    C2  642   3.008   2.652  13.492 -0.2954 -0.6093  0.3330
   42MPD2    C3  643   3.121   2.690  13.563 -0.0591  0.6195 -0.4941
   42MPD2    C4  644   3.231   2.622  13.534 -0.0909 -0.0482  0.6328
   42MPD2    C5  645   3.248   2.532  13.426  0.1993 -0.3093 -0.5886
   42MPD2     H  646   2.919   2.714  13.502 -0.6386 -1.0580  0.0718
   42MPD2    H1  647   3.317   2.638  13.597 -1.0952 -0.9701  2.2455
   42MPD2    H2  648   3.142   2.441  13.269 -0.3299 -0.7863  0.7120
   42MPD2    H3  649   3.343   2.486  13.402  0.0448 -1.0898  0.2930
   42MPD2     N  650   3.131   2.777  13.670 -0.2161  0.1018  0.1869
   42MPD2    H5  651   3.221   2.792  13.714  0.3446 -0.9742 -0.6070
   42MPD2    N1  652   2.894   2.504  13.332  0.2619  0.0875  0.4179
   42MPD2    H7  653   2.913   2.441  13.255 -1.0373  0.4255 -0.1765
   43MPD2     C  654   4.418   1.352   0.412  0.1348 -0.8004  0.0256
   43MPD2    C1  655   4.522   1.325   0.497 -0.1320  0.2923 -0.1144
   43MPD2    C2  656   4.508   1.363   0.633  0.0507 -0.7278 -0.5728
   43MPD2    C3  657   4.391   1.417   0.683  0.0366  0.2215 -0.1572
   43MPD2    C4  658   4.291   1.450   0.594  0.3296  0.4050 -0.1793
   43MPD2    C5  659   4.309   1.422   0.459 -0.2215  0.5082 -0.0087
   43MPD2     H  660   4.595   1.340   0.695  0.4816  0.1795 -0.8432
   43MPD2    H1  661   4.193   1.492   0.615  0.5524  0.7376  0.2049
   43MPD2    H2  662   4.425   1.333   0.305  0.4808 -0.5096 -0.0043
   43MPD2    H3  663   4.245   1.465   0.384 -0.4467 -0.6478 -0.4669
   43MPD2     N  664   4.358   1.436   0.818  0.3801  0.0276 -1.2502
   43MPD2    H5  665   4.273   1.486   0.841  2.2719  2.0007  1.4762
   43MPD2    N1  666   4.646   1.270   0.463 -0.4250  0.0077 -0.2140
   43MPD2    H7  667   4.713   1.254   0.538  0.3185 -0.3365 -0.9538
   44TCq2    C1  668   4.535   1.578   1.358 -0.3122  0.1921 -0.2452
   44TCq2    O2  669   4.638   1.633   1.319 -0.9367 -0.1665  0.5785
   44TCq2    C2  670   4.439   1.536   1.260  0.5093  0.3110 -0.2950
   44TCq2    C3  671   4.301   1.548   1.282  0.6565  1.1776 -0.7103
   44TCq2    C4  672   4.211   1.487   1.194 -0.4578  0.0058  0.6649
   44TCq2    C5  673   4.258   1.430   1.078  0.3027 -0.6155  0.2705
   44TCq2    C6  674   4.392   1.429   1.053 -0.2081 -0.3182 -0.2385
   44TCq2    C7  675   4.488   1.484   1.144 -0.1917  1.9350  0.7500
   44TCq2    C8  676   4.443   1.409   0.918  0.3093  0.6858  0.6302
   44TCq2    O4  677   4.559   1.364   0.918 -0.4005 -0.5139 -0.0056
   44TCq2    C9  678   4.080   1.498   1.222 -0.1887  0.7789 -1.1970
   44TCq2    O5  679   4.004   1.436   1.144 -0.2552 -0.0234 -0.0159
   44TCq2    O6  680   4.051   1.589   1.299  0.1366 -0.0099 -0.3549
   44TCq2    H2  681   4.260   1.610   1.361  0.4240 -1.8945  1.5616
   44TCq2    H3  682   4.195   1.370   1.014 -0.6424  1.4936 -0.7610
   44TCq2    H4  683   4.594   1.461   1.145 -0.5465  0.3027  0.1601
   45TMC2    C1  684   0.823   4.043   9.428  0.4202 -0.2308  0.4914
   45TMC2    C2  685   0.714   4.076   9.355  0.2321  0.1016 -0.4190
   45TMC2    C3  686   0.699   4.200   9.315 -0.0416 -0.4081  0.7049
   45TMC2    C4  687   0.909   4.138   9.476 -0.4673  0.1035  0.4202
   45TMC2    C5  688   0.900   4.263   9.420  0.8949 -0.3721 -0.2765
   45TMC2    C6  689   0.794   4.297   9.344 -0.3615  0.6113  0.0206
   45TMC2     C  690   0.832   3.906   9.484 -0.1993  0.5440 -0.4880
   45TMC2     O  691   0.906   3.900   9.580  0.6918 -0.0163  0.6350
   45TMC2     H  692   0.640   4.004   9.323  0.4247 -0.4516  0.3785
   45TMC2    H1  693   1.002   4.117   9.527  0.3942  0.5035 -0.9679
   45TMC2    H2  694   0.786   4.400   9.313 -2.9089  0.6701  0.9089
   45TMC2    C7  695   1.003   4.354   9.424 -0.3191 -0.4071  0.0776
   45TMC2    C8  696   0.587   4.230   9.227  0.7115 -0.1099 -0.5659
   45TMC2    O1  697   0.995   4.457   9.364 -0.4992 -0.0363  0.3146
   45TMC2    O2  698   0.481   4.166   9.235 -0.2768 -0.1148 -0.4230
   45TMC2    O5  699   0.643   4.281   9.115  0.6175 -0.0826  0.1140
   45TMC2    H5  700   0.733   4.317   9.129  0.2207  0.4850  1.1941
   46MPD2     C  701   0.856   3.602   9.508 -1.6384  0.2041 -0.6058
   46MPD2    C1  702   0.789   3.670   9.416  0.1657 -0.0902 -0.4032
   46MPD2    C2  703   0.712   3.594   9.330  0.5517  0.3737 -0.1341
   46MPD2    C3  704   0.697   3.458   9.334 -0.2008  0.3042 -0.2383
   46MPD2    C4  705   0.776   3.387   9.419 -0.0002  0.0328  0.4294
   46MPD2    C5  706   0.849   3.467   9.504 -0.6158  0.6915 -0.3820
   46MPD2     H  707   0.661   3.648   9.251  1.6937 -0.0609 -1.1554
   46MPD2    H1  708   0.772   3.279   9.430  0.9320  0.3151  3.5707
   46MPD2    H2  709   0.924   3.652   9.576 -0.5959  0.6782 -1.9860
   46MPD2    H3  710   0.916   3.419   9.575 -0.2217  1.6179 -0.1375
   46MPD2     N  711   0.614   3.396   9.237 -0.1320 -0.3536 -0.1537
   46MPD2    H5  712   0.554   3.452   9.178 -1.0547 -0.3504  0.7759
   46MPD2    N1  713   0.777   3.806   9.407 -0.0710 -0.0780  0.1296
   46MPD2    H7  714   0.723   3.834   9.326 -2.3348  3.7058  2.9786
   47TMC2    C1  715   2.597   4.257   9.293 -0.7330 -0.4504  0.0375
   47TMC2    C2  716   2.656   4.234   9.172  0.4357  0.0599 -0.7666
   47TMC2    C3  717   2.585   4.216   9.064 -0.2850  0.4547 -0.5339
   47TMC2    C4  718   2.463   4.269   9.307 -1.0216  0.4267  0.3661
   47TMC2    C5  719   2.391   4.251   9.191  0.6534  0.1052  0.4817
   47TMC2    C6  720   2.443   4.228   9.074 -0.4041  0.3431 -0.0452
   47TMC2     C  721   2.667   4.314   9.400  0.2606 -0.5628  0.7465
   47TMC2     O  722   2.615   4.402   9.466  0.4912  0.4400  0.4329
   47TMC2     H  723   2.761   4.260   9.170  0.2368  0.9554  0.0487
   47TMC2    H1  724   2.419   4.270   9.406 -1.5539 -2.9217  0.1758
   47TMC2    H2  725   2.385   4.219   8.982 -0.9126  3.8568 -0.0533
   47TMC2    C7  726   2.248   4.263   9.203 -0.0674  0.1922 -0.4702
   47TMC2    C8  727   2.649   4.195   8.940  0.2486 -0.3454 -0.5271
   47TMC2    O1  728   2.205   4.269   9.319  0.5168 -0.1103 -0.0515
   47TMC2    O2  729   2.756   4.140   8.926  0.1728  0.3288  0.4176
   47TMC2    O5  730   2.602   4.289   8.857  0.2744  0.0624  0.0233
   47TMC2    H5  731   2.528   4.341   8.894  0.5411  0.0206  0.6160
   48MPD2     C  732   2.867   4.361   9.632  0.2717  0.3804 -0.1624
   48MPD2    C1  733   2.884   4.277   9.520 -0.4427 -0.2327 -0.2676
   48MPD2    C2  734   2.999   4.201   9.524 -1.0315  0.8722 -0.4840
   48MPD2    C3  735   3.092   4.200   9.633 -0.8509  0.1171  0.1748
   48MPD2    C4  736   3.078   4.294   9.727 -0.3988 -0.7375  0.0300
   48MPD2    C5  737   2.969   4.376   9.728 -0.1122 -0.1717  0.2560
   48MPD2     H  738   3.024   4.131   9.445 -2.6360 -0.4910  0.2154
   48MPD2    H1  739   3.134   4.294   9.819  2.6281 -0.2192 -1.8344
   48MPD2    H2  740   2.786   4.432   9.645  0.2731  0.4572 -0.6012
   48MPD2    H3  741   2.954   4.455   9.800  1.7025  0.3010  0.1109
   48MPD2     N  742   3.210   4.113   9.627 -0.2238 -0.0557  0.3516
   48MPD2    H5  743   3.190   4.024   9.582 -0.6638  0.2923 -0.1415
   48MPD2    N1  744   2.787   4.247   9.422  0.1724 -0.1566  0.8199
   48MPD2    H7  745   2.809   4.165   9.367 -0.5891  0.1346  0.0859
   49MPD2     C  746   0.450   1.191   9.562 -0.4864  0.0907 -0.0429
   49MPD2    C1  747   0.429   1.106   9.671 -0.0543 -0.0810  0.3234
   49MPD2    C2  748   0.491   1.131   9.789 -0.5626 -0.3782 -0.1420
   49MPD2    C3  749   0.579   1.232   9.810  0.8321  0.5661  0.6927
   49MPD2    C4  750   0.607   1.315   9.702  0.0767  0.0804  0.3330
   49MPD2    C5  751   0.536   1.299   9.582 -0.1400  0.1825  0.7458
   49MPD2     H  752   0.450   1.076   9.873  0.7278 -1.0823  0.0350
   49MPD2    H1  753   0.663   1.406   9.720 -1.1523  0.3445  2.9040
   49MPD2    H2  754   0.412   1.180   9.462  0.3967  0.9261 -0.4685
   49MPD2    H3  755   0.564   1.362   9.498 -0.1425 -2.4435 -1.2316
   49MPD2     N  756   0.637   1.263   9.931 -0.6605  0.1984  0.1434
   49MPD2    H5  757   0.719   1.322   9.933 -1.6744  1.5872  0.2581
   49MPD2    N1  758   0.342   1.004   9.664 -0.1588 -0.3261 -0.3913
   49MPD2    H7  759   0.327   0.953   9.751  0.8955 -1.0980 -0.6470
   50TCq2    C1  760   0.260   0.980   9.560 -0.1802  0.1965  0.1239
   50TCq2    O2  761   0.239   1.042   9.455 -0.1677 -0.4064 -0.3933
   50TCq2    C2  762   0.176   0.863   9.588  0.0640  0.3952 -0.1814
   50TCq2    C3  763   0.053   0.873   9.531 -0.0472  0.9325 -0.5504
   50TCq2    C4  764   4.690   0.771   9.555 -0.1622 -0.3363  0.0394
   50TCq2    C5  765   0.012   0.654   9.617  0.9032  0.4488  0.1323
   50TCq2    C6  766   0.140   0.643   9.662  0.1833 -0.1651  0.1752
   50TCq2    C7  767   0.235   0.747   9.645 -0.0003 -0.2313  0.7777
   50TCq2    C8  768   0.178   0.526   9.736 -0.5567  0.7174 -0.4671
   50TCq2    O4  769   0.088   0.447   9.762  0.7251 -0.6264  0.2045
   50TCq2    C9  770   4.546   0.780   9.526 -1.0439  0.7971 -1.0819
   50TCq2    O5  771   4.516   0.880   9.458 -0.0692 -0.1658 -0.8772
   50TCq2    O6  772   4.466   0.694   9.570 -0.1107  0.2689 -0.0471
   50TCq2    H2  773   0.016   0.970   9.500  3.6146  2.6122  0.3546
   50TCq2    H3  774   4.664   0.579   9.653 -0.2550  1.3090 -0.3034
   50TCq2    H4  775   0.339   0.747   9.675  0.5614  1.3992 -1.1772
   51MPD2     C  776   2.643   2.721   1.660 -0.1988 -0.4581  0.4305
   51MPD2    C1  777   2.644   2.835   1.581  0.0930 -0.1297 -0.0027
   51MPD2    C2  778   2.727   2.936   1.629 -0.7414  0.4198  0.2141
   51MPD2    C3  779   2.816   2.930   1.732  0.7738  0.6190 -0.1372
   51MPD2    C4  780   2.834   2.804   1.790 -0.0258  0.3019  0.5376
   51MPD2    C5  781   2.744   2.706   1.754 -0.3808  0.0884 -0.2705
   51MPD2     H  782   2.718   3.032   1.580 -3.2931  0.0022 -0.1175
   51MPD2    H1  783   2.904   2.790   1.872  0.2404 -0.5182  0.1676
   51MPD2    H2  784   2.581   2.637   1.634  1.4658 -0.3946 -3.7615
   51MPD2    H3  785   2.742   2.611   1.807  1.8335 -0.8458 -1.8717
   51MPD2     N  786   2.900   3.034   1.778  0.4976  0.1412 -0.2055
   51MPD2    H5  787   2.965   3.006   1.851  0.6756 -1.4551 -0.9765
   51MPD2    N1  788   2.561   2.867   1.470 -0.7725  0.6862 -0.0802
   51MPD2    H7  789   2.570   2.962   1.436  2.1890 -0.1710 -1.6707
   52TCq2    C1  790   2.905   3.164   1.746 -0.0772  0.3494  0.5719
   52TCq2    O2  791   2.845   3.225   1.661 -0.0518 -0.4327  0.0958
   52TCq2    C2  792   2.976   3.251   1.844 -0.3220  0.3031  0.2821
   52TCq2    C3  793   3.013   3.200   1.965  0.2672 -0.0326  0.7608
   52TCq2    C4  794   3.096   3.271   2.045  0.2589  0.5909 -0.0014
   52TCq2    C5  795   3.128   3.397   2.007  0.0269  0.1717  0.5116
   52TCq2    C6  796   3.093   3.443   1.877  0.0267  0.0866 -0.1410
   52TCq2    C7  797   3.026   3.366   1.793  0.3964 -0.5856 -0.4011
   52TCq2    C8  798   3.141   3.568   1.836 -0.5681 -0.1905 -0.4536
   52TCq2    O4  799   3.150   3.663   1.920 -0.3574 -0.0054 -0.5732
   52TCq2    C9  800   3.128   3.231   2.185  0.5461 -0.3756  0.2659
   52TCq2    O5  801   3.117   3.109   2.210  0.1763  0.0313 -0.0868
   52TCq2    O6  802   3.181   3.323   2.248  0.4433  0.3976  0.1882
   52TCq2    H2  803   2.981   3.104   2.005 -0.8391  0.5395  1.2686
   52TCq2    H3  804   3.178   3.470   2.069 -0.7073  0.1168  1.1701
   52TCq2    H4  805   2.994   3.387   1.691 -0.0942  0.6361  0.0067
   53TMC2    C1  806   2.341   2.751  11.849 -0.0372  0.7713  0.0002
   53TMC2    C2  807   2.465   2.743  11.909  0.6844 -0.2639  0.0060
   53TMC2    C3  808   2.473   2.677  12.029  0.2105  0.5004 -0.1774
   53TMC2    C4  809   2.231   2.691  11.897  0.0981  0.0178 -0.3896
   53TMC2    C5  810   2.247   2.620  12.017 -0.4172  0.0588  0.5896
   53TMC2    C6  811   2.361   2.619  12.092  0.6048  0.4206  0.0026
   53TMC2     C  812   2.330   2.853  11.746  0.5344  0.4033 -0.8789
   53TMC2     O  813   2.418   2.864  11.663 -0.0853 -0.0200  0.3832
   53TMC2     H  814   2.549   2.799  11.869  0.1589 -0.1791 -0.9918
   53TMC2    H1  815   2.138   2.706  11.844 -0.1392 -0.6086 -0.1508
   53TMC2    H2  816   2.382   2.550  12.173 -1.0573 -0.6484 -0.4907
   53TMC2    C7  817   2.132   2.649  12.100  0.7788 -0.6615 -0.5803
   53TMC2    C8  818   2.603   2.625  12.054 -0.2408  0.2702  0.2341
   53TMC2    O1  819   2.028   2.684  12.040  0.0130 -0.1375 -0.0482
   53TMC2    O2  820   2.638   2.590  12.165  0.3909 -0.2204 -0.0536
   53TMC2    O5  821   2.612   2.535  11.948 -0.2955  0.0902 -0.0311
   53TMC2    H5  822   2.578   2.556  11.858 -1.4406 -1.1290  0.1135
   54MPD2     C  823   2.216   3.072  11.571 -0.2909 -0.1014  0.5317
   54MPD2    C1  824   2.143   3.006  11.664  0.2425  0.1443  0.7420
   54MPD2    C2  825   2.009   3.032  11.684  0.1695  0.1269  0.1388
   54MPD2    C3  826   1.948   3.137  11.616 -0.1963  0.0285  0.5356
   54MPD2    C4  827   2.014   3.194  11.510 -0.8141 -0.4620 -0.1376
   54MPD2    C5  828   2.147   3.169  11.494 -0.4051 -0.4543 -0.6183
   54MPD2     H  829   1.962   2.995  11.774 -0.3045 -0.9145 -0.5377
   54MPD2    H1  830   1.957   3.260  11.445  2.2682  1.9527 -0.4115
   54MPD2    H2  831   2.320   3.054  11.546 -0.3798  0.1985 -0.0518
   54MPD2    H3  832   2.198   3.221  11.413  3.6959 -0.1878  2.1435
   54MPD2     N  833   1.814   3.180  11.643  0.4968 -0.1378  0.0581
   54MPD2    H5  834   1.782   3.261  11.591 -1.0591  0.0031  1.2135
   54MPD2    N1  835   2.200   2.909  11.756  0.1702 -0.5820  0.2814
   54MPD2    H7  836   2.139   2.879  11.832  1.4674 -1.2148  1.0671
   55MPD2     C  837   2.738   0.950   0.243  0.2586 -0.8020  0.3306
   55MPD2    C1  838   2.699   0.834   0.303  0.0959 -0.1209 -0.0046
   55MPD2    C2  839   2.618   0.852   0.414 -0.6132 -0.9438  0.0739
   55MPD2    C3  840   2.559   0.974   0.455 -0.3532 -0.9782  0.5326
   55MPD2    C4  841   2.592   1.081   0.378 -0.2565  0.1705 -0.4229
   55MPD2    C5  842   2.685   1.068   0.275 -0.0104 -0.3447 -0.2431
   55MPD2     H  843   2.585   0.767   0.472 -0.5443 -1.7428 -1.0668
   55MPD2    H1  844   2.583   1.182   0.416  1.0134  0.5528 -1.1389
   55MPD2    H2  845   2.814   0.961   0.166  0.2903  0.6970  0.5844
   55MPD2    H3  846   2.706   1.156   0.215 -0.5425 -0.9764 -1.3622
   55MPD2     N  847   2.469   0.982   0.562  0.0118  0.0518 -0.3296
   55MPD2    H5  848   2.442   0.895   0.608  1.2233 -1.6300 -2.7865
   55MPD2    N1  849   2.751   0.710   0.253  0.2405  0.4281  0.5984
   55MPD2    H7  850   2.814   0.723   0.174 -1.6246  1.4407 -0.7436
   56TCq2    C1  851   2.740   0.591   0.328  0.6391 -0.5246 -1.0507
   56TCq2    O2  852   2.648   0.558   0.404  0.1441 -0.2758 -0.4085
   56TCq2    C2  853   2.846   0.497   0.298 -0.6481  0.3024  0.6305
   56TCq2    C3  854   2.901   0.488   0.178 -0.2220  0.4249 -0.3384
   56TCq2    C4  855   2.977   0.379   0.161  0.0271 -0.1739  0.1209
   56TCq2    C5  856   2.990   0.278   0.255  0.4415 -0.1969  0.0367
   56TCq2    C6  857   2.922   0.291   0.377  0.2892 -0.0156 -0.6565
   56TCq2    C7  858   2.849   0.401   0.389  0.0006  0.4059 -0.0929
   56TCq2    C8  859   2.892   0.165   0.440  0.5961 -0.0252  0.0006
   56TCq2    O4  860   2.940   0.074   0.376 -0.0449  0.0727 -0.2795
   56TCq2    C9  861   3.059   0.370   0.042 -0.1840 -1.1593  0.4365
   56TCq2    O5  862   3.027   0.439  17.629 -0.4684 -0.0418 -0.0327
   56TCq2    O6  863   3.150   0.284   0.038 -0.8854 -0.4289  0.5819
   56TCq2    H2  864   2.901   0.564   0.102 -0.2170 -0.2922 -1.0578
   56TCq2    H3  865   3.035   0.187   0.216  1.6480 -0.2271  1.5073
   56TCq2    H4  866   2.800   0.417   0.485 -0.6844  1.4734 -0.6170
   57TMC2    C1  867   1.401   1.776  13.290  0.5090  0.0018  1.0616
   57TMC2    C2  868   1.479   1.884  13.264  0.1355  0.1394  0.2028
   57TMC2    C3  869   1.520   1.906  13.137 -0.3212 -0.0973 -0.9908
   57TMC2    C4  870   1.353   1.695  13.192  0.7622  0.3185  1.0142
   57TMC2    C5  871   1.397   1.716  13.061  0.0519  0.2883 -0.2961
   57TMC2    C6  872   1.475   1.830  13.038  0.1957 -0.0075 -0.4983
   57TMC2     C  873   1.375   1.753  13.427 -0.4607  0.1746  0.0226
   57TMC2     O  874   1.437   1.810  13.516 -0.0533 -0.3556 -0.1029
   57TMC2     H  875   1.509   1.948  13.346 -0.2874 -0.6931  1.0048
   57TMC2    H1  876   1.290   1.608  13.203  1.7380 -0.5114  0.0828
   57TMC2    H2  877   1.493   1.844  12.932 -3.2681 -1.0260 -1.2003
   57TMC2    C7  878   1.415   1.598  12.976 -0.4045 -0.1130 -0.5609
   57TMC2    C8  879   1.584   2.031  13.105  0.3709 -0.4422  0.1377
   57TMC2    O1  880   1.321   1.519  12.972  0.2827 -0.1895 -0.4719
   57TMC2    O2  881   1.665   2.081  13.181  0.7988 -0.3956  0.0097
   57TMC2    O5  882   1.474   2.092  13.057 -0.1448 -0.3281 -0.4799
   57TMC2    H5  883   1.394   2.036  13.046 -0.0808 -0.2148 -1.4734
   58MPD2     C  884   1.111   1.502  13.794 -0.2457  0.2583 -0.5460
   58MPD2    C1  885   1.226   1.577  13.800  0.0454  0.4447  0.6366
   58MPD2    C2  886   1.284   1.614  13.687  0.5798 -0.2001  0.4558
   58MPD2    C3  887   1.227   1.597  13.564  0.2301 -0.2485  0.5724
   58MPD2    C4  888   1.116   1.523  13.555  0.1184  0.0120  0.2070
   58MPD2    C5  889   1.057   1.472  13.668 -0.0139 -0.3629  0.2236
   58MPD2     H  890   1.372   1.678  13.697 -0.4076  0.8538  2.3218
   58MPD2    H1  891   1.072   1.496  13.459 -1.2931 -0.4578  0.9853
   58MPD2    H2  892   1.065   1.474  13.888  1.9236 -3.6836 -0.6576
   58MPD2    H3  893   0.970   1.409  13.658 -0.1498 -0.3238  1.1587
   58MPD2     N  894   1.269   1.665  13.443  0.0974  0.0344  0.5618
   58MPD2    H5  895   1.214   1.645  13.360 -0.4796  1.8812  0.5153
   58MPD2    N1  896   1.284   1.627  13.916  0.7861 -0.1720 -1.0233
   58MPD2    H7  897   1.367   1.682  13.900  1.5672 -0.7833  0.9185
   59MPD2     C  898   4.641   2.475  13.011 -0.0615  0.2000 -0.3081
   59MPD2    C1  899   4.667   2.342  13.012  0.2743  0.8839  0.3748
   59MPD2    C2  900   0.017   2.275  13.113  0.3954  0.3276  0.5289
   59MPD2    C3  901   0.076   2.356  13.213  0.4926  0.0985 -0.7088
   59MPD2    C4  902   0.037   2.487  13.226  0.6833 -0.2528  0.2166
   59MPD2    C5  903   4.687   2.540  13.122 -0.5554  0.1249 -0.1389
   59MPD2     H  904   0.029   2.168  13.108  1.2798  0.3707  1.6984
   59MPD2    H1  905   0.059   2.543  13.316 -0.4240  0.6301 -0.0630
   59MPD2    H2  906   4.596   2.525  12.925  0.8586  1.1845 -0.2101
   59MPD2    H3  907   4.679   2.647  13.135  1.3369 -0.1425  3.0479
   59MPD2     N  908   0.159   2.298  13.316 -0.4416  0.0995 -0.3966
   59MPD2    H5  909   0.179   2.366  13.389 -0.8746 -1.1829  0.9154
   59MPD2    N1  910   4.615   2.261  12.913  0.2966  0.3781 -0.1302
   59MPD2    H7  911   4.634   2.161  12.916 -1.3524  0.0447 -0.8565
   60TCq2    C1  912   4.531   2.298  12.821 -0.1930  0.2839  0.0658
   60TCq2    O2  913   4.496   2.406  12.775  0.2678 -0.1144  0.2555
   60TCq2    C2  914   4.490   2.187  12.733  0.5023  0.0325  0.1353
   60TCq2    C3  915   4.575   2.082  12.716  0.4333  0.2493 -0.4356
   60TCq2    C4  916   4.539   1.978  12.628 -0.2580  0.0601 -0.3828
   60TCq2    C5  917   4.407   1.978  12.580  0.4250 -0.5640 -0.0915
   60TCq2    C6  918   4.335   2.092  12.595  0.0928  0.2978 -0.2939
   60TCq2    C7  919   4.365   2.201  12.680 -0.5027 -0.2847 -0.7067
   60TCq2    C8  920   4.199   2.102  12.543 -0.3241  0.4266 -0.1866
   60TCq2    O4  921   4.147   1.998  12.506  0.4826  0.0886  0.7591
   60TCq2    C9  922   4.623   1.862  12.610  0.5141  0.2984  0.1068
   60TCq2    O5  923   0.017   1.869  12.665  0.0694 -0.0706  0.0926
   60TCq2    O6  924   4.565   1.759  12.565 -0.6275  0.2211  0.2506
   60TCq2    H2  925   4.672   2.074  12.762  0.4503 -1.6226 -0.8183
   60TCq2    H3  926   4.390   1.893  12.515  0.9921 -1.1027  0.4597
   60TCq2    H4  927   4.312   2.294  12.698  1.4808  1.0628 -1.7581
   61MPD2     C  928   3.270   3.162  15.239 -1.3827  0.2396  0.4802
   61MPD2    C1  929   3.357   3.261  15.280 -0.5811  0.4149 -0.7804
   61MPD2    C2  930   3.407   3.346  15.185 -0.0167  0.7306  0.3913
   61MPD2    C3  931   3.366   3.342  15.054 -0.4015 -0.1531 -0.3785
   61MPD2    C4  932   3.278   3.241  15.011  0.2992 -1.7180 -0.2844
   61MPD2    C5  933   3.241   3.155  15.105  0.2627  0.1271 -0.4768
   61MPD2     H  934   3.455   3.439  15.212  1.2536 -0.2018  1.3658
   61MPD2    H1  935   3.250   3.226  14.907 -0.3019  0.7095 -0.4820
   61MPD2    H2  936   3.218   3.090  15.301 -2.7453  1.8149  1.1685
   61MPD2    H3  937   3.169   3.083  15.070 -0.4637  1.2514 -1.2997
   61MPD2     N  938   3.423   3.441  14.972 -0.6224  0.3723  0.0254
   61MPD2    H5  939   3.474   3.513  15.023  1.4446 -1.3495  0.4009
   61MPD2    N1  940   3.392   3.289  15.413 -0.0979  0.4696  0.5566
   61MPD2    H7  941   3.450   3.371  15.430  0.0615  1.0249 -2.7700
   62TCq2    C1  942   3.350   3.224  15.524 -0.9128 -0.5250  0.3671
   62TCq2    O2  943   3.284   3.119  15.538  0.0707  0.3417  0.0204
   62TCq2    C2  944   3.408   3.290  15.638 -0.3185 -0.0164 -0.2889
   62TCq2    C3  945   3.435   3.216  15.749  0.3469 -0.3417 -0.0466
   62TCq2    C4  946   3.480   3.277  15.866  0.2436  0.6949  0.2330
   62TCq2    C5  947   3.474   3.418  15.863 -0.0772 -0.0742  0.2760
   62TCq2    C6  948   3.447   3.486  15.746 -0.2367 -0.7400  0.3838
   62TCq2    C7  949   3.418   3.424  15.627  0.5297  0.2802  0.0569
   62TCq2    C8  950   3.432   3.631  15.744 -0.4933 -0.4992 -1.0554
   62TCq2    O4  951   3.445   3.690  15.632 -0.4640 -0.4600  0.0756
   62TCq2    C9  952   3.524   3.210  15.976 -0.3383 -0.3849  0.2363
   62TCq2    O5  953   3.566   3.281  16.070  0.4000  0.1845 -0.2727
   62TCq2    O6  954   3.556   3.090  15.956 -0.4617  0.2773 -0.0109
   62TCq2    H2  955   3.425   3.108  15.749 -0.4925 -0.2645  0.3479
   62TCq2    H3  956   3.502   3.477  15.950  0.5653  0.2740 -0.1712
   62TCq2    H4  957   3.393   3.491  15.545  0.8284  1.4209  0.8994
   63TMC2    C1  958   3.594   3.499  11.132  0.1009  0.0525  1.0560
   63TMC2    C2  959   3.689   3.538  11.220 -0.3567 -0.3042  0.3384
   63TMC2    C3  960   3.798   3.602  11.170  0.8791 -0.5442 -0.2504
   63TMC2    C4  961   3.600   3.531  10.998  0.0580 -0.4960 -0.2223
   63TMC2    C5  962   3.716   3.589  10.948 -0.5064 -0.9661  0.6766
   63TMC2    C6  963   3.814   3.629  11.030  0.1982  0.3322  0.0842
   63TMC2     C  964   3.487   3.405  11.169 -0.5679  0.3387 -0.4465
   63TMC2     O  965   3.429   3.415  11.276  0.9252  0.6300 -0.6666
   63TMC2     H  966   3.677   3.506  11.323  0.0699 -1.1847  0.1114
   63TMC2    H1  967   3.513   3.506  10.939  0.0545  1.1044 -0.8980
   63TMC2    H2  968   3.907   3.671  10.994  0.8025  0.0063  1.2604
   63TMC2    C7  969   3.720   3.630  10.811  0.1565  0.2767 -0.2785
   63TMC2    C8  970   3.902   3.635  11.264  0.8606 -0.5530 -0.6765
   63TMC2    O1  971   3.618   3.604  10.752 -0.0379  0.4236 -0.0272
   63TMC2    O2  972   4.021   3.634  11.237  0.2485 -0.3225  0.1999
   63TMC2    O5  973   3.850   3.731  11.344 -0.3602 -0.1598 -0.4182
   63TMC2    H5  974   3.755   3.726  11.366  0.3126  0.3447  2.5549
   64MPD2     C  975   3.234   2.970  11.081  0.3618  0.2293  0.9732
   64MPD2    C1  976   3.330   2.988  10.974  0.4721  0.3532 -0.8071
   64MPD2    C2  977   3.417   3.090  10.989  0.3414  0.3693 -0.2987
   64MPD2    C3  978   3.403   3.181  11.089 -0.3501 -0.4392 -0.4135
   64MPD2    C4  979   3.316   3.159  11.189  0.1526  0.0984  0.1505
   64MPD2    C5  980   3.229   3.059  11.182 -0.2809 -0.1436 -0.1699
   64MPD2     H  981   3.493   3.106  10.913  0.1086 -0.6579 -0.7454
   64MPD2    H1  982   3.303   3.226  11.274  1.0140  0.4413  0.0215
   64MPD2    H2  983   3.169   2.884  11.085 -0.8269  1.1193  1.0400
   64MPD2    H3  984   3.162   3.048  11.266 -0.5229 -1.0201 -0.4778
   64MPD2     N  985   3.469   3.307  11.075 -0.0223  0.2019 -0.2550
   64MPD2    H5  986   3.530   3.316  10.995  0.0571 -0.3380 -0.2575
   64MPD2    N1  987   3.339   2.906  10.851 -0.4309 -0.0335 -0.2556
   64MPD2    H7  988   3.408   2.938  10.783 -0.2706 -1.2697 -0.6696
   65MPD2     C  989   3.776   3.188  15.534  0.5501  0.0108 -0.0215
   65MPD2    C1  990   3.906   3.173  15.508  0.0557 -0.2261  0.3266
   65MPD2    C2  991   3.962   3.042  15.499 -0.0272  0.1498  0.3718
   65MPD2    C3  992   3.886   2.935  15.529 -0.6444  0.4613 -0.0991
   65MPD2    C4  993   3.751   2.955  15.560 -0.2116 -0.6739 -0.4613
   65MPD2    C5  994   3.697   3.080  15.555  0.4304  0.0842 -0.2965
   65MPD2     H  995   4.064   3.048  15.465  0.2034 -1.3132  0.7987
   65MPD2    H1  996   3.683   2.874  15.587 -2.1566  0.8250 -0.9189
   65MPD2    H2  997   3.722   3.279  15.558  0.9833  0.9395 -2.6663
   65MPD2    H3  998   3.593   3.086  15.585  1.3712  0.7963  2.8584
   65MPD2     N  999   3.947   2.809  15.532  0.2744 -0.2095 -0.0894
   65MPD2    H5 1000   3.881   2.739  15.563  0.2561 -0.2337 -0.1817
   65MPD2    N1 1001   3.989   3.288  15.473 -0.1544 -0.4140  0.2834
   65MPD2    H7 1002   4.088   3.265  15.463 -0.2081 -0.2568 -0.5402
   66TCq2    C1 1003   3.960   3.421  15.475  0.8269 -0.3130 -0.3414
   66TCq2    O2 1004   3.875   3.484  15.536 -0.0550 -0.1545 -0.3538
   66TCq2    C2 1005   4.077   3.491  15.422  0.5522  0.1859  0.6786
   66TCq2    C3 1006   4.157   3.432  15.329 -0.0056  0.2754 -0.3372
   66TCq2    C4 1007   4.275   3.485  15.284 -0.2563  0.6320  0.1336
   66TCq2    C5 1008   4.315   3.598  15.354 -0.3611 -0.5731 -0.3499
   66TCq2    C6 1009   4.236   3.659  15.445  0.1866 -0.5196 -0.1843
   66TCq2    C7 1010   4.112   3.608  15.481 -0.3702  0.1194  0.0870
   66TCq2    C8 1011   4.301   3.763  15.527 -0.1645  0.3240  0.3438
   66TCq2    O4 1012   4.404   3.816  15.484 -0.2856 -0.4546  0.1730
   66TCq2    C9 1013   4.348   3.436  15.174  0.3383  0.2577  0.9386
   66TCq2    O5 1014   4.309   3.327  15.129 -0.1162 -0.0393 -0.1736
   66TCq2    O6 1015   4.460   3.490  15.145  0.3461  0.1007  0.0610
   66TCq2    H2 1016   4.125   3.343  15.277 -1.0312  0.9685 -0.8871
   66TCq2    H3 1017   4.411   3.644  15.335 -1.3082  0.6707 -2.0767
   66TCq2    H4 1018   4.048   3.646  15.559  0.0624 -0.5403  0.7628
   67MPD2     C 1019   4.567   2.144  14.037 -0.1169 -0.1954 -0.8681
   67MPD2    C1 1020   4.494   2.236  14.106 -1.1532 -0.2716 -0.3597
   67MPD2    C2 1021   4.364   2.260  14.077  0.0576 -0.1357 -0.6526
   67MPD2    C3 1022   4.307   2.206  13.958 -1.0414 -1.0264  0.7632
   67MPD2    C4 1023   4.396   2.136  13.875 -0.1372 -0.5200  0.4561
   67MPD2    C5 1024   4.519   2.095  13.916  0.0329 -0.1289  0.5745
   67MPD2     H 1025   4.302   2.314  14.147  0.4891 -2.4554  1.4937
   67MPD2    H1 1026   4.359   2.102  13.778 -3.6469  3.8659  0.2677
   67MPD2    H2 1027   4.663   2.108  14.073 -1.8365 -1.1607  2.7448
   67MPD2    H3 1028   4.590   2.032  13.864  0.6209  0.5268  0.5952
   67MPD2     N 1029   4.178   2.230  13.907  0.3915  0.0675  0.0943
   67MPD2    H5 1030   4.160   2.215  13.808  0.3251  0.3104  0.0711
   67MPD2    N1 1031   4.541   2.287  14.225 -0.2888 -0.4193 -0.0810
   67MPD2    H7 1032   4.468   2.334  14.278 -0.4487  0.6285 -1.2367
   68TCq2    C1 1033   4.663   2.263  14.289  0.3327  0.2950  0.6499
   68TCq2    O2 1034   0.042   2.200  14.261  0.5478  0.1811 -0.6594
   68TCq2    C2 1035   4.659   2.332  14.421  0.2064  0.4763  0.8003
   68TCq2    C3 1036   4.575   2.428  14.451  0.5807 -0.4738 -0.2618
   68TCq2    C4 1037   4.601   2.508  14.554  0.1436  0.1689  0.3642
   68TCq2    C5 1038   4.700   2.473  14.643  0.0634 -0.5987  0.0523
   68TCq2    C6 1039   0.053   2.360  14.616 -0.8028 -0.2118  1.2301
   68TCq2    C7 1040   0.037   2.285  14.505  0.2216 -0.1934 -0.4543
   68TCq2    C8 1041   0.152   2.323  14.722  0.1371  0.8959 -0.4312
   68TCq2    O4 1042   0.247   2.256  14.674  0.1840 -0.2665  0.4491
   68TCq2    C9 1043   4.529   2.631  14.575 -0.3128  0.1764 -0.9667
   68TCq2    O5 1044   4.453   2.677  14.487 -0.2237  0.1768 -0.3083
   68TCq2    O6 1045   4.561   2.682  14.687  0.0509 -0.1712  0.2594
   68TCq2    H2 1046   4.495   2.451  14.382  0.7672 -1.3108 -0.7475
   68TCq2    H3 1047   4.716   2.540  14.727  1.1139  0.4086 -0.9696
   68TCq2    H4 1048   0.095   2.194  14.489  0.6372 -0.2515  1.3545
   69TMC2    C1 1049   1.733   3.691  12.566  0.0775 -0.3657 -0.2299
   69TMC2    C2 1050   1.607   3.672  12.515 -0.5008  0.1441 -0.7996
   69TMC2    C3 1051   1.594   3.678  12.379  0.2402  0.2231 -0.5322
   69TMC2    C4 1052   1.845   3.686  12.485 -0.2376 -0.0489 -0.3673
   69TMC2    C5 1053   1.827   3.692  12.353  0.3051 -0.3805  0.7653
   69TMC2    C6 1054   1.702   3.676  12.296  0.0451  0.6992  0.2048
   69TMC2     C 1055   1.738   3.662  12.714 -0.0025  0.4858 -0.6330
   69TMC2     O 1056   1.634   3.625  12.770 -0.0166  0.3887 -1.2179
   69TMC2     H 1057   1.518   3.693  12.574 -1.6297 -0.1440 -2.3753
   69TMC2    H1 1058   1.948   3.683  12.516 -0.6330 -0.9947  0.8677
   69TMC2    H2 1059   1.687   3.670  12.188 -1.8422  1.6216  0.4208
   69TMC2    C7 1060   1.943   3.684  12.264 -0.2288 -0.4992  0.1214
   69TMC2    C8 1061   1.468   3.703  12.324 -0.0598 -0.3789  0.1449
   69TMC2    O1 1062   2.045   3.637  12.315 -0.8175 -0.2702 -0.2664
   69TMC2    O2 1063   1.443   3.771  12.228  0.2894 -0.0649 -0.4117
   69TMC2    O5 1064   1.391   3.609  12.389  0.1044 -0.0356  0.4671
   69TMC2    H5 1065   1.441   3.531  12.422  2.0170  0.9055 -0.2315
   70MPD2     C 1066   2.028   3.710  12.938 -0.3008 -0.2374  0.6852
   70MPD2    C1 1067   1.901   3.666  12.899 -0.3750 -0.2254  0.4639
   70MPD2    C2 1068   1.836   3.572  12.976 -0.1791 -0.6495  0.1295
   70MPD2    C3 1069   1.896   3.509  13.078  0.0582  0.5488  0.8408
   70MPD2    C4 1070   2.020   3.554  13.114 -0.1987 -0.1418 -0.7388
   70MPD2    C5 1071   2.087   3.655  13.051 -0.3461  0.1535 -0.3669
   70MPD2     H 1072   1.733   3.542  12.961  0.1725 -0.7798 -1.9476
   70MPD2    H1 1073   2.073   3.514  13.200 -0.0641  0.7691 -0.3969
   70MPD2    H2 1074   2.081   3.789  12.885 -1.9445  2.5473  3.1494
   70MPD2    H3 1075   2.184   3.683  13.089 -0.4410 -2.4846  1.8554
   70MPD2     N 1076   1.850   3.395  13.142 -0.0399  0.1154  0.1660
   70MPD2    H5 1077   1.915   3.353  13.208  0.1462 -0.5091 -0.4070
   70MPD2    N1 1078   1.859   3.697  12.770  0.9431  0.4806  0.3463
   70MPD2    H7 1079   1.935   3.740  12.720  1.2331 -0.6566 -0.1891
   71TMC2    C1 1080   3.920   3.635   1.878 -0.2153 -0.4881 -0.2153
   71TMC2    C2 1081   3.856   3.607   2.000 -0.2370  0.2246  0.3091
   71TMC2    C3 1082   3.847   3.478   2.034 -0.2468 -0.2729  0.0114
   71TMC2    C4 1083   3.973   3.537   1.798 -0.4448 -0.6910 -0.2211
   71TMC2    C5 1084   3.953   3.405   1.841 -0.0698 -0.0675 -0.2497
   71TMC2    C6 1085   3.890   3.376   1.960  0.5497  0.4925 -0.9521
   71TMC2     C 1086   3.945   3.771   1.837  0.1739  0.4065 -0.1904
   71TMC2     O 1087   3.991   3.796   1.727  0.5056 -0.3996  0.2973
   71TMC2     H 1088   3.801   3.686   2.050 -0.4135 -0.6555  1.5011
   71TMC2    H1 1089   4.026   3.573   1.711 -1.7257 -0.6475 -0.9960
   71TMC2    H2 1090   3.867   3.273   1.983  3.0913  1.0172  4.0001
   71TMC2    C7 1091   4.014   3.296   1.763 -0.0463  1.1010  0.3734
   71TMC2    C8 1092   3.780   3.445   2.163 -0.1721 -0.3001 -0.4330
   71TMC2    O1 1093   3.995   3.182   1.803 -0.1232  0.2568  0.4251
   71TMC2    O2 1094   3.721   3.532   2.221  0.5730 -0.1079  0.2613
   71TMC2    O5 1095   3.771   3.318   2.191  0.6703 -0.3024 -0.6288
   71TMC2    H5 1096   3.861   3.283   2.175  0.7132  0.2254 -1.5585
   72MPD2     C 1097   4.101   4.210   2.034 -0.2492 -0.2517  0.2246
   72MPD2    C1 1098   4.113   4.167   1.905  0.7464  0.7587 -0.1554
   72MPD2    C2 1099   4.058   4.045   1.867  0.5636  0.7676  0.0545
   72MPD2    C3 1100   3.991   3.974   1.964 -0.3158  0.7504 -0.2758
   72MPD2    C4 1101   3.976   4.027   2.088 -0.7152 -0.0913  0.4050
   72MPD2    C5 1102   4.026   4.144   2.128  0.4654  0.5926 -0.3220
   72MPD2     H 1103   4.077   4.005   1.768 -1.0850 -0.7510  0.3341
   72MPD2    H1 1104   3.917   3.976   2.163  1.3836 -1.0081  1.4501
   72MPD2    H2 1105   4.138   4.305   2.071 -1.3901  0.3073 -0.0602
   72MPD2    H3 1106   4.010   4.166   2.233  0.8496 -0.2201 -0.0966
   72MPD2     N 1107   3.944   3.844   1.950  0.3383 -0.1481  0.2976
   72MPD2    H5 1108   3.917   3.801   2.038  0.6719  0.5583  0.7549
   72MPD2    N1 1109   4.189   4.231   1.807  0.5358  1.0026  0.0208
   72MPD2    H7 1110   4.202   4.191   1.714  0.7559  2.4030 -0.5595
   73TMC2    C1 1111   3.527   1.149  13.830 -0.2262 -0.2561 -0.2242
   73TMC2    C2 1112   3.465   1.097  13.716 -0.1923  0.8898  0.0898
   73TMC2    C3 1113   3.505   0.980  13.666  0.6660  1.0618  0.6197
   73TMC2    C4 1114   3.620   1.071  13.894  0.4234  0.7412 -0.6221
   73TMC2    C5 1115   3.663   0.951  13.839  0.4433  0.2696  0.0789
   73TMC2    C6 1116   3.600   0.904  13.728  0.9432  0.5683 -0.4322
   73TMC2     C 1117   3.602   1.263  13.799 -0.4096  0.0513  0.1510
   73TMC2     O 1118   3.711   1.260  13.861  0.4180 -0.3104  0.1158
   73TMC2     H 1119   3.386   1.146  13.661 -1.9507 -0.3054  1.5838
   73TMC2    H1 1120   3.660   1.097  13.991  1.4845 -1.5771 -0.4435
   73TMC2    H2 1121   3.636   0.812  13.683 -0.6484  0.3646 -1.3053
   73TMC2    C7 1122   3.805   0.931  13.842  0.0456  0.5342 -0.3313
   73TMC2    C8 1123   3.445   0.925  13.544  0.7404 -0.0055 -0.4011
   73TMC2    O1 1124   3.840   0.830  13.785  0.6382  0.5191 -0.6711
   73TMC2    O2 1125   3.381   0.986  13.459  0.0189  0.0166  0.1566
   73TMC2    O5 1126   3.430   0.793  13.570  0.1900  0.1385  0.2470
   73TMC2    H5 1127   3.467   0.761  13.655  2.0380 -0.9485 -0.9625
   74MPD2     C 1128   3.733   1.721  13.585 -0.1723  0.1109 -0.2099
   74MPD2    C1 1129   3.797   1.645  13.679  0.0628 -0.0968  0.5939
   74MPD2    C2 1130   3.740   1.522  13.716 -0.7160  0.4079  0.2480
   74MPD2    C3 1131   3.617   1.479  13.673 -0.7519 -1.1825 -0.2130
   74MPD2    C4 1132   3.549   1.575  13.605  0.2974 -0.9611 -0.1459
   74MPD2    C5 1133   3.607   1.684  13.545  0.1595 -0.3194 -0.4833
   74MPD2     H 1134   3.788   1.459  13.791  0.5777  0.1030 -0.8352
   74MPD2    H1 1135   3.453   1.546  13.562 -0.3465  0.2525  0.4664
   74MPD2    H2 1136   3.789   1.802  13.541  1.4534 -0.1192  1.4187
   74MPD2    H3 1137   3.551   1.743  13.474 -0.5163 -0.4767 -0.0800
   74MPD2     N 1138   3.552   1.359  13.715  0.6706  0.4478  0.6739
   74MPD2    H5 1139   3.466   1.348  13.663  0.0784 -0.1924  1.7896
   74MPD2    N1 1140   3.919   1.685  13.735 -0.0868  0.5727 -0.5167
   74MPD2    H7 1141   3.957   1.775  13.706  0.2393  1.1659  1.7523
   75TCq2    C1 1142   4.074   2.267  13.991 -0.4026 -0.5192  0.1980
   75TCq2    O2 1143   4.076   2.266  14.110 -0.3017 -1.0659  0.7180
   75TCq2    C2 1144   3.954   2.318  13.922  0.3351 -0.0222  0.1116
   75TCq2    C3 1145   3.852   2.357  14.004 -0.7585 -0.2826 -0.1380
   75TCq2    C4 1146   3.737   2.408  13.957 -0.0418  0.8539  0.1438
   75TCq2    C5 1147   3.721   2.426  13.820 -0.0416 -0.3060 -0.0299
   75TCq2    C6 1148   3.827   2.392  13.738  0.0580 -0.9775 -0.4248
   75TCq2    C7 1149   3.941   2.332  13.787  0.3476 -0.4667 -0.3343
   75TCq2    C8 1150   3.798   2.395  13.599  0.2321 -0.1512 -0.1882
   75TCq2    O4 1151   3.840   2.307  13.526 -0.8109  0.2760  1.1376
   75TCq2    C9 1152   3.631   2.451  14.044  0.5732 -0.3033  0.2135
   75TCq2    O5 1153   3.523   2.466  13.983  0.3881  0.2747  0.1908
   75TCq2    O6 1154   3.644   2.445  14.171  0.6536 -0.3694 -0.1600
   75TCq2    H2 1155   3.862   2.340  14.110  0.6164 -0.1045 -0.2352
   75TCq2    H3 1156   3.635   2.475  13.776 -0.2425  1.2771  2.1271
   75TCq2    H4 1157   4.026   2.307  13.725 -0.0653 -0.0050 -1.0909
   76MPD2     C 1158   2.839   2.943  12.008 -0.3637 -0.8420 -0.5822
   76MPD2    C1 1159   2.850   3.038  11.908 -0.0905 -0.0930 -0.2500
   76MPD2    C2 1160   2.967   3.096  11.884  0.4312 -0.6906  0.1409
   76MPD2    C3 1161   3.078   3.066  11.960 -0.2627  0.1865  0.7389
   76MPD2    C4 1162   3.072   2.952  12.040  0.8891  0.5200 -0.1465
   76MPD2    C5 1163   2.955   2.899  12.073  0.5017  0.8125  0.1834
   76MPD2     H 1164   2.971   3.173  11.808  3.2939  1.1862  2.2263
   76MPD2    H1 1165   3.159   2.926  12.100  0.6239 -0.0024  0.0079
   76MPD2    H2 1166   2.743   2.911  12.046 -0.2839 -0.4899 -0.0824
   76MPD2    H3 1167   2.946   2.835  12.160  2.3255 -0.7491 -0.7956
   76MPD2     N 1168   3.195   3.146  11.961  0.1000  0.2983  0.4118
   76MPD2    H5 1169   3.267   3.113  12.024  0.1723  0.0082  0.1805
   76MPD2    N1 1170   2.737   3.080  11.833 -0.9861 -0.3441  0.3283
   76MPD2    H7 1171   2.750   3.133  11.748 -1.6707  0.2586  0.5973
   77TCq2    C1 1172   3.217   3.263  11.886 -0.7509 -0.6272  0.2422
   77TCq2    O2 1173   3.147   3.313  11.798  0.6086  0.7357  0.2808
   77TCq2    C2 1174   3.354   3.317  11.895 -0.5733 -0.5465  0.3804
   77TCq2    C3 1175   3.390   3.425  11.817 -0.6885  0.8465 -0.4249
   77TCq2    C4 1176   3.511   3.494  11.836  0.7797 -0.5712  0.2354
   77TCq2    C5 1177   3.586   3.456  11.946  0.7523  0.0176 -0.7133
   77TCq2    C6 1178   3.540   3.358  12.035  0.6570  0.3135  0.2813
   77TCq2    C7 1179   3.429   3.288  12.007 -0.0262  0.0102 -0.0300
   77TCq2    C8 1180   3.622   3.345  12.155 -0.4127  0.3001 -0.1358
   77TCq2    O4 1181   3.713   3.418  12.166  0.4044 -0.1589  0.3901
   77TCq2    C9 1182   3.546   3.595  11.739 -0.2268 -0.2298  0.0222
   77TCq2    O5 1183   3.499   3.587  11.620  0.1306 -0.5108 -0.1121
   77TCq2    O6 1184   3.585   3.700  11.793  0.0543 -0.1570 -0.7825
   77TCq2    H2 1185   3.335   3.453  11.728 -2.4449 -1.3219 -0.0154
   77TCq2    H3 1186   3.674   3.516  11.969 -1.3809  1.9468  2.5158
   77TCq2    H4 1187   3.389   3.221  12.082  1.1748  0.9617  1.4737
   78MPD1     C 1188   3.422   2.135   1.443  0.9914  0.0527  0.9002
   78MPD1    C1 1189   3.403   2.146   1.575  0.3225  0.4736  0.3043
   78MPD1    C2 1190   3.513   2.183   1.645 -0.1639  0.7278 -0.0730
   78MPD1    C3 1191   3.645   2.176   1.596  0.8279 -0.4596 -0.2303
   78MPD1    C4 1192   3.655   2.163   1.462 -0.1568  0.2870 -0.4004
   78MPD1    C5 1193   3.539   2.156   1.390  0.1826  0.0159  0.2314
   78MPD1     H 1194   3.493   2.214   1.747  3.2263  0.1284  0.7830
   78MPD1    H1 1195   3.753   2.165   1.415 -0.5370  2.0707 -1.1336
   78MPD1    H2 1196   3.340   2.117   1.375  0.3825  1.6345  1.2243
   78MPD1    H3 1197   3.547   2.149   1.282 -0.7314  2.5188  0.0062
   78MPD1     N 1198   3.759   2.202   1.668  0.0790  0.2754  0.1140
   78MPD1    H5 1199   3.841   2.196   1.608  0.7793  0.1512  1.0792
   78MPD1    N1 1200   3.270   2.148   1.628 -0.0410  0.0078 -0.0472
   78MPD1    H6 1201   3.269   2.115   1.724 -1.2571  2.1292  0.6748
   78MPD1    H7 1202   3.204   2.099   1.569  0.9016 -1.2651 -0.0249
   79TCq2    C1 1203   3.768   2.217   1.802  0.2541  0.1671  0.1127
   79TCq2    O2 1204   3.676   2.219   1.879 -0.0327  0.6950 -0.6997
   79TCq2    C2 1205   3.891   2.268   1.864  0.4271 -0.3876  0.3862
   79TCq2    C3 1206   3.905   2.259   2.004 -0.1066  0.4720  0.0134
   79TCq2    C4 1207   4.002   2.336   2.061  0.1873  0.2500  0.5198
   79TCq2    C5 1208   4.099   2.401   1.991  0.5647 -0.3111 -0.5346
   79TCq2    C6 1209   4.088   2.392   1.856 -0.3799  0.1332  0.7158
   79TCq2    C7 1210   3.981   2.336   1.784 -0.3214  0.2059 -0.3192
   79TCq2    C8 1211   4.179   2.470   1.785 -0.3935  0.8312 -0.3608
   79TCq2    O4 1212   4.245   2.545   1.857  0.3487  0.1841  0.0203
   79TCq2    C9 1213   4.017   2.325   2.208 -0.2677 -0.0966 -0.7822
   79TCq2    O5 1214   3.924   2.259   2.267 -0.2106  0.1904 -0.2588
   79TCq2    O6 1215   4.127   2.369   2.253 -0.6755 -0.7182 -0.1372
   79TCq2    H2 1216   3.833   2.199   2.057  1.1987 -1.5421 -0.4880
   79TCq2    H3 1217   4.189   2.436   2.040 -0.5366  1.9234 -0.0931
   79TCq2    H4 1218   3.956   2.349   1.679 -0.2186 -0.2279 -0.3946
   80MPD2     C 1219   2.284   2.213  12.249  0.6146  0.3556  0.0748
   80MPD2    C1 1220   2.193   2.276  12.166  0.0360 -0.0427  0.3573
   80MPD2    C2 1221   2.064   2.309  12.213  0.4953 -0.6907 -0.4962
   80MPD2    C3 1222   2.035   2.295  12.350 -0.0059  0.8238 -0.0351
   80MPD2    C4 1223   2.125   2.241  12.432  0.6072 -0.7778  0.7305
   80MPD2    C5 1224   2.246   2.198  12.382  0.2754  0.9938  0.4814
   80MPD2     H 1225   1.988   2.355  12.150  0.2109 -0.2124  0.1871
   80MPD2    H1 1226   2.092   2.247  12.535 -1.1516  0.2819  0.0955
   80MPD2    H2 1227   2.380   2.173  12.220  2.4362  3.6347  1.7246
   80MPD2    H3 1228   2.318   2.161  12.454 -0.7051  0.4940  1.1975
   80MPD2     N 1229   1.906   2.327  12.406  0.1797  0.3596  0.3912
   80MPD2    H5 1230   1.901   2.297  12.503  2.6599 -0.8142  0.1634
   80MPD2    N1 1231   2.217   2.290  12.028  0.2618 -0.6971  0.0232
   80MPD2    H7 1232   2.137   2.315  11.970  0.9705 -0.7647 -0.9733
   81TCq2    C1 1233   2.332   2.247  11.972  0.6311 -0.3049  0.2384
   81TCq2    O2 1234   2.443   2.267  12.020 -0.3907  0.0277 -0.0926
   81TCq2    C2 1235   2.326   2.246  11.830  0.4692 -0.4422 -0.9220
   81TCq2    C3 1236   2.402   2.340  11.770 -1.2892 -0.2107  0.2658
   81TCq2    C4 1237   2.359   2.404  11.661  0.5116  0.2858  0.5642
   81TCq2    C5 1238   2.246   2.368  11.591 -0.3238 -0.7182 -0.0401
   81TCq2    C6 1239   2.179   2.261  11.646 -0.1606 -0.0199  1.0479
   81TCq2    C7 1240   2.214   2.200  11.764 -0.1886  0.0425 -0.5139
   81TCq2    C8 1241   2.057   2.219  11.583  0.1778 -0.0219 -0.4648
   81TCq2    O4 1242   2.008   2.303  11.513  0.0676  0.6134  0.5781
   81TCq2    C9 1243   2.419   2.528  11.620 -0.4960  0.7635 -0.0840
   81TCq2    O5 1244   2.362   2.583  11.522 -0.1515 -0.1066  0.3464
   81TCq2    O6 1245   2.518   2.567  11.690  0.0333 -0.4481 -0.2087
   81TCq2    H2 1246   2.489   2.380  11.821 -1.9169  1.7680 -0.2221
   81TCq2    H3 1247   2.212   2.425  11.505 -0.0662 -1.6549 -0.7719
   81TCq2    H4 1248   2.159   2.126  11.819  2.4671 -0.8512  0.9639
   82MPD2     C 1249   0.519   2.783  10.855 -0.3493  0.2896  0.0360
   82MPD2    C1 1250   0.408   2.727  10.903 -0.2524  0.2546 -0.2787
   82MPD2    C2 1251   0.415   2.609  10.973  0.2092  0.2237 -0.3711
   82MPD2    C3 1252   0.537   2.547  10.989 -0.3147  0.1071 -0.7494
   82MPD2    C4 1253   0.649   2.601  10.933  0.3109  0.3781  0.8334
   82MPD2    C5 1254   0.642   2.716  10.866 -0.1732 -0.3677  0.0673
   82MPD2     H 1255   0.333   2.561  11.025 -2.1540  3.8643 -0.7788
   82MPD2    H1 1256   0.745   2.552  10.936  0.4593  0.7370  1.9266
   82MPD2    H2 1257   0.522   2.873  10.795  2.1774  0.5904  0.6134
   82MPD2    H3 1258   0.736   2.750  10.823 -1.6978  2.3971 -1.1272
   82MPD2     N 1259   0.554   2.415  11.041  0.8342  0.4609  0.3417
   82MPD2    H5 1260   0.649   2.389  11.067  0.6013 -1.2076 -0.4596
   82MPD2    N1 1261   0.284   2.789  10.878 -0.1191  0.3786 -0.2541
   82MPD2    H7 1262   0.284   2.875  10.824 -0.7396  1.1788  1.0146
   83TCq2    C1 1263   0.454   2.335  11.079  0.8364 -0.1060  0.5711
   83TCq2    O2 1264   0.331   2.356  11.081  0.0121 -0.3758  0.8070
   83TCq2    C2 1265   0.499   2.194  11.095  0.5670  0.2820  0.1451
   83TCq2    C3 1266   0.627   2.176  11.147 -0.5469 -0.0536 -0.1830
   83TCq2    C4 1267   0.659   2.049  11.201 -0.1561  0.2623 -0.0223
   83TCq2    C5 1268   0.568   1.954  11.208 -0.0692  0.2011 -0.9426
   83TCq2    C6 1269   0.442   1.979  11.155  0.3116  0.0550  0.7118
   83TCq2    C7 1270   0.407   2.095  11.092  0.6084 -0.3666  0.0067
   83TCq2    C8 1271   0.338   1.886  11.196 -0.0514  0.1479 -0.2787
   83TCq2    O4 1272   0.354   1.808  11.290 -0.2395  0.0924 -0.6878
   83TCq2    C9 1273   0.794   2.021  11.234  0.0087  0.1706  0.0911
   83TCq2    O5 1274   0.873   2.114  11.202  0.1281 -0.0332  0.0289
   83TCq2    O6 1275   0.822   1.906  11.275 -0.2703 -0.1594  0.0452
   83TCq2    H2 1276   0.702   2.254  11.152  0.1640 -0.6825 -1.0431
   83TCq2    H3 1277   0.596   1.858  11.250  1.1813  0.4612 -1.1858
   83TCq2    H4 1278   0.305   2.118  11.065  0.5832 -1.9702 -1.2928
   84TCq2    C1 1279   0.611   1.209  10.058 -0.4382 -0.2121  0.6444
   84TCq2    O2 1280   0.515   1.139  10.087 -0.1146 -0.0203  0.0966
   84TCq2    C2 1281   0.709   1.264  10.154 -0.0759  0.7954  1.0012
   84TCq2    C3 1282   0.832   1.303  10.111  0.7923 -0.0597 -0.2339
   84TCq2    C4 1283   0.928   1.329  10.205  0.2301  0.4463 -0.7669
   84TCq2    C5 1284   0.900   1.323  10.336  0.4623  0.1751  0.0204
   84TCq2    C6 1285   0.777   1.277  10.375 -0.2838  0.3173 -0.8563
   84TCq2    C7 1286   0.680   1.241  10.285 -0.0695  0.7958  0.1742
   84TCq2    C8 1287   0.755   1.263  10.520  0.5084 -0.0162 -0.0599
   84TCq2    O4 1288   0.846   1.290  10.599  0.0780 -0.0505  0.7197
   84TCq2    C9 1289   1.055   1.389  10.169  1.0241  0.0344 -0.5638
   84TCq2    O5 1290   1.142   1.393  10.258  0.5033 -0.1451 -0.3627
   84TCq2    O6 1291   1.062   1.463  10.070  0.3441  0.3192  0.3485
   84TCq2    H2 1292   0.873   1.296  10.011  0.1806 -0.1011 -0.4771
   84TCq2    H3 1293   0.976   1.350  10.408  0.4087 -0.6166  0.3712
   84TCq2    H4 1294   0.576   1.219  10.306  0.4540 -0.4935  1.4214
   85MPD2     C 1295   2.015   3.797  16.634 -0.6125 -0.5650 -0.1959
   85MPD2    C1 1296   1.942   3.863  16.539 -0.2549  0.4702  0.2156
   85MPD2    C2 1297   1.984   3.981  16.492 -0.1894  0.8667  0.1681
   85MPD2    C3 1298   2.098   4.043  16.534  0.1122 -0.3750 -0.2994
   85MPD2    C4 1299   2.181   3.976  16.619 -0.4320  0.0340  0.8423
   85MPD2    C5 1300   2.134   3.852  16.665  0.1800 -0.2272  0.1749
   85MPD2     H 1301   1.920   4.037  16.425  2.6414  2.1676 -1.4339
   85MPD2    H1 1302   2.278   4.015  16.647  0.8402 -0.8556 -2.3353
   85MPD2    H2 1303   1.994   3.701  16.680 -1.6358 -0.0909  0.3228
   85MPD2    H3 1304   2.195   3.804  16.741 -1.8497 -1.3799  1.0909
   85MPD2     N 1305   2.118   4.176  16.496 -0.1094  0.2065  0.1185
   85MPD2    H5 1306   2.054   4.216  16.428  1.8485  0.8597 -1.3412
   85MPD2    N1 1307   1.824   3.807  16.490 -0.0263 -0.0735 -0.6078
   85MPD2    H7 1308   1.780   3.852  16.411 -0.4696  1.0714  0.3052
   86TCq2    C1 1309   2.189   4.274  16.563  0.5062  0.9563  0.2422
   86TCq2    O2 1310   2.263   4.265  16.661  0.1548  0.0675  1.0926
   86TCq2    C2 1311   2.175   4.406  16.490 -0.2093  0.0021  0.7575
   86TCq2    C3 1312   2.167   4.519  16.567  0.0140  0.7096 -0.2398
   86TCq2    C4 1313   2.138   4.637  16.507 -0.1559 -0.0712  0.1661
   86TCq2    C5 1314   2.131   4.643  16.370  0.5646 -0.1138  0.5096
   86TCq2    C6 1315   2.166   4.532  16.293  0.7667 -0.2742  0.0042
   86TCq2    C7 1316   2.182   4.409  16.351 -0.3807 -0.2356  0.0433
   86TCq2    C8 1317   2.183   4.549  16.154  0.2475 -0.1224 -0.5787
   86TCq2    O4 1318   2.151   4.447  16.092  0.0844 -0.8860  0.2696
   86TCq2    C9 1319   2.128   0.033  16.587  0.4058  0.0345 -0.1841
   86TCq2    O5 1320   2.182   0.024  16.702 -0.6453 -0.6342 -0.0709
   86TCq2    O6 1321   2.076   0.133  16.530  0.1962 -0.0901 -0.4149
   86TCq2    H2 1322   2.165   4.507  16.675  0.7146  0.8410 -0.2096
   86TCq2    H3 1323   2.110   0.018  16.325 -1.8730 -1.8788 -2.1707
   86TCq2    H4 1324   2.208   4.323  16.290 -1.3742 -0.9272  0.5979
   87MPD2     C 1325   3.968   2.648   0.739  0.5324  0.1460  0.1869
   87MPD2    C1 1326   3.895   2.602   0.849 -0.8014 -0.3066 -0.0548
   87MPD2    C2 1327   3.827   2.687   0.929  0.5453  0.0771  0.6904
   87MPD2    C3 1328   3.834   2.826   0.901 -0.6640 -0.2374 -0.0491
   87MPD2    C4 1329   3.892   2.860   0.786 -0.5018  0.0007  0.4708
   87MPD2    C5 1330   3.962   2.776   0.707 -0.3513 -0.3090 -0.2731
   87MPD2     H 1331   3.780   2.655   1.021  0.4853 -1.9901 -0.0734
   87MPD2    H1 1332   3.875   2.963   0.756  1.9052 -0.0824 -1.2191
   87MPD2    H2 1333   4.039   2.579   0.696 -0.9074 -0.8648 -0.5580
   87MPD2    H3 1334   4.010   2.813   0.617  1.5138  1.0505  1.2678
   87MPD2     N 1335   3.766   2.928   0.982  0.3343  0.2656 -0.8324
   87MPD2    H5 1336   3.791   3.026   0.969 -0.8607  0.6017 -0.6258
   87MPD2    N1 1337   3.886   2.461   0.863  0.0056 -0.1385  0.7232
   87MPD2    H7 1338   3.943   2.406   0.799  0.4763  0.1077  0.9307
   88TCq2    C1 1339   3.825   2.389   0.962  0.0181 -0.0028  0.4830
   88TCq2    O2 1340   3.739   2.431   1.038  0.3119 -0.1156  0.3805
   88TCq2    C2 1341   3.868   2.254   0.974 -0.5635  0.0842 -0.2315
   88TCq2    C3 1342   3.777   2.164   1.020  0.2384  0.0892  0.1735
   88TCq2    C4 1343   3.820   2.036   1.054 -0.0948 -0.5026  0.5795
   88TCq2    C5 1344   3.952   2.001   1.033  0.0168  0.9083  0.6384
   88TCq2    C6 1345   4.047   2.094   0.992 -0.9053 -0.7053 -0.2472
   88TCq2    C7 1346   4.002   2.220   0.959  0.1991  0.4024  0.0428
   88TCq2    C8 1347   4.162   2.053   0.911  0.7066  0.9040 -0.2486
   88TCq2    O4 1348   4.179   2.121   0.810  0.3049  0.4098 -0.5074
   88TCq2    C9 1349   3.721   1.941   1.096 -0.3830  0.0657 -0.4372
   88TCq2    O5 1350   3.767   1.835   1.149 -0.0370  0.0623  0.1722
   88TCq2    O6 1351   3.601   1.967   1.071  0.0282  0.6972  0.5330
   88TCq2    H2 1352   3.676   2.194   1.048 -0.6415 -2.3723 -0.4154
   88TCq2    H3 1353   3.977   1.896   1.043  1.4873  1.1492 -0.4473
   88TCq2    H4 1354   4.075   2.295   0.932  1.8018 -1.2673 -0.2722
   89MPD2     C 1355   0.271   0.874   1.888  0.2795  0.1239 -0.3765
   89MPD2    C1 1356   0.240   1.002   1.841  0.0684 -0.8815 -0.1979
   89MPD2    C2 1357   0.315   1.052   1.736 -0.4807  0.4035  0.0672
   89MPD2    C3 1358   0.427   0.990   1.694  0.1597 -0.3440  0.6534
   89MPD2    C4 1359   0.464   0.869   1.748  0.0772 -0.4291 -0.8176
   89MPD2    C5 1360   0.378   0.811   1.835  0.8148  0.2344 -0.6205
   89MPD2     H 1361   0.291   1.147   1.690 -0.2649  0.7456  0.6595
   89MPD2    H1 1362   0.559   0.818   1.740  1.1251  1.3393  0.5570
   89MPD2    H2 1363   0.209   0.829   1.964 -2.8151 -0.1180 -3.0275
   89MPD2    H3 1364   0.400   0.717   1.884 -1.0975 -0.1744 -0.5572
   89MPD2     N 1365   0.507   1.060   1.603  0.4308  0.1318  0.0794
   89MPD2    H5 1366   0.468   1.147   1.570 -1.4317 -0.6265  0.2931
   89MPD2    N1 1367   0.126   1.079   1.888 -0.5404  0.3893  0.4959
   89MPD2    H7 1368   0.131   1.178   1.866  1.4335  0.1359 -0.1631
   90TCq2    C1 1369   0.627   1.013   1.549 -0.1182  0.3246 -0.1627
   90TCq2    O2 1370   0.674   0.900   1.566  0.2369 -0.3319  0.1772
   90TCq2    C2 1371   0.672   1.086   1.430  0.9669 -0.1853  0.3511
   90TCq2    C3 1372   0.758   1.022   1.342 -0.4366  0.1278  0.4423
   90TCq2    C4 1373   0.834   1.099   1.255 -0.0322  0.4190  0.0269
   90TCq2    C5 1374   0.836   1.236   1.265 -0.1894  0.3411  0.4387
   90TCq2    C6 1375   0.755   1.293   1.367  0.3264  0.9168 -0.1532
   90TCq2    C7 1376   0.677   1.221   1.450  0.0240 -0.7635 -0.1102
   90TCq2    C8 1377   0.772   1.435   1.401 -0.2779 -0.2820  0.9829
   90TCq2    O4 1378   0.686   1.486   1.471 -0.8569  0.2001 -0.4269
   90TCq2    C9 1379   0.925   1.043   1.157  0.1555  0.1132 -0.4090
   90TCq2    O5 1380   0.939   0.921   1.162 -0.4120  0.0268  0.1825
   90TCq2    O6 1381   1.014   1.119   1.108 -0.0005  0.7336 -0.1986
   90TCq2    H2 1382   0.759   0.914   1.336 -0.6547  0.0739  1.3059
   90TCq2    H3 1383   0.889   1.301   1.195  0.8626 -1.0479 -0.0452
   90TCq2    H4 1384   0.650   1.249   1.551 -2.1231 -1.4298 -0.5077
   91TMC2    C1 1385   2.096   0.418  16.340 -0.0218 -0.5907 -0.4560
   91TMC2    C2 1386   2.051   0.397  16.466  0.8695 -0.3788  0.2736
   91TMC2    C3 1387   1.913   0.411  16.491 -0.0032 -0.2316 -0.1221
   91TMC2    C4 1388   2.015   0.464  16.241 -0.0574 -0.0745  0.7918
   91TMC2    C5 1389   1.885   0.486  16.271 -0.1049  0.1312  0.0585
   91TMC2    C6 1390   1.833   0.466  16.396 -0.3143 -0.2069 -0.4414
   91TMC2     C 1391   2.225   0.373  16.298 -0.4632 -0.1584 -0.5131
   91TMC2     O 1392   2.259   0.388  16.181 -0.7733  0.2847  0.5973
   91TMC2     H 1393   2.115   0.352  16.541 -0.9484 -3.0466  0.2279
   91TMC2    H1 1394   2.049   0.463  16.138 -0.5266  0.6398  0.6268
   91TMC2    H2 1395   1.729   0.492  16.415 -0.4791 -1.2312  0.0484
   91TMC2    C7 1396   1.800   0.504  16.156 -0.5748  0.4088 -0.1280
   91TMC2    C8 1397   1.852   0.367  16.617  0.3076  0.9373 -1.1818
   91TMC2    O1 1398   1.854   0.523  16.048  0.2630 -0.3372 -0.5674
   91TMC2    O2 1399   1.747   0.404  16.661  0.1608  0.7634 -0.1378
   91TMC2    O5 1400   1.910   0.259  16.671  0.5441  0.0095  0.5228
   91TMC2    H5 1401   1.980   0.216  16.616  0.9169 -0.8462  1.6785
   92MPD2     C 1402   2.517   0.342  16.294  0.1832 -0.5948  0.9016
   92MPD2    C1 1403   2.433   0.283  16.384 -0.9082  0.4145 -0.3423
   92MPD2    C2 1404   2.500   0.213  16.478  0.1058  0.1801  0.3473
   92MPD2    C3 1405   2.634   0.194  16.487 -0.0207  0.4209  0.2440
   92MPD2    C4 1406   2.716   0.249  16.390  0.1590  0.0010  0.0038
   92MPD2    C5 1407   2.656   0.323  16.302  0.1693  0.4571 -0.2600
   92MPD2     H 1408   2.444   0.164  16.558 -0.4002  0.6658  0.2884
   92MPD2    H1 1409   2.824   0.237  16.386 -0.0350 -1.8201  0.1808
   92MPD2    H2 1410   2.492   0.398  16.204  0.3189  0.7514  1.7032
   92MPD2    H3 1411   2.717   0.365  16.223 -1.8008  0.3377 -1.8634
   92MPD2     N 1412   2.678   0.123  16.601  0.0205 -0.4668  0.0601
   92MPD2    H5 1413   2.608   0.089  16.666  0.5908  0.3061  1.0808
   92MPD2    N1 1414   2.294   0.301  16.394  0.2139 -0.2841  0.1144
   92MPD2    H7 1415   2.231   0.263  16.464 -0.1325  0.8218  0.4025
   93MPD2     C 1416   3.583   0.030  14.069 -0.4589  0.5627 -0.1732
   93MPD2    C1 1417   3.523   0.155  14.052 -0.3968 -0.3561 -0.1694
   93MPD2    C2 1418   3.387   0.153  14.019 -0.1399 -0.3445  0.9347
   93MPD2    C3 1419   3.317   0.044  13.984  0.1558  0.2387 -0.2483
   93MPD2    C4 1420   3.370   4.642  14.022 -0.8792  0.7290 -0.1404
   93MPD2    C5 1421   3.507   4.634  14.055 -0.4070  0.2817 -0.6434
   93MPD2     H 1422   3.344   0.252  14.008  1.1466 -0.1108 -1.8445
   93MPD2    H1 1423   3.308   4.556  14.001  0.3552 -0.3318  0.5496
   93MPD2    H2 1424   3.687   0.027  14.100 -0.6538 -0.1480  0.4311
   93MPD2    H3 1425   3.562   4.541  14.056  0.0339  0.5576  0.6741
   93MPD2     N 1426   3.181   0.044  13.935  0.3275 -0.0509  0.7600
   93MPD2    H5 1427   3.129   4.679  13.927 -2.3426  1.6547 -0.2050
   93MPD2    N1 1428   3.603   0.274  14.072  0.3170 -0.3330  0.0157
   93MPD2    H7 1429   3.704   0.263  14.071  0.2598 -1.0470  1.7798
   94TCq2    C1 1430   3.552   0.400  14.091  0.5386 -0.3131  0.1951
   94TCq2    O2 1431   3.439   0.441  14.127  0.1649 -0.1394 -0.3559
   94TCq2    C2 1432   3.652   0.508  14.085 -0.0355 -0.0006 -0.3531
   94TCq2    C3 1433   3.629   0.627  14.139 -0.3341 -0.0933 -0.3384
   94TCq2    C4 1434   3.727   0.719  14.159 -0.3007 -0.0810  0.0908
   94TCq2    C5 1435   3.848   0.695  14.100  0.0077 -0.3621 -0.1187
   94TCq2    C6 1436   3.875   0.568  14.045  0.2244  0.3799 -0.2512
   94TCq2    C7 1437   3.771   0.475  14.029 -0.2664  0.9250 -0.1621
   94TCq2    C8 1438   4.002   0.544  13.983  0.1389 -0.6322 -0.9091
   94TCq2    O4 1439   3.997   0.469  13.882  0.0764 -0.2085  0.2066
   94TCq2    C9 1440   3.692   0.842  14.224  0.1371 -0.2781  0.0611
   94TCq2    O5 1441   3.572   0.865  14.247 -0.3307 -0.0990 -0.0305
   94TCq2    O6 1442   3.787   0.915  14.257  0.1287  0.3532 -0.6611
   94TCq2    H2 1443   3.530   0.645  14.180 -1.1320 -2.3511 -1.2913
   94TCq2    H3 1444   3.913   0.782  14.100  0.1081 -0.4372  0.1724
   94TCq2    H4 1445   3.783   0.388  13.966  0.5567 -0.0403  1.3576
   95TMC2    C1 1446   3.473   1.872  15.917 -0.1432 -0.7734 -0.4728
   95TMC2    C2 1447   3.396   1.837  15.809 -0.3287  0.5858 -0.2670
   95TMC2    C3 1448   3.292   1.750  15.821 -0.3581  0.0068  0.4662
   95TMC2    C4 1449   3.451   1.826  16.041  0.1245  0.1372  0.0166
   95TMC2    C5 1450   3.347   1.737  16.047  0.4009 -0.1345 -0.6447
   95TMC2    C6 1451   3.267   1.705  15.942 -0.1976  0.0471  0.3959
   95TMC2     C 1452   3.585   1.955  15.900 -0.0754  0.6537 -0.3915
   95TMC2     O 1453   3.639   1.949  15.793  0.5814 -0.8461  0.4660
   95TMC2     H 1454   3.414   1.877  15.709  2.0705  3.3802  1.2529
   95TMC2    H1 1455   3.510   1.855  16.127 -0.6497  1.9402 -0.0666
   95TMC2    H2 1456   3.175   1.649  15.962 -0.5637  1.9107  3.8760
   95TMC2    C7 1457   3.311   1.676  16.171  0.5503  0.1656  0.4069
   95TMC2    C8 1458   3.205   1.717  15.714 -0.2290 -0.1962  0.7575
   95TMC2    O1 1459   3.253   1.570  16.151 -0.4385  0.2352  0.0039
   95TMC2    O2 1460   3.155   1.606  15.698 -1.0268  0.3962  0.3909
   95TMC2    O5 1461   3.217   1.802  15.612  0.9679 -0.5048  0.3614
   95TMC2    H5 1462   3.234   1.890  15.652 -3.5013  1.9180 -3.0148
   96MPD2     C 1463   3.850   2.385  15.980  0.7378 -0.5641  0.4798
   96MPD2    C1 1464   3.829   2.317  15.862 -0.3312 -0.8423  0.3486
   96MPD2    C2 1465   3.744   2.210  15.862  0.3960 -0.2691  0.3140
   96MPD2    C3 1466   3.674   2.169  15.980 -0.3729  0.3172 -0.0902
   96MPD2    C4 1467   3.687   2.252  16.089  0.0544  0.0200  0.4048
   96MPD2    C5 1468   3.786   2.349  16.099 -0.2904  0.1729 -0.1167
   96MPD2     H 1469   3.745   2.147  15.774  1.7979 -0.8704  0.7584
   96MPD2    H1 1470   3.628   2.247  16.180 -0.1705  2.2817  0.3906
   96MPD2    H2 1471   3.921   2.468  15.987 -0.9456  0.9707 -0.6113
   96MPD2    H3 1472   3.801   2.415  16.184  0.1420 -2.1880  1.6380
   96MPD2     N 1473   3.599   2.055  15.989 -0.1529 -0.4612 -0.1682
   96MPD2    H5 1474   3.550   2.030  16.074  0.5184  2.1894  0.9856
   96MPD2    N1 1475   3.905   2.373  15.757 -0.3130  0.2443  0.3668
   96MPD2    H7 1476   3.967   2.447  15.788 -1.3566  1.2167  0.0920
   97MPD2     C 1477   0.196   4.313   0.881 -0.6561  0.3827  0.8096
   97MPD2    C1 1478   0.212   4.453   0.890  0.0120 -0.1227  0.3262
   97MPD2    C2 1479   0.256   4.536   0.783 -0.0439  0.0354 -0.6797
   97MPD2    C3 1480   0.301   4.467   0.670  1.0374  0.0307  0.3868
   97MPD2    C4 1481   0.281   4.327   0.663 -0.7076 -0.0848  0.2081
   97MPD2    C5 1482   0.229   4.251   0.767 -0.6593 -0.1491  0.0851
   97MPD2     H 1483   0.257   4.644   0.786 -1.0079  0.0720 -2.0715
   97MPD2    H1 1484   0.307   4.263   0.579  1.7452  0.8160  0.2906
   97MPD2    H2 1485   0.149   4.257   0.960 -1.0106  1.5961  1.4623
   97MPD2    H3 1486   0.202   4.146   0.755 -0.4117  0.0667 -2.3995
   97MPD2     N 1487   0.353   4.526   0.556  0.3693  0.7991  0.0357
   97MPD2    H5 1488   0.384   4.469   0.478  0.0866  1.1687 -0.3467
   97MPD2    N1 1489   0.168   4.503   1.015  0.4837  0.3000  0.3429
   97MPD2    H7 1490   0.148   4.427   1.079 -3.0283  2.5131  1.8916
   98TCq2    C1 1491   0.382   4.663   0.538  1.0071 -0.2617  0.8476
   98TCq2    O2 1492   0.377   0.028   0.623  0.0699  0.0662  0.1609
   98TCq2    C2 1493   0.449   4.695   0.413  0.3328 -0.0721  0.5241
   98TCq2    C3 1494   0.428   4.615   0.304 -0.3405 -0.2905  0.2979
   98TCq2    C4 1495   0.526   4.611   0.204 -0.2214  0.1190  0.1398
   98TCq2    C5 1496   0.634   4.695   0.204 -0.4140 -0.0199 -0.1327
   98TCq2    C6 1497   0.634   0.059   0.310  0.9060  0.6154 -0.7778
   98TCq2    C7 1498   0.544   0.068   0.413 -0.2017 -0.5985 -0.4418
   98TCq2    C8 1499   0.743   0.154   0.323  0.2688 -0.0378  0.6044
   98TCq2    O4 1500   0.780   0.182   0.438 -0.5579 -0.1971  0.0155
   98TCq2    C9 1501   0.510   4.512   0.097 -0.3859  0.2572 -0.5707
   98TCq2    O5 1502   0.601   4.517   0.006  0.1411 -0.0109 -0.5203
   98TCq2    O6 1503   0.421   4.424   0.113 -0.4677  0.3455  0.6741
   98TCq2    H2 1504   0.343   4.549   0.297  0.3058 -1.2016  1.0882
   98TCq2    H3 1505   0.712   4.680   0.130  0.2738 -1.1998  0.8485
   98TCq2    H4 1506   0.562   0.132   0.498 -0.0852  0.1347 -1.0212
   99MPD2     C 1507   4.680   1.711   1.836 -0.1718  0.3028 -0.1567
   99MPD2    C1 1508   4.543   1.694   1.830 -0.1325  0.1238  0.9254
   99MPD2    C2 1509   4.484   1.639   1.716  0.6168 -0.4003 -0.1615
   99MPD2    C3 1510   4.563   1.622   1.603 -0.2102  0.0650 -0.2482
   99MPD2    C4 1511   4.694   1.668   1.603 -0.1681  0.1466 -0.5707
   99MPD2    C5 1512   0.037   1.698   1.728 -0.1555 -0.2870 -0.1998
   99MPD2     H 1513   4.380   1.610   1.717  0.6518 -0.4752  1.4039
   99MPD2    H1 1514   0.036   1.659   1.516  1.4296  1.6122  0.4448
   99MPD2    H2 1515   0.011   1.737   1.927 -1.9377  2.3751  0.2874
   99MPD2    H3 1516   0.145   1.704   1.736 -0.1152 -0.9898 -0.1801
   99MPD2     N 1517   4.490   1.578   1.491 -0.0748  0.0885  0.1849
   99MPD2    H5 1518   4.394   1.551   1.510 -0.6122  0.3181 -2.2019
   99MPD2    N1 1519   4.451   1.731   1.933 -0.2574  0.2653  0.1936
   99MPD2    H7 1520   4.358   1.690   1.927  0.4043 -1.1124 -0.7115
  100TCq2    C1 1521   4.485   1.829   2.018 -0.8097 -0.4276  0.0036
  100TCq2    O2 1522   4.585   1.896   2.025  0.0843 -0.0237 -0.5133
  100TCq2    C2 1523   4.379   1.846   2.111 -0.0572  0.3868 -0.5868
  100TCq2    C3 1524   4.395   1.950   2.194 -0.1915  0.3200 -0.5568
  100TCq2    C4 1525   4.322   1.967   2.308  0.5713 -0.0995 -0.3680
  100TCq2    C5 1526   4.214   1.878   2.329  0.1190  0.0145 -0.1005
  100TCq2    C6 1527   4.205   1.773   2.249 -0.1301  0.3705  0.0233
  100TCq2    C7 1528   4.281   1.752   2.135  0.1847  0.0842  0.5296
  100TCq2    C8 1529   4.086   1.697   2.265  0.1244  0.5578 -0.3790
  100TCq2    O4 1530   4.029   1.685   2.373  0.4305 -0.2096 -0.0385
  100TCq2    C9 1531   4.350   2.075   2.403 -0.6443  0.1384  0.1402
  100TCq2    O5 1532   4.448   2.152   2.380 -0.3288 -0.1318 -0.2522
  100TCq2    O6 1533   4.272   2.093   2.499 -0.5235  0.7640  0.3140
  100TCq2    H2 1534   4.474   2.023   2.178 -0.0143  0.8350  2.8351
  100TCq2    H3 1535   4.142   1.894   2.408 -0.1674 -0.1099 -0.3328
  100TCq2    H4 1536   4.282   1.652   2.093  3.1158 -0.3134  1.6015
  101MPD2     C 1537   0.888   2.649  13.007 -0.2287 -0.1935  0.3843
  101MPD2    C1 1538   0.831   2.707  13.124 -1.3474  0.5554  0.2881
  101MPD2    C2 1539   0.779   2.621  13.220 -0.2826 -0.2550 -0.5425
  101MPD2    C3 1540   0.773   2.483  13.206 -0.2318  0.3759  0.4692
  101MPD2    C4 1541   0.837   2.423  13.103  0.2118  0.4891 -0.5211
  101MPD2    C5 1542   0.900   2.514  13.008  0.6520  0.1124  0.1437
  101MPD2     H 1543   0.735   2.668  13.307  3.4471 -0.2309  1.3763
  101MPD2    H1 1544   0.856   2.317  13.104  0.7408  0.5635 -1.9061
  101MPD2    H2 1545   0.939   2.700  12.925  0.1011 -1.6892 -0.3381
  101MPD2    H3 1546   0.967   2.468  12.937  0.7034 -1.7123  1.3851
  101MPD2     N 1547   0.692   2.418  13.305 -0.3668  0.0466 -0.4659
  101MPD2    H5 1548   0.654   2.482  13.374 -0.1827  0.1404 -0.4533
  101MPD2    N1 1549   0.823   2.847  13.125 -0.0690 -0.1690  0.7070
  101MPD2    H7 1550   0.875   2.892  13.050  1.3981 -0.0123  1.8337
  102TCq2    C1 1551   0.881   3.247  12.893  0.4029 -0.3034  0.0871
  102TCq2    O2 1552   0.970   3.167  12.879 -0.1293  0.0337  0.3324
  102TCq2    C2 1553   0.782   3.219  13.000 -0.5119  0.3801  0.4100
  102TCq2    C3 1554   0.657   3.270  12.990 -0.8868  0.7977 -0.2746
  102TCq2    C4 1555   0.555   3.205  13.053 -0.5289 -0.5071  0.4511
  102TCq2    C5 1556   0.578   3.095  13.125 -0.6975  0.2880  0.7420
  102TCq2    C6 1557   0.709   3.051  13.140 -0.0290  0.0989  0.7845
  102TCq2    C7 1558   0.814   3.112  13.079 -0.0116  0.5899  0.0809
  102TCq2    C8 1559   0.716   2.915  13.186  0.1090 -0.2878 -0.3124
  102TCq2    O4 1560   0.620   2.875  13.256  0.0507  0.1416  0.5738
  102TCq2    C9 1561   0.421   3.250  13.038  0.2786  0.7783  0.3055
  102TCq2    O5 1562   0.405   3.348  12.960 -0.0805 -0.0424  0.0815
  102TCq2    O6 1563   0.332   3.173  13.087 -0.5586  0.0854  0.6750
  102TCq2    H2 1564   0.635   3.348  12.918 -1.5849  1.1578  0.3258
  102TCq2    H3 1565   0.492   3.054  13.176  0.1593 -1.7739  0.5110
  102TCq2    H4 1566   0.917   3.079  13.080 -0.5451 -0.9970  2.5461
  103TMC2    C1 1567   3.485   2.736  12.640 -0.4261  0.2056 -0.2361
  103TMC2    C2 1568   3.596   2.661  12.685 -0.0524  0.3127 -0.2732
  103TMC2    C3 1569   3.577   2.534  12.732  0.8007 -0.3254  0.2261
  103TMC2    C4 1570   3.359   2.673  12.631  0.2759 -0.3688 -0.2775
  103TMC2    C5 1571   3.355   2.542  12.668 -0.5153 -0.1136 -0.4862
  103TMC2    C6 1572   3.458   2.471  12.720 -0.2174 -0.4456 -0.3382
  103TMC2     C 1573   3.500   2.852  12.559 -0.0477 -0.4270 -0.1262
  103TMC2     O 1574   3.412   2.864  12.471 -0.3423 -0.2317 -0.3068
  103TMC2     H 1575   3.698   2.696  12.691  0.6397 -1.7587  0.0567
  103TMC2    H1 1576   3.274   2.727  12.592  0.0235  0.7328  1.8560
  103TMC2    H2 1577   3.449   2.371  12.762  0.3786 -0.1330  0.5495
  103TMC2    C7 1578   3.224   2.486  12.674 -0.2372 -0.1682  0.3609
  103TMC2    C8 1579   3.697   2.459  12.745 -0.2258  0.3492 -0.0487
  103TMC2    O1 1580   3.217   2.398  12.758  0.3455  0.2043 -0.6803
  103TMC2    O2 1581   3.689   2.348  12.697  0.2969  0.1877  0.1334
  103TMC2    O5 1582   3.753   2.493  12.863  0.0485 -0.0495  0.3351
  103TMC2    H5 1583   3.741   2.589  12.882  0.4959 -0.0293  0.5266
  104MPD2     C 1584   3.736   3.141  12.613  0.3442  0.5474 -0.6548
  104MPD2    C1 1585   3.632   3.065  12.555  0.4867  0.4610 -0.0328
  104MPD2    C2 1586   3.575   3.112  12.436 -1.1629  0.9227 -0.6410
  104MPD2    C3 1587   3.632   3.213  12.363  0.0634 -0.2513  0.0494
  104MPD2    C4 1588   3.740   3.282  12.425 -0.5051 -0.4661  0.4685
  104MPD2    C5 1589   3.789   3.245  12.544 -0.4510  0.7153  0.2203
  104MPD2     H 1590   3.494   3.052  12.395 -1.5235  1.1970 -0.3349
  104MPD2    H1 1591   3.776   3.375  12.384  0.9305 -2.2853 -2.4206
  104MPD2    H2 1592   3.763   3.104  12.711  2.5541 -1.1088 -1.8896
  104MPD2    H3 1593   3.871   3.304  12.586 -1.7459  1.2805  1.9591
  104MPD2     N 1594   3.572   3.249  12.239  0.3013  0.4507 -0.6418
  104MPD2    H5 1595   3.496   3.196  12.195  1.1809 -1.7867  0.5252
  104MPD2    N1 1596   3.595   2.943  12.614 -0.4476  0.1327 -0.4278
  104MPD2    H7 1597   3.642   2.916  12.700  1.6188 -0.3849 -1.7235
  105MPD2     C 1598   0.447   2.034  17.397 -1.0665 -0.3203  0.9226
  105MPD2    C1 1599   0.336   2.113  17.409  0.3292 -0.1160 -0.6352
  105MPD2    C2 1600   0.279   2.123  17.535  0.0824 -0.1292  0.0546
  105MPD2    C3 1601   0.321   2.052  17.643  0.0437 -0.6116  0.1586
  105MPD2    C4 1602   0.431   1.962  17.621 -1.0210 -0.5643  0.0907
  105MPD2    C5 1603   0.498   1.965  17.498 -1.1731 -0.5848  0.3343
  105MPD2     H 1604   0.192   2.188  17.537 -0.1669 -0.5104  1.9591
  105MPD2    H1 1605   0.460   1.892   0.010  0.5719  0.2751  0.2556
  105MPD2    H2 1606   0.486   2.015  17.298 -0.6871  0.3764  0.9363
  105MPD2    H3 1607   0.579   1.894  17.486  2.2374  3.2166  0.8577
  105MPD2     N 1608   0.240   2.049   0.067 -0.3091  0.3161 -0.1487
  105MPD2    H5 1609   0.159   2.111   0.060  1.3903  2.6340  0.9245
  105MPD2    N1 1610   0.266   2.180  17.309  0.1183  0.1636  0.2276
  105MPD2    H7 1611   0.174   2.214  17.335 -0.5553 -1.2153 -0.3563
  106TCq2    C1 1612   0.259   1.986   0.182 -0.2193  0.2941 -0.4133
  106TCq2    O2 1613   0.340   1.900   0.221  0.3789 -0.1225 -0.1572
  106TCq2    C2 1614   0.163   2.044   0.279 -0.0618 -0.2163 -0.3729
  106TCq2    C3 1615   0.115   2.168   0.256 -0.2428 -0.1970  0.2939
  106TCq2    C4 1616   0.022   2.217   0.349 -0.0225  0.5519  0.2993
  106TCq2    C5 1617   4.701   2.136   0.455  0.2647  0.2497  0.1092
  106TCq2    C6 1618   0.038   2.016   0.475 -0.3216  0.2314 -0.2681
  106TCq2    C7 1619   0.135   1.972   0.387 -0.2781  0.2534  0.3637
  106TCq2    C8 1620   4.720   1.930   0.590 -0.3758 -0.3793 -0.0568
  106TCq2    O4 1621   0.083   1.852   0.626 -0.1345  0.3237 -0.2873
  106TCq2    C9 1622   4.698   2.350   0.335  0.6128 -0.1272 -0.6764
  106TCq2    O5 1623   0.034   2.426   0.253 -0.1620  0.5224  0.0303
  106TCq2    O6 1624   4.603   2.384   0.418 -0.0045  0.4373 -0.0003
  106TCq2    H2 1625   0.143   2.229   0.170 -2.2823  1.2678  0.6697
  106TCq2    H3 1626   4.634   2.179   0.529 -1.3033  1.1780 -1.8452
  106TCq2    H4 1627   0.172   1.872   0.402 -2.1695 -0.4765  0.1477
  107TMC2    C1 1628   0.757   1.583  11.397  0.7449 -0.2632 -0.0073
  107TMC2    C2 1629   0.859   1.642  11.332 -0.3347 -1.1321  0.5306
  107TMC2    C3 1630   0.883   1.592  11.208 -0.2355 -0.2860 -0.2208
  107TMC2    C4 1631   0.678   1.481  11.341 -0.5429 -0.4926  0.2713
  107TMC2    C5 1632   0.712   1.437  11.221  0.7737  0.4797 -0.2381
  107TMC2    C6 1633   0.819   1.493  11.151 -0.0345  0.0154 -0.1549
  107TMC2     C 1634   0.704   1.665  11.502  0.3224  0.4860  0.0153
  107TMC2     O 1635   0.630   1.611  11.581  0.7534 -1.0088 -0.3054
  107TMC2     H 1636   0.923   1.709  11.388 -2.0285 -0.8585  2.1399
  107TMC2    H1 1637   0.591   1.437  11.388  1.5371 -1.5176  3.2103
  107TMC2    H2 1638   0.850   1.461  11.052  2.4081  0.5957  0.4124
  107TMC2    C7 1639   0.646   1.329  11.157  0.4848 -0.3126  0.5281
  107TMC2    C8 1640   0.989   1.640  11.128 -0.0570  0.0334 -0.0073
  107TMC2    O1 1641   0.584   1.249  11.229 -0.6338  0.0962  0.1007
  107TMC2    O2 1642   1.046   1.562  11.048 -0.0860 -0.6405 -0.0871
  107TMC2    O5 1643   0.979   1.777  11.118  0.1563 -0.5335  0.5893
  107TMC2    H5 1644   0.913   1.817  11.178  1.4322 -0.4169  1.9168
  108MPD2     C 1645   0.777   2.014  11.581 -0.1812 -0.0539 -0.8839
  108MPD2    C1 1646   0.726   1.892  11.608  0.7182 -0.3548  0.3907
  108MPD2    C2 1647   0.683   1.872  11.739 -0.0013 -0.3128 -0.8752
  108MPD2    C3 1648   0.681   1.973  11.838 -0.1396  0.5783  0.1072
  108MPD2    C4 1649   0.741   2.090  11.809  0.0825  0.5365  0.1032
  108MPD2    C5 1650   0.780   2.115  11.678 -0.4122 -0.4064  0.4804
  108MPD2     H 1651   0.645   1.771  11.750  1.0989 -0.4465  1.8041
  108MPD2    H1 1652   0.725   2.178  11.870  1.3113  1.2131 -0.5410
  108MPD2    H2 1653   0.818   2.032  11.482 -1.6261  0.1516 -1.4487
  108MPD2    H3 1654   0.820   2.214  11.660  1.0057 -0.4669  3.3784
  108MPD2     N 1655   0.615   1.966  11.958  0.1101  0.0400 -0.0677
  108MPD2    H5 1656   0.605   2.053  12.009  0.4258  0.1037 -0.1103
  108MPD2    N1 1657   0.746   1.797  11.509 -0.3379 -0.1610 -0.6551
  108MPD2    H7 1658   0.785   1.834  11.423 -0.8460 -0.5320 -1.0501
  109MPD2     C 1659   4.277   3.368   2.070  0.2887  0.2006  0.5362
  109MPD2    C1 1660   4.341   3.418   1.965 -0.5268  0.1400  0.1219
  109MPD2    C2 1661   4.363   3.562   1.957  0.0382 -0.7207  0.3253
  109MPD2    C3 1662   4.316   3.644   2.062 -0.2282 -0.0842  0.1267
  109MPD2    C4 1663   4.262   3.579   2.168  0.2476  0.0672 -0.0939
  109MPD2    C5 1664   4.242   3.445   2.167  0.4277 -0.0919 -0.2830
  109MPD2     H 1665   4.399   3.609   1.866  0.8906 -0.8698  0.5886
  109MPD2    H1 1666   4.238   3.634   2.258 -0.3203 -0.1230 -0.1322
  109MPD2    H2 1667   4.266   3.263   2.094  1.8437 -0.0544  0.1577
  109MPD2    H3 1668   4.209   3.390   2.255  3.9290  0.1247  1.1437
  109MPD2     N 1669   4.338   3.787   2.067  0.3250 -0.4163  0.3039
  109MPD2    H5 1670   4.378   3.818   1.979  0.3562  0.3905  0.6037
  109MPD2    N1 1671   4.385   3.324   1.866  0.0100 -0.0432 -0.0225
  109MPD2    H7 1672   4.380   3.224   1.883 -0.6004 -0.0948 -0.4987
  110TCq2    C1 1673   4.314   3.875   2.171 -0.8779 -0.6413 -0.3654
  110TCq2    O2 1674   4.271   3.854   2.284 -0.1098 -0.2291  0.2302
  110TCq2    C2 1675   4.374   4.008   2.148 -0.3640 -0.2838 -0.5097
  110TCq2    C3 1676   4.356   4.098   2.252 -0.2704  0.2046 -0.5860
  110TCq2    C4 1677   4.411   4.223   2.229 -0.7081  0.0966 -0.2280
  110TCq2    C5 1678   4.476   4.256   2.112 -0.0629 -0.5638 -0.2353
  110TCq2    C6 1679   4.496   4.157   2.023 -0.1258 -0.6572  0.7256
  110TCq2    C7 1680   4.450   4.030   2.039 -0.1668  0.4363  0.0694
  110TCq2    C8 1681   4.531   4.206   1.894 -0.2266  0.1293 -0.5614
  110TCq2    O4 1682   4.583   4.318   1.881 -0.2243 -0.3528  0.2682
  110TCq2    C9 1683   4.362   4.325   2.316 -0.2977 -0.0877 -0.0700
  110TCq2    O5 1684   4.324   4.296   2.433 -0.8469 -0.2241  0.6387
  110TCq2    O6 1685   4.353   4.439   2.262  0.1052 -0.2617 -0.2198
  110TCq2    H2 1686   4.308   4.077   2.347  1.9042 -0.1292  0.4315
  110TCq2    H3 1687   4.497   4.360   2.095  0.6365 -0.5508  0.7137
  110TCq2    H4 1688   4.438   3.956   1.961  0.6993  1.1548 -0.7377
  111TMC2    C1 1689   1.484   3.836  11.483  0.8964 -0.0489 -0.1567
  111TMC2    C2 1690   1.588   3.895  11.421  0.2137  0.4605 -0.4960
  111TMC2    C3 1691   1.712   3.895  11.480 -0.8447  0.5216 -0.5221
  111TMC2    C4 1692   1.499   3.795  11.618 -0.3789 -0.6267 -0.8870
  111TMC2    C5 1693   1.627   3.791  11.671 -0.2934  0.0099 -0.3588
  111TMC2    C6 1694   1.735   3.839  11.600  0.3053 -0.3568 -1.5785
  111TMC2     C 1695   1.357   3.810  11.409  0.2258 -0.0257  0.1353
  111TMC2     O 1696   1.358   3.850  11.294 -0.2997  0.2564 -0.2748
  111TMC2     H 1697   1.584   3.934  11.320 -1.6424  2.5301  0.3709
  111TMC2    H1 1698   1.415   3.761  11.678  1.4217 -1.5296  1.1061
  111TMC2    H2 1699   1.832   3.840  11.650 -1.6662  4.4835  2.2134
  111TMC2    C7 1700   1.639   3.698  11.781  1.0620 -0.1553 -1.2135
  111TMC2    C8 1701   1.822   3.931  11.398 -0.1169  0.1305  0.2694
  111TMC2    O1 1702   1.556   3.692  11.873 -0.7037 -0.3700  0.2024
  111TMC2    O2 1703   1.833   4.041  11.358  0.4491  0.2277 -0.4135
  111TMC2    O5 1704   1.923   3.842  11.427 -0.0949  0.1969 -0.4630
  111TMC2    H5 1705   1.892   3.749  11.440 -0.5756  0.4216  0.0083
  112MPD2     C 1706   0.871   3.653  11.362  0.4000 -0.1390 -0.0187
  112MPD2    C1 1707   0.947   3.724  11.274  0.1377  0.0707 -0.6137
  112MPD2    C2 1708   1.078   3.749  11.308 -0.9574  0.7547  0.4037
  112MPD2    C3 1709   1.130   3.721  11.433 -0.0686 -0.2667  0.2279
  112MPD2    C4 1710   1.052   3.655  11.526  0.0284 -0.1492 -0.1207
  112MPD2    C5 1711   0.930   3.616  11.480  0.1333  0.0020  0.7113
  112MPD2     H 1712   1.138   3.798  11.232 -0.8899 -0.2094 -0.1651
  112MPD2    H1 1713   1.080   3.634  11.629 -2.1643 -1.2447  0.2365
  112MPD2    H2 1714   0.771   3.624  11.332 -0.0932  1.4929  0.0780
  112MPD2    H3 1715   0.875   3.542  11.537  0.6750  0.2800  1.5919
  112MPD2     N 1716   1.258   3.748  11.482 -0.4958  0.0450 -0.2717
  112MPD2    H5 1717   1.279   3.709  11.573 -0.3263  0.0023 -0.3291
  112MPD2    N1 1718   0.903   3.755  11.138  0.5371  0.0951  0.1601
  112MPD2    H7 1719   0.980   3.771  11.073 -2.4471  2.2267 -2.8323
  113MPD2     C 1720   3.624   1.419   1.049  0.1059  0.6924  0.2432
  113MPD2    C1 1721   3.528   1.516   1.075  0.3105 -0.6684 -0.1458
  113MPD2    C2 1722   3.429   1.539   0.985 -0.3886  0.2014  0.5892
  113MPD2    C3 1723   3.419   1.465   0.873  0.8430 -0.0112  0.0898
  113MPD2    C4 1724   3.515   1.376   0.842 -0.8186  0.7133  0.0134
  113MPD2    C5 1725   3.622   1.362   0.923 -0.4622  0.2040 -0.0829
  113MPD2     H 1726   3.350   1.607   1.015 -1.0047 -0.0427 -0.4657
  113MPD2    H1 1727   3.529   1.323   0.748  0.1801  1.8769 -0.5015
  113MPD2    H2 1728   3.691   1.388   1.128  0.3517  0.4823 -0.0463
  113MPD2    H3 1729   3.702   1.302   0.881  1.0464  1.5102  0.9570
  113MPD2     N 1730   3.306   1.476   0.786 -0.1681  0.0380  0.0710
  113MPD2    H5 1731   3.304   1.409   0.709  0.0449  0.3348 -0.1967
  113MPD2    N1 1732   3.525   1.583   1.200 -0.1995  0.3397  0.0307
  113MPD2    H7 1733   3.444   1.643   1.213 -1.2048 -0.7671 -1.1903
  114TCq2    C1 1734   3.197   1.557   0.793 -0.3019 -0.0573  0.0339
  114TCq2    O2 1735   3.172   1.643   0.872  0.1016 -0.6821  0.2264
  114TCq2    C2 1736   3.099   1.533   0.685  0.2074  0.3649 -1.2631
  114TCq2    C3 1737   3.054   1.635   0.610 -0.3312 -0.0235  0.1636
  114TCq2    C4 1738   2.977   1.601   0.505  0.5700  0.0125  0.4884
  114TCq2    C5 1739   2.951   1.469   0.474  0.1646  0.0871  0.3364
  114TCq2    C6 1740   2.998   1.366   0.550  0.2724  0.3042 -0.4725
  114TCq2    C7 1741   3.069   1.399   0.666  0.0423 -0.1643 -0.3642
  114TCq2    C8 1742   3.001   1.234   0.493 -0.0397 -0.4987  0.2476
  114TCq2    O4 1743   3.002   1.226   0.369 -1.0437  0.3232  0.4680
  114TCq2    C9 1744   2.944   1.699   0.405 -0.2397  0.3776  0.0673
  114TCq2    O5 1745   2.929   1.815   0.453 -0.6314 -0.0603  0.4393
  114TCq2    O6 1746   2.895   1.658   0.296 -0.4616 -0.3860 -0.1567
  114TCq2    H2 1747   3.074   1.740   0.630 -0.5799 -0.0423  0.5196
  114TCq2    H3 1748   2.907   1.445   0.378  1.5387  1.0094 -0.5141
  114TCq2    H4 1749   3.098   1.325   0.740  3.9547 -0.1673 -1.9207
  115TMC2    C1 1750   4.088   4.091  17.602 -0.2977 -0.0930 -0.3505
  115TMC2    C2 1751   4.103   4.104  17.469  0.1994  0.3298  0.1088
  115TMC2    C3 1752   4.083   4.234  17.420  0.6655 -0.1441  0.2832
  115TMC2    C4 1753   4.062   4.195  17.686  0.4732 -0.0884  0.4024
  115TMC2    C5 1754   4.052   4.321  17.634 -0.1702 -0.0264  0.2205
  115TMC2    C6 1755   4.063   4.339  17.503 -0.6019 -0.2005  0.3199
  115TMC2     C 1756   4.096   3.959  17.663 -0.2961  0.3130  0.0365
  115TMC2     O 1757   4.160   3.872  17.607 -0.0147  0.1428 -0.0457
  115TMC2     H 1758   4.101   4.021  17.399  1.0617  0.1423  0.3037
  115TMC2    H1 1759   4.065   4.182   0.105 -0.1233 -1.7375  0.2297
  115TMC2    H2 1760   4.058   4.437  17.458  0.4431  0.4989  1.7447
  115TMC2    C7 1761   4.043   4.437   0.034  0.3769  0.3279  0.2102
  115TMC2    C8 1762   4.086   4.261  17.283 -0.5207  0.0105 -0.3306
  115TMC2    O1 1763   3.969   4.422   0.127  0.5813  0.6160  0.3225
  115TMC2    O2 1764   4.033   4.364  17.242  0.2467 -0.3753 -0.3564
  115TMC2    O5 1765   4.206   4.219  17.233  0.2548 -0.5471  0.1684
  115TMC2    H5 1766   4.258   4.149  17.277  1.4745 -0.3558 -0.9531
  116MPD2     C 1767   3.836   3.606   0.232  0.4471 -0.0602 -0.3788
  116MPD2    C1 1768   3.936   3.588   0.139  0.1862  0.0766 -0.6091
  116MPD2    C2 1769   3.997   3.705   0.094  0.3069  0.5098  0.5646
  116MPD2    C3 1770   3.955   3.836   0.135  0.8112 -0.1044  0.2018
  116MPD2    C4 1771   3.857   3.841   0.234 -0.6172  0.0894 -0.3535
  116MPD2    C5 1772   3.797   3.727   0.278  0.4512  0.2827 -0.6449
  116MPD2     H 1773   4.064   3.692   0.009 -0.4115  1.1626 -0.1046
  116MPD2    H1 1774   3.825   3.933   0.282 -3.9599 -0.0256 -2.3370
  116MPD2    H2 1775   3.775   3.523   0.265  0.7063  0.1481  0.6284
  116MPD2    H3 1776   3.710   3.733   0.342 -0.3569 -4.8118 -1.2835
  116MPD2     N 1777   3.995   3.957   0.073  0.1699  0.1586 -0.2590
  116MPD2    H5 1778   3.954   4.046   0.100  1.3574  0.2243  1.2728
  116MPD2    N1 1779   3.967   3.461   0.086 -0.0668  0.0012  0.0196
  116MPD2    H7 1780   3.895   3.391   0.102 -0.9635  1.3475  1.7563
  117TMC2    C1 1781   3.082   0.714  13.868 -0.0842  0.9367 -0.7107
  117TMC2    C2 1782   3.172   0.616  13.866  0.5367  0.4119  0.3016
  117TMC2    C3 1783   3.288   0.647  13.928 -0.3873  0.4063 -0.1778
  117TMC2    C4 1784   3.094   0.833  13.931 -0.2858 -0.1766  0.4195
  117TMC2    C5 1785   3.220   0.859  13.982  0.3759  0.3081  0.1344
  117TMC2    C6 1786   3.320   0.769  13.984  0.1512 -0.3251 -0.3945
  117TMC2     C 1787   2.950   0.691  13.796  0.7088  0.1770 -0.6429
  117TMC2     O 1788   2.909   0.581  13.776 -0.3765 -0.7587  0.5013
  117TMC2     H 1789   3.151   0.523  13.814 -1.2754  1.0659 -0.1543
  117TMC2    H1 1790   3.015   0.907  13.923  0.4229  0.6669  1.2271
  117TMC2    H2 1791   3.415   0.793  14.031  0.0793 -1.2225  0.2002
  117TMC2    C7 1792   3.244   0.991  14.029 -0.3475 -0.4703  0.4390
  117TMC2    C8 1793   3.396   0.587  13.861 -0.5136 -0.0429  0.0793
  117TMC2    O1 1794   3.359   1.021  14.047 -0.5777 -0.5034 -0.4243
  117TMC2    O2 1795   3.472   0.658  13.798  0.2721  0.0799  0.1990
  117TMC2    O5 1796   3.381   0.456  13.837 -0.1702  0.2526 -0.2472
  117TMC2    H5 1797   3.313   0.414  13.893  0.7577 -1.0404 -0.0941
  118MPD2     C 1798   3.013   1.192  14.229 -0.6829  0.5645  0.6901
  118MPD2    C1 1799   3.121   1.161  14.150 -0.0496  0.6208  0.3528
  118MPD2    C2 1800   3.212   1.259  14.129 -0.0333  0.0734  0.1863
  118MPD2    C3 1801   3.187   1.395  14.172 -0.8636 -0.0895 -0.2612
  118MPD2    C4 1802   3.084   1.426  14.256  0.5995 -0.5085  0.0577
  118MPD2    C5 1803   2.992   1.323  14.272 -0.7415 -0.0095  0.3890
  118MPD2     H 1804   3.295   1.236  14.064 -0.5714  0.9940 -0.8360
  118MPD2    H1 1805   3.053   1.525  14.286 -1.1525 -1.4280  1.3126
  118MPD2    H2 1806   2.937   1.119  14.254 -1.6688  1.3319 -0.0369
  118MPD2    H3 1807   2.898   1.348  14.321  0.4035  0.5441  2.2964
  118MPD2     N 1808   3.249   1.507  14.112  0.0010 -0.6279  0.2447
  118MPD2    H5 1809   3.210   1.600  14.129 -2.5889 -1.4854 -0.9055
  118MPD2    N1 1810   3.132   1.032  14.100 -0.1729 -0.7055  0.0465
  118MPD2    H7 1811   3.047   0.976  14.098 -0.3671 -0.4090 -0.0582
  119MPD2     C 1812   1.625   2.100  13.731  0.0434 -0.0463 -0.3100
  119MPD2    C1 1813   1.503   2.043  13.761 -0.3238 -0.4660 -0.4195
  119MPD2    C2 1814   1.398   2.064  13.673  0.0777  0.3228 -1.0031
  119MPD2    C3 1815   1.408   2.146  13.569  0.8357  0.1498 -0.0724
  119MPD2    C4 1816   1.530   2.205  13.542  0.5460 -0.5072 -0.2095
  119MPD2    C5 1817   1.638   2.181  13.620 -0.0809 -0.3319 -0.3027
  119MPD2     H 1818   1.301   2.023  13.697  1.2652 -0.6810  2.1097
  119MPD2    H1 1819   1.539   2.262  13.450  2.5011 -3.3129 -1.7734
  119MPD2    H2 1820   1.700   2.094  13.809 -0.1509  0.9835 -0.0402
  119MPD2    H3 1821   1.734   2.225  13.594  0.4074 -0.6426  1.0019
  119MPD2     N 1822   1.301   2.178  13.490  0.5470 -0.0311  0.5464
  119MPD2    H5 1823   1.322   2.213  13.397  1.4383  0.2644  0.8643
  119MPD2    N1 1824   1.494   1.997  13.894  0.3015  0.3391 -0.7882
  119MPD2    H7 1825   1.577   1.989  13.952  0.6420 -0.7369 -1.4075
  120TCq2    C1 1826   1.173   2.156  13.515  0.3749  0.5064  0.0386
  120TCq2    O2 1827   1.123   2.156  13.628 -0.0263 -0.0902 -0.1104
  120TCq2    C2 1828   1.086   2.122  13.406  0.4150  1.1006  0.6275
  120TCq2    C3 1829   1.137   2.071  13.293  0.0464  0.1346  0.7643
  120TCq2    C4 1830   1.062   1.975  13.228  0.4102 -0.1434 -0.5519
  120TCq2    C5 1831   0.937   1.931  13.262 -0.6919 -0.2035 -0.0276
  120TCq2    C6 1832   0.895   1.979  13.381 -0.3377 -0.8001 -0.0942
  120TCq2    C7 1833   0.964   2.076  13.452  0.1519 -0.1374  0.5983
  120TCq2    C8 1834   0.783   1.904  13.439  0.2697 -0.6997 -0.3139
  120TCq2    O4 1835   0.707   1.850  13.355 -0.7506 -0.0395 -0.4273
  120TCq2    C9 1836   1.127   1.918  13.109 -0.3481 -0.1777  0.5703
  120TCq2    O5 1837   1.225   1.978  13.057 -0.0068 -0.2446  0.3436
  120TCq2    O6 1838   1.057   1.828  13.052  0.0382  0.0388 -0.6623
  120TCq2    H2 1839   1.234   2.097  13.252  0.4736 -2.5595  0.0800
  120TCq2    H3 1840   0.879   1.867  13.196  1.5988 -1.6111 -0.6606
  120TCq2    H4 1841   0.913   2.125  13.535  1.0269 -1.6165  2.0220
  121TMC2    C1 1842   2.857   3.487  14.315  1.0606 -0.4175  0.0547
  121TMC2    C2 1843   2.817   3.364  14.353  0.0262 -0.2413  0.5290
  121TMC2    C3 1844   2.691   3.353  14.400  0.4417  0.0742  0.4342
  121TMC2    C4 1845   2.776   3.593  14.301 -0.2469 -0.5188 -0.0592
  121TMC2    C5 1846   2.647   3.576  14.344  0.2363 -0.3331 -0.0825
  121TMC2    C6 1847   2.602   3.456  14.387  0.1765 -0.4738  0.2675
  121TMC2     C 1848   2.977   3.488  14.230  0.5750  0.0142  0.4895
  121TMC2     O 1849   3.055   3.394  14.256  0.2628 -0.0799  0.1568
  121TMC2     H 1850   2.882   3.277  14.353  1.0633  0.5854 -2.9098
  121TMC2    H1 1851   2.805   3.695  14.277 -1.0388 -0.4548 -0.7740
  121TMC2    H2 1852   2.508   3.460  14.441  0.3171 -2.1261  0.6194
  121TMC2    C7 1853   2.554   3.673  14.292  0.1406 -0.0418  0.1936
  121TMC2    C8 1854   2.638   3.217  14.391  0.2256  0.1007  0.7240
  121TMC2    O1 1855   2.604   3.780  14.274  0.4102  0.6492  0.4798
  121TMC2    O2 1856   2.705   3.118  14.384  0.0130 -0.6390  0.5212
  121TMC2    O5 1857   2.507   3.223  14.388 -0.3803  0.0483  0.6038
  121TMC2    H5 1858   2.464   3.304  14.423 -0.9835 -1.3938  3.1795
  122MPD2     C 1859   3.192   3.513  14.022  0.0863  0.0826 -0.1094
  122MPD2    C1 1860   3.067   3.577  14.015 -0.1482  0.5713 -0.6067
  122MPD2    C2 1861   3.043   3.663  13.910  1.0345  0.2823  0.0386
  122MPD2    C3 1862   3.139   3.681  13.815 -0.3752 -0.3102 -0.0115
  122MPD2    C4 1863   3.261   3.614  13.818 -0.3936  0.0141  0.5777
  122MPD2    C5 1864   3.280   3.528  13.922  0.0452  0.2256  0.2182
  122MPD2     H 1865   2.951   3.719  13.902  2.5479  2.5369 -1.2762
  122MPD2    H1 1866   3.340   3.637  13.749  0.6099 -0.9531  1.4112
  122MPD2    H2 1867   3.213   3.443  14.102  0.9961 -0.1044 -0.5168
  122MPD2    H3 1868   3.374   3.473  13.919 -1.1913 -1.8869  0.6507
  122MPD2     N 1869   3.116   3.777  13.712  0.4700  0.2143 -0.4561
  122MPD2    H5 1870   3.182   3.779  13.636 -0.0986  0.8539 -0.9318
  122MPD2    N1 1871   2.966   3.566  14.116  0.2611  0.0466  0.9965
  122MPD2    H7 1872   2.884   3.625  14.105 -0.0956 -0.9261 -1.4151
  123MPD2     C 1873   1.124   1.773   9.772 -0.0570  1.4955 -0.2570
  123MPD2    C1 1874   1.021   1.859   9.762  0.2073  0.6639  0.0815
  123MPD2    C2 1875   1.045   1.992   9.740  0.2066  0.8425  0.1441
  123MPD2    C3 1876   1.177   2.035   9.723  0.0377 -0.6914 -0.3164
  123MPD2    C4 1877   1.280   1.946   9.731 -0.2532 -0.2559 -0.4615
  123MPD2    C5 1878   1.254   1.821   9.759 -0.0804  0.2106  0.2608
  123MPD2     H 1879   0.961   2.060   9.727 -0.2792  0.7266  2.6039
  123MPD2    H1 1880   1.380   1.969   9.697  0.6257 -2.7329  0.4484
  123MPD2    H2 1881   1.111   1.668   9.794  2.7645  1.2454  0.1684
  123MPD2    H3 1882   1.337   1.754   9.777  0.2010  0.2134 -1.0069
  123MPD2     N 1883   1.199   2.166   9.683 -0.1160  0.1560 -0.1430
  123MPD2    H5 1884   1.111   2.213   9.663 -0.2271 -0.4349 -1.0432
  123MPD2    N1 1885   0.895   1.800   9.770 -0.4536 -0.2810  0.4946
  123MPD2    H7 1886   0.899   1.702   9.793  1.9108 -0.2758  0.0191
  124TCq2    C1 1887   1.322   2.229   9.684  0.5217 -0.6732 -0.5868
  124TCq2    O2 1888   1.433   2.199   9.730 -0.3176  0.6705  0.4832
  124TCq2    C2 1889   1.314   2.370   9.631 -0.2865 -0.1809  0.4331
  124TCq2    C3 1890   1.407   2.464   9.679 -1.0596  0.5575  0.4895
  124TCq2    C4 1891   1.386   2.597   9.653 -0.3959 -0.5055  0.5067
  124TCq2    C5 1892   1.287   2.631   9.573 -0.6026  0.0629  0.4807
  124TCq2    C6 1893   1.206   2.540   9.513 -0.9557  0.6981 -0.0169
  124TCq2    C7 1894   1.210   2.407   9.551 -0.6022  0.0397  0.0598
  124TCq2    C8 1895   1.091   2.602   9.442 -0.2966 -0.1918 -0.2446
  124TCq2    O4 1896   1.107   2.687   9.354 -0.5029  0.3475  0.2769
  124TCq2    C9 1897   1.488   2.691   9.685  0.6292 -0.0606  0.5439
  124TCq2    O5 1898   1.595   2.649   9.736 -0.6885 -0.8698  0.6297
  124TCq2    O6 1899   1.450   2.808   9.699 -0.4850  0.2449 -0.2948
  124TCq2    H2 1900   1.486   2.444   9.751  0.1846  1.6791 -0.5796
  124TCq2    H3 1901   1.277   2.736   9.549 -1.8288  0.5616  3.1288
  124TCq2    H4 1902   1.157   2.336   9.489 -0.9017  1.0944 -0.8899
  125TMC2    C1 1903   1.303   4.142   9.304 -0.2073  0.5479 -0.9781
  125TMC2    C2 1904   1.341   4.143   9.436  0.0308  0.1143 -0.0103
  125TMC2    C3 1905   1.458   4.204   9.474 -0.4239 -0.0277 -1.0545
  125TMC2    C4 1906   1.389   4.189   9.208  0.2673  0.6239 -0.2946
  125TMC2    C5 1907   1.508   4.244   9.254 -0.3493 -0.4450  0.5964
  125TMC2    C6 1908   1.549   4.253   9.385 -0.3093 -0.5495 -0.2677
  125TMC2     C 1909   1.192   4.052   9.275 -0.0458  0.7959  0.2044
  125TMC2     O 1910   1.157   3.969   9.357 -0.0799  0.2466 -0.4430
  125TMC2     H 1911   1.291   4.072   9.501  2.6049 -1.4304  0.2731
  125TMC2    H1 1912   1.365   4.174   9.103 -1.1978 -3.8013  0.6952
  125TMC2    H2 1913   1.627   4.321   9.415  1.4205 -3.8725  2.6814
  125TMC2    C7 1914   1.585   4.302   9.149  0.4539  0.4007 -0.5308
  125TMC2    C8 1915   1.496   4.178   9.612 -0.2352 -0.4036 -0.6365
  125TMC2    O1 1916   1.537   4.320   9.035 -0.3691 -0.7449  0.0358
  125TMC2    O2 1917   1.414   4.159   9.697  0.0520  0.8837  0.1018
  125TMC2    O5 1918   1.628   4.189   9.623  0.2367 -0.1698  0.3466
  125TMC2    H5 1919   1.672   4.197   9.536 -0.8019  2.0572  0.0217
  126MPD1     C 1920   0.837   3.898   8.944 -0.7592  1.2067  0.1475
  126MPD1    C1 1921   0.850   4.037   8.928 -0.5616  0.4183 -0.0847
  126MPD1    C2 1922   0.955   4.101   8.992 -0.4256  0.5002 -0.2436
  126MPD1    C3 1923   1.029   4.029   9.089 -0.3988 -0.0461 -0.0250
  126MPD1    C4 1924   1.006   3.899   9.108 -0.0205  0.5878 -0.4748
  126MPD1    C5 1925   0.908   3.838   9.043  0.0310  0.6938  0.3007
  126MPD1     H 1926   0.981   4.205   8.976 -2.4659  1.2072  1.2008
  126MPD1    H1 1927   1.066   3.838   9.174 -1.6738  0.8488  1.2763
  126MPD1    H2 1928   0.764   3.841   8.889  0.3559 -0.1667  0.1059
  126MPD1    H3 1929   0.891   3.734   9.070  0.1154  0.9037  1.1292
  126MPD1     N 1930   1.138   4.095   9.159  0.3221 -0.1712  0.1444
  126MPD1    H5 1931   1.157   4.191   9.131 -0.5622  0.9517  3.4108
  126MPD1    N1 1932   0.782   4.105   8.820  0.1932  0.0980  1.1575
  126MPD1    H6 1933   0.689   4.069   8.797  0.1445 -0.6315  2.5390
  126MPD1    H7 1934   0.773   4.206   8.828  1.8866  0.3702 -0.3498
  127MPD2     C 1935   3.273   3.268   9.313 -0.4269 -0.0480  0.4080
  127MPD2    C1 1936   3.334   3.270   9.434  1.1564  0.3658 -0.0689
  127MPD2    C2 1937   3.394   3.384   9.484  0.1558  0.6300 -0.6803
  127MPD2    C3 1938   3.391   3.501   9.412 -0.6209 -0.1386 -0.3271
  127MPD2    C4 1939   3.335   3.501   9.286 -0.0768  0.0963  1.0356
  127MPD2    C5 1940   3.273   3.382   9.235 -0.3688 -0.0644 -0.0822
  127MPD2     H 1941   3.434   3.400   9.583  0.6384 -0.6115 -0.6771
  127MPD2    H1 1942   3.320   3.589   9.224  1.2368  0.1310  0.7691
  127MPD2    H2 1943   3.223   3.178   9.278  0.2963 -0.0272 -0.6746
  127MPD2    H3 1944   3.236   3.371   9.134  1.5757 -0.6763 -0.7079
  127MPD2     N 1945   3.437   3.619   9.469 -0.1239 -0.0286  0.3114
  127MPD2    H5 1946   3.488   3.608   9.556  0.7151  3.6800  0.3152
  127MPD2    N1 1947   3.324   3.148   9.513  0.0902  0.0363 -0.1956
  127MPD2    H7 1948   3.270   3.076   9.466 -1.4748  0.7931  0.4560
  128TCq2    C1 1949   3.371   3.123   9.639  0.3077 -0.0383 -0.2013
  128TCq2    O2 1950   3.439   3.192   9.715  0.2768  0.0523  0.4414
  128TCq2    C2 1951   3.330   2.986   9.684 -0.0059 -0.3835  0.0695
  128TCq2    C3 1952   3.372   2.959   9.811  0.5888 -0.2807 -0.3970
  128TCq2    C4 1953   3.333   2.837   9.862 -0.2973 -0.7891 -0.0831
  128TCq2    C5 1954   3.263   2.751   9.784  0.4305  0.6968  0.7200
  128TCq2    C6 1955   3.204   2.796   9.667 -0.7342 -0.3193  0.2193
  128TCq2    C7 1956   3.241   2.914   9.613 -0.1320  0.5020 -0.2105
  128TCq2    C8 1957   3.109   2.714   9.601 -0.0229  0.2327 -0.7528
  128TCq2    O4 1958   3.092   2.740   9.482  0.2604 -0.5833 -0.1044
  128TCq2    C9 1959   3.374   2.795  10.001 -0.0942  0.2135  0.3647
  128TCq2    O5 1960   3.421   2.888  10.074 -0.0480 -0.3979 -0.1236
  128TCq2    O6 1961   3.376   2.677  10.035  0.0445 -0.1698 -0.0409
  128TCq2    H2 1962   3.427   3.033   9.868 -0.0218  0.2685 -0.5225
  128TCq2    H3 1963   3.239   2.656   9.832 -1.8257 -0.4061 -2.5672
  128TCq2    H4 1964   3.199   2.939   9.516  1.5715 -0.5228 -1.2188
  129MPD2     C 1965   1.588   2.715   1.186 -0.1777 -0.1178 -0.1102
  129MPD2    C1 1966   1.653   2.704   1.307  0.8271  0.2908  0.3780
  129MPD2    C2 1967   1.790   2.727   1.310  0.0966  0.2453  0.0589
  129MPD2    C3 1968   1.862   2.761   1.192  0.3469 -0.0248  0.1702
  129MPD2    C4 1969   1.790   2.770   1.074  0.4238  0.7433 -0.0411
  129MPD2    C5 1970   1.657   2.745   1.072  0.0656  0.4213  0.7949
  129MPD2     H 1971   1.844   2.705   1.401  1.9449  0.4604 -0.9585
  129MPD2    H1 1972   1.837   2.803   0.982  0.4359  0.2111 -0.2263
  129MPD2    H2 1973   1.485   2.691   1.162 -0.3029  0.1005  0.2134
  129MPD2    H3 1974   1.615   2.738   0.973  1.2059  1.5219  0.2397
  129MPD2     N 1975   1.998   2.785   1.202 -0.1592  0.5324 -0.2955
  129MPD2    H5 1976   2.045   2.786   1.291  0.2718 -2.3899 -0.4854
  129MPD2    N1 1977   1.589   2.674   1.430  0.3217 -0.2687 -0.4430
  129MPD2    H7 1978   1.649   2.665   1.511 -1.1349 -0.0482  0.6380
  130TCq2    C1 1979   1.449   2.669   1.438  0.1994  0.7565 -0.1212
  130TCq2    O2 1980   1.369   2.692   1.349 -0.7256  0.0605 -0.2491
  130TCq2    C2 1981   1.404   2.628   1.573 -0.7741  0.0867  0.1608
  130TCq2    C3 1982   1.478   2.551   1.660  0.6793 -0.3297  0.3617
  130TCq2    C4 1983   1.408   2.476   1.757 -0.0918 -0.0045  0.7156
  130TCq2    C5 1984   1.273   2.498   1.776 -0.7049 -0.2131  0.0286
  130TCq2    C6 1985   1.207   2.596   1.699  0.5764  1.0552  0.0335
  130TCq2    C7 1986   1.272   2.663   1.594 -0.0413 -0.7557 -0.1958
  130TCq2    C8 1987   1.081   2.642   1.732  0.0484 -0.2024 -0.4028
  130TCq2    O4 1988   1.001   2.563   1.780  0.6606  0.1278 -0.8518
  130TCq2    C9 1989   1.482   2.388   1.850 -1.0887 -0.5775 -0.4152
  130TCq2    O5 1990   1.408   2.308   1.917 -0.3324  0.9138 -0.1140
  130TCq2    O6 1991   1.607   2.381   1.849  1.0266 -0.2329  0.6643
  130TCq2    H2 1992   1.586   2.549   1.648  0.4384  0.2145 -1.8124
  130TCq2    H3 1993   1.222   2.440   1.852  0.3644 -0.5875  0.4534
  130TCq2    H4 1994   1.217   2.709   1.513  0.0718 -0.7626 -0.2762
  131MPD2     C 1995   0.394   2.462   9.789 -0.3640  0.1460 -0.6311
  131MPD2    C1 1996   0.527   2.412   9.792 -0.0008  0.1012 -0.8461
  131MPD2    C2 1997   0.548   2.279   9.801 -0.0267 -0.0409 -0.1775
  131MPD2    C3 1998   0.433   2.195   9.821 -0.7838 -0.5907 -0.3849
  131MPD2    C4 1999   0.308   2.247   9.822 -0.4381 -0.0156 -0.3042
  131MPD2    C5 2000   0.293   2.377   9.805 -0.0855 -0.8620  0.1611
  131MPD2     H 2001   0.642   2.226   9.791  0.6785  0.8529  1.5966
  131MPD2    H1 2002   0.218   2.187   9.824  0.2611 -0.8772  3.8848
  131MPD2    H2 2003   0.374   2.569   9.785  0.9103  0.3771 -0.8951
  131MPD2    H3 2004   0.193   2.420   9.802  0.2363  0.0106  1.7420
  131MPD2     N 2005   0.457   2.057   9.810 -0.2101 -0.1212  0.4490
  131MPD2    H5 2006   0.547   2.023   9.778 -0.7377  0.4582 -1.6614
  131MPD2    N1 2007   0.626   2.506   9.788 -0.2991  0.1685  0.1986
  131MPD2    H7 2008   0.597   2.599   9.759  2.3297  1.5956  2.1268
  132TCq2    C1 2009   0.888   2.911   9.650 -0.6895 -0.5907 -0.4489
  132TCq2    O2 2010   0.796   2.898   9.571  1.3818 -0.0343 -0.4250
  132TCq2    C2 2011   0.882   2.831   9.768  0.0926  0.5457  0.3010
  132TCq2    C3 2012   0.960   2.848   9.881 -0.1672 -0.0267  0.1014
  132TCq2    C4 2013   0.978   2.738   9.971  0.3481 -0.0308 -0.3889
  132TCq2    C5 2014   0.912   2.625   9.951  0.8801 -0.5656  0.0338
  132TCq2    C6 2015   0.829   2.614   9.845  0.8493  0.6748  0.0895
  132TCq2    C7 2016   0.811   2.714   9.754 -0.5986 -0.2996 -0.8534
  132TCq2    C8 2017   0.756   2.488   9.829 -0.1411  0.7224 -0.6829
  132TCq2    O4 2018   0.811   2.384   9.869  0.4009  0.4257 -0.3004
  132TCq2    C9 2019   1.069   2.754  10.080  0.3124 -0.7555  0.6333
  132TCq2    O5 2020   1.172   2.825  10.064  0.2588 -0.0768  0.2510
  132TCq2    O6 2021   1.035   2.694  10.186  0.1184 -0.1400  0.2321
  132TCq2    H2 2022   1.016   2.939   9.897 -0.8430  0.0848  1.8351
  132TCq2    H3 2023   0.915   2.543  10.022  0.7977  2.0121  3.0035
  132TCq2    H4 2024   0.744   2.698   9.670  0.1323 -1.4113 -1.2395
  133MPD2     C 2025   0.653   2.455   9.002  0.1624 -0.4588 -0.3947
  133MPD2    C1 2026   0.520   2.467   9.014  0.5271  0.0558 -1.0012
  133MPD2    C2 2027   0.458   2.594   9.007  0.0362  0.1606 -0.4529
  133MPD2    C3 2028   0.538   2.706   8.996 -0.8139  0.3180  0.3687
  133MPD2    C4 2029   0.673   2.686   8.981  0.1325  0.6364  0.2811
  133MPD2    C5 2030   0.727   2.564   8.985  0.2504 -0.7497 -0.1264
  133MPD2     H 2031   0.350   2.605   9.015  0.1273  1.1223 -0.4994
  133MPD2    H1 2032   0.736   2.773   8.964 -1.6467  1.7951 -0.3508
  133MPD2    H2 2033   0.708   2.364   9.025 -1.5276 -1.6054 -0.9347
  133MPD2    H3 2034   0.833   2.553   8.963  0.5442  1.7163 -0.0094
  133MPD2     N 2035   0.494   2.842   9.000  0.2357  0.9738 -0.8752
  133MPD2    H5 2036   0.568   2.910   8.985 -0.0529  1.1749 -1.3790
  133MPD2    N1 2037   0.447   2.349   9.035 -0.1394 -0.1968  0.8611
  133MPD2    H7 2038   0.498   2.262   9.045 -0.8132 -0.5951  0.8818
  134TCq2    C1 2039   0.308   2.335   9.057  0.3879  0.3051 -0.4558
  134TCq2    O2 2040   0.216   2.420   9.067 -0.3098 -0.2351  0.3721
  134TCq2    C2 2041   0.271   2.199   9.044 -0.1326  0.7544  0.1744
  134TCq2    C3 2042   0.360   2.111   8.985  0.0131  0.0065 -0.4789
  134TCq2    C4 2043   0.326   1.976   8.998 -0.0082  1.1456  0.0271
  134TCq2    C5 2044   0.205   1.933   9.053 -0.2166 -0.6281  0.3195
  134TCq2    C6 2045   0.121   2.027   9.105  0.2418  0.9888 -0.1451
  134TCq2    C7 2046   0.157   2.160   9.097  0.2523  0.1920 -0.4859
  134TCq2    C8 2047   4.711   1.993   9.168  0.2880 -0.2175  0.4892
  134TCq2    O4 2048   4.637   2.080   9.204  0.3349 -0.2777  0.0748
  134TCq2    C9 2049   0.414   1.880   8.937 -0.1853  0.7125 -0.6367
  134TCq2    O5 2050   0.517   1.924   8.874  0.0032 -0.7075  0.2491
  134TCq2    O6 2051   0.393   1.757   8.955 -0.7255  0.1223 -0.4669
  134TCq2    H2 2052   0.436   2.142   8.915  0.1589 -3.0345 -1.6399
  134TCq2    H3 2053   0.179   1.830   9.030  3.9103 -1.6870  0.4464
  134TCq2    H4 2054   0.093   2.231   9.147 -3.3709 -2.6194 -1.1391
  135MPD2     C 2055   2.890   4.710   9.420 -0.1138 -0.2725 -0.2058
  135MPD2    C1 2056   2.832   4.641   9.318  0.4366  0.1407 -0.3249
  135MPD2    C2 2057   2.899   4.540   9.262 -0.1296  0.5006  0.2804
  135MPD2    C3 2058   3.018   4.497   9.316 -0.4068  0.9394  0.5933
  135MPD2    C4 2059   3.068   4.553   9.427 -0.3275 -0.2878  0.0920
  135MPD2    C5 2060   3.003   4.656   9.477  0.0213  0.0094  0.3294
  135MPD2     H 2061   2.849   4.484   9.184  2.5016 -0.0937 -0.9983
  135MPD2    H1 2062   3.151   4.505   9.476 -1.0118 -3.0794 -1.4422
  135MPD2    H2 2063   2.833   0.068   9.466  1.2161  0.2063  0.6426
  135MPD2    H3 2064   3.044   4.687   9.573  0.3489  1.3543 -0.2483
  135MPD2     N 2065   3.095   4.393   9.260 -0.0871  0.7061  0.8058
  135MPD2    H5 2066   3.177   4.366   9.313 -0.0050  0.7074  0.6788
  135MPD2    N1 2067   2.705   4.671   9.270  0.2335 -0.1575 -0.5993
  135MPD2    H7 2068   2.670   4.634   9.182  0.9611 -0.1920 -0.8724
  136TCq2    C1 2069   2.606   0.006   9.341 -0.4316  0.5307 -0.0216
  136TCq2    O2 2070   2.592   0.033   9.461  0.2024  0.3628 -0.1672
  136TCq2    C2 2071   2.483   0.011   9.265 -0.8080 -0.3039  0.4372
  136TCq2    C3 2072   2.493   0.018   9.124  0.9068  0.0713  0.0131
  136TCq2    C4 2073   2.374   0.010   9.049  0.3781  0.2264 -0.3892
  136TCq2    C5 2074   2.256   4.706   9.107 -0.2866  0.5557 -0.5499
  136TCq2    C6 2075   2.251   4.692   9.241  0.1481  0.1971  0.7308
  136TCq2    C7 2076   2.359   4.701   9.323  0.2172 -0.4368  0.1395
  136TCq2    C8 2077   2.114   4.674   9.292 -0.3395 -0.0545 -0.3684
  136TCq2    O4 2078   2.018   4.701   9.219 -0.4906 -0.2835  0.0461
  136TCq2    C9 2079   2.378   0.001   8.903  0.2828 -0.0229 -0.2703
  136TCq2    O5 2080   2.272   0.007   8.831  0.0717 -0.1207 -0.3035
  136TCq2    O6 2081   2.490   4.677   8.866 -0.0704 -0.7929 -0.5919
  136TCq2    H2 2082   2.581   0.045   9.068  0.1484 -1.2227 -1.7772
  136TCq2    H3 2083   2.175   4.678   9.039  0.2792  1.8336 -1.7516
  136TCq2    H4 2084   2.351   4.699   9.431  1.5545 -0.6241  0.2390
  137MPD2     C 2085   2.536   3.823   8.826 -0.7229  0.6624  0.4490
  137MPD2    C1 2086   2.433   3.872   8.902 -0.3910  0.1863 -0.4649
  137MPD2    C2 2087   2.444   3.856   9.041 -0.7578  0.4576 -0.3967
  137MPD2    C3 2088   2.554   3.794   9.098  0.5687  0.3848 -0.6001
  137MPD2    C4 2089   2.663   3.762   9.019  0.7654  1.1264  0.0936
  137MPD2    C5 2090   2.652   3.777   8.885  0.3531  0.2015 -0.1202
  137MPD2     H 2091   2.369   3.895   9.109 -0.1118  0.9888  0.0115
  137MPD2    H1 2092   2.755   3.741   9.072 -0.3204  1.2386  2.0304
  137MPD2    H2 2093   2.533   3.823   8.717 -0.2855  2.6587  0.4324
  137MPD2    H3 2094   2.738   3.752   8.823 -0.2791  1.0986 -1.3673
  137MPD2     N 2095   2.549   3.765   9.239 -0.3575 -0.6351  0.0247
  137MPD2    H5 2096   2.458   3.770   9.282  0.4942  2.7046  1.4332
  137MPD2    N1 2097   2.318   3.931   8.846 -0.5227  0.0969  0.0722
  137MPD2    H7 2098   2.318   3.930   8.745  4.9589 -3.5512  0.1227
  138TCq2    C1 2099   2.205   3.976   8.908 -0.1539  0.4378 -0.0600
  138TCq2    O2 2100   2.174   3.969   9.028  0.1104 -0.1611  0.1429
  138TCq2    C2 2101   2.116   4.032   8.821 -0.0640 -0.0276  0.2000
  138TCq2    C3 2102   2.160   4.127   8.731  0.8671 -0.5483 -1.0559
  138TCq2    C4 2103   2.067   4.217   8.689 -0.2985 -0.3949 -1.1200
  138TCq2    C5 2104   1.933   4.207   8.729 -0.3693 -0.9226 -0.9229
  138TCq2    C6 2105   1.896   4.105   8.809  0.2836 -0.3260  0.3917
  138TCq2    C7 2106   1.986   4.017   8.859  0.0699  0.1683 -0.6927
  138TCq2    C8 2107   1.755   4.082   8.833 -0.3922  0.2213 -0.1662
  138TCq2    O4 2108   1.680   4.117   8.747 -0.5457 -0.0577  0.3162
  138TCq2    C9 2109   2.114   4.324   8.611  0.6966 -0.3485  0.0539
  138TCq2    O5 2110   2.237   4.334   8.593 -0.2327  0.0637  0.3068
  138TCq2    O6 2111   2.029   4.396   8.558 -0.0196 -0.0786  0.2624
  138TCq2    H2 2112   2.266   4.140   8.712  0.8283  0.7707 -0.3727
  138TCq2    H3 2113   1.853   4.275   8.699  1.7394  1.1482 -1.8146
  138TCq2    H4 2114   1.969   3.942   8.935  0.5634 -0.1300 -0.8721
  139TMC2    C1 2115   3.132   1.878  13.543  0.5136  0.0714  0.3458
  139TMC2    C2 2116   3.237   1.937  13.476 -0.7048  0.6358 -0.5518
  139TMC2    C3 2117   3.220   2.070  13.444  0.0336  0.3284  0.1863
  139TMC2    C4 2118   3.011   1.941  13.561 -0.2476 -0.0788 -0.1973
  139TMC2    C5 2119   2.998   2.069  13.510 -0.0075  0.7164  0.9332
  139TMC2    C6 2120   3.110   2.150  13.470 -0.6593 -0.7204 -0.0369
  139TMC2     C 2121   3.164   1.741  13.587  0.1470 -0.0550  0.7582
  139TMC2     O 2122   3.260   1.691  13.524 -0.4439  0.1524  0.0177
  139TMC2     H 2123   3.328   1.881  13.457 -0.8625  0.5450 -1.0247
  139TMC2    H1 2124   2.918   1.892  13.590 -0.3386 -0.1770 -0.6619
  139TMC2    H2 2125   3.110   2.250  13.430  1.8932 -0.8252 -0.3006
  139TMC2    C7 2126   2.883   2.143  13.555 -0.5768 -0.1065  0.6202
  139TMC2    C8 2127   3.335   2.140  13.398  0.4172 -0.5655  0.1525
  139TMC2    O1 2128   2.774   2.084  13.549  0.4723  0.0135  0.0819
  139TMC2    O2 2129   3.426   2.074  13.351  0.2303 -0.0286  0.0991
  139TMC2    O5 2130   3.349   2.245  13.477 -0.3081  0.4380 -0.3633
  139TMC2    H5 2131   3.283   2.246  13.550 -1.3204 -0.0048 -1.2661
  140MPD2     C 2132   2.989   1.534  13.825  0.1811 -0.5593 -0.4066
  140MPD2    C1 2133   3.065   1.558  13.713 -0.0161 -0.5485  0.3444
  140MPD2    C2 2134   3.133   1.455  13.643 -0.6517  0.1826  0.0907
  140MPD2    C3 2135   3.116   1.321  13.687  0.1476  0.2477 -1.0745
  140MPD2    C4 2136   3.037   1.300  13.802  0.5121 -0.5422 -0.0525
  140MPD2    C5 2137   2.969   1.405  13.867 -0.0057  0.3904 -0.1428
  140MPD2     H 2138   3.189   1.464  13.551 -0.8278  0.4776  0.0121
  140MPD2    H1 2139   3.015   1.199  13.834 -0.2109 -0.7569 -1.2026
  140MPD2    H2 2140   2.931   1.608  13.879  0.3796 -1.2272  0.7224
  140MPD2    H3 2141   2.891   1.377  13.937  1.4140 -0.9038  0.9072
  140MPD2     N 2142   3.161   1.226  13.597 -0.3761  0.3671  0.1534
  140MPD2    H5 2143   3.219   1.258  13.520  0.1437 -0.9853 -0.0189
  140MPD2    N1 2144   3.079   1.687  13.676  0.0694 -0.0129  0.0823
  140MPD2    H7 2145   3.009   1.745  13.722 -0.1190 -0.2677  0.1187
  141TCq2    C1 2146   3.027   2.844  13.730  0.6017 -0.2838  1.1814
  141TCq2    O2 2147   2.909   2.849  13.703  0.7422 -0.4042 -0.5244
  141TCq2    C2 2148   3.078   2.923  13.841  0.1885  0.3755 -0.2095
  141TCq2    C3 2149   3.011   2.902  13.956  0.4563 -0.2352 -0.1072
  141TCq2    C4 2150   3.054   2.970  14.068  0.4099  0.4305  0.2478
  141TCq2    C5 2151   3.162   3.056  14.058  0.3105  0.2220  0.2398
  141TCq2    C6 2152   3.233   3.066  13.940  0.7549 -0.7801 -0.7053
  141TCq2    C7 2153   3.192   3.000  13.826 -0.0487  0.3505  0.3150
  141TCq2    C8 2154   3.359   3.142  13.938 -0.4215  0.5831 -0.0625
  141TCq2    O4 2155   3.416   3.154  13.831 -0.0154  0.2711  0.4036
  141TCq2    C9 2156   2.987   2.981  14.201  0.6426  0.1280 -0.0655
  141TCq2    O5 2157   3.044   3.038  14.295  0.0781  0.5169 -0.2013
  141TCq2    O6 2158   2.875   2.930  14.213 -0.0316  0.3387  0.1777
  141TCq2    H2 2159   2.919   2.845  13.949  0.8154 -0.7680 -0.5623
  141TCq2    H3 2160   3.185   3.116  14.145 -0.1199  0.8731 -0.0951
  141TCq2    H4 2161   3.232   3.018  13.727 -0.2520  0.9202  0.3351
  142MPD2     C 2162   0.232   1.464   9.448 -0.0879 -0.8773 -0.0835
  142MPD2    C1 2163   0.119   1.535   9.498  0.8246 -0.1804  0.5181
  142MPD2    C2 2164   0.122   1.674   9.515  0.2472  0.2030 -0.4470
  142MPD2    C3 2165   0.236   1.746   9.476 -0.3972  0.0618  0.0522
  142MPD2    C4 2166   0.344   1.674   9.421 -0.1070 -0.2075 -0.2570
  142MPD2    C5 2167   0.344   1.538   9.403  0.5012 -0.7099  0.3227
  142MPD2     H 2168   0.034   1.724   9.556  0.2711  0.4921 -0.7499
  142MPD2    H1 2169   0.427   1.732   9.382 -0.6594 -0.1044 -1.2959
  142MPD2    H2 2170   0.228   1.356   9.439 -0.3097 -1.0644  2.1733
  142MPD2    H3 2171   0.434   1.491   9.363 -0.2191 -1.5936 -0.2612
  142MPD2     N 2172   0.248   1.889   9.490  0.8035 -0.9676 -0.3148
  142MPD2    H5 2173   0.334   1.924   9.448 -0.0168  1.6581  0.1516
  142MPD2    N1 2174   0.016   1.454   9.545  0.0670 -0.4127  0.8087
  142MPD2    H7 2175   0.016   1.353   9.535  1.1711 -0.2667 -0.6630
  143TCq2    C1 2176   0.143   1.978   9.511 -0.3715  0.1748  0.1199
  143TCq2    O2 2177   0.033   1.957   9.554 -0.2622 -0.2356 -0.5254
  143TCq2    C2 2178   0.184   2.111   9.494 -0.2918 -0.3630  0.2517
  143TCq2    C3 2179   0.086   2.209   9.493  0.5733  0.1673  1.1565
  143TCq2    C4 2180   0.119   2.343   9.485 -0.7063  0.0123  0.1402
  143TCq2    C5 2181   0.249   2.390   9.483  0.7151  0.0796 -0.1254
  143TCq2    C6 2182   0.347   2.291   9.488  0.1470 -0.5625 -0.2376
  143TCq2    C7 2183   0.312   2.153   9.501  0.1315  0.3742  0.2397
  143TCq2    C8 2184   0.481   2.336   9.479 -0.3136  0.1985  0.0457
  143TCq2    O4 2185   0.557   2.241   9.496  0.1734 -0.0622 -0.0549
  143TCq2    C9 2186   0.013   2.435   9.484  0.6000  0.2049  0.4236
  143TCq2    O5 2187   4.617   2.397   9.478  0.2361 -0.0450  0.0769
  143TCq2    O6 2188   0.047   2.555   9.487  0.0840 -0.0089  0.8610
  143TCq2    H2 2189   4.703   2.183   9.507 -0.0762  2.0144 -0.2371
  143TCq2    H3 2190   0.272   2.496   9.484 -1.0357  0.4637 -1.2374
  143TCq2    H4 2191   0.393   2.083   9.517 -1.5906 -2.1234 -1.9191
  144MPD2     C 2192   3.594   1.015   0.570  0.6157  1.0124 -0.8158
  144MPD2    C1 2193   3.595   0.897   0.506  0.8589 -0.6837 -0.0244
  144MPD2    C2 2194   3.674   0.798   0.557  0.7987  0.5368 -0.0984
  144MPD2    C3 2195   3.747   0.822   0.674  0.4242 -0.6044 -0.0773
  144MPD2    C4 2196   3.743   0.942   0.733 -0.3620 -0.4977 -0.5880
  144MPD2    C5 2197   3.659   1.033   0.686  0.1395 -0.0725 -0.4411
  144MPD2     H 2198   3.668   0.700   0.511  0.1771  1.1375 -1.3060
  144MPD2    H1 2199   3.793   0.955   0.829  1.5721 -1.1237 -1.5164
  144MPD2    H2 2200   3.540   1.102   0.535 -0.7761  0.8676  0.9645
  144MPD2    H3 2201   3.649   1.127   0.739 -1.5341  1.0681 -2.8007
  144MPD2     N 2202   3.831   0.735   0.744 -0.5871 -0.3916  0.3011
  144MPD2    H5 2203   3.878   0.766   0.829  0.0133 -0.1487 -0.1208
  144MPD2    N1 2204   3.520   0.857   0.392  0.1580 -0.4665 -0.1064
  144MPD2    H7 2205   3.541   0.762   0.362 -1.8990  0.0505 -3.1680
  145TCq2    C1 2206   3.877   0.619   0.690 -0.5371  0.0830 -0.3408
  145TCq2    O2 2207   3.867   0.562   0.583  0.4214  0.2037 -0.6491
  145TCq2    C2 2208   3.977   0.559   0.785 -0.3822 -0.5178 -0.3937
  145TCq2    C3 2209   4.080   0.488   0.729  0.2269 -0.0366  0.3925
  145TCq2    C4 2210   4.190   0.443   0.804 -0.3585 -0.1150  0.8367
  145TCq2    C5 2211   4.188   0.455   0.942 -0.5894  0.7217 -0.3512
  145TCq2    C6 2212   4.091   0.541   0.996 -0.2619 -0.2772 -0.0362
  145TCq2    C7 2213   3.990   0.598   0.917 -0.1693  0.4901  0.1909
  145TCq2    C8 2214   4.147   0.628   1.107  0.2414 -0.1465  0.1296
  145TCq2    O4 2215   4.257   0.592   1.149 -0.4748 -0.0785  0.1597
  145TCq2    C9 2216   4.298   0.373   0.742 -0.1851  0.3576 -0.7135
  145TCq2    O5 2217   4.316   0.386   0.617 -0.1674  0.0255 -0.0231
  145TCq2    O6 2218   4.385   0.313   0.816 -0.3566 -0.2812 -0.4961
  145TCq2    H2 2219   4.064   0.445   0.630 -1.5395 -1.0240  1.1141
  145TCq2    H3 2220   4.263   0.413   1.008 -0.1201  0.0084 -1.3511
  145TCq2    H4 2221   3.912   0.659   0.963  0.4432  0.3980  1.3319
  146TMC2    C1 2222   0.470   3.988  12.780  0.2941 -0.1962  0.6807
  146TMC2    C2 2223   0.371   3.999  12.682 -0.5648 -0.1561  0.3251
  146TMC2    C3 2224   0.415   3.977  12.552 -0.3197  0.2493 -0.7143
  146TMC2    C4 2225   0.605   3.965  12.755 -0.3074 -0.5381  0.2618
  146TMC2    C5 2226   0.644   3.960  12.619  0.3225  0.0953 -0.7195
  146TMC2    C6 2227   0.549   3.965  12.523 -0.2566 -0.9193 -0.1665
  146TMC2     C 2228   0.426   4.023  12.913  0.0468  0.5441 -0.5310
  146TMC2     O 2229   0.312   4.068  12.931  0.1881  0.6933 -0.7344
  146TMC2     H 2230   0.265   3.997  12.705 -0.9906  1.1269 -1.5739
  146TMC2    H1 2231   0.679   3.986  12.831 -0.5215  1.0521  0.0251
  146TMC2    H2 2232   0.580   3.949  12.420 -0.7490  0.2442 -0.4959
  146TMC2    C7 2233   0.787   3.930  12.579 -0.0963  0.4216  0.7295
  146TMC2    C8 2234   0.328   3.905  12.460 -0.1661  0.7691  0.0981
  146TMC2    O1 2235   0.819   3.946  12.459  0.5703 -0.1092 -0.5596
  146TMC2    O2 2236   0.329   3.946  12.344 -0.3619  0.2920 -0.5255
  146TMC2    O5 2237   0.232   3.834  12.530 -0.7155  0.0962 -0.3295
  146TMC2    H5 2238   0.268   3.802  12.616 -0.8857 -2.3452 -1.1860
  147MPD2     C 2239   1.237   3.712  12.692  0.4166 -0.1982  0.0807
  147MPD2    C1 2240   1.152   3.692  12.797 -0.5270  0.7470 -0.1899
  147MPD2    C2 2241   1.029   3.753  12.795  0.3113 -0.5452  0.1027
  147MPD2    C3 2242   0.989   3.831  12.688 -0.0563  0.1341  0.1056
  147MPD2    C4 2243   1.077   3.853  12.590 -0.2421  0.1227 -0.0497
  147MPD2    C5 2244   1.197   3.794  12.598 -0.9682  0.1867  0.4122
  147MPD2     H 2245   0.961   3.749  12.880 -0.5314 -0.0113 -0.5368
  147MPD2    H1 2246   1.047   3.906  12.500  0.2108 -0.3151 -0.4539
  147MPD2    H2 2247   1.336   3.668  12.689  1.1843  1.4886  0.8690
  147MPD2    H3 2248   1.253   3.805  12.505 -1.5307 -0.2605  0.0190
  147MPD2     N 2249   0.854   3.865  12.682  0.2863 -0.3561  0.9377
  147MPD2    H5 2250   0.806   3.854  12.770 -0.6734  2.2631  0.7358
  147MPD2    N1 2251   1.196   3.598  12.894  0.2697 -0.3784 -0.2023
  147MPD2    H7 2252   1.291   3.564  12.887  0.9626  1.1807  1.6307
  148MPD2     C 2253   0.768   2.001  10.805  0.0604  0.1344  0.3416
  148MPD2    C1 2254   0.830   2.109  10.739 -0.4586  0.1634  0.0444
  148MPD2    C2 2255   0.754   2.215  10.699  0.4703  0.7323  0.2157
  148MPD2    C3 2256   0.616   2.214  10.704  0.1904  0.1385  0.9226
  148MPD2    C4 2257   0.555   2.105  10.761  0.3201  0.3987 -0.3683
  148MPD2    C5 2258   0.631   2.002  10.808 -0.5198  0.1205  0.3418
  148MPD2     H 2259   0.806   2.303  10.663  2.9445  0.3366  2.7784
  148MPD2    H1 2260   0.448   2.083  10.761 -0.0636  2.2345 -0.9010
  148MPD2    H2 2261   0.819   1.915  10.846 -1.8759 -0.8302  0.7402
  148MPD2    H3 2262   0.577   1.913  10.837 -1.2117  1.2877  2.7355
  148MPD2     N 2263   0.527   2.314  10.643 -0.3245  0.2236 -0.5356
  148MPD2    H5 2264   0.432   2.322  10.678  0.0009  1.4627  0.0950
  148MPD2    N1 2265   0.974   2.122  10.727  0.2696  0.3919  0.1968
  148MPD2    H7 2266   1.015   2.211  10.699 -0.4109  0.4271 -0.6989
  149TCq2    C1 2267   1.063   2.011  10.737 -0.2309 -0.3373 -0.7544
  149TCq2    O2 2268   1.037   1.891  10.739 -0.1093  0.1778  0.5632
  149TCq2    C2 2269   1.202   2.044  10.728  0.6992 -0.2605  0.1478
  149TCq2    C3 2270   1.234   2.167  10.781  0.6903  0.3809  0.9388
  149TCq2    C4 2271   1.336   2.235  10.723 -0.1504  0.6423  0.7868
  149TCq2    C5 2272   1.384   2.199  10.601 -0.0910  0.6919 -1.2234
  149TCq2    C6 2273   1.344   2.077  10.543 -0.3806 -0.4457  0.0020
  149TCq2    C7 2274   1.265   1.993  10.615  0.2971  0.0797  0.6996
  149TCq2    C8 2275   1.316   2.067  10.396 -0.3358 -0.7577  0.1986
  149TCq2    O4 2276   1.260   1.964  10.353  0.0100 -0.0815 -0.1435
  149TCq2    C9 2277   1.365   2.368  10.768 -0.0571  0.2845 -0.4253
  149TCq2    O5 2278   1.316   2.401  10.884 -0.4740  0.1408 -0.0958
  149TCq2    O6 2279   1.455   2.436  10.713 -0.8313  0.2057  0.0993
  149TCq2    H2 2280   1.180   2.194  10.871 -0.1193 -0.8711  0.8309
  149TCq2    H3 2281   1.460   2.262  10.556  2.1048 -1.8284 -1.0052
  149TCq2    H4 2282   1.221   1.902  10.576  1.2350 -1.2682  2.7672
  150MPD2     C 2283   2.311   1.676  11.519 -0.5050  0.3165 -0.5370
  150MPD2    C1 2284   2.279   1.787  11.461  0.7664  0.8671 -0.0338
  150MPD2    C2 2285   2.374   1.889  11.450 -0.0869  0.0936  0.9406
  150MPD2    C3 2286   2.500   1.877  11.510 -0.3259 -0.2846  0.0771
  150MPD2    C4 2287   2.533   1.761  11.574 -0.0724 -0.2065  0.2575
  150MPD2    C5 2288   2.436   1.661  11.585 -0.6192  0.5251  0.0934
  150MPD2     H 2289   2.350   1.983  11.401  4.0764  0.4491 -0.4763
  150MPD2    H1 2290   2.627   1.750  11.625  1.0540  2.4510 -1.2449
  150MPD2    H2 2291   2.239   1.596  11.532  1.1483 -1.6175 -3.4856
  150MPD2    H3 2292   2.450   1.569  11.640 -0.3641  1.2369  1.2326
  150MPD2     N 2293   2.582   1.993  11.512  0.3584 -0.1733  0.5181
  150MPD2    H5 2294   2.556   2.071  11.452  1.0097  0.1170  0.6039
  150MPD2    N1 2295   2.152   1.788  11.399 -0.0253 -0.5329  0.3301
  150MPD2    H7 2296   2.106   1.699  11.415  0.7576 -1.0484 -0.2939
  151TCq2    C1 2297   2.693   2.006  11.594  0.0571  0.4217 -0.6199
  151TCq2    O2 2298   2.744   1.929  11.680 -0.0357 -0.1703  0.3869
  151TCq2    C2 2299   2.743   2.142  11.601  0.0080  0.3613  0.2408
  151TCq2    C3 2300   2.703   2.223  11.507  0.1694 -0.3443 -0.7315
  151TCq2    C4 2301   2.721   2.356  11.523  0.0466 -0.0393  0.5424
  151TCq2    C5 2302   2.773   2.405  11.638 -0.1339  0.0826 -0.2321
  151TCq2    C6 2303   2.829   2.318  11.724  0.0869 -0.7513 -0.4964
  151TCq2    C7 2304   2.823   2.185  11.704  0.2465 -0.4899  0.0219
  151TCq2    C8 2305   2.895   2.371  11.848  0.4610 -0.9293  0.4995
  151TCq2    O4 2306   2.905   2.493  11.864  0.0075 -0.4028 -0.1675
  151TCq2    C9 2307   2.674   2.444  11.411  0.3948  0.9553  0.1014
  151TCq2    O5 2308   2.594   2.386  11.340  0.2259 -0.3958  1.0558
  151TCq2    O6 2309   2.677   2.567  11.423  0.4538 -0.2598  0.4023
  151TCq2    H2 2310   2.671   2.186  11.411 -0.0742 -3.0513  0.3783
  151TCq2    H3 2311   2.779   2.512  11.657  3.2513 -0.1955  0.1502
  151TCq2    H4 2312   2.849   2.112  11.780  2.3952  1.6974  1.4100
  152MPD2     C 2313   2.368   1.062  12.176  0.4257 -0.0975 -0.3639
  152MPD2    C1 2314   2.381   1.200  12.180 -0.3687  0.5018  0.0242
  152MPD2    C2 2315   2.281   1.281  12.139  0.6993 -0.2252 -0.2088
  152MPD2    C3 2316   2.158   1.224  12.092 -0.2839 -0.1168  0.0365
  152MPD2    C4 2317   2.151   1.081  12.093  0.4924 -0.5480 -0.6279
  152MPD2    C5 2318   2.255   1.002  12.128 -0.0478 -0.1464 -0.3538
  152MPD2     H 2319   2.293   1.389  12.144 -2.5174 -0.0122  2.2073
  152MPD2    H1 2320   2.058   1.034  12.062 -1.8915  2.8966  1.3070
  152MPD2    H2 2321   2.450   0.997  12.203  0.9931  0.6163 -0.3368
  152MPD2    H3 2322   2.242   0.895  12.133  1.1736 -0.2543  0.5196
  152MPD2     N 2323   2.044   1.304  12.060 -0.3316  0.4663 -0.1748
  152MPD2    H5 2324   2.054   1.403  12.039 -0.9304  0.2299 -1.5154
  152MPD2    N1 2325   2.512   1.251  12.227 -0.3370 -0.0970  0.1502
  152MPD2    H7 2326   2.571   1.176  12.263  0.5567  0.4226 -0.2365
  153TCq2    C1 2327   2.559   1.377  12.227 -0.6577 -0.2943 -0.0242
  153TCq2    O2 2328   2.522   1.467  12.153  0.1168  0.4763  0.0660
  153TCq2    C2 2329   2.675   1.399  12.313  0.0117 -0.2295  0.3339
  153TCq2    C3 2330   2.684   1.328  12.431 -0.5433  0.2044  0.8497
  153TCq2    C4 2331   2.755   1.379  12.533 -0.0545  0.0780 -0.0264
  153TCq2    C5 2332   2.816   1.497  12.533 -0.1356 -0.5540  0.0656
  153TCq2    C6 2333   2.805   1.570  12.415 -0.9080 -0.4540  0.1732
  153TCq2    C7 2334   2.731   1.524  12.308  0.5753  0.6770  0.0621
  153TCq2    C8 2335   2.830   1.711  12.415  0.1246 -0.0962 -0.4101
  153TCq2    O4 2336   2.791   1.784  12.325  0.2132 -0.2157  0.2594
  153TCq2    C9 2337   2.762   1.298  12.653 -0.4914  0.6433 -0.4142
  153TCq2    O5 2338   2.796   1.354  12.760 -0.1520  0.3584  0.0730
  153TCq2    O6 2339   2.702   1.189  12.653 -0.1705 -0.2346 -0.3881
  153TCq2    H2 2340   2.635   1.233  12.448  0.2634 -0.0690  1.6699
  153TCq2    H3 2341   2.878   1.517  12.620  1.1992  0.4072 -1.1090
  153TCq2    H4 2342   2.706   1.582  12.220 -1.1922  0.1543  0.2291
  154MPD2     C 2343   3.736   2.340   0.610 -0.1107  0.3161  0.2159
  154MPD2    C1 2344   3.698   2.221   0.656 -0.3240  0.0434  0.3468
  154MPD2    C2 2345   3.568   2.214   0.703  0.0499  0.0574 -0.2296
  154MPD2    C3 2346   3.480   2.324   0.697  0.8256  0.2131  0.6031
  154MPD2    C4 2347   3.524   2.441   0.636 -0.4124 -0.7028 -0.0783
  154MPD2    C5 2348   3.652   2.444   0.589  0.1863 -0.0141  0.4449
  154MPD2     H 2349   3.525   2.119   0.733  2.2115 -1.4253 -1.8430
  154MPD2    H1 2350   3.459   2.527   0.622 -2.5730 -2.6052 -1.6644
  154MPD2    H2 2351   3.830   2.348   0.556 -0.7303  0.8361 -0.7710
  154MPD2    H3 2352   3.684   2.534   0.538  1.4249 -0.6048  0.1750
  154MPD2     N 2353   3.350   2.318   0.763 -0.2210 -0.9031 -0.4380
  154MPD2    H5 2354   3.323   2.236   0.816  0.1723 -0.9788 -0.3522
  154MPD2    N1 2355   3.789   2.113   0.641  0.2068 -0.0800  0.5785
  154MPD2    H7 2356   3.887   2.132   0.622 -0.1708 -0.1109 -1.3098
  155TCq2    C1 2357   3.756   1.983   0.653 -0.3590  1.2980  0.2554
  155TCq2    O2 2358   3.654   1.923   0.689 -0.4223 -0.0045  0.0423
  155TCq2    C2 2359   3.879   1.912   0.653  0.3239 -0.1079  0.8031
  155TCq2    C3 2360   3.890   1.825   0.760  0.0382 -0.3991  0.5742
  155TCq2    C4 2361   4.013   1.773   0.783 -0.0951  0.1675 -0.3191
  155TCq2    C5 2362   4.123   1.800   0.702  0.2910 -0.0650  0.4875
  155TCq2    C6 2363   4.104   1.899   0.604 -0.4526 -0.9484 -0.4763
  155TCq2    C7 2364   3.980   1.953   0.576  0.2782  0.4314 -0.3433
  155TCq2    C8 2365   4.203   1.924   0.498  0.2637  0.0454 -0.1536
  155TCq2    O4 2366   4.180   2.029   0.434 -0.3752  0.4235  0.3137
  155TCq2    C9 2367   4.018   1.659   0.873 -0.1058  0.2692  0.3687
  155TCq2    O5 2368   3.923   1.636   0.949  0.1370 -0.1949  0.4398
  155TCq2    O6 2369   4.105   1.568   0.850  0.0120  0.2612  0.3476
  155TCq2    H2 2370   3.806   1.783   0.813 -1.8721 -1.4881 -3.3387
  155TCq2    H3 2371   4.212   1.741   0.718 -0.0552 -0.0505  2.4728
  155TCq2    H4 2372   3.965   2.019   0.491  0.0284  0.8346  0.0157
  156MPD2     C 2373   3.028   4.010  11.937 -0.2302  0.5580 -0.0523
  156MPD2    C1 2374   2.904   4.028  11.889 -0.7605  0.3959 -0.1657
  156MPD2    C2 2375   2.797   4.038  11.980  0.2699  0.0951  0.2619
  156MPD2    C3 2376   2.818   4.027  12.116  0.0289  0.2628  0.1865
  156MPD2    C4 2377   2.941   3.996  12.164 -0.8004  0.3304  0.3188
  156MPD2    C5 2378   3.051   4.001  12.074  0.3339  0.1440  0.0023
  156MPD2     H 2379   2.693   4.048  11.950 -0.8423 -1.3907  3.6017
  156MPD2    H1 2380   2.962   4.000  12.271  0.4656 -0.5599  0.1064
  156MPD2    H2 2381   3.110   4.007  11.867 -1.7587 -1.7863 -1.7467
  156MPD2    H3 2382   3.151   4.009  12.115  0.6292 -1.1123 -0.4878
  156MPD2     N 2383   2.699   4.048  12.195  1.0167  0.0166  0.0571
  156MPD2    H5 2384   2.614   4.072  12.145 -0.2005 -3.4279  0.4588
  156MPD2    N1 2385   2.895   4.037  11.747 -0.0993  0.3758  0.0291
  156MPD2    H7 2386   2.982   4.047  11.695 -0.9210  0.6896 -1.2944
  157TCq2    C1 2387   2.770   4.053  11.683  0.3089  0.5855  0.1072
  157TCq2    O2 2388   2.657   4.044  11.729  0.0982 -0.0831 -0.3274
  157TCq2    C2 2389   2.785   4.060  11.540 -0.1717 -0.2538 -0.3998
  157TCq2    C3 2390   2.912   4.047  11.490  0.5178  0.0482 -0.4457
  157TCq2    C4 2391   2.933   4.083  11.359  0.3741  0.2912  0.5136
  157TCq2    C5 2392   2.838   4.151  11.289  0.5942 -0.6113  0.2500
  157TCq2    C6 2393   2.710   4.159  11.340  0.5028 -0.0343  0.2184
  157TCq2    C7 2394   2.678   4.103  11.462 -0.3565  0.7780  0.7590
  157TCq2    C8 2395   2.617   4.251  11.279  0.4427 -0.2637 -0.4738
  157TCq2    O4 2396   2.667   4.341  11.216 -0.0912  0.0842 -0.0428
  157TCq2    C9 2397   3.063   4.060  11.297 -0.0542  0.0729 -0.2062
  157TCq2    O5 2398   3.084   4.131  11.199 -0.6389 -0.3820  0.8914
  157TCq2    O6 2399   3.125   3.958  11.337 -0.4925  0.1516  0.1745
  157TCq2    H2 2400   2.996   3.989  11.526 -0.1538 -0.6852 -0.0705
  157TCq2    H3 2401   2.852   4.183  11.186  0.8604  1.4252  0.9294
  157TCq2    H4 2402   2.578   4.111  11.504 -1.0236  0.6859 -0.8062
  158TMC2    C1 2403   2.477   3.398  13.458 -0.3676 -0.4120 -0.5228
  158TMC2    C2 2404   2.499   3.466  13.338  0.0797 -0.0146  0.3213
  158TMC2    C3 2405   2.410   3.464  13.239  0.3161  0.1385  0.2863
  158TMC2    C4 2406   2.366   3.315  13.461 -0.7052  0.3083 -0.0720
  158TMC2    C5 2407   2.278   3.313  13.358 -0.0491  0.4980  0.1937
  158TMC2    C6 2408   2.297   3.387  13.243 -0.7738 -0.3276  0.2825
  158TMC2     C 2409   2.588   3.381  13.555  0.2483 -0.7247 -0.3546
  158TMC2     O 2410   2.688   3.455  13.539  0.3538 -0.1900 -0.1956
  158TMC2     H 2411   2.583   3.535  13.339  0.3133 -0.2995  0.8659
  158TMC2    H1 2412   2.332   3.285  13.560 -0.3084  0.1279  0.0104
  158TMC2    H2 2413   2.246   3.367  13.149 -0.0952 -0.2141 -0.1097
  158TMC2    C7 2414   2.166   3.219  13.367 -0.2476  0.0454 -0.2917
  158TMC2    C8 2415   2.459   3.473  13.101  0.2520  0.6535 -0.9210
  158TMC2    O1 2416   2.079   3.248  13.289  0.0602  0.1303  0.2736
  158TMC2    O2 2417   2.386   3.485  13.005  0.3311 -0.0317  0.3089
  158TMC2    O5 2418   2.582   3.411  13.107  0.1220  0.1926 -0.0357
  158TMC2    H5 2419   2.608   3.382  13.197  0.4624 -2.1681 -0.9151
  159MPD2     C 2420   2.801   3.168  13.972  0.0371 -0.1132  0.4241
  159MPD2    C1 2421   2.693   3.090  13.931 -0.4525 -0.1304 -0.5393
  159MPD2    C2 2422   2.624   3.126  13.816  0.0752  0.7192  0.2476
  159MPD2    C3 2423   2.653   3.238  13.743 -0.4206 -0.9489  0.3596
  159MPD2    C4 2424   2.761   3.310  13.783 -0.0926 -0.1701  0.0907
  159MPD2    C5 2425   2.840   3.274  13.894  0.3442  1.0807 -0.1878
  159MPD2     H 2426   2.547   3.061  13.777  0.6225  1.2553 -1.7485
  159MPD2    H1 2427   2.812   3.378  13.716 -2.6574  3.4573  1.8454
  159MPD2    H2 2428   2.847   3.162  14.070 -0.1054  1.3627  0.5809
  159MPD2    H3 2429   2.915   3.346  13.926  0.5363  0.1202  1.5306
  159MPD2     N 2430   2.581   3.266  13.626  0.8099 -0.2561 -0.4012
  159MPD2    H5 2431   2.526   3.190  13.588 -0.5997  0.1803  0.7735
  159MPD2    N1 2432   2.655   2.986  14.021  0.3370  0.0306 -0.0203
  159MPD2    H7 2433   2.725   2.962  14.091  0.7438 -2.2769 -1.2002
  160TMC2    C1 2434   2.643   0.667   1.324 -0.4645  0.2058 -0.4705
  160TMC2    C2 2435   2.635   0.533   1.298 -0.1244 -0.2653 -0.3783
  160TMC2    C3 2436   2.645   0.502   1.167  0.1495  0.1242  0.6434
  160TMC2    C4 2437   2.679   0.765   1.234  0.0142  0.4870  0.1277
  160TMC2    C5 2438   2.691   0.728   1.101  0.6096  0.3669 -0.7605
  160TMC2    C6 2439   2.674   0.592   1.067 -0.3625  0.2978 -0.5061
  160TMC2     C 2440   2.566   0.712   1.439 -1.0334  0.5135 -0.3886
  160TMC2     O 2441   2.564   0.628   1.525 -0.4447 -0.1790 -0.4858
  160TMC2     H 2442   2.605   0.455   1.367  0.4587  0.0444  0.2216
  160TMC2    H1 2443   2.688   0.865   1.276 -3.1375  1.4263 -1.3364
  160TMC2    H2 2444   2.667   0.562   0.964 -1.3714 -0.7261 -0.1468
  160TMC2    C7 2445   2.693   0.827   0.989  0.3458 -0.5506  0.5190
  160TMC2    C8 2446   2.641   0.368   1.120 -0.6535 -0.4296  0.6471
  160TMC2    O1 2447   2.716   0.783   0.877  0.3196  0.7184  0.2605
  160TMC2    O2 2448   2.624   0.344   1.004 -0.7192  0.0062  0.3695
  160TMC2    O5 2449   2.660   0.279   1.225 -0.4179 -0.0646  0.2388
  160TMC2    H5 2450   2.689   0.320   1.310 -1.5039 -1.6271  1.3565
  161MPD2     C 2451   2.422   0.852   1.661  0.0589 -0.1531  0.6287
  161MPD2    C1 2452   2.449   0.910   1.541  0.3712 -0.1732 -0.0973
  161MPD2    C2 2453   2.418   1.043   1.523 -0.1653 -0.3799  0.0014
  161MPD2    C3 2454   2.361   1.118   1.626 -0.6936  0.7733  0.1766
  161MPD2    C4 2455   2.345   1.059   1.747  0.2055  0.1225 -0.1566
  161MPD2    C5 2456   2.374   0.927   1.765  0.1139 -0.0760  0.0413
  161MPD2     H 2457   2.444   1.080   1.425 -0.9670 -0.5168 -0.2609
  161MPD2    H1 2458   2.298   1.116   1.826  0.6381 -1.7834  1.4721
  161MPD2    H2 2459   2.442   0.746   1.672  0.5815 -0.1176  0.0347
  161MPD2    H3 2460   2.364   0.890   1.866  0.6473  0.2014  0.2000
  161MPD2     N 2461   2.314   1.247   1.609 -0.3662 -0.0396  0.0142
  161MPD2    H5 2462   2.278   1.305   1.684 -1.1975 -0.0834 -0.3419
  161MPD2    N1 2463   2.507   0.838   1.429  0.0329 -0.1838 -0.6701
  161MPD2    H7 2464   2.521   0.896   1.347 -1.9564  1.1850 -0.0434
  162TMC2    C1 2465   0.209   2.522   1.007 -0.0032 -0.0875  0.3320
  162TMC2    C2 2466   0.118   2.577   0.927 -0.0164 -0.0797 -0.5993
  162TMC2    C3 2467   4.703   2.589   0.960 -0.2136 -0.8595 -0.4368
  162TMC2    C4 2468   0.165   2.493   1.132  0.1270 -0.1159 -0.6738
  162TMC2    C5 2469   0.034   2.493   1.168  0.0147 -0.6369 -0.8391
  162TMC2    C6 2470   4.663   2.550   1.083  0.7853  0.6956 -0.4053
  162TMC2     C 2471   0.349   2.521   0.972  0.7449  0.8986  0.0347
  162TMC2     O 2472   0.380   2.587   0.875 -0.4392 -0.1340  0.2449
  162TMC2     H 2473   0.141   2.609   0.826  1.1261 -1.8501 -0.9062
  162TMC2    H1 2474   0.235   2.461   1.207 -1.2897 -0.0489  0.6848
  162TMC2    H2 2475   4.557   2.553   1.106  0.0071 -1.4002 -3.7745
  162TMC2    C7 2476   4.698   2.427   1.285  0.0588 -0.1047 -0.1583
  162TMC2    C8 2477   4.623   2.692   0.895 -0.7996  0.0466 -0.2949
  162TMC2    O1 2478   4.606   2.352   1.271 -0.0063  0.1097  0.8922
  162TMC2    O2 2479   4.503   2.668   0.883 -0.6182 -0.0325  0.3492
  162TMC2    O5 2480   4.675   2.816   0.924  0.4311 -0.2611 -0.0144
  162TMC2    H5 2481   0.050   2.816   0.936  0.4503  1.4503 -0.1565
  163MPD2     C 2482   0.859   2.424   1.032 -0.0155 -0.2627  0.1369
  163MPD2    C1 2483   0.795   2.515   0.953  0.2876 -1.3926 -0.7051
  163MPD2    C2 2484   0.654   2.528   0.956 -0.2666 -0.6234  0.4796
  163MPD2    C3 2485   0.576   2.442   1.033  1.5759 -0.1772 -0.1834
  163MPD2    C4 2486   0.642   2.345   1.108 -0.3067  0.6885 -0.1802
  163MPD2    C5 2487   0.779   2.338   1.102 -0.0718  0.3354  0.7528
  163MPD2     H 2488   0.598   2.609   0.911  2.5908 -0.2431 -2.4242
  163MPD2    H1 2489   0.588   2.276   1.172  1.0971 -0.6746 -0.4845
  163MPD2    H2 2490   0.962   2.395   1.016 -0.0259  0.3887 -1.1156
  163MPD2    H3 2491   0.842   2.262   1.147  1.7517  0.6480 -1.3019
  163MPD2     N 2492   0.435   2.449   1.053 -0.2620  0.3019  0.1344
  163MPD2    H5 2493   0.397   2.383   1.121 -0.7513  1.8445  1.3655
  163MPD2    N1 2494   0.880   2.609   0.888  0.0256 -0.1065 -0.5244
  163MPD2    H7 2495   0.981   2.607   0.902 -0.0955  1.2378  0.5411
  164TCq2    C1 2496   1.743   3.710  11.007  0.2563 -0.5006  0.4479
  164TCq2    O2 2497   1.790   3.815  11.048 -0.2420 -0.0531  0.1796
  164TCq2    C2 2498   1.678   3.625  11.107  0.0946  0.7591  0.7671
  164TCq2    C3 2499   1.753   3.601  11.211  0.1907 -0.4720  0.4419
  164TCq2    C4 2500   1.719   3.502  11.295  0.0596 -0.1230  0.3279
  164TCq2    C5 2501   1.613   3.421  11.271  0.0906 -0.5524 -0.3017
  164TCq2    C6 2502   1.542   3.435  11.156 -0.1955 -0.2613 -0.0455
  164TCq2    C7 2503   1.579   3.535  11.071 -0.8375 -0.2329  0.2133
  164TCq2    C8 2504   1.409   3.377  11.136 -0.2853  0.7818  0.4088
  164TCq2    O4 2505   1.353   3.401  11.028  0.0581 -0.3590  0.5878
  164TCq2    C9 2506   1.780   3.503  11.426  0.4422  0.2584  0.1804
  164TCq2    O5 2507   1.862   3.599  11.448  0.4030  0.2597 -0.6517
  164TCq2    O6 2508   1.721   3.431  11.515 -0.5514  0.2651 -0.9251
  164TCq2    H2 2509   1.838   3.661  11.243 -0.6494  1.3449 -0.6997
  164TCq2    H3 2510   1.582   3.347  11.344 -0.1891 -1.4031 -1.2823
  164TCq2    H4 2511   1.521   3.552  10.981 -0.9343  2.8524  0.8557
  165MPD2     C 2512   3.230   3.644   1.483  1.0061 -0.5112 -0.0515
  165MPD2    C1 2513   3.221   3.674   1.617  0.2349  0.5580  0.2562
  165MPD2    C2 2514   3.225   3.807   1.667  1.2781 -0.0331  0.1438
  165MPD2    C3 2515   3.249   3.904   1.573 -0.4398  0.3013 -0.5626
  165MPD2    C4 2516   3.251   3.875   1.442 -0.1653 -0.1081  0.3132
  165MPD2    C5 2517   3.239   3.744   1.396 -0.2415  0.1404 -0.5756
  165MPD2     H 2518   3.195   3.833   1.767  1.3954 -1.5020  0.5602
  165MPD2    H1 2519   3.264   3.954   1.369 -0.7496  0.1904  0.5294
  165MPD2    H2 2520   3.203   3.544   1.451 -1.8201  0.2806 -0.1098
  165MPD2    H3 2521   3.244   3.727   1.289 -0.3670 -0.6240 -0.4583
  165MPD2     N 2522   3.247   4.039   1.598 -0.2644 -0.4242  0.3168
  165MPD2    H5 2523   3.249   4.098   1.515  0.9075 -0.5098  0.2821
  165MPD2    N1 2524   3.177   3.571   1.701 -0.1656  0.1936 -0.5561
  165MPD2    H7 2525   3.177   3.480   1.656 -1.0679 -0.2388  0.3120
  166TCq2    C1 2526   3.257   4.094   1.727  0.0904  0.2907  0.1802
  166TCq2    O2 2527   3.282   4.040   1.836  0.0838  0.2118 -0.5199
  166TCq2    C2 2528   3.263   4.238   1.738  0.3788 -0.4124 -0.2555
  166TCq2    C3 2529   3.281   4.290   1.866 -0.3856 -0.0805  0.2320
  166TCq2    C4 2530   3.267   4.422   1.886 -0.5747 -0.0103 -0.1830
  166TCq2    C5 2531   3.245   4.504   1.782  0.4226  1.0318 -0.6699
  166TCq2    C6 2532   3.224   4.457   1.655 -0.5316 -0.2063  0.4863
  166TCq2    C7 2533   3.225   4.324   1.637 -0.0373  0.4429  0.0876
  166TCq2    C8 2534   3.185   4.550   1.551 -0.2960 -0.3515  0.3880
  166TCq2    O4 2535   3.142   4.657   1.584 -0.5442  0.3796  0.3200
  166TCq2    C9 2536   3.292   4.468   2.022 -0.0481  0.0317  0.8668
  166TCq2    O5 2537   3.319   4.388   2.115  0.0235 -0.6226  0.0214
  166TCq2    O6 2538   3.273   4.590   2.032 -1.3327 -0.2610  0.2713
  166TCq2    H2 2539   3.314   4.234   1.953  0.7403 -0.0451 -0.1741
  166TCq2    H3 2540   3.255   4.611   1.796  1.5991  0.7848  0.3371
  166TCq2    H4 2541   3.197   4.280   1.542  1.0973  0.8782 -0.4527
  167TMC2    C1 2542   0.568   2.652  12.869  0.2295  0.5781  0.3097
  167TMC2    C2 2543   0.483   2.680  12.968 -0.5775  0.0617  0.3985
  167TMC2    C3 2544   0.429   2.578  13.033  0.3858  0.0111 -0.6556
  167TMC2    C4 2545   0.613   2.530  12.833 -0.0767 -0.3464 -0.3673
  167TMC2    C5 2546   0.555   2.433  12.899 -0.1038 -0.1201  0.6244
  167TMC2    C6 2547   0.469   2.455  13.005  0.0226  0.2570  0.3146
  167TMC2     C 2548   0.615   2.769  12.789 -0.1613  0.2732  0.2943
  167TMC2     O 2549   0.728   2.758  12.746 -0.2933  0.1318 -0.3431
  167TMC2     H 2550   0.465   2.780  13.005 -0.9328  0.5910 -1.1812
  167TMC2    H1 2551   0.675   2.514  12.745  0.0808  0.5344 -0.4211
  167TMC2    H2 2552   0.410   2.379  13.056 -1.9972  1.1315 -0.7230
  167TMC2    C7 2553   0.567   2.295  12.853 -0.0954 -0.0306  0.0463
  167TMC2    C8 2554   0.349   2.601  13.159  0.1200 -0.8846  0.1971
  167TMC2    O1 2555   0.502   2.220  12.920  0.3318  0.4678 -0.2061
  167TMC2    O2 2556   0.345   2.533  13.264 -0.1099 -0.3645  0.4563
  167TMC2    O5 2557   0.280   2.717  13.151  0.1063  0.0678  0.5543
  167TMC2    H5 2558   0.290   2.759  13.063  1.6547 -1.5901 -0.0681
  168MPD2     C 2559   0.686   3.032  12.667 -0.6526  0.1244 -0.1588
  168MPD2    C1 2560   0.562   2.980  12.666  0.3228  0.1605 -0.3186
  168MPD2    C2 2561   0.458   3.033  12.597  0.2132 -0.8979 -0.4185
  168MPD2    C3 2562   0.479   3.142  12.513  0.0173 -0.0450 -0.1427
  168MPD2    C4 2563   0.608   3.195  12.511  0.0417  0.3570  0.6809
  168MPD2    C5 2564   0.707   3.136  12.586  0.5834  0.3389  0.3061
  168MPD2     H 2565   0.361   2.989  12.615  0.5095 -1.2077  0.4514
  168MPD2    H1 2566   0.644   3.277  12.450 -0.1058  0.8205  1.2124
  168MPD2    H2 2567   0.770   2.995  12.725  0.4651 -0.2529 -2.0273
  168MPD2    H3 2568   0.809   3.171  12.578  0.6086  0.3297  0.5634
  168MPD2     N 2569   0.386   3.202  12.423  0.2684  0.0804  0.0838
  168MPD2    H5 2570   0.416   3.280  12.365  0.6185  0.1852  0.4005
  168MPD2    N1 2571   0.526   2.865  12.747  0.6632 -0.5000  0.0205
  168MPD2    H7 2572   0.436   2.819  12.748  0.3334  0.1493 -0.6911
  169MPD1     C 2573   3.223   2.341   8.580  0.4504  0.1085 -0.9182
  169MPD1    C1 2574   3.152   2.239   8.644 -0.0805  0.0997 -0.1374
  169MPD1    C2 2575   3.143   2.240   8.783 -0.3973  0.3095 -0.1922
  169MPD1    C3 2576   3.191   2.350   8.854 -0.2188 -0.2908 -0.2271
  169MPD1    C4 2577   3.257   2.450   8.786 -0.1486  0.1784  1.4559
  169MPD1    C5 2578   3.269   2.445   8.649 -0.0699 -0.2123 -0.0179
  169MPD1     H 2579   3.095   2.159   8.836  0.4602 -0.9712 -1.3335
  169MPD1    H1 2580   3.302   2.532   8.841  1.3908 -0.4874  1.1805
  169MPD1    H2 2581   3.240   2.340   8.473  2.9423  0.9797 -0.5424
  169MPD1    H3 2582   3.317   2.519   8.586  1.9213 -0.0411  1.7012
  169MPD1     N 2583   3.158   2.361   8.990  0.1472 -0.3448 -0.1170
  169MPD1    H5 2584   3.123   2.274   9.028 -1.8218  0.1097 -0.9317
  169MPD1    N1 2585   3.116   2.125   8.568  0.0855 -0.2756  0.4816
  169MPD1    H6 2586   3.049   2.069   8.620 -1.2212  1.2742  0.4729
  169MPD1    H7 2587   3.072   2.140   8.478  0.1770 -1.5435  0.2262
  170MPD1     C 2588   1.970   4.666  13.028 -0.3482  0.9704  0.3951
  170MPD1    C1 2589   1.841   4.719  13.012 -0.0390  0.4351  0.2376
  170MPD1    C2 2590   1.768   0.047  13.121 -0.0712 -0.4336 -0.6894
  170MPD1    C3 2591   1.828   0.051  13.250 -0.1014 -0.0902  0.1928
  170MPD1    C4 2592   1.956   4.718  13.259 -0.0962  0.3002  0.2082
  170MPD1    C5 2593   2.025   4.665  13.151 -0.2260 -0.9069 -0.1022
  170MPD1     H 2594   1.666   0.077  13.100 -0.2021  1.1424  2.0714
  170MPD1    H1 2595   2.009   4.719  13.354  0.9377  2.7193 -0.3791
  170MPD1    H2 2596   2.024   4.607  12.954  2.5192  2.6809  1.1312
  170MPD1    H3 2597   2.123   4.619  13.163 -1.5628 -3.0733  2.3153
  170MPD1     N 2598   1.747   0.100  13.362  0.7954 -0.4610  0.1031
  170MPD1    H5 2599   1.650   0.126  13.348  0.0974 -0.3750  4.9012
  170MPD1    N1 2600   1.778   4.701  12.886 -0.2199 -0.2543  0.2723
  170MPD1    H6 2601   1.710   0.049  12.857 -0.9234 -0.1237  2.1914
  170MPD1    H7 2602   1.841   4.689  12.807  0.1289  2.6819  0.0974
  171MPD1     C 2603   4.652   1.468  15.783  0.7707  0.2507 -0.3546
  171MPD1    C1 2604   0.013   1.402  15.688  0.1269 -0.7287  0.0064
  171MPD1    C2 2605   0.076   1.280  15.724  0.2027  1.2555 -0.0068
  171MPD1    C3 2606   0.075   1.241  15.860 -0.0306 -0.2031 -0.1990
  171MPD1    C4 2607   0.007   1.318  15.950  0.0534 -0.3321 -0.2584
  171MPD1    C5 2608   4.651   1.424  15.913 -0.0707 -0.3158 -0.5563
  171MPD1     H 2609   0.123   1.216  15.650 -0.4164  0.4947  0.2604
  171MPD1    H1 2610   0.005   1.295  16.056 -0.8069 -0.2652 -0.2592
  171MPD1    H2 2611   4.590   1.548  15.744  2.0842  0.4924 -1.9749
  171MPD1    H3 2612   4.600   1.474  15.994  2.1619  1.1126 -0.0501
  171MPD1     N 2613   0.146   1.127  15.909 -0.4860 -0.6826  0.7487
  171MPD1    H5 2614   0.150   1.108  16.009 -3.4196 -1.5686  0.6906
  171MPD1    N1 2615   0.010   1.437  15.554  0.3606  0.2070  0.0051
  171MPD1    H6 2616   4.708   1.535  15.538  0.1632  0.3022  0.9007
  171MPD1    H7 2617   0.098   1.424  15.505 -0.4105 -0.7326 -1.1589
  172MPD1     C 2618   3.915   0.786  17.679 -0.1319 -0.0252 -0.0856
  172MPD1    C1 2619   3.872   0.897  17.619 -0.5605 -0.2258 -0.5497
  172MPD1    C2 2620   3.810   0.993   0.005  0.5142  0.1442  0.6669
  172MPD1    C3 2621   3.789   0.976   0.140 -0.0079 -0.3046 -0.2075
  172MPD1    C4 2622   3.825   0.856   0.195 -0.7132  0.7787  0.1052
  172MPD1    C5 2623   3.897   0.765   0.125 -0.3386  0.4627  0.1838
  172MPD1     H 2624   3.790   1.095  17.664  0.0127  0.7755  3.1329
  172MPD1    H1 2625   3.792   0.843   0.297  0.4322  0.3478  0.4248
  172MPD1    H2 2626   3.970   0.708  17.628  1.0183  0.1099  0.9415
  172MPD1    H3 2627   3.942   0.677   0.169  0.7530  0.0394 -1.8062
  172MPD1     N 2628   3.741   1.067   0.226  0.2265 -0.1510  0.0073
  172MPD1    H5 2629   3.733   1.037   0.323 -1.3234  1.0729  0.2602
  172MPD1    N1 2630   3.869   0.922  17.477  0.4666  0.1014  0.0629
  172MPD1    H6 2631   3.889   1.016  17.445 -0.6905  0.4450  0.3253
  172MPD1    H7 2632   3.931   0.857  17.430  1.0815  1.0774 -0.4603
  173MPD1     C 2633   0.626   0.744  14.545  0.1093  0.1585  0.0767
  173MPD1    C1 2634   0.540   0.673  14.465 -0.0430 -0.5637 -0.4903
  173MPD1    C2 2635   0.451   0.587  14.531 -0.2699 -0.2601  0.0344
  173MPD1    C3 2636   0.444   0.580  14.672  0.4008 -0.0370 -0.2494
  173MPD1    C4 2637   0.530   0.662  14.752 -0.9128  0.1524  1.3629
  173MPD1    C5 2638   0.621   0.744  14.684 -0.1511  0.0144 -1.1121
  173MPD1     H 2639   0.383   0.524  14.475 -2.0928  1.0689  0.7628
  173MPD1    H1 2640   0.532   0.670  14.861  1.3486  0.3094  1.3192
  173MPD1    H2 2641   0.701   0.806  14.498  1.9040 -2.4917 -0.5864
  173MPD1    H3 2642   0.695   0.799  14.741 -1.4049  0.0136  0.5190
  173MPD1     N 2643   0.350   0.490  14.719  0.0113 -0.1794 -0.6118
  173MPD1    H5 2644   0.313   0.422  14.654 -0.6802 -0.0001 -0.4015
  173MPD1    N1 2645   0.549   0.677  14.318 -0.2757 -0.0478  0.5108
  173MPD1    H6 2646   0.586   0.760  14.272 -0.7704  0.1957  0.5593
  173MPD1    H7 2647   0.470   0.630  14.276  0.6401 -1.2231  0.0864
  174MPD1     C 2648   4.659   0.090  14.151  0.1341 -0.7390 -0.1904
  174MPD1    C1 2649   4.572   0.076  14.259 -0.6160  0.2828  0.1442
  174MPD1    C2 2650   4.623   0.097  14.390 -0.3507  1.1004  0.8742
  174MPD1    C3 2651   0.036   0.115  14.417  0.2548  0.3755  0.3005
  174MPD1    C4 2652   0.121   0.145  14.311  0.2692  0.2180  0.1830
  174MPD1    C5 2653   0.068   0.121  14.178  0.3029  0.6485  0.5421
  174MPD1     H 2654   4.549   0.093  14.470 -2.7272  0.2357 -1.3952
  174MPD1    H1 2655   0.222   0.178  14.332  0.0112  0.1383  1.5972
  174MPD1    H2 2656   4.623   0.092  14.048 -1.2169  1.5120  0.3512
  174MPD1    H3 2657   0.143   0.123  14.100  1.2853  0.8466  1.4850
  174MPD1     N 2658   0.100   0.130  14.546 -0.4761 -0.0966  0.3440
  174MPD1    H5 2659   0.194   0.166  14.543 -0.0489 -1.1684  0.6550
  174MPD1    N1 2660   4.434   0.089  14.252  0.2302 -0.3304  0.1662
  174MPD1    H6 2661   4.399   0.045  14.167 -1.3423  1.7167 -0.2626
  174MPD1    H7 2662   4.393   0.043  14.333  0.2653 -0.3595  0.1670
  175MPD1     C 2663   3.665   1.060  15.579 -0.1627 -0.1121 -0.2519
  175MPD1    C1 2664   3.527   1.045  15.573 -0.4977  0.1125 -0.1471
  175MPD1    C2 2665   3.452   1.051  15.691 -0.5930 -0.1418  0.2841
  175MPD1    C3 2666   3.521   1.086  15.806  0.0624  0.1110  0.7855
  175MPD1    C4 2667   3.658   1.106  15.810 -0.0889 -0.2861  0.1074
  175MPD1    C5 2668   3.735   1.093  15.687  0.1064 -0.0318 -1.0378
  175MPD1     H 2669   3.345   1.033  15.685 -0.6541  0.1466  0.5267
  175MPD1    H1 2670   3.710   1.130  15.902 -0.2622  0.5511 -0.0171
  175MPD1    H2 2671   3.726   1.050  15.490 -0.5535 -2.0540 -0.3040
  175MPD1    H3 2672   3.842   1.111  15.688  0.4020 -1.7250 -0.8401
  175MPD1     N 2673   3.452   1.095  15.937 -0.0212  0.2022 -0.0822
  175MPD1    H5 2674   3.508   1.124  16.016 -0.0485  0.9400 -0.3359
  175MPD1    N1 2675   3.472   1.015  15.443 -0.2042  0.0950  0.3913
  175MPD1    H6 2676   3.427   0.925  15.459 -0.0326  0.2857  2.0308
  175MPD1    H7 2677   3.547   0.993  15.378 -2.0989 -1.0018 -1.4154
  176MPD1     C 2678   0.480   2.907   0.169  0.1957  0.1678  0.2726
  176MPD1    C1 2679   0.372   2.983   0.172 -0.4014  0.0846  0.3257
  176MPD1    C2 2680   0.354   3.076   0.072  0.5399  0.0585 -0.1354
  176MPD1    C3 2681   0.450   3.101  17.672 -0.4374  0.0331 -0.2279
  176MPD1    C4 2682   0.561   3.027  17.674  0.0533  0.0400  0.3057
  176MPD1    C5 2683   0.581   2.938   0.085  0.0112 -0.2097  0.1401
  176MPD1     H 2684   0.260   3.129   0.068 -0.6476 -2.0132  0.2997
  176MPD1    H1 2685   0.651   3.036  17.614  0.2223 -0.0611  0.5447
  176MPD1    H2 2686   0.495   2.831   0.245 -2.3286  0.2867  0.8778
  176MPD1    H3 2687   0.676   2.885   0.087 -0.0359 -0.2263  1.8266
  176MPD1     N 2688   0.429   3.192  17.569 -0.5305 -1.1001  0.5119
  176MPD1    H5 2689   0.341   3.241  17.580 -0.4293  0.1903 -4.3498
  176MPD1    N1 2690   0.274   2.957   0.268  0.1302  0.5994 -0.8147
  176MPD1    H6 2691   0.240   3.045   0.306  0.5895 -0.6774  2.4977
  176MPD1    H7 2692   0.312   2.897   0.340  0.0898  3.0062  1.2248
  177MPD1     C 2693   4.255   3.759   9.764  0.1533 -0.2189  0.1583
  177MPD1    C1 2694   4.190   3.676   9.674 -0.8200 -0.7191  0.0513
  177MPD1    C2 2695   4.055   3.702   9.643  0.0091 -0.2840  0.4844
  177MPD1    C3 2696   3.985   3.794   9.716  0.1302 -0.4413  0.2763
  177MPD1    C4 2697   4.052   3.865   9.817 -0.2330 -0.0623 -0.6137
  177MPD1    C5 2698   4.190   3.856   9.833 -0.0782  0.9506  0.6523
  177MPD1     H 2699   3.999   3.658   9.562  1.5399 -0.8965 -0.2445
  177MPD1    H1 2700   4.008   3.943   9.877 -3.3751 -1.1045 -1.5545
  177MPD1    H2 2701   4.363   3.754   9.767  0.2668  0.4834 -2.9701
  177MPD1    H3 2702   4.248   3.915   9.903  1.5239 -0.0911  0.2031
  177MPD1     N 2703   3.845   3.808   9.685  0.5812  0.1502  0.4484
  177MPD1    H5 2704   3.803   3.731   9.635 -0.7986 -0.3153  2.3259
  177MPD1    N1 2705   4.267   3.595   9.597  0.2846  0.3354 -0.8269
  177MPD1    H6 2706   4.211   3.519   9.558  0.5901 -0.9762  1.2412
  177MPD1    H7 2707   4.343   3.562   9.656 -1.6169 -1.0657  0.8868
  178MPD1     C 2708   1.132   0.021   0.245  0.1847 -0.1952 -0.1965
  178MPD1    C1 2709   1.215   4.659   0.306  0.6525 -0.1994  0.2769
  178MPD1    C2 2710   1.250   4.546   0.244 -0.0222 -0.5550  0.1084
  178MPD1    C3 2711   1.197   4.506   0.125 -0.1432 -0.1384 -0.6650
  178MPD1    C4 2712   1.103   4.589   0.064 -0.1107 -0.1964 -1.2250
  178MPD1    C5 2713   1.067   4.706   0.130 -0.5199  0.1314  0.0451
  178MPD1     H 2714   1.320   4.482   0.296 -0.9916 -0.3076  1.7499
  178MPD1    H1 2715   1.051   4.561  17.662 -0.1869 -1.5442 -0.7621
  178MPD1    H2 2716   1.101   0.113   0.294  1.4643  0.9646 -1.5571
  178MPD1    H3 2717   0.995   0.057   0.095 -1.3502 -0.4852  0.4749
  178MPD1     N 2718   1.234   4.383   0.055  0.5133 -0.3012 -0.0661
  178MPD1    H5 2719   1.207   4.372  17.647  1.8831 -1.5321 -0.3041
  178MPD1    N1 2720   1.283   4.696   0.423  0.2248  0.0547 -0.5441
  178MPD1    H6 2721   1.226   0.025   0.490 -1.4459 -0.5407 -1.5121
  178MPD1    H7 2722   1.312   4.603   0.452 -1.0369  0.4592  2.0052
  179MPD1     C 2723   1.191   1.766  15.961  0.2871 -0.2345 -0.5836
  179MPD1    C1 2724   1.133   1.893  15.975 -0.0444  0.4865  0.0259
  179MPD1    C2 2725   1.003   1.906  16.020  0.1969  0.7336 -0.2124
  179MPD1    C3 2726   0.927   1.794  16.053  0.7662  0.3902 -0.1530
  179MPD1    C4 2727   0.983   1.666  16.034 -0.3994  0.2937  0.4987
  179MPD1    C5 2728   1.112   1.652  15.987 -0.1614  0.2185 -0.2247
  179MPD1     H 2729   0.972   2.006  16.048 -0.2967 -0.3921  3.2207
  179MPD1    H1 2730   0.921   1.577  16.041 -2.4951  1.5381 -2.0951
  179MPD1    H2 2731   1.291   1.762  15.919  1.4815  0.7698  2.1358
  179MPD1    H3 2732   1.156   1.557  15.961  0.6967  0.6374 -0.3176
  179MPD1     N 2733   0.793   1.803  16.102  0.3985  0.2046  0.2582
  179MPD1    H5 2734   0.760   1.711  16.129  1.5466 -0.3996 -0.4074
  179MPD1    N1 2735   1.210   2.010  15.965 -0.9832 -0.7723  0.6182
  179MPD1    H6 2736   1.291   1.988  15.907 -2.3937  0.9747 -1.9795
  179MPD1    H7 2737   1.156   2.088  15.930 -1.7226 -1.9143 -0.7843
  180MPD1     C 2738   1.631   4.631  14.346  0.2203 -0.2712  0.2317
  180MPD1    C1 2739   1.573   4.597  14.226  0.3558 -0.6237  0.2417
  180MPD1    C2 2740   1.474   4.509  14.231  0.2403  0.3019  0.1215
  180MPD1    C3 2741   1.428   4.456  14.351 -0.4713  0.0090  0.1319
  180MPD1    C4 2742   1.487   4.500  14.468  0.6658  0.2191  0.2135
  180MPD1    C5 2743   1.587   4.589  14.465  0.3779 -0.0638 -0.1556
  180MPD1     H 2744   1.436   4.473  14.136  0.6364 -0.7590  0.3623
  180MPD1    H1 2745   1.451   4.460  14.562  0.7832  0.5000  0.3790
  180MPD1    H2 2746   1.723   4.687  14.338  1.6913 -2.2741  3.2304
  180MPD1    H3 2747   1.641   4.626  14.552  0.9009  2.4409 -1.5336
  180MPD1     N 2748   1.327   4.367  14.346 -0.3423 -0.0092  0.6229
  180MPD1    H5 2749   1.304   4.331  14.255 -1.0436  1.4100  0.2313
  180MPD1    N1 2750   1.631   4.623  14.100  0.0335  0.0757  0.1486
  180MPD1    H6 2751   1.555   4.619  14.031 -0.1363 -0.6820  0.3776
  180MPD1    H7 2752   1.685   4.709  14.105  1.8870 -1.0127 -1.0712
  181MPD1     C 2753   2.867   0.809   9.994 -1.2411  0.3047  0.2077
  181MPD1    C1 2754   2.787   0.909  10.062  0.2710 -0.5663  0.1961
  181MPD1    C2 2755   2.811   0.921  10.196  0.0673  0.3200  1.1126
  181MPD1    C3 2756   2.880   0.827  10.263  0.1923  0.5103  0.5896
  181MPD1    C4 2757   2.947   0.730  10.198  0.3262 -0.1906  0.3289
  181MPD1    C5 2758   2.940   0.723  10.064  0.1404  0.0789 -0.3289
  181MPD1     H 2759   2.763   1.003  10.248  2.4179  0.6919  2.6386
  181MPD1    H1 2760   3.013   0.661  10.251 -0.1763  0.6558  2.0583
  181MPD1    H2 2761   2.863   0.788   9.887  1.7406 -1.0893  0.3596
  181MPD1    H3 2762   2.992   0.643  10.015  0.5400  1.2880 -1.8682
  181MPD1     N 2763   2.899   0.825  10.402 -0.5832 -0.3087  0.4270
  181MPD1    H5 2764   2.966   0.752  10.422  0.0650  0.9021  2.6206
  181MPD1    N1 2765   2.706   1.014  10.009 -0.3523 -0.5560 -0.1766
  181MPD1    H6 2766   2.628   1.036  10.070  0.5479  1.0686  0.3532
  181MPD1    H7 2767   2.664   0.992   9.919 -1.0938 -2.1380  0.5571
  182MPD1     C 2768   3.683   4.566   2.241 -0.3435 -0.0232  0.1149
  182MPD1    C1 2769   3.705   4.440   2.276  0.2250 -0.1767  0.2236
  182MPD1    C2 2770   3.673   4.346   2.181  0.7275 -0.2020  0.0765
  182MPD1    C3 2771   3.644   4.384   2.046 -0.7069  0.3304 -0.4219
  182MPD1    C4 2772   3.639   4.515   2.012  0.2547  0.6399  0.3401
  182MPD1    C5 2773   3.664   4.602   2.111 -0.0164 -0.0352 -0.3489
  182MPD1     H 2774   3.669   4.243   2.214 -0.8965  0.3324  1.5664
  182MPD1    H1 2775   3.617   4.552   1.912 -1.3793 -1.4813 -0.0700
  182MPD1    H2 2776   3.685   4.646   2.314 -1.3850 -0.3836  0.5433
  182MPD1    H3 2777   3.661   4.710   2.101  0.8470  0.0201  0.0005
  182MPD1     N 2778   3.628   4.292   1.939  0.0734  0.2285 -0.0565
  182MPD1    H5 2779   3.606   4.328   1.846  0.3594  2.3366  0.7071
  182MPD1    N1 2780   3.718   4.404   2.411 -0.2584  0.3794 -0.4010
  182MPD1    H6 2781   3.762   4.313   2.428  2.2011  1.4124 -1.1938
  182MPD1    H7 2782   3.787   4.467   2.451  0.4781 -0.6859  0.0356
  183MPD1     C 2783   3.345   0.512   9.458  0.0017  0.3709 -0.0301
  183MPD1    C1 2784   3.262   0.600   9.521  0.6636 -0.4961  1.1342
  183MPD1    C2 2785   3.304   0.660   9.637 -0.6298 -0.7003 -0.5528
  183MPD1    C3 2786   3.426   0.631   9.703  0.1509 -0.5875 -0.7228
  183MPD1    C4 2787   3.498   0.529   9.643 -0.2535 -0.2092  0.6855
  183MPD1    C5 2788   3.456   0.470   9.526 -0.6609 -0.3302 -0.2979
  183MPD1     H 2789   3.233   0.734   9.675  0.1215 -1.1922  1.7859
  183MPD1    H1 2790   3.589   0.490   9.685  0.5795 -1.2153 -2.0214
  183MPD1    H2 2791   3.310   0.468   9.365 -0.7849 -1.7811  1.3059
  183MPD1    H3 2792   3.506   0.383   9.486  0.4472 -0.5346  1.5621
  183MPD1     N 2793   3.454   0.690   9.830  0.2562  0.0825  0.8229
  183MPD1    H5 2794   3.387   0.755   9.870 -0.4844  0.1489 -0.5184
  183MPD1    N1 2795   3.145   0.640   9.453  0.4119 -0.0094 -0.4690
  183MPD1    H6 2796   3.074   0.673   9.517  1.2269  1.7500 -0.4903
  183MPD1    H7 2797   3.100   0.559   9.410  0.6570  0.6293 -1.9186
  184MPD1     C 2798   2.819   2.660   9.974 -0.0818 -0.2640  0.2191
  184MPD1    C1 2799   2.944   2.702  10.002  0.4289 -0.2076  0.5615
  184MPD1    C2 2800   2.970   2.835   9.971  0.3890 -0.0912 -0.1546
  184MPD1    C3 2801   2.875   2.924   9.921 -0.5680  0.6793  0.4286
  184MPD1    C4 2802   2.745   2.878   9.910 -0.7083  0.4386 -0.0595
  184MPD1    C5 2803   2.721   2.746   9.929 -0.8080  0.2391 -0.1905
  184MPD1     H 2804   3.073   2.864   9.988  0.2213  0.1711  0.3921
  184MPD1    H1 2805   2.664   2.943   9.878 -2.0319 -2.2017 -2.1020
  184MPD1    H2 2806   2.784   2.557   9.978  2.1567 -1.0350  0.1129
  184MPD1    H3 2807   2.620   2.707   9.916 -1.8028  1.6563  3.2026
  184MPD1     N 2808   2.906   3.053   9.878 -0.0660 -0.1378  0.6877
  184MPD1    H5 2809   2.839   3.114   9.832  1.7701 -0.5627 -2.5266
  184MPD1    N1 2810   3.054   2.614  10.023 -0.7584 -0.1307  0.1358
  184MPD1    H6 2811   3.032   2.534  10.081  0.9529 -1.0745 -0.5096
  184MPD1    H7 2812   3.132   2.663  10.066 -1.4796  0.1802  1.0945
  185MPD1     C 2813   2.490   3.314   9.246  0.3553  0.0393  0.1638
  185MPD1    C1 2814   2.597   3.393   9.213 -0.5902  0.3405  0.0283
  185MPD1    C2 2815   2.706   3.395   9.301 -0.6105  0.8875 -0.1371
  185MPD1    C3 2816   2.692   3.338   9.427 -0.5454  0.4444  0.7961
  185MPD1    C4 2817   2.576   3.281   9.465 -0.0642  0.5173  0.6472
  185MPD1    C5 2818   2.474   3.266   9.374  0.1698 -0.1156 -0.5988
  185MPD1     H 2819   2.800   3.436   9.264  1.7004 -3.8723  0.4279
  185MPD1    H1 2820   2.564   3.231   9.560  0.5050  0.4854  0.7043
  185MPD1    H2 2821   2.407   3.299   9.178 -2.0215 -0.4617  3.1513
  185MPD1    H3 2822   2.382   3.217   9.403 -0.0224  1.2845  1.1670
  185MPD1     N 2823   2.802   3.330   9.521  0.7945 -0.3307  0.6402
  185MPD1    H5 2824   2.792   3.271   9.603  2.9068  0.0023  1.1327
  185MPD1    N1 2825   2.605   3.462   9.090 -0.4169 -0.0735  0.4269
  185MPD1    H6 2826   2.649   3.553   9.097 -0.1363 -0.2305  0.6794
  185MPD1    H7 2827   2.519   3.479   9.037 -0.6397  1.0296  1.1482
  186MPD1     C 2828   0.927   2.402  15.684 -0.3976 -0.7205 -0.3785
  186MPD1    C1 2829   1.045   2.469  15.667  0.0705 -0.3809 -0.2922
  186MPD1    C2 2830   1.096   2.556  15.760 -0.2749 -0.3468 -0.7447
  186MPD1    C3 2831   1.019   2.582  15.871  0.0232 -0.8300 -0.2026
  186MPD1    C4 2832   0.892   2.522  15.880 -0.1149  0.6915  0.2865
  186MPD1    C5 2833   0.853   2.429  15.795 -0.2596 -0.3591  0.2775
  186MPD1     H 2834   1.191   2.605  15.741 -0.3032  0.2017  0.4761
  186MPD1    H1 2835   0.821   2.536  15.961 -1.3297 -1.6662 -0.3901
  186MPD1    H2 2836   0.884   2.335  15.611 -1.2827 -1.6516  0.9869
  186MPD1    H3 2837   0.758   2.378  15.807 -0.5035 -0.5201 -2.3549
  186MPD1     N 2838   1.060   2.675  15.970 -0.1010 -0.0180  0.4074
  186MPD1    H5 2839   1.005   2.691  16.054 -1.3800 -0.8584 -0.2687
  186MPD1    N1 2840   1.131   2.429  15.568 -0.2058 -0.0177  0.0212
  186MPD1    H6 2841   1.187   2.503  15.524 -1.6185  0.8318 -0.3481
  186MPD1    H7 2842   1.078   2.395  15.488 -1.0302 -1.1076  1.0495
  187MPD1     C 2843   4.682   0.591   0.290  0.9948 -0.0223 -0.7158
  187MPD1    C1 2844   4.615   0.480   0.264  0.1408 -0.1340  0.1483
  187MPD1    C2 2845   4.683   0.378   0.206  0.2440 -0.0566 -0.5684
  187MPD1    C3 2846   0.095   0.386   0.167  0.2945  0.2816 -0.0053
  187MPD1    C4 2847   0.159   0.503   0.193  0.4652  0.7612  0.0407
  187MPD1    C5 2848   0.092   0.602   0.250 -0.0357 -0.0821  0.0793
  187MPD1     H 2849   4.626   0.289   0.182 -0.6546  0.6608 -1.0720
  187MPD1    H1 2850   0.260   0.525   0.162  0.7745 -0.4798  0.1887
  187MPD1    H2 2851   4.636   0.678   0.335 -1.3473 -1.1306 -0.9982
  187MPD1    H3 2852   0.150   0.692   0.265  0.3474 -0.0516 -1.5841
  187MPD1     N 2853   0.163   0.277   0.108  0.1214 -0.1228 -0.2069
  187MPD1    H5 2854   0.263   0.285   0.089  0.1450  0.6896  0.2451
  187MPD1    N1 2855   4.486   0.450   0.316  0.5515  0.6044  0.9463
  187MPD1    H6 2856   4.420   0.527   0.312 -1.2442 -0.8971  1.4006
  187MPD1    H7 2857   4.441   0.362   0.293 -0.1467  0.7297  1.8129
  188MPD1     C 2858   1.061   0.097   9.905  0.6846  0.5941 -0.2092
  188MPD1    C1 2859   1.026   0.058   9.781 -1.2611 -0.6124 -0.9523
  188MPD1    C2 2860   0.991   4.642   9.762  0.7081 -0.2501 -0.1867
  188MPD1    C3 2861   0.984   4.557   9.869  0.2871 -0.5973  0.3336
  188MPD1    C4 2862   1.025   4.603   9.994  0.4342 -0.2994  0.5577
  188MPD1    C5 2863   1.044   0.013  10.008 -0.7965 -0.5717 -0.4275
  188MPD1     H 2864   0.965   4.609   9.662 -2.2822  1.6185 -0.0182
  188MPD1    H1 2865   1.016   4.551  10.088 -0.1305 -0.8047  0.2274
  188MPD1    H2 2866   1.073   0.203   9.927 -1.4414  0.8899 -0.5608
  188MPD1    H3 2867   1.053   0.032  10.114 -2.7174 -0.8773 -0.2087
  188MPD1     N 2868   0.933   4.425   9.861  0.4391 -0.4658 -0.3059
  188MPD1    H5 2869   0.941   4.375   9.949 -0.6024  1.1352  0.6972
  188MPD1    N1 2870   1.024   0.147   9.674 -0.0433 -0.1768 -0.2334
  188MPD1    H6 2871   1.054   0.082   9.601  0.6823 -1.3583  1.1102
  188MPD1    H7 2872   1.097   0.216   9.692 -1.8682  1.7378 -0.1935
  189MPD1     C 2873   1.782   4.468   0.617 -0.1170  0.0576 -0.2105
  189MPD1    C1 2874   1.690   4.473   0.517  0.3121  0.4094  0.0546
  189MPD1    C2 2875   1.635   4.599   0.490  0.3013  0.4462  0.3375
  189MPD1    C3 2876   1.676   4.715   0.556 -0.1906  0.7450  0.2364
  189MPD1    C4 2877   1.771   4.705   0.658  0.0004 -0.0231  0.5595
  189MPD1    C5 2878   1.819   4.583   0.687  0.0012 -0.3069  0.5423
  189MPD1     H 2879   1.550   4.602   0.423  0.9415 -1.1225 -0.5530
  189MPD1    H1 2880   1.815   0.058   0.723  1.7207 -0.2176 -0.3814
  189MPD1    H2 2881   1.820   4.374   0.655  0.8261  0.2220 -0.7506
  189MPD1    H3 2882   1.895   4.577   0.764  0.0729 -0.3175  0.4700
  189MPD1     N 2883   1.618   0.120   0.526 -0.4940  0.2566  0.0517
  189MPD1    H5 2884   1.542   0.119   0.459 -0.2106  2.9116 -0.3183
  189MPD1    N1 2885   1.635   4.356   0.456  0.5357 -0.0692 -0.1347
  189MPD1    H6 2886   1.690   4.270   0.456  0.5306 -0.0722 -0.1800
  189MPD1    H7 2887   1.588   4.376   0.369 -0.8631 -1.7097  0.2620
  190MPD1     C 2888   0.535   3.590  16.072  0.2768 -0.1680 -0.5179
  190MPD1    C1 2889   0.632   3.496  16.046  0.4725 -0.0642 -0.9087
  190MPD1    C2 2890   0.759   3.536  16.048 -0.4607  0.3463 -0.2573
  190MPD1    C3 2891   0.805   3.664  16.076  0.7708 -0.3127 -0.4030
  190MPD1    C4 2892   0.707   3.756  16.111  0.2556 -0.2214  0.0121
  190MPD1    C5 2893   0.575   3.715  16.115  0.1738  0.3872  0.0958
  190MPD1     H 2894   0.842   3.469  16.028  0.7911  1.5471  0.8630
  190MPD1    H1 2895   0.723   3.857  16.149  0.1742 -0.1555 -0.1308
  190MPD1    H2 2896   0.429   3.568  16.062 -0.3287  1.7620  1.6992
  190MPD1    H3 2897   0.511   3.794  16.151 -0.8510  0.2812 -1.5110
  190MPD1     N 2898   0.942   3.698  16.059  0.1198  0.0439  0.1512
  190MPD1    H5 2899   1.018   3.635  16.037  1.1599  1.4737 -0.3258
  190MPD1    N1 2900   0.588   3.365  16.031  0.0779  0.0887 -0.1451
  190MPD1    H6 2901   0.500   3.363  15.980  0.6117 -1.6556 -1.0115
  190MPD1    H7 2902   0.651   3.301  15.982  0.9224 -0.2183  1.3497
  191MPD1     C 2903   0.668   0.341  12.817 -0.4209 -0.0764 -0.2730
  191MPD1    C1 2904   0.785   0.382  12.758 -0.1915 -0.6740  0.2719
  191MPD1    C2 2905   0.787   0.500  12.697 -0.1550  0.2256  0.6865
  191MPD1    C3 2906   0.679   0.585  12.688  0.0536 -0.1161 -0.5043
  191MPD1    C4 2907   0.562   0.529  12.736 -0.3193  0.7509  0.2276
  191MPD1    C5 2908   0.555   0.416  12.804 -0.1609  0.2197  0.1667
  191MPD1     H 2909   0.882   0.530  12.655 -0.5735 -0.5986 -0.8202
  191MPD1    H1 2910   0.471   0.583  12.717 -1.5146 -0.9245  1.1925
  191MPD1    H2 2911   0.670   0.262  12.892 -0.9176  0.7250  0.5828
  191MPD1    H3 2912   0.460   0.389  12.850  0.5862  0.7179  1.9657
  191MPD1     N 2913   0.681   0.698  12.613  0.4067 -0.5984  0.2812
  191MPD1    H5 2914   0.773   0.716  12.575 -0.1428  1.3519 -0.1015
  191MPD1    N1 2915   0.902   0.316  12.782  0.3361  0.2499 -0.0975
  191MPD1    H6 2916   0.880   0.217  12.789  1.5743  0.1502  2.2387
  191MPD1    H7 2917   0.963   0.322  12.701 -0.2663 -2.0033 -0.7107
  192MPD1     C 2918   0.223   1.525  12.094 -0.2181  0.4280  0.3993
  192MPD1    C1 2919   0.167   1.437  12.180 -0.4875  0.7819  0.8793
  192MPD1    C2 2920   0.235   1.332  12.218 -0.2527 -0.1154  0.3265
  192MPD1    C3 2921   0.363   1.317  12.177 -0.9256  0.5136  0.2556
  192MPD1    C4 2922   0.417   1.400  12.085 -0.2482 -0.5946 -0.5548
  192MPD1    C5 2923   0.347   1.506  12.043 -0.3990 -0.3929 -0.8275
  192MPD1     H 2924   0.189   1.261  12.286  1.0785 -0.2992  1.0466
  192MPD1    H1 2925   0.515   1.390  12.040 -0.1779  1.0229 -0.7549
  192MPD1    H2 2926   0.173   1.619  12.077 -0.0511  0.5848  0.7873
  192MPD1    H3 2927   0.399   1.574  11.977 -3.2655  1.9239 -0.6519
  192MPD1     N 2928   0.450   1.225  12.230 -0.2647  0.0988 -0.5951
  192MPD1    H5 2929   0.542   1.226  12.187 -1.0023 -0.3150 -2.1787
  192MPD1    N1 2930   0.044   1.471  12.235  0.6267 -0.1552 -0.4055
  192MPD1    H6 2931   4.700   1.525  12.179  0.4569 -0.5792 -0.6134
  192MPD1    H7 2932   4.714   1.398  12.282  0.1584  1.6279  1.8265
  193MPD1     C 2933   4.328   0.838   0.081  0.0822 -0.3056  0.0128
  193MPD1    C1 2934   4.299   0.937  17.678  0.9721  0.2461  0.8661
  193MPD1    C2 2935   4.404   0.997  17.622 -0.2723 -0.3129  0.7121
  193MPD1    C3 2936   4.539   0.945  17.637 -0.0469 -0.2038  0.1792
  193MPD1    C4 2937   4.561   0.838   0.034 -1.3653 -0.3948 -0.7183
  193MPD1    C5 2938   4.453   0.785   0.098 -0.7301 -0.2145  0.5922
  193MPD1     H 2939   4.385   1.068  17.543 -1.8388 -0.6511  0.7861
  193MPD1    H1 2940   4.654   0.783   0.040 -3.0437 -3.1145  0.5186
  193MPD1    H2 2941   4.250   0.788   0.136  0.2426 -0.1598  0.3682
  193MPD1    H3 2942   4.459   0.706   0.173 -0.7922  0.3066  1.1473
  193MPD1     N 2943   4.663   1.007  17.586  0.8645 -0.3875 -0.1302
  193MPD1    H5 2944   0.029   0.960  17.609  0.8322 -0.7867 -0.8343
  193MPD1    N1 2945   4.167   0.978  17.654 -0.1109  0.1404  0.2317
  193MPD1    H6 2946   4.136   1.008  17.561  0.1930 -0.9916 -0.2277
  193MPD1    H7 2947   4.103   0.907   0.001 -0.1229 -0.3993 -0.8544
  194MPD1     C 2948   2.369   3.426  17.055 -0.5507  0.3603  0.8281
  194MPD1    C1 2949   2.347   3.391  16.916  0.2454 -0.1779  0.1498
  194MPD1    C2 2950   2.327   3.258  16.875 -0.4850  0.2332 -0.1970
  194MPD1    C3 2951   2.351   3.157  16.973 -0.3139 -0.3054  0.2831
  194MPD1    C4 2952   2.377   3.194  17.104 -0.1498 -0.1340 -0.1638
  194MPD1    C5 2953   2.391   3.321  17.141 -0.6463 -0.1257  0.0524
  194MPD1     H 2954   2.303   3.233  16.772 -1.7549 -1.2078  0.4535
  194MPD1    H1 2955   2.403   3.118  17.177 -0.6753  0.3286  0.5028
  194MPD1    H2 2956   2.395   3.525  17.090 -0.2017  0.2469  0.8862
  194MPD1    H3 2957   2.431   3.346  17.238 -1.2943  2.4055 -0.3283
  194MPD1     N 2958   2.360   3.017  16.952 -0.1358 -0.0494  0.3316
  194MPD1    H5 2959   2.374   2.954  17.030 -2.0000  1.0123  1.5299
  194MPD1    N1 2960   2.321   3.486  16.817  0.2162  0.2780  0.1819
  194MPD1    H6 2961   2.346   3.584  16.827 -1.2494  0.6359  0.3079
  194MPD1    H7 2962   2.359   3.455  16.728 -1.3876  1.3713 -0.8763
  195MPD1     C 2963   4.223   0.054  16.989  0.5550  0.9153 -0.3249
  195MPD1    C1 2964   4.160   0.020  17.106  0.9253 -0.3581  0.0728
  195MPD1    C2 2965   4.229   4.656  17.189 -0.6883 -0.8182  0.6624
  195MPD1    C3 2966   4.347   4.600  17.163 -0.2132 -0.3780 -0.0854
  195MPD1    C4 2967   4.405   4.629  17.044 -0.3233 -0.0877  0.0980
  195MPD1    C5 2968   4.343   4.714  16.961  1.6462  0.3657  0.4308
  195MPD1     H 2969   4.189   4.641  17.288 -2.6023 -0.4753 -0.0737
  195MPD1    H1 2970   4.501   4.582  17.024 -1.0569 -1.9659  1.1192
  195MPD1    H2 2971   4.184   0.126  16.918  2.4046  2.4055  0.2111
  195MPD1    H3 2972   4.404   0.032  16.880 -1.3621  2.7144 -0.6761
  195MPD1     N 2973   4.416   4.520  17.259  0.1861 -0.2646 -0.3052
  195MPD1    H5 2974   4.504   4.481  17.228 -1.4037 -1.9972 -2.5872
  195MPD1    N1 2975   4.050   0.089  17.156  0.0420 -0.7672 -0.1400
  195MPD1    H6 2976   3.988   0.116  17.080 -0.7482  3.1631  1.9108
  195MPD1    H7 2977   3.991   0.025  17.209 -0.4731 -1.0741 -1.0764
  196MPD1     C 2978   4.564   4.357   0.872 -0.2008  0.3895 -0.1896
  196MPD1    C1 2979   4.508   4.251   0.949  0.3502  0.2510 -0.9593
  196MPD1    C2 2980   4.444   4.283   1.065  0.3073  0.4661  0.8427
  196MPD1    C3 2981   4.440   4.410   1.122  0.1466  0.1225 -0.1115
  196MPD1    C4 2982   4.483   4.508   1.040 -0.0344 -0.0083  0.4723
  196MPD1    C5 2983   4.550   4.482   0.922  0.4409  0.4852  0.4647
  196MPD1     H 2984   4.404   4.202   1.124 -1.9169  0.5192 -0.6311
  196MPD1    H1 2985   4.480   4.609   1.078  1.7099  0.2618 -0.0653
  196MPD1    H2 2986   4.625   4.345   0.784  1.4149  0.1655  0.9687
  196MPD1    H3 2987   4.588   4.568   0.867 -0.3365  1.9347  2.2107
  196MPD1     N 2988   4.372   4.446   1.243 -0.1404  0.3547 -0.9041
  196MPD1    H5 2989   4.371   4.545   1.265 -0.8035 -0.3600  2.1747
  196MPD1    N1 2990   4.545   4.121   0.912 -0.3326  0.5189  0.1951
  196MPD1    H6 2991   4.471   4.057   0.941  1.5948 -1.2165  1.3059
  196MPD1    H7 2992   4.554   4.112   0.811 -0.4154 -0.8919  0.3114
  197MPD1     C 2993   3.122   1.024  17.322  0.4068  0.5177 -0.0392
  197MPD1    C1 2994   3.251   1.072  17.366  0.0061 -0.5518  0.2697
  197MPD1    C2 2995   3.286   1.195  17.316 -0.0124 -0.2992  1.0402
  197MPD1    C3 2996   3.220   1.265  17.218 -0.1008 -0.4343  0.9035
  197MPD1    C4 2997   3.109   1.202  17.165  0.3475  0.3940 -0.1619
  197MPD1    C5 2998   3.061   1.084  17.212  0.3845 -0.9113  0.1145
  197MPD1     H 2999   3.384   1.230  17.348  1.1132 -3.3067  0.9809
  197MPD1    H1 3000   3.047   1.246  17.087  1.0931  0.1370 -0.8983
  197MPD1    H2 3001   3.070   0.938  17.361  1.6003 -1.5548 -3.0007
  197MPD1    H3 3002   2.966   1.038  17.186  0.0535 -0.1120 -0.0999
  197MPD1     N 3003   3.276   1.375  17.147  0.5815  0.6064 -0.7351
  197MPD1    H5 3004   3.239   1.394  17.054 -0.6126  0.4501 -0.2930
  197MPD1    N1 3005   3.315   1.016  17.483  0.3311  0.2962 -0.0725
  197MPD1    H6 3006   3.412   1.044  17.480  0.5394 -0.4941 -0.6349
  197MPD1    H7 3007   3.305   0.915  17.476  0.1385  0.4121 -1.5575
  198MPD1     C 3008   0.155   0.395  15.912  0.2810  0.3657  0.1565
  198MPD1    C1 3009   0.232   0.348  15.814  1.1440 -0.2846 -0.4026
  198MPD1    C2 3010   0.369   0.345  15.831  0.6199 -0.1360 -0.9264
  198MPD1    C3 3011   0.431   0.403  15.941  0.0496 -0.3845  0.3062
  198MPD1    C4 3012   0.350   0.471  16.027  0.2492  1.2081  0.1519
  198MPD1    C5 3013   0.214   0.465  16.013  0.7235  0.4915  0.3276
  198MPD1     H 3014   0.433   0.294  15.760  1.1075  0.3406 -0.8276
  198MPD1    H1 3015   0.392   0.519  16.114 -0.7187  0.3311  1.0872
  198MPD1    H2 3016   0.047   0.396  15.913  0.2883  1.6391  0.5329
  198MPD1    H3 3017   0.149   0.513  16.084  1.2113  0.9611  0.4569
  198MPD1     N 3018   0.570   0.395  15.951 -0.3054 -0.2809 -0.2521
  198MPD1    H5 3019   0.615   0.344  15.877  0.8803 -2.2636  1.8311
  198MPD1    N1 3020   0.171   0.269  15.714 -0.2426 -0.3223  0.2492
  198MPD1    H6 3021   0.226   0.274  15.629 -1.9764 -2.0960 -0.9714
  198MPD1    H7 3022   0.078   0.306  15.692  0.0700  0.4928  0.2859
  199MPD1     C 3023   3.701   1.160  10.358 -0.9473  0.1832  0.3506
  199MPD1    C1 3024   3.714   1.292  10.319 -0.5838  0.6689  0.0329
  199MPD1    C2 3025   3.605   1.345  10.258  0.0462  0.0583  0.0880
  199MPD1    C3 3026   3.497   1.270  10.217 -0.3411 -1.2396 -0.6517
  199MPD1    C4 3027   3.487   1.136  10.255 -0.6026 -0.0154  0.1719
  199MPD1    C5 3028   3.595   1.085  10.318 -0.4267  0.3665  0.1462
  199MPD1     H 3029   3.601   1.452  10.241  2.1727 -0.1241 -1.5333
  199MPD1    H1 3030   3.412   1.067  10.218  0.7388 -1.6850  0.5501
  199MPD1    H2 3031   3.780   1.116  10.417 -1.2399 -0.4499  0.2675
  199MPD1    H3 3032   3.594   0.982  10.352 -3.6100  0.6633  0.9871
  199MPD1     N 3033   3.389   1.318  10.151  0.1990 -0.6738  1.0149
  199MPD1    H5 3034   3.303   1.266  10.135 -1.5749  2.7086 -0.5737
  199MPD1    N1 3035   3.812   1.384  10.369  0.6648 -0.5430  0.4983
  199MPD1    H6 3036   3.905   1.341  10.373 -0.8475 -4.0096 -1.3039
  199MPD1    H7 3037   3.812   1.466  10.309  1.3241 -1.4631 -0.7695
  200MPD1     C 3038   1.544   1.277  15.532  0.1284  0.1174 -0.0807
  200MPD1    C1 3039   1.499   1.348  15.423 -0.9410 -0.4576 -1.0436
  200MPD1    C2 3040   1.512   1.285  15.303 -0.8197 -0.6968 -0.0396
  200MPD1    C3 3041   1.581   1.165  15.282 -0.7210  0.3232 -0.2641
  200MPD1    C4 3042   1.648   1.106  15.391  0.6173 -0.0078  0.2803
  200MPD1    C5 3043   1.623   1.165  15.516  1.0121 -0.0855 -0.0831
  200MPD1     H 3044   1.494   1.346  15.215  2.2474  0.4936  0.1611
  200MPD1    H1 3045   1.723   1.028  15.396  1.5038  0.8508  0.5862
  200MPD1    H2 3046   1.529   1.309  15.634 -1.6321 -0.2605 -0.2204
  200MPD1    H3 3047   1.667   1.123  15.606 -0.1252  1.7643  1.3265
  200MPD1     N 3048   1.588   1.118  15.147  0.4969 -0.6939 -0.3241
  200MPD1    H5 3049   1.524   1.162  15.081  2.9529 -0.1887 -2.3544
  200MPD1    N1 3050   1.415   1.457  15.437  0.4914  0.3681 -0.2509
  200MPD1    H6 3051   1.410   1.517  15.355 -0.3074  0.3547 -0.2166
  200MPD1    H7 3052   1.450   1.511  15.516 -1.5128  1.8338 -0.3656
  201MPD1     C 3053   4.134   0.142  11.910  0.2750 -0.2786  0.1459
  201MPD1    C1 3054   4.179   0.015  11.923  0.1764 -0.4617 -0.4800
  201MPD1    C2 3055   4.187   4.682  12.047  0.2219  0.0200  0.0747
  201MPD1    C3 3056   4.139   0.034  12.157  0.4687 -0.2714 -0.0672
  201MPD1    C4 3057   4.078   0.156  12.145  0.4529  1.0905 -0.5075
  201MPD1    C5 3058   4.076   0.209  12.021 -0.1615 -0.0518  0.0195
  201MPD1     H 3059   4.214   4.580  12.069 -2.2668 -1.0872 -2.0966
  201MPD1    H1 3060   4.026   0.213  12.221 -0.3554  0.0863 -0.3089
  201MPD1    H2 3061   4.140   0.197  11.817 -1.0361  0.5956  0.5766
  201MPD1    H3 3062   4.040   0.312  12.012 -0.5283  0.2036  4.1577
  201MPD1     N 3063   4.158   4.689  12.275  0.5984  0.4481  0.0548
  201MPD1    H5 3064   4.188   4.594  12.260  1.9472  0.9611 -0.4569
  201MPD1    N1 3065   4.232   4.670  11.812 -0.2634 -0.5741  0.1249
  201MPD1    H6 3066   4.193   4.715  11.729 -0.1174 -0.3383  0.1836
  201MPD1    H7 3067   4.217   4.570  11.820  0.1025 -0.5547  1.0632
  202MPD1     C 3068   4.056   4.450   9.292  0.0175 -0.3232 -0.0895
  202MPD1    C1 3069   3.970   4.507   9.382 -0.5685  0.1203 -0.4804
  202MPD1    C2 3070   4.038   4.558   9.492  0.4839  0.2360  0.2970
  202MPD1    C3 3071   4.165   4.516   9.535 -0.0503 -0.2022 -0.6542
  202MPD1    C4 3072   4.239   4.436   9.450 -0.0394  0.3374 -0.4489
  202MPD1    C5 3073   4.184   4.408   9.323 -0.2349  0.2356  0.0495
  202MPD1     H 3074   3.979   4.615   9.564 -0.7005 -3.7958  2.4819
  202MPD1    H1 3075   4.341   4.404   9.464  0.1378  1.2936  0.3838
  202MPD1    H2 3076   4.018   4.435   9.191  3.1061 -1.2335 -1.1425
  202MPD1    H3 3077   4.243   4.350   9.253  1.3867  1.3136  0.5262
  202MPD1     N 3078   4.221   4.555   9.657 -0.0484 -0.0546  0.0767
  202MPD1    H5 3079   4.303   4.507   9.693  0.7513  1.0230 -0.3182
  202MPD1    N1 3080   3.860   4.575   9.331  0.4157  0.0815 -0.3184
  202MPD1    H6 3081   3.795   4.610   9.401 -1.3057  0.1513 -1.9588
  202MPD1    H7 3082   3.806   4.512   9.273 -0.4178 -0.3914  0.9802
  203MPD1     C 3083   3.185   0.825  12.841 -0.8113 -0.2541 -0.6842
  203MPD1    C1 3084   3.196   0.748  12.725  0.1514  0.0831 -0.9208
  203MPD1    C2 3085   3.273   0.637  12.728  0.2798  0.6508 -0.0531
  203MPD1    C3 3086   3.350   0.609  12.843  0.1434  0.6620  0.3192
  203MPD1    C4 3087   3.349   0.696  12.955  0.0936 -0.2997 -0.1493
  203MPD1    C5 3088   3.261   0.801  12.951 -0.5143  0.2369  0.7042
  203MPD1     H 3089   3.289   0.574  12.641 -1.0823  0.8372 -0.4332
  203MPD1    H1 3090   3.395   0.672  13.050 -0.4179  1.1043  0.4549
  203MPD1    H2 3091   3.121   0.912  12.853 -1.9032 -0.7678 -2.7184
  203MPD1    H3 3092   3.259   0.876  13.030  0.6404  1.1556 -0.1258
  203MPD1     N 3093   3.403   0.477  12.839 -0.1347 -0.6912 -0.0802
  203MPD1    H5 3094   3.383   0.430  12.751  1.1713 -0.6413 -0.4161
  203MPD1    N1 3095   3.107   0.765  12.621 -0.4189 -0.0801 -0.0125
  203MPD1    H6 3096   3.072   0.861  12.619  0.9272  0.4199  0.1921
  203MPD1    H7 3097   3.148   0.743  12.531 -0.1896 -1.5981  0.4618
  204MPD1     C 3098   2.049   1.208   0.439 -0.1098  0.2867  0.3175
  204MPD1    C1 3099   2.088   1.283   0.331  0.1883  0.6163 -0.1442
  204MPD1    C2 3100   2.161   1.217   0.238  0.1047  0.1163 -0.4000
  204MPD1    C3 3101   2.197   1.084   0.248 -0.0173 -0.0549 -0.0753
  204MPD1    C4 3102   2.162   1.016   0.360  0.8394 -0.5674 -1.1156
  204MPD1    C5 3103   2.087   1.079   0.453 -0.0686 -0.0416 -0.9185
  204MPD1     H 3104   2.181   1.275   0.149 -1.7460  1.5981  0.1464
  204MPD1    H1 3105   2.177   0.912   0.387 -1.0009 -0.5021  0.1249
  204MPD1    H2 3106   1.996   1.252   0.523 -0.7125 -1.2006  0.7277
  204MPD1    H3 3107   2.067   1.028   0.547  1.8875 -0.1683 -0.5710
  204MPD1     N 3108   2.276   1.032   0.140 -0.0827  0.1722  0.4537
  204MPD1    H5 3109   2.293   1.090   0.058  2.1010 -0.9198  0.1506
  204MPD1    N1 3110   2.044   1.416   0.309  0.0792 -0.6546 -0.2201
  204MPD1    H6 3111   2.023   1.468   0.394  0.8498 -0.8474  0.0915
  204MPD1    H7 3112   2.120   1.466   0.263 -0.8529  0.7447 -0.2132
  205MPD1     C 3113   2.531   4.433  16.836  0.3555 -0.0374 -0.1866
  205MPD1    C1 3114   2.672   4.447  16.846  0.4822 -0.0004  0.2705
  205MPD1    C2 3115   2.728   4.462  16.968  0.5088 -0.0516 -0.2804
  205MPD1    C3 3116   2.652   4.483  17.082  0.2698  0.1841  0.2353
  205MPD1    C4 3117   2.515   4.484  17.067 -0.7970 -0.3659 -0.5412
  205MPD1    C5 3118   2.457   4.449  16.953 -0.3479  0.1720 -0.3781
  205MPD1     H 3119   2.836   4.477  16.964  0.6408 -0.9410 -0.0456
  205MPD1    H1 3120   2.456   4.502  17.156  1.2670 -0.1807  0.7888
  205MPD1    H2 3121   2.481   4.414  16.742 -1.5814  2.5067  0.3497
  205MPD1    H3 3122   2.349   4.446  16.943 -0.4299 -0.8187  0.7637
  205MPD1     N 3123   2.717   4.508  17.203  0.5790 -0.7857 -0.0631
  205MPD1    H5 3124   2.657   4.537  17.280  0.4353 -1.8720  0.2288
  205MPD1    N1 3125   2.755   4.429  16.737 -0.1427  0.2932  0.9481
  205MPD1    H6 3126   2.851   4.462  16.748 -0.7482  1.7029  2.0775
  205MPD1    H7 3127   2.713   4.440  16.645  1.2467  0.5292  0.3328
  206MPD1     C 3128   2.813   3.105  17.269 -0.2281  0.1574  0.4766
  206MPD1    C1 3129   2.831   2.998  17.187  0.1598 -0.2494 -0.0096
  206MPD1    C2 3130   2.788   3.019  17.061 -0.7925 -0.1282  0.3022
  206MPD1    C3 3131   2.727   3.137  17.019  0.9279 -0.7858 -0.4329
  206MPD1    C4 3132   2.704   3.241  17.107 -0.2430  0.3752 -0.9163
  206MPD1    C5 3133   2.753   3.221  17.235 -0.0965  0.5091 -0.0294
  206MPD1     H 3134   2.802   2.944  16.984 -0.7398  0.3873 -0.1838
  206MPD1    H1 3135   2.659   3.335  17.078 -1.2880 -0.0886 -0.8128
  206MPD1    H2 3136   2.849   3.102  17.371 -0.7816  0.0141  0.6656
  206MPD1    H3 3137   2.769   3.300  17.308  1.0963  0.6232 -0.4184
  206MPD1     N 3138   2.684   3.158  16.886 -0.0701 -0.0718  0.6625
  206MPD1    H5 3139   2.630   3.238  16.857  0.4851  0.1776  0.3235
  206MPD1    N1 3140   2.906   2.882  17.225 -1.2449 -1.0782 -0.3649
  206MPD1    H6 3141   2.911   2.868  17.326  1.5841 -0.7994 -0.4672
  206MPD1    H7 3142   2.888   2.800  17.168 -0.5472  0.7053 -3.1433
  207MPD1     C 3143   3.812   0.939   9.656 -0.1343 -0.5766  0.6054
  207MPD1    C1 3144   3.821   1.075   9.625  0.1687  0.0662  0.0040
  207MPD1    C2 3145   3.939   1.143   9.650  0.3926 -0.4290 -0.9220
  207MPD1    C3 3146   4.040   1.081   9.706 -0.1891  0.1091 -0.9335
  207MPD1    C4 3147   4.028   0.953   9.741 -0.3989  0.6090 -1.3004
  207MPD1    C5 3148   3.917   0.882   9.709 -0.1856 -0.2653  0.5497
  207MPD1     H 3149   3.956   1.245   9.616  0.3599  0.3617  1.4338
  207MPD1    H1 3150   4.112   0.899   9.785 -2.0820 -1.0386 -0.1238
  207MPD1    H2 3151   3.727   0.874   9.635  0.6033 -0.6801 -2.0033
  207MPD1    H3 3152   3.903   0.779   9.739  1.5256 -0.4916  0.5645
  207MPD1     N 3153   4.166   1.134   9.739 -0.0561 -0.1229 -0.3123
  207MPD1    H5 3154   4.238   1.066   9.762 -0.4968 -0.3316  0.4577
  207MPD1    N1 3155   3.720   1.138   9.552  0.1355 -0.2322 -0.6333
  207MPD1    H6 3156   3.722   1.238   9.573 -0.2224 -0.0542 -1.4424
  207MPD1    H7 3157   3.630   1.097   9.577  0.6144 -0.1320  1.2626
  208MPD1     C 3158   3.414   0.560   1.107  0.7325  0.2400 -0.0647
  208MPD1    C1 3159   3.422   0.464   1.206  0.2793  0.5395 -0.7071
  208MPD1    C2 3160   3.421   0.332   1.160  0.4102  0.3173 -1.1498
  208MPD1    C3 3161   3.437   0.298   1.027  0.1768 -0.0566 -0.7137
  208MPD1    C4 3162   3.450   0.396   0.937  0.2181  0.7489  0.1196
  208MPD1    C5 3163   3.432   0.521   0.976 -0.6520 -1.2497 -0.3915
  208MPD1     H 3164   3.419   0.245   1.225  3.4794  2.1440  1.3492
  208MPD1    H1 3165   3.471   0.373   0.833  0.0962  1.1570  0.0083
  208MPD1    H2 3166   3.402   0.663   1.140 -1.2856 -0.3018  0.8819
  208MPD1    H3 3167   3.429   0.604   0.906 -0.4559  0.4129  1.5876
  208MPD1     N 3168   3.439   0.165   0.983  0.2808 -0.5520 -0.7088
  208MPD1    H5 3169   3.427   0.098   1.057 -0.4041  1.7832  1.2800
  208MPD1    N1 3170   3.398   0.493   1.336  0.7643 -0.1992  0.1454
  208MPD1    H6 3171   3.430   0.437   1.416  1.8189  0.3542  0.1061
  208MPD1    H7 3172   3.433   0.587   1.352  1.6477 -0.2229 -1.6364
  209MPD1     C 3173   0.887   0.085  10.503 -0.1614 -0.8696 -0.1800
  209MPD1    C1 3174   0.968   0.122  10.400 -0.0896 -1.3148  0.0020
  209MPD1    C2 3175   0.922   0.216  10.311  0.2710  0.1808  0.4313
  209MPD1    C3 3176   0.801   0.282  10.332 -0.0136  0.6285  0.6383
  209MPD1    C4 3177   0.723   0.249  10.439 -0.2725 -0.5697 -1.1418
  209MPD1    C5 3178   0.769   0.148  10.528 -0.0401 -0.8894 -0.0504
  209MPD1     H 3179   0.971   0.233  10.216 -1.5895 -0.4312 -0.6474
  209MPD1    H1 3180   0.627   0.294  10.461 -0.3766 -1.0786 -0.5475
  209MPD1    H2 3181   0.910   0.009  10.576 -0.9606 -0.1941  0.7851
  209MPD1    H3 3182   0.714   0.119  10.617  1.3197  0.1860  1.1363
  209MPD1     N 3183   0.767   0.383  10.243 -0.0309 -0.6339  0.0729
  209MPD1    H5 3184   0.835   0.419  10.177 -0.1029 -0.9421 -0.1675
  209MPD1    N1 3185   1.081   0.048  10.381  0.5960 -0.2678  0.8463
  209MPD1    H6 3186   1.152   0.107  10.338 -1.7736  2.3129  0.4491
  209MPD1    H7 3187   1.120   0.016  10.469  0.2252  0.2755  1.2079
  210MPD1     C 3188   1.088   1.244   9.811  0.3859 -0.1392  0.0207
  210MPD1    C1 3189   1.135   1.170   9.920  0.1021  0.4544  0.0925
  210MPD1    C2 3190   1.054   1.067   9.957  0.3418  0.0920 -0.0812
  210MPD1    C3 3191   0.925   1.050   9.907 -0.5952  0.9006 -0.2245
  210MPD1    C4 3192   0.888   1.115   9.793  0.0508  0.0409  0.8836
  210MPD1    C5 3193   0.968   1.218   9.747  0.1822  0.1356 -0.2468
  210MPD1     H 3194   1.095   1.001  10.033  1.9874  0.7629 -0.3943
  210MPD1    H1 3195   0.796   1.096   9.739  0.7880 -1.6660  0.2389
  210MPD1    H2 3196   1.152   1.320   9.767  0.3038 -1.0104 -1.6107
  210MPD1    H3 3197   0.946   1.263   9.651 -0.8684 -0.7297 -0.4014
  210MPD1     N 3198   0.832   0.949   9.954 -0.0402  0.0546  0.3550
  210MPD1    H5 3199   0.743   0.945   9.906 -0.6744  0.7066  1.4993
  210MPD1    N1 3200   1.267   1.187   9.963  0.1504 -0.2756  0.0414
  210MPD1    H6 3201   1.288   1.286   9.970  0.3770 -0.3263  0.0759
  210MPD1    H7 3202   1.287   1.143  10.053 -0.8853 -1.3611 -0.2524
  211MPD1     C 3203   3.334   4.503  17.405  0.2006  0.1252  0.9652
  211MPD1    C1 3204   3.298   4.630  17.428 -0.4214 -0.9916 -0.1072
  211MPD1    C2 3205   3.213   4.684  17.337  0.1508  0.2112  0.1445
  211MPD1    C3 3206   3.184   4.630  17.215 -0.9231 -0.1941 -0.5147
  211MPD1    C4 3207   3.217   4.497  17.198 -0.3925 -0.0139  0.1428
  211MPD1    C5 3208   3.286   4.438  17.299 -0.1666 -0.7790  0.0433
  211MPD1     H 3209   3.178   0.065  17.342 -0.1632  0.1136 -0.0308
  211MPD1    H1 3210   3.201   4.448  17.102 -1.2783 -0.7665  0.6767
  211MPD1    H2 3211   3.377   4.441  17.483 -0.2440  0.2529  1.3062
  211MPD1    H3 3212   3.308   4.332  17.294 -0.7997 -0.8539 -1.0772
  211MPD1     N 3213   3.110   4.702  17.123 -0.1629 -0.1832  0.3797
  211MPD1    H5 3214   3.085   0.076  17.147 -2.8611 -0.7599 -0.1575
  211MPD1    N1 3215   3.330   4.694  17.546 -0.2815  0.7371  0.5495
  211MPD1    H6 3216   3.418   4.655  17.579 -0.7907 -0.9339 -0.0663
  211MPD1    H7 3217   3.337   0.074  17.538 -0.3742  0.7043  0.0422
  212MPD1     C 3218   2.213   3.417  16.312 -0.0465 -0.0713  0.6045
  212MPD1    C1 3219   2.133   3.484  16.400  0.1544  0.3801 -0.5181
  212MPD1    C2 3220   2.083   3.419  16.508 -0.4297 -0.2475  0.0156
  212MPD1    C3 3221   2.118   3.290  16.535  0.5187  0.5661  0.3765
  212MPD1    C4 3222   2.203   3.226  16.448 -0.3839  0.1289  0.1282
  212MPD1    C5 3223   2.246   3.288  16.336 -0.2302 -0.3307 -0.5701
  212MPD1     H 3224   2.015   3.479  16.567  0.2791  0.0820  0.4997
  212MPD1    H1 3225   2.238   3.124  16.461 -0.9828 -0.3119 -1.6509
  212MPD1    H2 3226   2.248   3.465  16.222  0.2153 -0.3011  0.5836
  212MPD1    H3 3227   2.322   3.239  16.276 -0.7107  0.8503 -2.1318
  212MPD1     N 3228   2.084   3.216  16.645  0.1152 -0.6249  0.1078
  212MPD1    H5 3229   2.111   3.119  16.657 -0.3808 -0.5352  1.8417
  212MPD1    N1 3230   2.093   3.619  16.376 -0.3052 -0.0371 -0.8048
  212MPD1    H6 3231   2.169   3.668  16.328 -0.2966  3.6022  2.8943
  212MPD1    H7 3232   2.071   3.683  16.452  2.4537 -1.3382  1.0584
  213MPD1     C 3233   0.403   4.293  16.113 -0.3239 -0.1575  0.2494
  213MPD1    C1 3234   0.326   4.182  16.087 -0.3176 -0.3937 -0.4614
  213MPD1    C2 3235   0.311   4.151  15.955  0.0313 -0.7112  0.4570
  213MPD1    C3 3236   0.335   4.245  15.857  0.2364 -0.3681 -0.8792
  213MPD1    C4 3237   0.392   4.369  15.890 -0.6594  0.9201  0.2780
  213MPD1    C5 3238   0.418   4.392  16.019 -0.1325 -0.0395  0.8580
  213MPD1     H 3239   0.266   4.055  15.933 -2.1454  0.3017  0.5318
  213MPD1    H1 3240   0.416   4.448  15.819  2.2080  1.5671  1.9615
  213MPD1    H2 3241   0.417   4.313  16.218  3.2989 -0.8281 -0.1252
  213MPD1    H3 3242   0.470   4.483  16.046 -0.0183  1.2031 -3.5587
  213MPD1     N 3243   0.294   4.211  15.724 -0.1723 -0.1201 -0.1521
  213MPD1    H5 3244   0.233   4.129  15.721  1.3526 -1.2927  0.9356
  213MPD1    N1 3245   0.328   4.079  16.180  0.2699 -0.0546  0.2180
  213MPD1    H6 3246   0.298   4.116  16.270 -1.3592 -4.1875  1.3508
  213MPD1    H7 3247   0.267   4.002  16.156 -0.0230  0.2954 -0.1725
  214MPD1     C 3248   0.044   3.433  15.517 -0.2932  0.2852  0.1636
  214MPD1    C1 3249   0.017   3.486  15.390 -0.3991 -0.1054  0.0468
  214MPD1    C2 3250   0.064   3.614  15.364  0.1327  0.3446  0.0540
  214MPD1    C3 3251   0.106   3.700  15.471 -0.0828  0.1232  0.0636
  214MPD1    C4 3252   0.112   3.646  15.598 -0.2064 -0.0894  0.3915
  214MPD1    C5 3253   0.078   3.516  15.620  0.2874  0.1102  0.1209
  214MPD1     H 3254   0.048   3.648  15.262  1.1031 -2.8407 -1.1477
  214MPD1    H1 3255   0.138   3.707  15.683  2.2080  1.1213 -1.2308
  214MPD1    H2 3256   0.027   3.327  15.536 -2.0742  0.7893  1.4001
  214MPD1    H3 3257   0.073   3.475  15.719  1.5646 -1.7214 -0.5756
  214MPD1     N 3258   0.144   3.829  15.458  0.4287  0.4927 -0.2328
  214MPD1    H5 3259   0.162   3.874  15.548 -2.6134 -1.4935  1.3904
  214MPD1    N1 3260   4.712   3.398  15.279  0.0062 -0.2898  0.1337
  214MPD1    H6 3261   4.681   3.445  15.194  0.2160 -0.9554 -0.3141
  214MPD1    H7 3262   4.632   3.339  15.301  0.5339 -0.1801  2.3279
  215MPD1     C 3263   1.292   4.357  10.910 -0.3100 -0.7428 -0.1602
  215MPD1    C1 3264   1.283   4.432  11.022  0.3991  0.0729  0.2303
  215MPD1    C2 3265   1.280   4.569  11.013  0.3540 -0.2576 -0.3325
  215MPD1    C3 3266   1.273   4.632  10.886 -0.4636 -0.3297 -0.2612
  215MPD1    C4 3267   1.308   4.552  10.773  0.2589  0.1282  0.9367
  215MPD1    C5 3268   1.315   4.419  10.793  0.3162  0.1592 -0.0879
  215MPD1     H 3269   1.258   4.623  11.105 -1.0494 -0.1911 -0.7019
  215MPD1    H1 3270   1.311   4.592  10.672  1.4388 -0.3426  0.7839
  215MPD1    H2 3271   1.286   4.249  10.907 -3.9432 -0.5107 -1.2902
  215MPD1    H3 3272   1.328   4.362  10.702  2.2249  0.8253 -0.2345
  215MPD1     N 3273   1.212   0.042  10.870  0.3956  0.3311  0.3595
  215MPD1    H5 3274   1.206   0.093  10.957 -0.7684 -2.6524  2.0095
  215MPD1    N1 3275   1.251   4.376  11.151  0.0219 -0.2956 -0.0138
  215MPD1    H6 3276   1.273   4.277  11.165 -1.0215 -0.4309  0.6743
  215MPD1    H7 3277   1.299   4.429  11.223 -0.1358 -1.7947  1.2059
  216MPD1     C 3278   2.239   2.540  16.924 -0.3625  0.0384 -0.5727
  216MPD1    C1 3279   2.287   2.474  17.036 -0.5038 -0.5318 -0.5906
  216MPD1    C2 3280   2.279   2.334  17.041 -0.3984  0.6106 -0.6418
  216MPD1    C3 3281   2.211   2.263  16.943 -0.3291  0.2457 -0.7184
  216MPD1    C4 3282   2.162   2.328  16.831 -0.1283  0.0219  0.3924
  216MPD1    C5 3283   2.173   2.463  16.823  0.1806  0.0952 -0.3789
  216MPD1     H 3284   2.319   2.282  17.127 -1.9229 -1.3758 -1.1266
  216MPD1    H1 3285   2.115   2.278  16.746  1.4451  2.3419 -1.8329
  216MPD1    H2 3286   2.251   2.647  16.911 -1.7552  0.3144  0.4637
  216MPD1    H3 3287   2.132   2.518  16.740 -0.4487 -0.7787 -0.6516
  216MPD1     N 3288   2.200   2.122  16.956  0.9791  0.0805 -0.3645
  216MPD1    H5 3289   2.227   2.080  17.044  2.6991 -1.1724 -1.4867
  216MPD1    N1 3290   2.362   2.539  17.140  0.4720 -0.3553 -0.3476
  216MPD1    H6 3291   2.326   2.633  17.155 -2.4209 -1.3956 -0.6776
  216MPD1    H7 3292   2.368   2.487  17.228  3.2192 -0.7940 -0.8181
  217MPD1     C 3293   2.793   3.824   8.477 -0.3988 -0.4713 -0.2566
  217MPD1    C1 3294   2.923   3.786   8.496 -0.5370 -0.1632 -0.3967
  217MPD1    C2 3295   3.000   3.840   8.596 -0.6589  0.3251  0.2365
  217MPD1    C3 3296   2.950   3.955   8.668 -0.1597  0.7218 -0.0122
  217MPD1    C4 3297   2.827   4.003   8.638 -0.4541  0.5704  0.3240
  217MPD1    C5 3298   2.756   3.942   8.538 -0.0634  0.2869  0.6480
  217MPD1     H 3299   3.094   3.792   8.619 -0.5231 -0.7749 -2.7171
  217MPD1    H1 3300   2.786   4.093   8.683  0.3360 -0.1503  2.4525
  217MPD1    H2 3301   2.724   3.781   8.407  0.4235 -0.6484 -0.9636
  217MPD1    H3 3302   2.662   3.990   8.512  0.7118  0.5687 -1.6735
  217MPD1     N 3303   3.017   4.021   8.770 -0.2767  0.6706  0.6117
  217MPD1    H5 3304   2.958   4.080   8.827  0.4883 -0.1986  2.2994
  217MPD1    N1 3305   2.962   3.668   8.439  0.3504 -0.1652 -0.2379
  217MPD1    H6 3306   3.063   3.657   8.432  0.3395 -0.7727  0.4901
  217MPD1    H7 3307   2.926   3.642   8.348  0.6312  0.9187 -0.6607
  218MPD1     C 3308   4.689   1.483  12.714 -0.4875 -0.0109 -0.0175
  218MPD1    C1 3309   0.030   1.461  12.599 -0.5039 -0.4288 -0.3548
  218MPD1    C2 3310   0.086   1.332  12.586 -0.2590 -0.0473 -0.1092
  218MPD1    C3 3311   0.065   1.229  12.678 -0.4310  0.2341  0.1820
  218MPD1    C4 3312   4.716   1.258  12.789  0.0802 -0.7839  0.3940
  218MPD1    C5 3313   4.672   1.385  12.810  0.4664 -0.3355 -0.1037
  218MPD1     H 3314   0.138   1.304  12.496  1.1620  1.0637  0.3765
  218MPD1    H1 3315   4.690   1.184  12.864  0.1385 -2.3639 -1.1426
  218MPD1    H2 3316   4.656   1.582  12.740 -1.1455 -0.6244  1.5089
  218MPD1    H3 3317   4.631   1.420  12.904 -0.3494  0.8727 -0.9017
  218MPD1     N 3318   0.116   1.098  12.642 -0.3880  0.5723  0.7320
  218MPD1    H5 3319   0.176   1.086  12.561 -0.4357 -0.5418  0.8635
  218MPD1    N1 3320   0.050   1.577  12.518  0.2020  0.4692 -0.2777
  218MPD1    H6 3321   4.695   1.645  12.518  0.5429  0.8527 -1.5555
  218MPD1    H7 3322   0.064   1.555  12.420 -2.6526  1.2074 -0.8598
  219MPD1     C 3323   0.620   0.656  12.001  0.3116  0.0180 -0.5561
  219MPD1    C1 3324   0.495   0.709  11.976  0.6759 -0.1793 -0.8273
  219MPD1    C2 3325   0.404   0.701  12.087  0.2450 -0.0508  0.1831
  219MPD1    C3 3326   0.442   0.643  12.208 -0.4177  0.4334 -0.2638
  219MPD1    C4 3327   0.573   0.598  12.224  0.0538  0.7749 -0.2628
  219MPD1    C5 3328   0.660   0.609  12.121  1.2985 -0.1008  0.0776
  219MPD1     H 3329   0.312   0.758  12.076  1.7642  2.0492 -1.6268
  219MPD1    H1 3330   0.602   0.552  12.318 -2.1656 -0.1946 -0.0499
  219MPD1    H2 3331   0.698   0.660  11.925  1.1888  1.0799  0.4007
  219MPD1    H3 3332   0.761   0.569  12.121  0.4339 -2.3052  1.3763
  219MPD1     N 3333   0.349   0.639  12.323 -0.2739 -0.3819  0.8768
  219MPD1    H5 3334   0.383   0.583  12.400  1.0550 -1.0755 -0.2173
  219MPD1    N1 3335   0.466   0.770  11.853 -0.1391 -0.5808 -0.3859
  219MPD1    H6 3336   0.370   0.794  11.831  0.8193  1.8566 -1.9967
  219MPD1    H7 3337   0.492   0.709  11.775  0.3743 -1.1518  0.2354
  220MPD1     C 3338   0.161   1.557   9.847  0.2215 -0.0143 -1.0199
  220MPD1    C1 3339   0.270   1.472   9.848  0.3252 -0.1170 -0.6656
  220MPD1    C2 3340   0.264   1.357   9.926  0.2927  0.1924 -0.4339
  220MPD1    C3 3341   0.153   1.321   9.997  0.4722  0.8528 -0.4648
  220MPD1    C4 3342   0.044   1.404   9.992  0.0344  0.0239 -0.3326
  220MPD1    C5 3343   0.043   1.520   9.916  0.3639 -0.3564 -0.2365
  220MPD1     H 3344   0.351   1.292   9.926 -0.8828 -1.3776 -0.0569
  220MPD1    H1 3345   4.680   1.376  10.054  1.0088  0.0149  1.0046
  220MPD1    H2 3346   0.160   1.640   9.777  1.0858  0.4358 -0.4951
  220MPD1    H3 3347   4.672   1.575   9.908  0.3209 -0.4008 -0.0408
  220MPD1     N 3348   0.164   1.203  10.076  0.6249  0.2217 -1.0457
  220MPD1    H5 3349   0.252   1.153  10.075  0.4306 -0.1328 -0.5410
  220MPD1    N1 3350   0.381   1.499   9.763  0.4116  0.4862  0.0558
  220MPD1    H6 3351   0.444   1.419   9.760  0.5511  0.6257 -0.5458
  220MPD1    H7 3352   0.368   1.529   9.667  2.1462 -1.3772 -0.7615
  221MPD1     C 3353   3.093   3.767  17.028 -0.0772  0.1103 -0.1258
  221MPD1    C1 3354   3.140   3.720  16.908 -0.1209  0.0955 -0.6788
  221MPD1    C2 3355   3.057   3.727  16.796 -0.6326  0.1664  0.0696
  221MPD1    C3 3356   2.929   3.781  16.801 -0.0512  0.1972 -0.0512
  221MPD1    C4 3357   2.887   3.838  16.917 -0.2421 -0.0771 -0.2843
  221MPD1    C5 3358   2.968   3.826  17.026 -0.3535  0.0715 -0.8837
  221MPD1     H 3359   3.100   3.689  16.704  1.8298  0.8623  0.9095
  221MPD1    H1 3360   2.792   3.888  16.929  0.0080  0.1389  0.7708
  221MPD1    H2 3361   3.154   3.761  17.117  0.3117 -1.1154 -0.4819
  221MPD1    H3 3362   2.945   3.885  17.114  0.7037 -1.4532  0.4283
  221MPD1     N 3363   2.845   3.780  16.690 -0.2441 -0.1370  0.6937
  221MPD1    H5 3364   2.748   3.805  16.703 -0.0448  0.7331  0.5289
  221MPD1    N1 3365   3.268   3.684  16.897 -0.4273 -0.1587 -0.5214
  221MPD1    H6 3366   3.295   3.612  16.831 -0.5803 -1.6390  1.0211
  221MPD1    H7 3367   3.315   3.663  16.985 -0.0347 -0.8555 -0.8957
  222MPD1     C 3368   1.767   2.740  17.326  0.4965 -0.5976  0.0640
  222MPD1    C1 3369   1.661   2.774  17.409 -0.4629 -0.1646  0.2409
  222MPD1    C2 3370   1.660   2.896  17.481  1.0395 -0.1735 -0.7111
  222MPD1    C3 3371   1.759   2.987  17.459  0.4240  0.1094 -0.3762
  222MPD1    C4 3372   1.866   2.951  17.373 -0.1272 -0.2681 -0.7060
  222MPD1    C5 3373   1.866   2.828  17.315 -0.2712 -0.5156  0.0376
  222MPD1     H 3374   1.572   2.923  17.538  0.5803 -1.4236 -0.8188
  222MPD1    H1 3375   1.949   3.019  17.353  1.6381 -1.8585  1.3562
  222MPD1    H2 3376   1.780   2.649  17.269  0.2599  0.3980 -1.6094
  222MPD1    H3 3377   1.949   2.799  17.250 -0.7141  0.0578 -0.7914
  222MPD1     N 3378   1.777   3.108  17.524 -0.2407  0.2285 -0.1418
  222MPD1    H5 3379   1.859   3.163  17.501 -0.3603  0.6586  0.4547
  222MPD1    N1 3380   1.559   2.679  17.421  0.5644  0.4899 -0.1817
  222MPD1    H6 3381   1.539   2.649  17.326 -1.7053  1.1050  0.0911
  222MPD1    H7 3382   1.473   2.698  17.473  0.2483 -0.8222 -0.2357
  223MPD1     C 3383   1.374   3.966   0.398 -0.1854 -0.3703  0.3676
  223MPD1    C1 3384   1.512   3.963   0.419  0.0562  0.1239  0.4483
  223MPD1    C2 3385   1.576   3.861   0.362  0.2095 -0.2386  0.6543
  223MPD1    C3 3386   1.526   3.786   0.258  0.4068 -0.5815  0.1487
  223MPD1    C4 3387   1.400   3.807   0.221 -0.9169  0.6081  0.1480
  223MPD1    C5 3388   1.331   3.900   0.288 -0.1780  0.4872 -0.0507
  223MPD1     H 3389   1.677   3.843   0.398 -0.0505  0.5937  1.7842
  223MPD1    H1 3390   1.354   3.755   0.138 -3.6886 -0.0264  2.0970
  223MPD1    H2 3391   1.312   4.044   0.442  0.0252 -0.4761  0.8489
  223MPD1    H3 3392   1.229   3.914   0.253 -0.5449  0.4123  0.9760
  223MPD1     N 3393   1.607   3.681   0.204  0.0834 -0.1152  0.6367
  223MPD1    H5 3394   1.690   3.655   0.257 -0.4986 -0.4730  1.3724
  223MPD1    N1 3395   1.563   4.033   0.530  0.4679  0.3582  0.4579
  223MPD1    H6 3396   1.535   4.130   0.536 -2.0987 -0.5098  2.5717
  223MPD1    H7 3397   1.661   4.049   0.507  0.1533  1.5570 -0.0497
  224MPD1     C 3398   2.873   0.419   9.426  0.0969  0.1228  0.4024
  224MPD1    C1 3399   2.964   0.325   9.388  0.6583  0.1311  0.3372
  224MPD1    C2 3400   3.059   0.295   9.482  0.3323  0.2450 -0.4034
  224MPD1    C3 3401   3.055   0.338   9.615 -0.1416  0.0254  0.2328
  224MPD1    C4 3402   2.943   0.413   9.655 -0.0634 -0.0877 -1.2915
  224MPD1    C5 3403   2.858   0.464   9.558 -0.8860 -0.9094 -0.9182
  224MPD1     H 3404   3.141   0.232   9.450  1.5332  1.8487 -0.5105
  224MPD1    H1 3405   2.929   0.441   9.759  2.2591  1.3133 -1.3510
  224MPD1    H2 3406   2.820   0.475   9.350  3.2997  2.5851 -0.0133
  224MPD1    H3 3407   2.774   0.528   9.585 -0.6668 -0.7086 -0.7136
  224MPD1     N 3408   3.152   0.306   9.716  0.2669 -0.5650 -0.2664
  224MPD1    H5 3409   3.135   0.344   9.809 -1.0683 -2.1501  0.1536
  224MPD1    N1 3410   2.982   0.285   9.253 -0.2749 -0.6266  0.4447
  224MPD1    H6 3411   2.895   0.276   9.203  0.2051 -0.0114 -0.4948
  224MPD1    H7 3412   3.026   0.194   9.239 -0.6482 -0.4986 -1.5317
  225MPD1     C 3413   4.480   1.617  13.107 -0.0886 -0.7643 -0.3486
  225MPD1    C1 3414   4.411   1.508  13.070  1.1481 -0.0878 -0.2600
  225MPD1    C2 3415   4.371   1.495  12.933 -0.1935 -0.7765 -0.5380
  225MPD1    C3 3416   4.403   1.598  12.848 -0.4340  0.6941 -0.2340
  225MPD1    C4 3417   4.475   1.712  12.894  0.6937 -0.5235  0.0608
  225MPD1    C5 3418   4.507   1.721  13.026 -0.1085 -0.6960 -0.4825
  225MPD1     H 3419   4.340   1.396  12.903  1.5674 -0.7413 -2.4871
  225MPD1    H1 3420   4.518   1.791  12.834 -0.6440 -0.1515 -0.4084
  225MPD1    H2 3421   4.506   1.635  13.211  3.0079 -1.4856 -1.0099
  225MPD1    H3 3422   4.547   1.812  13.069 -0.6517  0.5883 -2.6489
  225MPD1     N 3423   4.371   1.604  12.710  0.2498  0.2723 -0.3850
  225MPD1    H5 3424   4.409   1.681  12.655 -0.9348  0.5238 -0.8668
  225MPD1    N1 3425   4.380   1.411  13.162  0.7007 -0.7016 -0.1894
  225MPD1    H6 3426   4.437   1.413  13.246 -0.1005 -0.0202  0.3316
  225MPD1    H7 3427   4.279   1.414  13.176  0.8058 -1.8938  0.8592
  226MPD1     C 3428   2.772   1.298   9.309 -0.3858 -0.3586 -0.7591
  226MPD1    C1 3429   2.801   1.412   9.231  0.4168 -0.2952 -0.4332
  226MPD1    C2 3430   2.876   1.513   9.285  0.5246 -0.3512 -0.3404
  226MPD1    C3 3431   2.942   1.502   9.409 -0.6630 -0.1096 -0.4935
  226MPD1    C4 3432   2.928   1.381   9.472 -0.3398  0.3666  0.3677
  226MPD1    C5 3433   2.838   1.293   9.424  0.2240  0.0243  0.7923
  226MPD1     H 3434   2.891   1.606   9.232  1.7074 -1.2140 -1.5079
  226MPD1    H1 3435   2.972   1.361   9.569 -2.6104  0.5896  1.4423
  226MPD1    H2 3436   2.711   1.213   9.283 -2.3035 -0.0675  2.8146
  226MPD1    H3 3437   2.839   1.197   9.476  0.7892 -1.4043 -1.8715
  226MPD1     N 3438   3.019   1.608   9.451 -0.3502 -0.0061  0.4241
  226MPD1    H5 3439   3.017   1.687   9.387  1.2838  1.8664  2.6559
  226MPD1    N1 3440   2.726   1.442   9.119 -0.1703  0.0279 -0.2863
  226MPD1    H6 3441   2.708   1.362   9.059  0.6600 -0.5378  0.2203
  226MPD1    H7 3442   2.784   1.504   9.062 -2.8136  0.2400 -2.7405
  227MPD1     C 3443   3.534   2.342   9.059 -0.4556  0.1232 -0.3684
  227MPD1    C1 3444   3.585   2.356   9.187 -0.0101  0.4719  0.1741
  227MPD1    C2 3445   3.551   2.257   9.275  0.1210 -0.5661 -0.7378
  227MPD1    C3 3446   3.463   2.152   9.247 -0.7586 -0.7980 -0.6119
  227MPD1    C4 3447   3.419   2.141   9.117  0.0120  0.3089  0.2899
  227MPD1    C5 3448   3.462   2.228   9.020 -0.4038 -1.1166  0.4061
  227MPD1     H 3449   3.592   2.254   9.376  3.0288  4.0150 -1.7944
  227MPD1    H1 3450   3.360   2.056   9.083 -1.2272  0.8484  1.0632
  227MPD1    H2 3451   3.546   2.424   8.990 -0.5116 -0.0200 -0.5501
  227MPD1    H3 3452   3.419   2.211   8.922  2.9024 -1.9847 -0.9050
  227MPD1     N 3453   3.419   2.075   9.356  0.1698 -0.2198  0.0531
  227MPD1    H5 3454   3.466   2.085   9.445 -2.1965 -2.0809  1.5455
  227MPD1    N1 3455   3.657   2.471   9.228 -0.2498  0.1496  0.0199
  227MPD1    H6 3456   3.709   2.436   9.308  0.9198 -2.7003 -1.9717
  227MPD1    H7 3457   3.732   2.501   9.167 -1.6085  0.3577 -1.5488
  228MPD1     C 3458   1.811   3.096  12.737  0.1723  0.1445  0.6318
  228MPD1    C1 3459   1.786   3.225  12.770 -0.1229  0.6786  0.1627
  228MPD1    C2 3460   1.661   3.266  12.806  0.0717  0.2102  0.6986
  228MPD1    C3 3461   1.568   3.163  12.829 -0.3662  0.1397  0.6166
  228MPD1    C4 3462   1.596   3.034  12.802  0.5264 -0.2250  0.5500
  228MPD1    C5 3463   1.716   3.004  12.754  0.0065 -0.5915  0.7794
  228MPD1     H 3464   1.638   3.370  12.826 -0.6226  0.5830 -2.1075
  228MPD1    H1 3465   1.523   2.955  12.807 -0.5293  0.8306  1.6338
  228MPD1    H2 3466   1.910   3.062  12.707 -0.1730 -0.9484  0.7359
  228MPD1    H3 3467   1.733   2.903  12.721 -1.2214 -0.2367 -0.9363
  228MPD1     N 3468   1.442   3.202  12.879  0.0890  0.1142  0.6473
  228MPD1    H5 3469   1.427   3.302  12.892 -1.5854 -0.1044  0.3372
  228MPD1    N1 3470   1.880   3.321  12.744  0.2443 -0.5891  0.0901
  228MPD1    H6 3471   1.842   3.399  12.797  0.9926  0.6466 -1.1817
  228MPD1    H7 3472   1.970   3.297  12.785  1.5066  0.6651 -1.9041
  229MPD1     C 3473   0.780   2.530  14.243  0.3244  0.6434  0.1146
  229MPD1    C1 3474   0.816   2.638  14.320 -0.1337 -0.0688 -0.6495
  229MPD1    C2 3475   0.850   2.610  14.452 -0.1383  0.2513 -0.3766
  229MPD1    C3 3476   0.854   2.485  14.495 -0.4431 -0.3493 -0.2210
  229MPD1    C4 3477   0.827   2.380  14.417  0.2373  0.2801 -0.2683
  229MPD1    C5 3478   0.788   2.403  14.287  0.5523  0.0017  0.2544
  229MPD1     H 3479   0.873   2.691  14.521  0.2083  0.6655 -0.9781
  229MPD1    H1 3480   0.840   2.281  14.458  0.3105  1.4703  2.5590
  229MPD1    H2 3481   0.743   2.544  14.142  0.1214 -3.0760 -0.3218
  229MPD1    H3 3482   0.763   2.321  14.221 -0.2182 -0.1155  0.6887
  229MPD1     N 3483   0.906   2.451  14.624  0.0253 -0.0203 -0.0619
  229MPD1    H5 3484   0.907   2.354  14.650 -1.2430 -0.1520 -0.5203
  229MPD1    N1 3485   0.789   2.766  14.271 -0.0928 -0.6000 -0.5095
  229MPD1    H6 3486   0.796   2.767  14.169  1.5902  2.7970 -0.3618
  229MPD1    H7 3487   0.844   2.843  14.309 -1.9134  0.4710 -0.0471
  230MPD1     C 3488   0.959   2.880  15.542 -0.1148 -0.0388  0.3418
  230MPD1    C1 3489   1.048   2.943  15.456  0.0429  0.7695  0.0704
  230MPD1    C2 3490   1.077   2.883  15.328  0.5543 -0.8029 -1.1053
  230MPD1    C3 3491   1.044   2.749  15.314 -0.8243  0.3480 -0.6388
  230MPD1    C4 3492   0.969   2.685  15.404  0.2644  0.2646  0.1583
  230MPD1    C5 3493   0.933   2.745  15.522  0.1982  0.1169 -0.0568
  230MPD1     H 3494   1.142   2.933  15.258  0.6370 -2.1545 -1.9769
  230MPD1    H1 3495   0.942   2.582  15.385 -0.7201  0.3912  0.8565
  230MPD1    H2 3496   0.910   2.935  15.622 -1.1706 -1.3382  0.5995
  230MPD1    H3 3497   0.869   2.695  15.594 -1.6954 -1.2783 -2.7080
  230MPD1     N 3498   1.078   2.686  15.193 -0.0055  0.0135  0.2986
  230MPD1    H5 3499   1.114   2.746  15.120  1.3565 -1.1203  0.0276
  230MPD1    N1 3500   1.091   3.073  15.478 -0.3126 -0.1794  0.0601
  230MPD1    H6 3501   1.173   3.103  15.427  1.3918 -2.1749  1.6398
  230MPD1    H7 3502   1.103   3.080  15.579 -0.3562  1.7709 -0.0803
  231MPD1     C 3503   3.755   3.821  15.925  1.0855  0.0603 -0.0689
  231MPD1    C1 3504   3.793   3.761  15.808  0.4460  0.1698  0.0732
  231MPD1    C2 3505   3.859   3.837  15.718 -0.3997 -0.2870  0.1065
  231MPD1    C3 3506   3.875   3.971  15.738 -0.8903  0.3864  0.3417
  231MPD1    C4 3507   3.828   4.030  15.851  0.0357  0.1654  0.1670
  231MPD1    C5 3508   3.768   3.954  15.943  0.3036 -0.5665  0.7373
  231MPD1     H 3509   3.892   3.792  15.624 -2.0744 -0.6216 -0.3133
  231MPD1    H1 3510   3.839   4.138  15.857  1.7561  0.1139 -2.3074
  231MPD1    H2 3511   3.703   3.762  15.999 -0.6498  0.5764 -0.8707
  231MPD1    H3 3512   3.720   4.000  16.029 -0.4510 -0.1072  0.0677
  231MPD1     N 3513   3.956   4.029  15.640  0.1337 -0.3733  0.3923
  231MPD1    H5 3514   3.953   3.977  15.553  0.1729  0.1948  0.0514
  231MPD1    N1 3515   3.788   3.623  15.794 -0.3372 -0.0886  0.4487
  231MPD1    H6 3516   3.714   3.580  15.850 -0.0930 -2.1702 -0.8624
  231MPD1    H7 3517   3.781   3.593  15.697 -0.4906  3.0371 -0.5149
  232MPD1     C 3518   2.196   2.985   0.129 -0.6287  0.6090 -0.6604
  232MPD1    C1 3519   2.220   2.934   0.256  0.9455 -0.0185  0.0052
  232MPD1    C2 3520   2.131   2.840   0.310 -0.6267  0.7732 -0.0022
  232MPD1    C3 3521   2.012   2.822   0.244 -0.0964  0.0710 -0.1938
  232MPD1    C4 3522   1.973   2.892   0.125  0.1238  0.7366  0.2027
  232MPD1    C5 3523   2.071   2.976   0.075  0.8642  0.3904 -0.3219
  232MPD1     H 3524   2.155   2.783   0.399  0.2119 -1.0351 -1.3748
  232MPD1    H1 3525   1.884   2.869   0.068  1.4443 -2.1144 -0.7080
  232MPD1    H2 3526   2.276   3.040   0.082  1.7833 -4.0314 -1.9705
  232MPD1    H3 3527   2.055   3.032  17.672 -1.1074 -0.2151 -0.3476
  232MPD1     N 3528   1.930   2.726   0.307  0.3028 -0.2033 -0.5899
  232MPD1    H5 3529   1.971   2.664   0.376 -0.4857 -1.2259 -1.0506
  232MPD1    N1 3530   2.343   2.930   0.314  0.3034 -0.0512 -0.4414
  232MPD1    H6 3531   2.335   2.931   0.415  2.0432 -1.3149 -0.2864
  232MPD1    H7 3532   2.407   3.009   0.302  1.2027 -0.8221 -0.7903
  233MPD1     C 3533   3.114   2.437   1.364  0.0142 -0.0103 -0.1901
  233MPD1    C1 3534   3.085   2.567   1.396 -0.3231  0.3059 -0.3934
  233MPD1    C2 3535   3.193   2.652   1.423  0.5583  0.1768  0.2514
  233MPD1    C3 3536   3.324   2.608   1.409  0.2141 -0.0566 -0.2875
  233MPD1    C4 3537   3.348   2.480   1.364 -0.5656  0.7475 -0.2951
  233MPD1    C5 3538   3.244   2.390   1.342 -0.1743  0.1846 -0.3829
  233MPD1     H 3539   3.171   2.750   1.464  0.1476  0.2144 -0.0640
  233MPD1    H1 3540   3.448   2.445   1.340  0.1988  2.1144  0.8465
  233MPD1    H2 3541   3.039   2.359   1.355  0.5007 -0.8381  2.9418
  233MPD1    H3 3542   3.270   2.288   1.314 -0.5132  0.5258 -1.9251
  233MPD1     N 3543   3.434   2.685   1.450  0.1943 -0.0190 -0.0307
  233MPD1    H5 3544   3.526   2.642   1.450  0.0227 -0.3788 -1.5039
  233MPD1    N1 3545   2.957   2.608   1.445  0.1474  0.1004  0.3769
  233MPD1    H6 3546   2.877   2.558   1.407  3.1031 -4.3801  0.1252
  233MPD1    H7 3547   2.942   2.709   1.438 -1.2151 -0.0287  1.5069
  234MPD1     C 3548   0.144   3.982   9.676 -0.3149  0.7403  0.0592
  234MPD1    C1 3549   0.086   4.071   9.767 -0.1152  0.4371  0.6423
  234MPD1    C2 3550   4.679   4.112   9.743 -0.0064 -0.1994  0.3984
  234MPD1    C3 3551   4.599   4.051   9.645  0.7784  0.2191 -0.2207
  234MPD1    C4 3552   4.658   3.974   9.551 -0.1682  0.0092 -0.1524
  234MPD1    C5 3553   0.069   3.940   9.566  0.3542  1.0516 -0.4267
  234MPD1     H 3554   4.640   4.176   9.821 -0.7061 -1.6121  1.2183
  234MPD1    H1 3555   4.606   3.926   9.468 -2.4601  3.0982 -0.5193
  234MPD1    H2 3556   0.249   3.955   9.682  0.0770  1.9114 -1.5382
  234MPD1    H3 3557   0.108   3.871   9.492  0.9277 -0.7328  1.5691
  234MPD1     N 3558   4.463   4.083   9.647 -0.1652 -0.2725  0.4522
  234MPD1    H5 3559   4.432   4.141   9.724 -1.0458 -3.0715  2.2293
  234MPD1    N1 3560   0.161   4.127   9.866  0.0686 -0.1024  0.2409
  234MPD1    H6 3561   0.102   4.176   9.934  2.6467 -0.2557  2.5831
  234MPD1    H7 3562   0.233   4.070   9.910  1.6048  0.3989 -1.6891
  235MPD1     C 3563   0.313   1.414  10.498 -0.7793  1.1561  0.3204
  235MPD1    C1 3564   0.231   1.412  10.384  0.0433 -0.2678 -0.6345
  235MPD1    C2 3565   0.274   1.483  10.281  0.8509 -0.1610  0.0824
  235MPD1    C3 3566   0.410   1.522  10.268 -0.1060 -0.1166 -0.2984
  235MPD1    C4 3567   0.492   1.512  10.377  0.2082 -0.3970  0.2522
  235MPD1    C5 3568   0.444   1.453  10.494 -0.3280  0.6685  0.7144
  235MPD1     H 3569   0.207   1.500  10.198  2.2850 -0.4740 -1.1530
  235MPD1    H1 3570   0.593   1.547  10.362  0.2432 -0.2667  0.7988
  235MPD1    H2 3571   0.273   1.375  10.591  2.2166 -0.8409  0.7836
  235MPD1    H3 3572   0.508   1.454  10.582 -1.3929  1.8477  1.4660
  235MPD1     N 3573   0.439   1.575  10.141 -0.2754  0.4175 -0.3549
  235MPD1    H5 3574   0.367   1.573  10.070  0.8698  1.6953 -1.5695
  235MPD1    N1 3575   0.095   1.374  10.400 -0.0436  0.5264 -0.6093
  235MPD1    H6 3576   0.055   1.330  10.317 -3.1969 -1.8532  2.1955
  235MPD1    H7 3577   0.073   1.300  10.466  0.7678  0.0245 -0.8895
  236MPD1     C 3578   0.787   3.231  10.231 -0.6396 -0.3881 -0.6397
  236MPD1    C1 3579   0.647   3.236  10.240 -0.5119  0.2294  0.0771
  236MPD1    C2 3580   0.586   3.114  10.268  0.1345 -0.0591  0.7112
  236MPD1    C3 3581   0.670   3.002  10.303 -0.2938 -0.4484  0.1056
  236MPD1    C4 3582   0.807   3.002  10.288 -0.0484  0.3600 -0.3651
  236MPD1    C5 3583   0.862   3.122  10.248 -0.2771  0.5444 -0.8539
  236MPD1     H 3584   0.478   3.105  10.264  0.1447 -0.0225  0.4113
  236MPD1    H1 3585   0.873   2.919  10.312 -3.0372 -2.3099 -1.3768
  236MPD1    H2 3586   0.841   3.321  10.203 -0.2431 -0.2896  0.4151
  236MPD1    H3 3587   0.970   3.129  10.241 -0.1327 -2.2269 -1.3373
  236MPD1     N 3588   0.613   2.879  10.357  0.2579  0.1884  0.2034
  236MPD1    H5 3589   0.675   2.801  10.373  1.3579  0.8798 -0.6885
  236MPD1    N1 3590   0.576   3.353  10.218  0.5460  0.2479  0.1323
  236MPD1    H6 3591   0.624   3.441  10.238 -2.6702  2.0022  0.2153
  236MPD1    H7 3592   0.476   3.362  10.239  0.0244  0.0249 -2.2519
  237MPD1     C 3593   4.392   0.999  14.743  0.5755  0.1084  0.0299
  237MPD1    C1 3594   4.426   0.953  14.870 -0.1695 -0.1240  0.0718
  237MPD1    C2 3595   4.371   0.835  14.912  0.8663  0.6447  0.4590
  237MPD1    C3 3596   4.290   0.752  14.831 -0.5897 -0.2348 -0.0179
  237MPD1    C4 3597   4.263   0.798  14.700 -0.3647 -0.7088 -0.1837
  237MPD1    C5 3598   4.309   0.922  14.665 -0.3534 -0.2753  0.4230
  237MPD1     H 3599   4.381   0.799  15.013  0.0977  0.4635  0.4736
  237MPD1    H1 3600   4.189   0.746  14.641 -0.9103  0.6602 -0.7181
  237MPD1    H2 3601   4.431   1.093  14.707 -0.7104  0.0820 -1.4422
  237MPD1    H3 3602   4.278   0.948  14.564  0.4429 -1.2013 -0.0611
  237MPD1     N 3603   4.240   0.630  14.869 -0.3570 -0.2566  0.8304
  237MPD1    H5 3604   4.191   0.572  14.802 -1.1988 -3.3318  4.0993
  237MPD1    N1 3605   4.489   1.037  14.966  0.3026  0.1006 -0.4901
  237MPD1    H6 3606   4.551   1.106  14.925 -0.7995 -0.8981 -3.8921
  237MPD1    H7 3607   4.546   0.987  15.034 -1.2560 -1.0266 -0.0009
  238MPD1     C 3608   1.837   4.622  14.893  0.5560 -0.3139 -0.1778
  238MPD1    C1 3609   1.799   4.518  14.976  0.0813  0.2883 -0.4661
  238MPD1    C2 3610   1.669   4.493  14.992  0.6737 -0.2497 -0.1627
  238MPD1    C3 3611   1.574   4.543  14.910 -0.9891  0.2859 -0.0109
  238MPD1    C4 3612   1.617   4.632  14.815 -0.3525 -0.1628 -0.1789
  238MPD1    C5 3613   1.749   4.675  14.803 -0.8025 -0.5759  0.0345
  238MPD1     H 3614   1.643   4.431  15.077  0.2861 -0.1849 -0.2352
  238MPD1    H1 3615   1.546   4.658  14.737 -2.2136 -2.1162  0.8616
  238MPD1    H2 3616   1.944   4.640  14.885  0.1990  0.5214 -2.8393
  238MPD1    H3 3617   1.781   0.010  14.717 -2.4204 -0.1057 -0.2554
  238MPD1     N 3618   1.437   4.514  14.916  0.0694  0.0067  0.5058
  238MPD1    H5 3619   1.377   4.552  14.843  0.6523  0.7608  0.4274
  238MPD1    N1 3620   1.898   4.468  15.065  0.1176 -0.2850  0.1798
  238MPD1    H6 3621   1.997   4.478  15.043  0.0490  1.1085  0.4958
  238MPD1    H7 3622   1.884   4.372  15.097  0.1978 -0.3117  0.1350
  239MPD1     C 3623   1.888   0.509  15.105 -0.3703 -0.7322 -0.5523
  239MPD1    C1 3624   1.969   0.565  15.008  0.5218  0.5930 -0.3228
  239MPD1    C2 3625   1.916   0.584  14.881  0.6308  0.2013  0.6101
  239MPD1    C3 3626   1.787   0.551  14.859 -0.7343 -0.1435  0.3307
  239MPD1    C4 3627   1.706   0.511  14.962 -0.4217  0.0762 -0.0156
  239MPD1    C5 3628   1.758   0.484  15.083 -0.6292 -0.0034 -0.0593
  239MPD1     H 3629   1.984   0.603  14.798 -0.4631 -0.7833 -0.4993
  239MPD1    H1 3630   1.601   0.486  14.948 -0.3707 -0.0675 -0.1281
  239MPD1    H2 3631   1.923   0.478  15.203 -0.3255  1.1717  0.0311
  239MPD1    H3 3632   1.696   0.438  15.160 -0.3776 -0.4134 -0.1032
  239MPD1     N 3633   1.724   0.555  14.730  0.2893 -0.2547 -0.2586
  239MPD1    H5 3634   1.634   0.509  14.721 -0.1938  0.2174  2.0384
  239MPD1    N1 3635   2.108   0.555  15.029 -0.9185  0.1500 -0.5010
  239MPD1    H6 3636   2.163   0.620  14.972  2.3604 -1.8178  0.3693
  239MPD1    H7 3637   2.153   0.553  15.120 -0.6050 -0.8431 -0.6747
  240MPD1     C 3638   0.607   0.261  14.230  1.0628  0.6608 -0.6384
  240MPD1    C1 3639   0.538   0.144  14.234 -0.2817  0.1196  0.8540
  240MPD1    C2 3640   0.567   0.067  14.343 -0.6498 -0.5080  0.8957
  240MPD1    C3 3641   0.650   0.107  14.453  0.1820  0.5081 -0.0823
  240MPD1    C4 3642   0.699   0.232  14.450  0.9618 -0.1864 -0.0130
  240MPD1    C5 3643   0.675   0.311  14.339  0.4001  0.0335 -0.0613
  240MPD1     H 3644   0.521   4.690  14.340  0.0910 -0.8593  1.0871
  240MPD1    H1 3645   0.761   0.273  14.529  2.2385  0.3866 -1.3233
  240MPD1    H2 3646   0.627   0.323  14.144 -2.5338  1.5962 -0.8125
  240MPD1    H3 3647   0.732   0.402  14.325 -1.1102  1.0247  0.2592
  240MPD1     N 3648   0.664   0.014  14.557 -0.5187  0.0480 -0.4357
  240MPD1    H5 3649   0.596   4.660  14.563  0.2838 -0.5514  1.2318
  240MPD1    N1 3650   0.486   0.098  14.111  0.0832  0.2871  0.0345
  240MPD1    H6 3651   0.414   0.028  14.129 -1.4142  1.9996  0.6902
  240MPD1    H7 3652   0.453   0.173  14.051 -1.4352 -0.1481  0.3286
  241MPD1     C 3653   1.038   0.239  15.444 -0.3077  0.4324 -0.4515
  241MPD1    C1 3654   0.960   0.130  15.473 -0.5659 -0.3417 -1.1696
  241MPD1    C2 3655   0.902   0.048  15.369  0.5729 -0.5668  0.1283
  241MPD1    C3 3656   0.911   0.095  15.234 -0.5265 -0.7331 -0.4550
  241MPD1    C4 3657   0.987   0.211  15.210 -0.4461 -0.0353  0.3207
  241MPD1    C5 3658   1.041   0.281  15.313  0.0512  0.0686  0.4413
  241MPD1     H 3659   0.844   4.681  15.393  2.2272 -1.5821  0.4516
  241MPD1    H1 3660   1.002   0.252  15.111 -1.1099  2.0661  1.0994
  241MPD1    H2 3661   1.089   0.287  15.526 -2.5419  0.3727  0.9720
  241MPD1    H3 3662   1.106   0.365  15.290  1.2513 -1.0985 -0.4012
  241MPD1     N 3663   0.877   0.014  15.120  0.4257  0.3665 -0.1525
  241MPD1    H5 3664   0.924   0.044  15.036  0.6285  0.4802  0.0034
  241MPD1    N1 3665   0.926   0.113  15.607 -0.4238 -0.1180  0.0368
  241MPD1    H6 3666   0.878   0.025  15.624  1.3077 -1.1336 -0.3359
  241MPD1    H7 3667   1.008   0.102  15.665  0.8686  0.2880 -1.7160
  242MPD1     C 3668   0.787   3.152  15.918 -0.3056 -0.1139  0.2903
  242MPD1    C1 3669   0.679   3.114  15.839  0.3446  0.6884 -0.0718
  242MPD1    C2 3670   0.670   3.160  15.713  0.0328  0.2010 -0.1973
  242MPD1    C3 3671   0.778   3.230  15.648 -0.7126  0.6985 -0.4157
  242MPD1    C4 3672   0.887   3.267  15.729 -0.9196  0.1368  0.0947
  242MPD1    C5 3673   0.886   3.224  15.866  0.1528 -0.3919  0.0119
  242MPD1     H 3674   0.584   3.131  15.654 -0.2636  0.0742  0.2942
  242MPD1    H1 3675   0.975   3.311  15.685 -0.4740 -0.8654 -0.0044
  242MPD1    H2 3676   0.780   3.127  16.023 -1.3336 -1.8178 -0.1697
  242MPD1    H3 3677   0.973   3.245  15.926 -1.4293 -0.2481  2.2562
  242MPD1     N 3678   0.780   3.272  15.513  0.0351  0.4825  0.0149
  242MPD1    H5 3679   0.869   3.305  15.477 -0.5893 -0.1449 -2.1499
  242MPD1    N1 3680   0.564   3.051  15.895 -0.2748 -0.4824  0.5460
  242MPD1    H6 3681   0.589   2.976  15.958 -2.7927 -0.3984  1.6414
  242MPD1    H7 3682   0.508   3.004  15.824  3.2104 -1.9550 -1.2483
  243MPD1     C 3683   1.715   1.421  17.391 -0.0546  0.1686 -0.1101
  243MPD1    C1 3684   1.759   1.484  17.273 -0.6151 -0.6862  0.0078
  243MPD1    C2 3685   1.797   1.400  17.170  0.4382  0.4390  0.6050
  243MPD1    C3 3686   1.791   1.262  17.173 -0.5033 -0.0111  0.3196
  243MPD1    C4 3687   1.742   1.208  17.285 -0.1276 -0.5857  0.8837
  243MPD1    C5 3688   1.704   1.285  17.387  0.5090 -0.3625  0.0192
  243MPD1     H 3689   1.859   1.439  17.089  0.6971  0.7417  0.9444
  243MPD1    H1 3690   1.725   1.103  17.304 -0.0344 -1.0050 -1.3549
  243MPD1    H2 3691   1.705   1.470  17.487 -0.7489 -0.8651  0.3445
  243MPD1    H3 3692   1.665   1.238  17.476  0.0600 -0.0977 -0.0365
  243MPD1     N 3693   1.842   1.189  17.059 -0.6849  0.3863 -0.3386
  243MPD1    H5 3694   1.900   1.239  16.993 -0.6538  0.7156 -0.0632
  243MPD1    N1 3695   1.797   1.618  17.277 -0.0757 -0.3961 -0.0471
  243MPD1    H6 3696   1.813   1.659  17.185  1.1689  0.5553  0.5955
  243MPD1    H7 3697   1.740   1.674  17.340  2.0271  1.3875  0.2605
  244MPD1     C 3698   2.445   0.499  17.257  0.0932  0.1579  0.0346
  244MPD1    C1 3699   2.328   0.529  17.306 -0.2509  0.1402 -0.9447
  244MPD1    C2 3700   2.255   0.628  17.240 -0.6931  0.7931  0.0107
  244MPD1    C3 3701   2.292   0.694  17.127 -0.3206  0.2905  0.8060
  244MPD1    C4 3702   2.407   0.654  17.070  0.5610  0.5648 -0.5275
  244MPD1    C5 3703   2.481   0.562  17.137 -0.5142  0.5397  0.2976
  244MPD1     H 3704   2.169   0.669  17.290  0.6672  1.8030  1.5066
  244MPD1    H1 3705   2.446   0.692  16.976  1.7255 -0.6194 -0.5330
  244MPD1    H2 3706   2.514   0.432  17.306 -0.4672 -1.9479 -2.0988
  244MPD1    H3 3707   2.579   0.531  17.102 -0.3740  0.4710  0.7514
  244MPD1     N 3708   2.203   0.785  17.060 -0.4118 -0.2419 -0.1768
  244MPD1    H5 3709   2.120   0.810  17.113  1.2152  3.0282  0.8064
  244MPD1    N1 3710   2.290   0.481  17.430 -0.4661  0.1913  0.4685
  244MPD1    H6 3711   2.329   0.389  17.450 -2.0910 -0.6057 -0.0030
  244MPD1    H7 3712   2.191   0.457  17.431 -0.6610  1.0007 -0.0553
  245MPD1     C 3713   4.673   2.911  12.758  0.4901  0.6104 -0.1933
  245MPD1    C1 3714   0.014   3.031  12.798  0.2265 -0.4218  0.3353
  245MPD1    C2 3715   0.005   3.071  12.933  0.1891  0.1404  0.7671
  245MPD1    C3 3716   4.666   2.986  13.024 -0.6595  0.5797  0.2589
  245MPD1    C4 3717   4.617   2.865  12.978  0.0592 -0.3560 -0.1726
  245MPD1    C5 3718   4.622   2.828  12.846 -0.6505 -0.1624 -0.2992
  245MPD1     H 3719   0.040   3.168  12.964 -0.9217  0.4955  0.9201
  245MPD1    H1 3720   4.586   2.792  13.051  1.4651  1.0030  1.7789
  245MPD1    H2 3721   4.663   2.886  12.653  0.5472 -0.8755  0.1554
  245MPD1    H3 3722   4.600   2.729  12.807 -1.1957  1.0913 -3.1871
  245MPD1     N 3723   4.671   3.024  13.162  0.0172 -0.1515  0.9504
  245MPD1    H5 3724   4.717   3.113  13.176  1.0913 -0.5929  0.2603
  245MPD1    N1 3725   0.055   3.120  12.697  0.3072 -0.1656  0.1699
  245MPD1    H6 3726   0.100   3.075  12.618  0.2459 -0.0314  0.0571
  245MPD1    H7 3727   0.124   3.189  12.725  0.1209 -1.4130  3.7332
  246MPD1     C 3728   4.381   1.596   9.289 -0.0205 -0.1306  0.4529
  246MPD1    C1 3729   4.510   1.545   9.259  0.9821 -0.2390 -0.3305
  246MPD1    C2 3730   4.609   1.635   9.223  0.2491 -0.4344  0.1975
  246MPD1    C3 3731   4.591   1.773   9.217  0.2494 -0.5654 -0.9162
  246MPD1    C4 3732   4.462   1.822   9.251  0.6206 -0.0715 -0.1041
  246MPD1    C5 3733   4.358   1.731   9.278  0.5265  0.6681 -0.3163
  246MPD1     H 3734   4.708   1.599   9.195 -0.8153 -0.8688 -3.0638
  246MPD1    H1 3735   4.439   1.927   9.242 -0.7743 -0.3076  0.7269
  246MPD1    H2 3736   4.298   1.528   9.306 -0.0526  0.4335  2.6265
  246MPD1    H3 3737   4.260   1.761   9.314  0.4202  1.8489 -1.5701
  246MPD1     N 3738   4.697   1.853   9.169 -0.8292 -0.2045  0.2909
  246MPD1    H5 3739   0.050   1.797   9.128 -1.0567  0.2705 -0.7813
  246MPD1    N1 3740   4.532   1.406   9.246  0.0720 -0.1756 -0.0026
  246MPD1    H6 3741   4.628   1.372   9.244  0.3163  0.4650  0.6203
  246MPD1    H7 3742   4.478   1.335   9.296 -1.8006  1.5523  0.4203
  247MPD1     C 3743   3.173   1.692  16.653 -0.1057 -0.1462  0.1882
  247MPD1    C1 3744   3.127   1.612  16.558  0.6967  0.6251  0.0761
  247MPD1    C2 3745   3.187   1.630  16.431 -0.1881 -0.2672 -0.3860
  247MPD1    C3 3746   3.260   1.744  16.400 -0.2602 -0.4895 -0.0589
  247MPD1    C4 3747   3.283   1.840  16.500 -0.8097 -0.6588  0.7934
  247MPD1    C5 3748   3.241   1.804  16.626 -0.3668 -0.0661 -0.9837
  247MPD1     H 3749   3.145   1.568  16.353 -1.3665  1.1840 -0.9009
  247MPD1    H1 3750   3.323   1.937  16.475 -0.7519 -1.2099 -1.2472
  247MPD1    H2 3751   3.146   1.672  16.756  0.0213  0.5813  0.3602
  247MPD1    H3 3752   3.248   1.880  16.702 -2.8821 -1.7403  0.9445
  247MPD1     N 3753   3.308   1.766  16.273 -0.5408  0.2992 -0.1219
  247MPD1    H5 3754   3.352   1.857  16.260  1.1486 -0.2016  2.0918
  247MPD1    N1 3755   3.066   1.484  16.584 -0.2388  0.0001 -0.2967
  247MPD1    H6 3756   3.007   1.454  16.506 -1.5365 -1.5022  1.2578
  247MPD1    H7 3757   2.997   1.503  16.657  1.3477  0.0934  1.1615
  248MPD1     C 3758   4.613   1.790   0.229  0.0532  0.3657 -0.2572
  248MPD1    C1 3759   4.587   1.686   0.315  0.2556  0.1248 -0.3131
  248MPD1    C2 3760   4.489   1.711   0.405 -0.1773 -0.2536 -0.3625
  248MPD1    C3 3761   4.407   1.824   0.402  0.2223  0.0927  0.9221
  248MPD1    C4 3762   4.433   1.922   0.310 -0.2585 -0.3208 -0.2349
  248MPD1    C5 3763   4.538   1.902   0.226  0.7220  0.0797 -0.0843
  248MPD1     H 3764   4.471   1.641   0.485 -1.6028  0.7844  0.2186
  248MPD1    H1 3765   4.379   2.016   0.302 -2.0877 -1.1542  2.4948
  248MPD1    H2 3766   4.698   1.786   0.162  1.4942 -0.4250  1.5854
  248MPD1    H3 3767   4.575   1.966   0.146  2.6566  2.9877  3.1681
  248MPD1     N 3768   4.309   1.835   0.501 -0.0422 -0.6348 -0.2484
  248MPD1    H5 3769   4.302   1.762   0.570 -1.9297  1.4814  1.7930
  248MPD1    N1 3770   4.674   1.571   0.329 -0.1567 -0.1574 -0.0944
  248MPD1    H6 3771   0.006   1.549   0.246 -0.3867 -2.2907  0.3063
  248MPD1    H7 3772   4.626   1.491   0.370 -0.0834  0.7882  1.8345
  249MPD1     C 3773   0.524   0.231   9.974  0.5256  0.0494 -0.2756
  249MPD1    C1 3774   0.592   0.327   9.909  0.0687  0.6236  0.7713
  249MPD1    C2 3775   0.517   0.420   9.836 -1.0698  0.4296 -0.2000
  249MPD1    C3 3776   0.379   0.416   9.828  0.7943 -0.0473  0.7145
  249MPD1    C4 3777   0.309   0.312   9.895 -0.2037  0.2068  0.3607
  249MPD1    C5 3778   0.384   0.224   9.966 -0.2310  0.4820 -0.3036
  249MPD1     H 3779   0.560   0.507   9.788  2.4898  0.7566  3.5980
  249MPD1    H1 3780   0.202   0.298   9.898 -0.0375 -1.3143 -1.0052
  249MPD1    H2 3781   0.571   0.149  10.027 -2.1716 -1.3619 -0.0796
  249MPD1    H3 3782   0.334   0.154  10.033 -1.3845  2.2993  0.7234
  249MPD1     N 3783   0.313   0.515   9.750  0.2133  0.0224 -0.7002
  249MPD1    H5 3784   0.377   0.574   9.697 -0.1452 -0.8193 -2.0784
  249MPD1    N1 3785   0.728   0.312   9.884 -0.4344  0.7029 -0.1392
  249MPD1    H6 3786   0.774   0.402   9.884  0.4427  0.2519 -0.7043
  249MPD1    H7 3787   0.770   0.252   9.955  0.9216  1.5416 -0.2342
  250MPD2     C 3788   2.265   0.734  13.257  0.0065 -0.4061 -0.2404
  250MPD2    C1 3789   2.260   0.776  13.127  0.3318 -0.0003  0.9845
  250MPD2    C2 3790   2.238   0.679  13.033  0.0353  0.0986  0.0616
  250MPD2    C3 3791   2.215   0.548  13.061 -0.0543  0.5775 -0.1689
  250MPD2    C4 3792   2.218   0.511  13.194 -0.2074 -0.1812 -0.1121
  250MPD2    C5 3793   2.245   0.604  13.286 -0.1490  0.8123 -0.2177
  250MPD2     H 3794   2.258   0.709  12.931  0.6140  2.7966  0.9501
  250MPD2    H1 3795   2.191   0.412  13.227  1.0084 -0.1829  0.8999
  250MPD2    H2 3796   2.278   0.808  13.335  0.3756 -0.3545 -0.3501
  250MPD2    H3 3797   2.243   0.569  13.389  0.4535  1.3471 -0.0257
  250MPD2     N 3798   2.186   0.449  12.967 -0.2037 -0.7660  0.0452
  250MPD2    H5 3799   2.178   0.352  12.996 -0.4092 -0.6760  0.2898
  250MPD2    N1 3800   2.274   0.910  13.095  0.2069  0.3965  0.3965
  250MPD2    H7 3801   2.299   0.980  13.165 -0.0450  2.4358 -1.5357
  251TMC3    C1 3802   2.218   1.102  12.952  0.5623  0.2783  0.1013
  251TMC3    C2 3803   2.118   1.176  12.890  0.2406 -0.9242  0.0561
  251TMC3    C3 3804   2.148   1.311  12.874  0.3449  0.1143  0.5439
  251TMC3    C4 3805   2.330   1.167  12.995 -0.2664  0.5261  0.0398
  251TMC3    C5 3806   2.356   1.297  12.961  0.5881 -0.5101 -0.1496
  251TMC3    C6 3807   2.260   1.374  12.920  0.5596  0.1125  0.0549
  251TMC3     C 3808   2.204   0.955  12.981 -0.4974  0.2860 -0.0495
  251TMC3     O 3809   2.109   0.906  12.920  0.1844  0.2261  0.1826
  251TMC3     H 3810   2.024   1.124  12.881 -0.1435  0.1659 -2.2716
  251TMC3    H1 3811   2.407   1.106  13.041 -1.2532 -0.2770  0.6373
  251TMC3    H2 3812   2.273   1.481  12.918 -1.5780  0.3381 -1.0369
  251TMC3    C7 3813   2.488   1.349  12.994  0.0586  0.4228  0.4022
  251TMC3    C8 3814   2.038   1.394  12.844 -0.4052  0.1967 -0.9285
  251TMC3    O1 3815   2.570   1.257  12.987  0.3943  0.7113 -0.0420
  251TMC3    O2 3816   2.052   1.515  12.852 -0.7635 -0.3100 -0.5983
  252TMC3    C1 3817   3.176   2.420   9.218  0.3589 -0.0186  0.4877
  252TMC3    C2 3818   3.262   2.471   9.315 -0.0466  0.5361 -0.0451
  252TMC3    C3 3819   3.255   2.430   9.447 -0.2884 -0.3201 -0.6513
  252TMC3    C4 3820   3.088   2.321   9.253 -0.3367 -0.7507 -0.1155
  252TMC3    C5 3821   3.091   2.276   9.383  1.0951  0.0398  0.6098
  252TMC3    C6 3822   3.178   2.321   9.480  0.7909 -0.0552  0.2701
  252TMC3     C 3823   3.206   2.461   9.079  0.2725  0.2355 -0.8305
  252TMC3     O 3824   3.291   2.548   9.060 -0.7086 -0.0118 -0.4529
  252TMC3     H 3825   3.332   2.546   9.282  1.1214 -0.5447  0.0062
  252TMC3    H1 3826   3.020   2.282   9.177 -2.7248  0.4607  1.4162
  252TMC3    H2 3827   3.165   2.287   9.582  1.8283 -1.1228  0.0432
  252TMC3    C7 3828   2.999   2.166   9.411 -0.2533 -0.1970  0.0408
  252TMC3    C8 3829   3.351   2.475   9.540  0.3299 -0.5435 -0.4846
  252TMC3    O1 3830   2.904   2.147   9.338  0.2420 -0.3635 -0.2806
  252TMC3    O2 3831   3.341   2.429   9.654 -0.0621 -0.1093 -0.1241
  253MPD2     C 3832   3.420   0.752  15.277 -0.3368  0.2779 -0.6053
  253MPD2    C1 3833   3.284   0.772  15.300  0.6014 -0.3750 -0.3774
  253MPD2    C2 3834   3.241   0.750  15.426  0.3299 -0.2872  1.2898
  253MPD2    C3 3835   3.321   0.703  15.527  0.2902 -0.1119 -0.0403
  253MPD2    C4 3836   3.453   0.686  15.498 -0.1342 -0.5077 -0.2369
  253MPD2    C5 3837   3.501   0.705  15.373 -0.0893 -0.1400  0.3072
  253MPD2     H 3838   3.137   0.773  15.445  0.2577 -0.1739  0.7379
  253MPD2    H1 3839   3.524   0.673  15.578  0.8847 -1.0043 -1.2180
  253MPD2    H2 3840   3.472   0.795  15.192 -0.5391  0.1179 -0.8101
  253MPD2    H3 3841   3.608   0.697  15.355  0.2584 -0.7226  2.5074
  253MPD2     N 3842   3.277   0.680  15.664  0.1770  0.0387  0.3295
  253MPD2    H5 3843   3.353   0.673  15.731  2.0565  2.4974 -1.5187
  253MPD2    N1 3844   3.189   0.828  15.212  0.1907  0.5287 -0.8698
  253MPD2    H7 3845   3.098   0.848  15.254 -1.0893 -1.7087 -2.5382
  254TMC3    C1 3846   3.145   0.714  15.849  0.1481 -0.3226 -0.1256
  254TMC3    C2 3847   3.023   0.763  15.887 -0.0740  0.4023 -0.8063
  254TMC3    C3 3848   3.007   0.773  16.020 -0.4352  0.5021 -0.4521
  254TMC3    C4 3849   3.257   0.699  15.928 -0.0653 -0.0425 -0.2917
  254TMC3    C5 3850   3.236   0.721  16.060  0.7830  0.8670 -0.1071
  254TMC3    C6 3851   3.108   0.744  16.110 -1.0935 -0.3641 -0.9939
  254TMC3     C 3852   3.149   0.683  15.706  0.1163 -0.6735  1.0534
  254TMC3     O 3853   3.049   0.688  15.636 -0.1961 -0.3773 -0.7299
  254TMC3     H 3854   2.941   0.776  15.818 -0.9512 -0.0195  0.1509
  254TMC3    H1 3855   3.348   0.651  15.897  0.0393 -0.6800  0.9996
  254TMC3    H2 3856   3.093   0.748  16.218 -3.0014  1.4752 -1.3143
  254TMC3    C7 3857   3.346   0.736  16.155  0.4410  0.3341  0.5408
  254TMC3    C8 3858   2.907   0.853  16.073  0.1204 -0.1258 -0.2185
  254TMC3    O1 3859   3.320   0.760  16.271  0.0987 -0.0201  0.2526
  254TMC3    O2 3860   2.890   0.841  16.193  0.0778  0.0438 -0.2571
  255MPD2     C 3861   1.887   3.735   9.915  0.4183 -0.9153 -0.0390
  255MPD2    C1 3862   2.000   3.800   9.959  0.8121  0.3914  0.3138
  255MPD2    C2 3863   2.115   3.775   9.888 -0.0761  1.0925 -0.1350
  255MPD2    C3 3864   2.113   3.697   9.778 -0.0833  0.1153 -0.4231
  255MPD2    C4 3865   2.001   3.626   9.736 -0.7344  0.1208  0.5296
  255MPD2    C5 3866   1.889   3.648   9.803  0.0414  0.4549 -0.2551
  255MPD2     H 3867   2.208   3.824   9.911 -0.1712  0.8496  0.7626
  255MPD2    H1 3868   1.993   3.584   9.636 -1.1555 -0.4823  0.8174
  255MPD2    H2 3869   1.793   3.739   9.968  2.9773  1.2132  4.3386
  255MPD2    H3 3870   1.798   3.594   9.779 -0.2330  1.4842 -1.4944
  255MPD2     N 3871   2.235   3.696   9.710 -0.0390 -1.1457 -0.0275
  255MPD2    H5 3872   2.301   3.756   9.758 -1.7412 -0.2690  1.2338
  255MPD2    N1 3873   1.989   3.904  10.060 -0.3336  0.1700  0.1817
  255MPD2    H7 3874   1.904   3.906  10.115  0.4670  0.5065  1.3930
  256TMC3    C1 3875   2.015   4.132  10.114 -0.6775  0.4391  0.0226
  256TMC3    C2 3876   2.000   4.234  10.023 -0.2863  0.2909  0.6110
  256TMC3    C3 3877   1.895   4.320  10.035  0.5069 -0.0562  0.1122
  256TMC3    C4 3878   1.926   4.113  10.217  0.1024  0.3324  0.0046
  256TMC3    C5 3879   1.817   4.190  10.224  0.0967 -0.4670  0.2850
  256TMC3    C6 3880   1.805   4.290  10.131  0.0964 -0.3067 -0.4103
  256TMC3     C 3881   2.074   4.011  10.060 -0.1185 -0.0895  0.2390
  256TMC3     O 3882   2.177   4.024  10.000 -0.5707  0.0111 -0.2062
  256TMC3     H 3883   2.075   4.235   9.945 -0.5129 -0.3002  0.3848
  256TMC3    H1 3884   1.931   4.024  10.278  0.0710  0.9745  0.9426
  256TMC3    H2 3885   1.714   4.349  10.129  0.6571  0.5260 -1.2479
  256TMC3    C7 3886   1.690   4.114  10.221  0.2600  0.2205  0.4037
  256TMC3    C8 3887   1.848   4.399   9.919  0.0826 -0.1482 -0.0378
  256TMC3    O1 3888   1.615   4.146  10.129 -0.0469  0.5119  0.1513
  256TMC3    O2 3889   1.732   4.437   9.923 -0.5169  0.4450  0.2230
  257MPD2     C 3890   1.515   0.878  13.262 -0.6113  0.1063 -0.3913
  257MPD2    C1 3891   1.491   0.761  13.188  0.3579 -0.1745  0.1029
  257MPD2    C2 3892   1.496   0.635  13.249 -0.2389  0.0137 -0.0604
  257MPD2    C3 3893   1.501   0.632  13.387  0.3410 -0.0118  0.2513
  257MPD2    C4 3894   1.525   0.745  13.461  0.5413 -0.3011  0.1581
  257MPD2    C5 3895   1.531   0.866  13.397  0.7260 -0.0439  0.7262
  257MPD2     H 3896   1.481   0.546  13.189  0.1880 -0.0010 -0.1443
  257MPD2    H1 3897   1.530   0.736  13.569  1.0826 -1.3456  0.0427
  257MPD2    H2 3898   1.513   0.975  13.214 -1.4335  0.4851  0.4238
  257MPD2    H3 3899   1.558   0.951  13.458  0.5610  0.7369 -0.2855
  257MPD2     N 3900   1.500   0.504  13.443 -0.4222 -0.0700  0.5111
  257MPD2    H5 3901   1.485   0.427  13.378  0.6315 -0.1379  0.3350
  257MPD2    N1 3902   1.482   0.779  13.048  0.1586 -0.2833  0.4168
  257MPD2    H7 3903   1.493   0.872  13.009  1.1858 -0.5584  0.0631
  258TMC3    C1 3904   1.542   0.343  13.609 -0.8242  0.0717  0.0451
  258TMC3    C2 3905   1.627   0.278  13.528  0.1640  0.7331 -0.0398
  258TMC3    C3 3906   1.706   0.182  13.579 -0.0459 -0.4219 -0.3350
  258TMC3    C4 3907   1.518   0.310  13.736  0.2539 -0.0847 -0.1798
  258TMC3    C5 3908   1.594   0.208  13.785 -0.5380 -1.1468 -0.0173
  258TMC3    C6 3909   1.678   0.134  13.706 -0.0047 -0.2540  0.4771
  258TMC3     C 3910   1.513   0.478  13.576 -0.1173  0.0427 -0.2844
  258TMC3     O 3911   1.478   0.546  13.672  0.2657  0.3009  0.2190
  258TMC3     H 3912   1.653   0.316  13.430 -0.3248 -2.0507 -1.2640
  258TMC3    H1 3913   1.457   0.370  13.802  0.4836 -0.2413  0.1815
  258TMC3    H2 3914   1.738   0.065  13.764  0.2979 -1.4843 -1.2778
  258TMC3    C7 3915   1.628   0.199  13.935  0.5092  0.0492  0.1055
  258TMC3    C8 3916   1.796   0.105  13.489  0.2669 -0.5374 -0.2113
  258TMC3    O1 3917   1.735   0.151  13.974 -0.1162  0.4896 -0.0112
  258TMC3    O2 3918   1.890   0.044  13.545 -0.3265 -0.1642  0.2893
  259MPD2     C 3919   4.600   2.200   0.904 -0.3646  0.1109  0.1467
  259MPD2    C1 3920   4.693   2.141   0.991 -0.7140 -0.0585 -0.0386
  259MPD2    C2 3921   0.106   2.145   0.955 -0.7754 -0.3981 -0.4673
  259MPD2    C3 3922   0.146   2.214   0.848 -0.0973 -0.2656 -0.0549
  259MPD2    C4 3923   0.058   2.269   0.761  0.7081 -0.8070  0.2645
  259MPD2    C5 3924   4.644   2.257   0.792  0.5238 -0.4624  0.6306
  259MPD2     H 3925   0.181   2.099   1.018 -1.0748 -0.9276 -0.4889
  259MPD2    H1 3926   0.089   2.320   0.670  1.0818 -0.2652  0.6923
  259MPD2    H2 3927   4.494   2.206   0.924 -0.4852 -1.8063  0.1484
  259MPD2    H3 3928   4.575   2.299   0.719 -0.0421 -1.0174  0.8451
  259MPD2     N 3929   0.281   2.232   0.831  0.4802 -0.2928  0.0515
  259MPD2    H5 3930   0.343   2.181   0.893 -0.1212 -1.4181 -0.2653
  259MPD2    N1 3931   4.654   2.088   1.116  0.1608  0.3612 -0.1550
  259MPD2    H7 3932   4.553   2.094   1.129  0.0746 -2.1180  0.3270
  260TMC3    C1 3933   0.486   2.295   0.742 -0.1057  0.3139 -0.4866
  260TMC3    C2 3934   0.560   2.401   0.696  0.3292  0.3526 -0.6910
  260TMC3    C3 3935   0.692   2.383   0.661  0.4530 -0.5166  0.0369
  260TMC3    C4 3936   0.542   2.169   0.764 -0.0577  0.6843  0.4602
  260TMC3    C5 3937   0.675   2.157   0.734 -0.2107  0.5366  0.0837
  260TMC3    C6 3938   0.750   2.258   0.686  0.2720 -0.5946 -0.2698
  260TMC3     C 3939   0.341   2.300   0.728 -0.0991 -0.3805 -0.0535
  260TMC3     O 3940   0.297   2.380   0.646  0.4621  0.4177  0.3570
  260TMC3     H 3941   0.509   2.491   0.664  0.7063  0.0193 -2.2757
  260TMC3    H1 3942   0.489   2.085   0.808  0.2142  0.0159 -0.4770
  260TMC3    H2 3943   0.848   2.231   0.648 -0.0154 -0.4600 -1.0843
  260TMC3    C7 3944   0.701   2.030   0.673  1.1162  0.7908  0.3427
  260TMC3    C8 3945   0.746   2.462   0.552  0.7071  0.0855  0.3997
  260TMC3    O1 3946   0.607   1.951   0.687  0.3431 -0.2597  0.0418
  260TMC3    O2 3947   0.670   2.541   0.497  0.0272  0.1314 -0.0804
  261MPD2     C 3948   1.797   0.351  12.233 -0.0083  0.0885 -0.6655
  261MPD2    C1 3949   1.925   0.409  12.258 -0.0543 -0.4658  0.1473
  261MPD2    C2 3950   1.969   0.513  12.176 -0.7609  0.2162  0.0277
  261MPD2    C3 3951   1.900   0.548  12.062 -0.3900 -0.2366 -0.2210
  261MPD2    C4 3952   1.780   0.483  12.030  0.0290 -0.3792  0.7021
  261MPD2    C5 3953   1.725   0.389  12.115 -0.3926 -0.2877 -0.8829
  261MPD2     H 3954   2.062   0.566  12.192  0.1011 -1.2065 -0.3156
  261MPD2    H1 3955   1.711   0.509  11.951 -0.2866 -0.9860  0.7814
  261MPD2    H2 3956   1.739   0.284  12.295 -0.2390  0.2090 -0.7512
  261MPD2    H3 3957   1.627   0.349  12.092 -0.5676 -0.9069  0.8864
  261MPD2     N 3958   1.959   0.648  11.985 -0.0743 -0.7248  0.6439
  261MPD2    H5 3959   2.049   0.678  12.021 -0.2644 -1.0652  1.3970
  261MPD2    N1 3960   2.005   0.370  12.372 -0.3991  0.6193 -0.0702
  261MPD2    H7 3961   2.092   0.418  12.392  0.2207 -0.4966 -0.0951
  262TMC3    C1 3962   1.977   0.814  11.809  0.7904  0.2895 -0.0019
  262TMC3    C2 3963   1.904   0.906  11.737 -0.2999 -0.4452  0.6455
  262TMC3    C3 3964   1.986   0.998  11.684  0.2797 -0.4249  0.7925
  262TMC3    C4 3965   2.113   0.817  11.830 -0.4937  0.2573 -0.4780
  262TMC3    C5 3966   2.183   0.913  11.768  0.1586  0.9565 -0.0206
  262TMC3    C6 3967   2.117   1.009  11.693 -0.4400  0.2805  0.1226
  262TMC3     C 3968   1.907   0.701  11.867  0.1470 -0.5311  0.4627
  262TMC3     O 3969   1.799   0.684  11.817 -0.1845  0.1078  0.3974
  262TMC3     H 3970   1.795   0.904  11.736 -0.2965 -0.7525  1.3289
  262TMC3    H1 3971   2.162   0.732  11.875 -0.3047  0.8089  0.3750
  262TMC3    H2 3972   2.166   1.092  11.643 -0.0838  1.2916  2.1594
  262TMC3    C7 3973   2.329   0.899  11.765 -0.6807  0.2105 -0.0094
  262TMC3    C8 3974   1.926   1.112  11.630 -1.1893  0.0807  0.3451
  262TMC3    O1 3975   2.369   0.784  11.793  0.3026 -0.2623  0.5437
  262TMC3    O2 3976   1.988   1.216  11.639  0.0062  0.6354  0.6708
  263MPD2     C 3977   3.087   0.011  11.785  0.2475 -0.0977  0.0306
  263MPD2    C1 3978   3.197   0.054  11.712 -0.2236  0.0133 -0.1076
  263MPD2    C2 3979   3.178   0.112  11.589 -0.0702  0.3329 -0.2572
  263MPD2    C3 3980   3.052   0.104  11.534  0.1403 -0.4445 -0.0651
  263MPD2    C4 3981   2.948   0.052  11.603  0.5331  0.4015 -0.0603
  263MPD2    C5 3982   2.964   0.016  11.734  0.5448 -0.2224 -0.0831
  263MPD2     H 3983   3.258   0.155  11.529 -1.5749  2.0333 -1.0208
  263MPD2    H1 3984   2.849   0.042  11.560  1.1620 -1.1517 -1.1317
  263MPD2    H2 3985   3.106   4.690  11.882  2.1877  0.5739 -0.0452
  263MPD2    H3 3986   2.881   4.706  11.797 -0.4160 -1.6046 -2.0580
  263MPD2     N 3987   3.043   0.142  11.404  0.0500  0.7115 -0.6231
  263MPD2    H5 3988   3.128   0.178  11.361  1.9671 -3.7770 -0.5158
  263MPD2    N1 3989   3.326   0.049  11.776  0.3039  0.3597 -0.7302
  263MPD2    H7 3990   3.327   0.031  11.876  0.2118  1.2981 -0.5625
  264TMC3    C1 3991   2.961   0.225  11.201 -0.0756  1.2118 -0.0618
  264TMC3    C2 3992   2.882   0.324  11.156 -0.1694 -0.3034  0.4353
  264TMC3    C3 3993   2.909   0.387  11.039  0.8392 -0.3836  0.6707
  264TMC3    C4 3994   3.072   0.185  11.133  0.2203  0.7260  0.3031
  264TMC3    C5 3995   3.089   0.228  11.005  0.9420 -0.2632 -0.1491
  264TMC3    C6 3996   3.014   0.336  10.962  0.3187 -0.9172  0.3839
  264TMC3     C 3997   2.927   0.165  11.330  0.8922 -0.2991 -0.5202
  264TMC3     O 3998   2.814   0.130  11.353  0.7293  0.2739 -0.3775
  264TMC3     H 3999   2.802   0.345  11.226 -0.2611 -1.6849  0.7517
  264TMC3    H1 4000   3.137   0.107  11.171  1.5023  1.5019 -0.2845
  264TMC3    H2 4001   3.033   0.387  10.868  1.7464  0.3605  1.3662
  264TMC3    C7 4002   3.217   0.245  10.966 -0.0424 -0.1869 -0.3900
  264TMC3    C8 4003   2.932   0.528  11.059  0.6685 -0.9389 -0.8795
  264TMC3    O1 4004   3.248   0.210  10.848  0.3601  0.2627  0.3144
  264TMC3    O2 4005   3.005   0.584  10.979  0.5021  0.1952 -0.4249
  265MPD2     C 4006   0.842   0.681  15.734 -0.5721  0.1800 -0.0405
  265MPD2    C1 4007   0.710   0.677  15.683  0.4583 -0.0407  0.2870
  265MPD2    C2 4008   0.697   0.626  15.556 -0.2690  0.6511 -0.0470
  265MPD2    C3 4009   0.801   0.566  15.481 -0.6901 -0.4285 -0.0606
  265MPD2    C4 4010   0.932   0.568  15.535 -0.0369 -0.3002 -0.1282
  265MPD2    C5 4011   0.948   0.623  15.659  0.5820 -0.4665  0.0220
  265MPD2     H 4012   0.597   0.627  15.517  0.0681 -0.9258 -0.9520
  265MPD2    H1 4013   1.023   0.536  15.485  0.0361  1.7711 -1.3015
  265MPD2    H2 4014   0.879   0.721  15.828 -1.4603 -1.8091  1.1678
  265MPD2    H3 4015   1.049   0.634  15.699  0.0462  0.7101  1.0630
  265MPD2     N 4016   0.789   0.500  15.355  0.2415 -0.3582 -0.3560
  265MPD2    H5 4017   0.874   0.484  15.301  1.7321  1.9757  1.2668
  265MPD2    N1 4018   0.599   0.727  15.759 -0.2096 -0.6904 -0.1111
  265MPD2    H7 4019   0.510   0.706  15.716 -0.3872  0.4924 -0.3326
  266TMC3    C1 4020   0.475   0.807  15.944  0.4180 -0.5296 -0.0652
  266TMC3    C2 4021   0.457   0.800  16.082  0.3294  0.1909 -0.3598
  266TMC3    C3 4022   0.348   0.877  16.132 -0.7982 -0.5607 -0.8213
  266TMC3    C4 4023   0.394   0.882  15.860 -0.0457 -0.2087 -0.4045
  266TMC3    C5 4024   0.284   0.946  15.914 -0.6079 -0.6279  0.4709
  266TMC3    C6 4025   0.259   0.951  16.053 -0.0374 -0.7361  0.4839
  266TMC3     C 4026   0.604   0.774  15.893 -0.4884 -0.7390  0.4909
  266TMC3     O 4027   0.699   0.794  15.970  0.1712  0.0954  0.5817
  266TMC3     H 4028   0.520   0.744  16.150  1.6864  0.2119 -1.6111
  266TMC3    H1 4029   0.408   0.890  15.753 -0.9338  0.4040 -0.4729
  266TMC3    H2 4030   0.166   0.987  16.095 -0.2003  0.2861 -0.7363
  266TMC3    C7 4031   0.227   1.050  15.831  0.4317  0.5106 -0.0418
  266TMC3    C8 4032   0.320   0.863  16.269  0.4663 -0.0492 -0.3543
  266TMC3    O1 4033   0.256   1.055  15.712  0.4963  0.0883 -0.2281
  266TMC3    O2 4034   0.359   0.760  16.314 -0.0182 -0.0748  0.8959
  267MPD2     C 4035   2.531   1.631  17.550  0.1466  0.2127  0.3957
  267MPD2    C1 4036   2.486   1.760  17.526 -0.2748  0.1448 -0.1870
  267MPD2    C2 4037   2.427   1.788  17.402  0.3792  1.0217  0.5510
  267MPD2    C3 4038   2.417   1.697  17.305 -0.2269  0.8451  0.2215
  267MPD2    C4 4039   2.469   1.570  17.324  0.3374 -0.5507 -0.3259
  267MPD2    C5 4040   2.528   1.542  17.447  0.1731  0.2115  0.0756
  267MPD2     H 4041   2.400   1.889  17.370  0.2677  0.9931  0.5552
  267MPD2    H1 4042   2.462   1.490  17.251  1.9507 -0.4956 -0.5401
  267MPD2    H2 4043   2.584   1.604  17.641  0.8150  0.0826 -0.0344
  267MPD2    H3 4044   2.578   1.447  17.460 -1.1900 -0.0529  3.3397
  267MPD2     N 4045   2.363   1.738  17.181  0.3636  0.0413 -0.0197
  267MPD2    H5 4046   2.319   1.829  17.177 -1.8700 -1.1522 -2.7762
  267MPD2    N1 4047   2.515   1.866  17.621  0.1797  0.4576  0.3678
  267MPD2    H7 4048   2.564   1.854   0.020 -0.7144  1.7734  1.0409
  268TMC3    C1 4049   2.514   2.087   0.015  0.1083  0.4163  0.1729
  268TMC3    C2 4050   2.576   2.192  17.644 -0.2291 -0.6186  0.2586
  268TMC3    C3 4051   2.641   2.283   0.034  0.1633  0.0077  0.5366
  268TMC3    C4 4052   2.508   2.074   0.150 -0.5936 -0.2692  0.4323
  268TMC3    C5 4053   2.567   2.163   0.225  0.4235 -0.0547 -0.6349
  268TMC3    C6 4054   2.640   2.273   0.175 -0.2292 -0.1957  0.2599
  268TMC3     C 4055   2.468   1.994  17.603 -0.1967 -0.6878  0.3691
  268TMC3     O 4056   2.394   2.041  17.519 -0.3649  0.4587 -0.2440
  268TMC3     H 4057   2.599   2.194  17.538  0.2173 -2.7829  0.3241
  268TMC3    H1 4058   2.440   1.997   0.183 -2.1806  1.1526  0.4560
  268TMC3    H2 4059   2.682   2.352   0.235 -2.3931  1.6306 -0.6174
  268TMC3    C7 4060   2.576   2.139   0.366 -0.4064  0.0274 -0.0534
  268TMC3    C8 4061   2.722   2.385  17.661 -0.2566  0.5629 -0.4857
  268TMC3    O1 4062   2.552   2.024   0.391  0.3065  0.2164 -0.3472
  268TMC3    O2 4063   2.811   2.435   0.042  0.0686 -0.0486  0.6358
  269MPD2     C 4064   2.424   1.010  15.641  0.3685  0.2399  0.6190
  269MPD2    C1 4065   2.444   1.102  15.542  0.0753 -0.0730  0.0231
  269MPD2    C2 4066   2.410   1.233  15.579 -0.2265  0.1951  0.5384
  269MPD2    C3 4067   2.347   1.267  15.699  0.6155  0.8021 -0.2558
  269MPD2    C4 4068   2.319   1.170  15.787 -0.2103 -0.0173 -0.2310
  269MPD2    C5 4069   2.356   1.048  15.761  0.0737 -0.1125  0.1021
  269MPD2     H 4070   2.418   1.314  15.507 -0.4510  2.7452  3.3766
  269MPD2    H1 4071   2.264   1.183  15.879 -0.1263  0.0936 -0.1965
  269MPD2    H2 4072   2.447   0.905  15.625 -1.9756 -0.2775  0.6358
  269MPD2    H3 4073   2.337   0.965  15.828  0.9096 -0.8591 -0.5798
  269MPD2     N 4074   2.315   1.403  15.723 -0.2438 -0.1917  0.0072
  269MPD2    H5 4075   2.335   1.478  15.657  0.3150  0.9670  1.4855
  269MPD2    N1 4076   2.507   1.059  15.418 -1.7017 -0.8147  0.1591
  269MPD2    H7 4077   2.544   0.965  15.419 -1.5167 -0.7301  1.9520
  270TMC3    C1 4078   2.598   1.073  15.202 -0.1902  0.1980 -0.0775
  270TMC3    C2 4079   2.552   1.084  15.074  0.2789 -0.1440  0.3237
  270TMC3    C3 4080   2.611   0.997  14.996  0.7984 -0.2362 -0.0271
  270TMC3    C4 4081   2.709   1.002  15.249  0.5226  0.3376 -0.1355
  270TMC3    C5 4082   2.759   0.913  15.162  0.1128 -0.5894 -1.1287
  270TMC3    C6 4083   2.712   0.911  15.033  0.2636  0.0575 -0.0308
  270TMC3     C 4084   2.524   1.143  15.303  0.2726  0.2580  0.3135
  270TMC3     O 4085   2.479   1.252  15.281 -0.5832 -0.1649  0.0286
  270TMC3     H 4086   2.475   1.155  15.047 -0.4759 -0.6611  1.1356
  270TMC3    H1 4087   2.746   0.985  15.349 -0.3850 -1.5369 -0.1145
  270TMC3    H2 4088   2.770   0.846  14.968  1.1611  0.8412 -0.0113
  270TMC3    C7 4089   2.826   0.792  15.213  0.6536 -0.9946 -0.1578
  270TMC3    C8 4090   2.575   0.999  14.860  0.3225 -0.2428 -0.4926
  270TMC3    O1 4091   2.901   0.804  15.306 -0.0424 -0.4211  0.6615
  270TMC3    O2 4092   2.619   0.902  14.793 -0.3731  0.2884 -0.2592
  271MPD2     C 4093   1.905   0.886  14.121 -0.8028 -0.3581  0.3668
  271MPD2    C1 4094   1.874   0.880  14.249  0.8283 -1.2134  0.1876
  271MPD2    C2 4095   1.741   0.890  14.284  0.2218 -0.6473 -0.4198
  271MPD2    C3 4096   1.639   0.909  14.189 -0.9546 -0.0985  0.6894
  271MPD2    C4 4097   1.681   0.922  14.060 -0.3641 -0.2043 -0.0209
  271MPD2    C5 4098   1.816   0.912  14.028  0.0913 -0.0286 -0.8916
  271MPD2     H 4099   1.719   0.874  14.389  0.8474  0.7251 -0.0761
  271MPD2    H1 4100   1.612   0.929  13.977 -0.6654  1.5956  0.3879
  271MPD2    H2 4101   2.009   0.878  14.089 -0.3199  1.5548  1.4561
  271MPD2    H3 4102   1.861   0.930  13.931  4.4677 -1.4124  0.8867
  271MPD2     N 4103   1.500   0.914  14.206  0.1827  0.4940  0.3432
  271MPD2    H5 4104   1.436   0.927  14.129 -0.1469 -0.0438  0.5288
  271MPD2    N1 4105   1.973   0.844  14.345 -0.2183 -0.0629  0.3999
  271MPD2    H7 4106   1.938   0.844  14.440  0.0697  3.0918  0.5344
  272TMC3    C1 4107   2.157   0.735  14.447 -0.2248 -0.9328  0.3164
  272TMC3    C2 4108   2.240   0.626  14.429  0.0828 -0.6579  0.0228
  272TMC3    C3 4109   2.332   0.590  14.521 -0.2070  0.5859 -0.1619
  272TMC3    C4 4110   2.150   0.797  14.569  0.6809  0.0699  0.4453
  272TMC3    C5 4111   2.238   0.753  14.665  0.1593 -0.0455 -0.4598
  272TMC3    C6 4112   2.331   0.654  14.644 -0.3306 -0.0093  0.4452
  272TMC3     C 4113   2.106   0.803  14.330  0.1479  0.4434  0.3772
  272TMC3     O 4114   2.153   0.763  14.227 -0.6621 -0.4755 -0.6601
  272TMC3     H 4115   2.248   0.583  14.330  2.8002 -1.8185  0.7311
  272TMC3    H1 4116   2.099   0.892  14.567  0.0250 -0.2849  0.1579
  272TMC3    H2 4117   2.417   0.647  14.710  0.0856  2.3528  0.1438
  272TMC3    C7 4118   2.238   0.798  14.802 -0.1582  0.0375  0.7255
  272TMC3    C8 4119   2.417   0.483  14.484  1.0673  0.9082  0.1702
  272TMC3    O1 4120   2.299   0.734  14.891  0.4173  0.2328 -0.3899
  272TMC3    O2 4121   2.431   0.470  14.363  0.3644  0.3969  0.4777
  273MPD2     C 4122   3.936   3.603  11.879  0.1424 -0.0849 -0.3061
  273MPD2    C1 4123   4.018   3.709  11.890  0.3873 -0.0891  0.7982
  273MPD2    C2 4124   4.062   3.775  11.776  0.4491  1.0185 -0.2923
  273MPD2    C3 4125   4.021   3.740  11.651  0.0670  0.4624 -0.3491
  273MPD2    C4 4126   3.926   3.636  11.645 -0.7798  0.2280  0.0779
  273MPD2    C5 4127   3.893   3.566  11.759 -0.0750  0.1069  0.8891
  273MPD2     H 4128   4.130   3.860  11.779  2.1352 -0.3848  1.8039
  273MPD2    H1 4129   3.889   3.606  11.547 -1.2852  1.2661 -0.0474
  273MPD2    H2 4130   3.897   3.544  11.961  0.2118  1.0933  0.5734
  273MPD2    H3 4131   3.816   3.489  11.754 -0.3076  0.2604  2.0879
  273MPD2     N 4132   4.058   3.806  11.533 -0.1848  0.5976  0.3451
  273MPD2    H5 4133   4.000   3.803  11.450  1.3388  0.1929 -0.7020
  273MPD2    N1 4134   4.063   3.746  12.020  0.1119  0.1427  0.0883
  273MPD2    H7 4135   4.033   3.693  12.101 -0.7843  1.2330  0.4716
  274TMC3    C1 4136   4.143   3.992  11.410  0.4015 -0.4365 -0.0095
  274TMC3    C2 4137   4.104   3.938  11.292  0.0899  0.1359 -0.4720
  274TMC3    C3 4138   4.129   4.010  11.177  0.6684  0.5481 -0.8898
  274TMC3    C4 4139   4.207   4.111  11.415 -0.0360 -0.3615  0.2870
  274TMC3    C5 4140   4.243   4.176  11.299  0.6809 -0.1732 -0.9014
  274TMC3    C6 4141   4.212   4.122  11.180  0.4407  0.7597 -0.3950
  274TMC3     C 4142   4.146   3.909  11.529 -0.5431  0.1720 -0.8272
  274TMC3     O 4143   4.236   3.930  11.606 -0.5306 -0.8714  0.9800
  274TMC3     H 4144   4.044   3.848  11.293  2.2970 -1.3431 -0.7229
  274TMC3    H1 4145   4.232   4.152  11.512 -1.4258 -0.7475  0.7954
  274TMC3    H2 4146   4.219   4.184  11.092  2.1537 -0.1103 -0.8773
  274TMC3    C7 4147   4.273   4.320  11.307 -0.1376  0.1684 -0.2084
  274TMC3    C8 4148   4.049   3.992  11.053  0.5249  0.2180 -0.4847
  274TMC3    O1 4149   4.322   4.372  11.207  0.7403  0.3347 -0.3761
  274TMC3    O2 4150   3.994   3.885  11.036  0.1521 -0.1849  0.4161
  275MPD2     C 4151   3.538   2.076  14.223 -0.4308 -0.3491  0.0717
  275MPD2    C1 4152   3.509   1.965  14.303  0.2882 -0.5666  1.1556
  275MPD2    C2 4153   3.379   1.920  14.303  0.5781  0.2001 -0.1225
  275MPD2    C3 4154   3.276   1.992  14.244 -0.3657  0.1668  0.4264
  275MPD2    C4 4155   3.306   2.109  14.179 -0.1878 -0.1318  0.7185
  275MPD2    C5 4156   3.439   2.141  14.156  0.3962 -0.1721 -0.2773
  275MPD2     H 4157   3.354   1.831  14.359  0.6527 -1.0413 -2.0517
  275MPD2    H1 4158   3.224   2.179  14.163  0.1395  0.3615  1.2012
  275MPD2    H2 4159   3.639   2.112  14.209 -0.9462  1.7302  1.6139
  275MPD2    H3 4160   3.458   2.232  14.102  0.8717  0.0204  0.2179
  275MPD2     N 4161   3.139   1.963  14.256 -0.4687  0.6701  0.6852
  275MPD2    H5 4162   3.078   2.035  14.220 -0.0255 -0.3100 -2.0304
  275MPD2    N1 4163   3.602   1.899  14.389  0.5647  0.4471 -0.2984
  275MPD2    H7 4164   3.566   1.832  14.455  0.0782 -1.0944 -2.1190
  276TMC3    C1 4165   3.804   1.860  14.510 -0.6873  0.3620  0.5967
  276TMC3    C2 4166   3.730   1.749  14.542 -0.1389 -0.4784 -0.8039
  276TMC3    C3 4167   3.726   1.704  14.673 -0.0193 -0.1460 -0.6816
  276TMC3    C4 4168   3.873   1.937  14.602 -0.5339  0.1084  0.3717
  276TMC3    C5 4169   3.880   1.878  14.725  0.1332  0.1620 -0.4053
  276TMC3    C6 4170   3.810   1.766  14.764  0.5960  0.2640 -0.1597
  276TMC3     C 4171   3.730   1.945  14.416  0.1454  0.5249  0.7249
  276TMC3     O 4172   3.782   2.052  14.392 -0.1113  0.4405  0.1080
  276TMC3     H 4173   3.667   1.698  14.470 -0.1089  1.2696 -2.0794
  276TMC3    H1 4174   3.918   2.032  14.574 -0.0835 -0.3760 -0.5453
  276TMC3    H2 4175   3.815   1.737  14.868  1.6785 -0.6907 -0.4811
  276TMC3    C7 4176   3.937   1.959  14.828 -0.4532  0.2428  0.7322
  276TMC3    C8 4177   3.649   1.592  14.711 -0.2320  0.1205 -0.6339
  276TMC3    O1 4178   3.873   1.956  14.930 -0.1066 -0.2980  0.2890
  276TMC3    O2 4179   3.615   1.581  14.830 -0.2025 -0.3924  0.3804
  277MPD2     C 4180   0.427   0.712  13.052  0.2062 -0.7098  0.1854
  277MPD2    C1 4181   0.324   0.778  13.114 -0.7942  0.4982 -0.6630
  277MPD2    C2 4182   0.231   0.711  13.184  0.2475  0.4538  0.0707
  277MPD2    C3 4183   0.246   0.575  13.204  0.4044  0.2441 -0.2275
  277MPD2    C4 4184   0.359   0.508  13.151 -0.2560 -0.2694 -0.0308
  277MPD2    C5 4185   0.448   0.577  13.072  0.6748  0.1154 -0.4306
  277MPD2     H 4186   0.138   0.755  13.219  1.1040  2.9384 -0.8352
  277MPD2    H1 4187   0.390   0.406  13.173 -1.2042 -0.9619 -1.9235
  277MPD2    H2 4188   0.506   0.758  12.994 -1.0434  1.2085  0.0326
  277MPD2    H3 4189   0.537   0.531  13.030 -0.0142  0.1620 -1.9465
  277MPD2     N 4190   0.144   0.513  13.278  0.1989  0.2385  0.8591
  277MPD2    H5 4191   0.061   0.566  13.302  0.0435  0.6267 -0.4772
  277MPD2    N1 4192   0.342   0.921  13.104 -0.4296 -0.2492  0.2739
  277MPD2    H7 4193   0.414   0.956  13.041 -0.2146  4.1191  2.9711
  278TMC3    C1 4194   0.019   0.353  13.386 -0.3470 -0.4991  0.3032
  278TMC3    C2 4195   4.691   0.225  13.378  0.8218  0.2822  0.0303
  278TMC3    C3 4196   4.580   0.197  13.447  0.2516 -0.4286 -0.2776
  278TMC3    C4 4197   4.696   0.447  13.466 -0.2944  0.7525 -1.0066
  278TMC3    C5 4198   4.589   0.405  13.545 -0.4630 -0.2043 -0.4524
  278TMC3    C6 4199   4.520   0.281  13.539  0.0147  0.5421  0.2650
  278TMC3     C 4200   0.136   0.380  13.302  0.6988  0.0753 -0.0165
  278TMC3     O 4201   0.198   0.285  13.262  1.1002 -0.4707  0.3525
  278TMC3     H 4202   0.011   0.163  13.299 -1.0045  0.9682 -1.4583
  278TMC3    H1 4203   0.016   0.546  13.481 -1.8272  0.9135  2.1743
  278TMC3    H2 4204   4.437   0.253  13.603 -1.0633  2.6641 -0.2055
  278TMC3    C7 4205   4.576   0.495  13.659  0.6140 -0.3279 -0.8587
  278TMC3    C8 4206   4.492   0.105  13.371 -0.7604  0.5901  0.6902
  278TMC3    O1 4207   4.676   0.550  13.696 -0.7807 -0.2737  0.3253
  278TMC3    O2 4208   4.544   0.026  13.291  0.2572 -0.0397 -0.5264
  279MPD2     C 4209   4.018   1.027   0.533  0.1272 -0.0828  0.0527
  279MPD2    C1 4210   3.999   1.161   0.519  0.0357 -0.4244 -0.8246
  279MPD2    C2 4211   4.033   1.223   0.397 -0.0530  0.0090 -0.2771
  279MPD2    C3 4212   4.079   1.146   0.286  0.2529  0.1270 -0.2500
  279MPD2    C4 4213   4.104   1.010   0.310  0.0536 -0.6033 -0.1668
  279MPD2    C5 4214   4.079   0.949   0.429  0.3730 -0.7777  0.2918
  279MPD2     H 4215   4.028   1.331   0.396 -3.2847 -0.1125  1.3181
  279MPD2    H1 4216   4.149   0.946   0.235 -0.5744 -2.8421  1.3692
  279MPD2    H2 4217   4.005   0.983   0.632  3.4875 -2.0068 -0.3759
  279MPD2    H3 4218   4.112   0.846   0.436 -1.1131 -1.2732 -0.0055
  279MPD2     N 4219   4.112   1.205   0.164  0.2944  0.8201 -0.4512
  279MPD2    H5 4220   4.149   1.147   0.090  1.1991  2.7798 -1.5340
  279MPD2    N1 4221   3.942   1.236   0.631  0.4498  0.0181  0.1588
  279MPD2    H7 4222   3.972   1.197   0.720  0.4492  3.8831  1.8436
  280TMC3    C1 4223   3.777   1.365   0.499 -0.2419  1.1743 -0.3259
  280TMC3    C2 4224   3.733   1.255   0.421 -0.3686  0.4850 -0.2857
  280TMC3    C3 4225   3.660   1.276   0.310 -0.3092 -0.1537 -0.0453
  280TMC3    C4 4226   3.736   1.494   0.481  0.1983  0.0773  0.0090
  280TMC3    C5 4227   3.642   1.507   0.374 -0.2192  0.2539  0.2269
  280TMC3    C6 4228   3.613   1.399   0.285 -0.2027  0.0935 -0.8123
  280TMC3     C 4229   3.864   1.350   0.623 -0.3573 -0.6369  0.5726
  280TMC3     O 4230   3.839   1.429   0.716 -0.0251 -0.3324  0.0160
  280TMC3     H 4231   3.764   1.156   0.450  0.1726 -0.5363 -4.3509
  280TMC3    H1 4232   3.794   1.578   0.516  0.5024  0.4386 -1.3561
  280TMC3    H2 4233   3.545   1.405   0.201  0.1365  0.3012 -1.0703
  280TMC3    C7 4234   3.650   1.638   0.310  0.0245  0.2978 -0.1647
  280TMC3    C8 4235   3.679   1.185   0.199  0.2812  0.4397 -0.9083
  280TMC3    O1 4236   3.759   1.697   0.313 -0.7201  0.3990  0.0992
  280TMC3    O2 4237   3.640   1.224   0.090  0.2638  0.5247  0.3925
  281TMC3    C1 4238   3.090   1.068  13.452 -0.8052  0.9827  0.4837
  281TMC3    C2 4239   3.058   1.180  13.376 -0.3202  0.6170  0.0280
  281TMC3    C3 4240   3.017   1.167  13.250  0.0425  0.1356  0.7528
  281TMC3    C4 4241   3.074   0.940  13.402 -0.0984  0.1264 -1.0355
  281TMC3    C5 4242   3.018   0.934  13.276 -0.1005  0.0906  0.7440
  281TMC3    C6 4243   3.005   1.041  13.198 -0.7403 -0.4080 -0.0047
  281TMC3     C 4244   3.110   1.098  13.591 -0.0816 -0.3349 -0.2238
  281TMC3     O 4245   3.102   1.011  13.681 -0.4959  0.2540  0.2715
  281TMC3     H 4246   3.063   1.281  13.415 -0.5508  1.2573 -1.6372
  281TMC3    H1 4247   3.086   0.859  13.473 -1.4443  0.4924 -0.3879
  281TMC3    H2 4248   2.962   1.014  13.101  1.2230 -1.1293 -0.6684
  281TMC3    C7 4249   2.907   0.833  13.260 -0.3668 -0.6408  0.4556
  281TMC3    C8 4250   2.925   1.266  13.198  0.7721  0.4404  0.0370
  281TMC3    O1 4251   2.832   0.857  13.165  0.3194  0.0194  0.3401
  281TMC3    O2 4252   2.854   1.225  13.109  0.2626 -0.1034 -0.4560
  282MPD2     C 4253   0.319   2.325  15.222  0.8229  0.2883 -0.2629
  282MPD2    C1 4254   0.194   2.382  15.208  0.1855  0.4257  0.0900
  282MPD2    C2 4255   0.132   2.387  15.088  0.6412 -0.2016 -0.7886
  282MPD2    C3 4256   0.191   2.351  14.972  0.5457 -0.2121  0.1068
  282MPD2    C4 4257   0.318   2.299  14.978 -0.0956 -0.9093  0.1352
  282MPD2    C5 4258   0.377   2.282  15.103 -0.1223 -0.5921 -0.9095
  282MPD2     H 4259   0.030   2.423  15.078  0.4650 -0.8267 -1.2439
  282MPD2    H1 4260   0.373   2.268  14.890  0.4276 -0.1184  0.1836
  282MPD2    H2 4261   0.375   2.317  15.314  2.5805  1.0575 -1.2482
  282MPD2    H3 4262   0.471   2.230  15.115  0.4486  1.0596  1.7245
  282MPD2     N 4263   0.113   2.358  14.851 -0.1598  0.2244  0.0659
  282MPD2    H5 4264   0.020   2.397  14.862 -0.5200 -0.3954 -0.8855
  282MPD2    N1 4265   0.142   2.455  15.313  0.3810 -0.0096  0.0428
  282MPD2    H7 4266   0.059   2.510  15.292 -0.4327 -0.7461  1.3184
  283TMC3    C1 4267   0.118   2.545  15.528 -0.2159  0.1575  0.1158
  283TMC3    C2 4268   0.158   2.645  15.613  0.0506 -0.2502  1.0774
  283TMC3    C3 4269   0.064   2.688  15.705 -0.0325  1.0258 -0.1842
  283TMC3    C4 4270   4.714   2.481  15.540 -0.0486 -0.9657  0.5757
  283TMC3    C5 4271   4.625   2.539  15.623  0.8963 -0.7106 -0.3941
  283TMC3    C6 4272   4.655   2.637  15.712  0.4197  0.3782 -0.1104
  283TMC3     C 4273   0.208   2.485  15.434  0.8696  0.0345 -0.1564
  283TMC3     O 4274   0.325   2.469  15.466  0.3073  0.2858  0.5569
  283TMC3     H 4275   0.262   2.677  15.609  0.0686 -0.3660  0.6273
  283TMC3    H1 4276   4.687   2.396  15.478 -1.8612 -1.7890  2.5143
  283TMC3    H2 4277   4.584   2.666  15.788  0.6324 -1.2711  0.7068
  283TMC3    C7 4278   4.488   2.487  15.639  0.0034  0.3051  0.4045
  283TMC3    C8 4279   0.096   2.792  15.799  0.0329 -0.0128 -0.2581
  283TMC3    O1 4280   4.414   2.542  15.720  0.2765  0.2701 -0.1920
  283TMC3    O2 4281   0.032   2.798  15.903 -0.3782  0.1267 -0.7118
  284MPD2     C 4282   3.478   1.622  12.217  0.4308 -0.5995  0.2462
  284MPD2    C1 4283   3.369   1.623  12.134 -0.3721 -0.1400  0.1389
  284MPD2    C2 4284   3.273   1.527  12.142 -0.0680 -0.0849 -0.0015
  284MPD2    C3 4285   3.275   1.432  12.236 -0.9748 -0.5880  0.0977
  284MPD2    C4 4286   3.386   1.427  12.317 -0.0158  0.1477  0.6098
  284MPD2    C5 4287   3.487   1.515  12.300 -0.0527 -1.2659 -0.3482
  284MPD2     H 4288   3.193   1.510  12.071  0.5607 -0.9050 -0.5029
  284MPD2    H1 4289   3.401   1.346  12.388 -1.2951  0.0867  0.8053
  284MPD2    H2 4290   3.566   1.685  12.205  0.1794 -0.0832  1.1065
  284MPD2    H3 4291   3.572   1.504  12.365  0.0811  0.5396 -0.2071
  284MPD2     N 4292   3.174   1.333  12.251  0.5472 -0.0500  0.1797
  284MPD2    H5 4293   3.193   1.268  12.327 -1.3988  1.5899  2.0821
  284MPD2    N1 4294   3.363   1.711  12.025 -0.1446  0.3285 -0.0200
  284MPD2    H7 4295   3.308   1.671  11.949  1.1058  0.5322 -1.0382
  285TMC3    C1 4296   3.401   1.880  11.867  0.3412  0.2217  0.3765
  285TMC3    C2 4297   3.443   1.789  11.776 -0.1489  0.1384 -0.1737
  285TMC3    C3 4298   3.412   1.804  11.642  0.2281 -0.1989 -0.2080
  285TMC3    C4 4299   3.324   1.981  11.835 -0.5624  0.7281 -0.0953
  285TMC3    C5 4300   3.290   1.994  11.703  0.0174  0.7823  0.7969
  285TMC3    C6 4301   3.323   1.904  11.606 -0.0124  0.3475  0.3285
  285TMC3     C 4302   3.408   1.844  12.011  0.1435 -0.4271 -0.2174
  285TMC3     O 4303   3.468   1.912  12.090  0.2663  0.3960 -0.2029
  285TMC3     H 4304   3.509   1.715  11.819 -1.1606 -1.5405 -1.5010
  285TMC3    H1 4305   3.306   2.053  11.914  1.4631  0.8651  0.2425
  285TMC3    H2 4306   3.307   1.909  11.499 -0.0314  0.4741  0.3372
  285TMC3    C7 4307   3.210   2.106  11.671  0.4026  0.0063  0.4661
  285TMC3    C8 4308   3.477   1.723  11.547 -0.4639 -0.5663  0.0442
  285TMC3    O1 4309   3.213   2.198  11.752  0.0284  0.4125 -0.2225
  285TMC3    O2 4310   3.420   1.714  11.441  0.0703  0.4278  0.2077
  286MPD2     C 4311   3.079   0.738   1.668 -0.0174 -0.3630 -0.8408
  286MPD2    C1 4312   3.178   0.678   1.592 -0.5040  0.1407 -0.0461
  286MPD2    C2 4313   3.298   0.641   1.650  0.2177  0.4766  0.3648
  286MPD2    C3 4314   3.326   0.660   1.782  0.0590  0.6576 -0.5235
  286MPD2    C4 4315   3.233   0.723   1.858  0.0038 -0.2626 -0.3987
  286MPD2    C5 4316   3.113   0.773   1.796  0.1131 -0.6013 -0.0766
  286MPD2     H 4317   3.370   0.603   1.577  0.0601 -0.1828  0.5511
  286MPD2    H1 4318   3.256   0.748   1.961 -1.2984 -2.0626  0.3357
  286MPD2    H2 4319   2.981   0.764   1.632 -0.7171 -0.1216  1.2272
  286MPD2    H3 4320   3.048   0.832   1.859  1.8388  0.4044  0.7716
  286MPD2     N 4321   3.450   0.614   1.831 -0.5895 -0.3143  0.2352
  286MPD2    H5 4322   3.451   0.650   1.926 -1.9198 -0.6735  0.3795
  286MPD2    N1 4323   3.158   0.652   1.452 -0.1551 -0.2537  0.5908
  286MPD2    H7 4324   3.225   0.596   1.400 -0.5835  0.0228 -0.2473
  287TMC3    C1 4325   3.665   0.499   1.840  0.6983 -0.2001 -0.2802
  287TMC3    C2 4326   3.727   0.375   1.804 -0.0742  0.1649 -0.0671
  287TMC3    C3 4327   3.845   0.355   1.870 -0.2991 -0.1599  0.2691
  287TMC3    C4 4328   3.716   0.594   1.920 -0.6374 -0.0066  0.1484
  287TMC3    C5 4329   3.834   0.561   1.980 -0.0364  0.0352  0.4654
  287TMC3    C6 4330   3.911   0.448   1.955  0.5772 -0.1429  0.9193
  287TMC3     C 4331   3.535   0.523   1.767 -0.5203  0.2663  0.5254
  287TMC3     O 4332   3.508   0.447   1.675  0.7427  0.8908 -0.3269
  287TMC3     H 4333   3.681   0.301   1.740  1.6023  1.1815 -2.4293
  287TMC3    H1 4334   3.667   0.690   1.924  0.1216  0.3886 -0.2679
  287TMC3    H2 4335   4.014   0.447   1.991  1.5146  2.8151 -1.6854
  287TMC3    C7 4336   3.917   0.679   2.012 -0.1085  0.9128  0.8329
  287TMC3    C8 4337   3.895   0.222   1.885 -0.3885 -0.2626 -0.4139
  287TMC3    O1 4338   4.037   0.674   1.988 -0.0884  0.6525  0.2006
  287TMC3    O2 4339   3.953   0.190   1.989  0.5203 -0.0209 -0.4821
  288TMC3    C1 4340   0.084   0.193  14.775 -0.0230 -0.1458  0.0333
  288TMC3    C2 4341   0.053   0.152  14.898  0.0544 -0.6225  0.5040
  288TMC3    C3 4342   0.114   0.216  15.001 -0.3896  0.4456 -0.0034
  288TMC3    C4 4343   0.167   0.303  14.752 -0.0252 -0.1259  0.0589
  288TMC3    C5 4344   0.214   0.373  14.860 -0.3023  0.5714 -0.4760
  288TMC3    C6 4345   0.187   0.327  14.988 -0.2161  0.1433 -0.6186
  288TMC3     C 4346   0.028   0.121  14.664 -0.6800 -0.7737 -0.8777
  288TMC3     O 4347   4.630   0.096  14.680  0.6496 -0.2801  0.3078
  288TMC3     H 4348   4.707   0.067  14.903 -0.2878 -0.2202  2.4789
  288TMC3    H1 4349   0.182   0.334  14.649 -1.9854  1.1454  0.1766
  288TMC3    H2 4350   0.234   0.374  15.074  2.5367 -4.7869  0.5971
  288TMC3    C7 4351   0.306   0.488  14.846  0.3467 -0.2954 -1.1889
  288TMC3    C8 4352   0.125   0.147  15.130 -0.0501  0.1451  0.1493
  288TMC3    O1 4353   0.344   0.546  14.946 -0.5969 -0.1199  0.0117
  288TMC3    O2 4354   0.185   0.196  15.222  0.7020  0.2753 -0.2611
  289MPD2     C 4355   0.485   4.024  14.995 -0.1786 -0.0156 -0.0779
  289MPD2    C1 4356   0.458   4.141  14.926  0.1227  0.0595  0.8946
  289MPD2    C2 4357   0.335   4.155  14.872  0.3397  0.0141  0.1551
  289MPD2    C3 4358   0.239   4.056  14.893 -0.1490 -0.4196  0.7176
  289MPD2    C4 4359   0.267   3.941  14.963 -0.1407  0.2574 -0.3374
  289MPD2    C5 4360   0.385   3.924  15.020 -0.4018  0.5958  0.3932
  289MPD2     H 4361   0.300   4.246  14.823 -0.9942 -0.7321 -0.2721
  289MPD2    H1 4362   0.189   3.867  14.978 -1.0134  1.1433 -0.5074
  289MPD2    H2 4363   0.583   4.015  15.040 -0.3480 -1.4687 -0.0020
  289MPD2    H3 4364   0.405   3.840  15.086  0.1399  1.4539  1.3237
  289MPD2     N 4365   0.108   4.052  14.842 -0.1622 -0.4565  0.2495
  289MPD2    H5 4366   0.041   3.983  14.874 -1.1302  0.3326 -0.0735
  289MPD2    N1 4367   0.562   4.236  14.912 -0.1188  0.4004 -0.0675
  289MPD2    H7 4368   0.646   4.233  14.968  0.9631 -1.2142 -1.7813
  290TMC3    C1 4369   4.640   4.117  14.723  0.6182  0.0575  0.2458
  290TMC3    C2 4370   4.571   4.219  14.656  0.4887  0.8462 -0.3715
  290TMC3    C3 4371   4.470   4.180  14.576  0.4849 -0.4499 -0.1228
  290TMC3    C4 4372   4.595   3.989  14.722 -0.1537 -0.0558  0.8720
  290TMC3    C5 4373   4.491   3.959  14.639 -0.0793 -0.0649 -0.6432
  290TMC3    C6 4374   4.425   4.051  14.565 -0.4925 -0.1052 -0.0398
  290TMC3     C 4375   0.052   4.147  14.766  0.4784  0.4302 -0.3798
  290TMC3     O 4376   0.104   4.237  14.700 -0.4608  0.2299  0.1352
  290TMC3     H 4377   4.612   4.320  14.659  1.0556  0.5302  2.3265
  290TMC3    H1 4378   4.644   3.912  14.781 -1.1699 -0.1767  1.5533
  290TMC3    H2 4379   4.334   4.026  14.512  0.7129 -0.2193 -2.0455
  290TMC3    C7 4380   4.442   3.827  14.635 -0.5527 -0.0967 -0.2102
  290TMC3    C8 4381   4.369   4.279  14.535 -0.1539  0.2818 -0.1030
  290TMC3    O1 4382   4.321   3.826  14.628  0.7324 -0.1682  0.2129
  290TMC3    O2 4383   4.298   4.242  14.440  0.0177 -0.1307  0.4191
  291MPD2     C 4384   4.122   4.413   0.447  0.3965  0.2564  0.0039
  291MPD2    C1 4385   4.151   4.286   0.392 -0.3616 -0.1523 -0.1168
  291MPD2    C2 4386   4.250   4.275   0.299  0.4322 -1.0805  0.1754
  291MPD2    C3 4387   4.317   4.391   0.254  0.8600 -0.4618  0.9215
  291MPD2    C4 4388   4.282   4.516   0.304 -0.1906 -0.5618 -0.0312
  291MPD2    C5 4389   4.194   4.524   0.407  0.8707 -0.2481 -0.3854
  291MPD2     H 4390   4.269   4.177   0.255 -1.0815 -0.4407 -1.9489
  291MPD2    H1 4391   4.330   4.603   0.261  0.9317 -1.5536 -0.7638
  291MPD2    H2 4392   4.048   4.410   0.526  0.6162 -0.1437  0.1990
  291MPD2    H3 4393   4.168   4.621   0.446 -2.4046 -0.4059 -2.0727
  291MPD2     N 4394   4.413   4.399   0.149 -0.1787  0.4402 -0.5621
  291MPD2    H5 4395   4.444   4.490   0.115  0.3483  0.9909  1.4117
  291MPD2    N1 4396   4.082   4.169   0.433  0.4193  0.0323 -0.1089
  291MPD2    H7 4397   4.114   4.081   0.394  2.4514  0.3758  0.8214
  292TMC3    C1 4398   3.927   4.025   0.534 -0.1515 -0.3504  0.6815
  292TMC3    C2 4399   3.803   4.007   0.575 -0.1208  0.2723  0.1623
  292TMC3    C3 4400   3.764   3.877   0.600 -0.4575 -0.3456 -0.1002
  292TMC3    C4 4401   4.025   3.931   0.535  0.4529  0.4042  0.2149
  292TMC3    C5 4402   3.991   3.799   0.573  0.1105 -0.3759 -0.1305
  292TMC3    C6 4403   3.864   3.780   0.611 -0.7375 -0.1548  0.5800
  292TMC3     C 4404   3.966   4.161   0.501 -0.2558  0.7720 -1.0367
  292TMC3     O 4405   3.888   4.251   0.525  0.2864  0.5582  0.6904
  292TMC3     H 4406   3.729   4.087   0.576 -0.2831  0.1579 -1.5450
  292TMC3    H1 4407   4.128   3.947   0.505 -0.3170  0.2296 -2.4878
  292TMC3    H2 4408   3.836   3.675   0.615  0.1157 -0.4197 -0.5091
  292TMC3    C7 4409   4.081   3.691   0.522  0.2528 -0.1714  0.0882
  292TMC3    C8 4410   3.652   3.868   0.688  0.4281  0.1323  0.9277
  292TMC3    O1 4411   4.180   3.710   0.455  0.1124  0.2975 -0.1406
  292TMC3    O2 4412   3.569   3.961   0.690 -0.1385  0.1200 -0.2411
  293MPD2     C 4413   1.653   0.270  12.657 -0.5627 -0.1949 -0.0960
  293MPD2    C1 4414   1.587   0.245  12.775 -0.3737  0.3375 -0.1328
  293MPD2    C2 4415   1.623   0.308  12.895 -0.6679 -0.3348  0.3592
  293MPD2    C3 4416   1.718   0.406  12.885  0.1658  0.3296 -0.0348
  293MPD2    C4 4417   1.783   0.433  12.766 -0.2418  0.3679 -0.4510
  293MPD2    C5 4418   1.748   0.367  12.657  0.0411  0.5436 -0.1656
  293MPD2     H 4419   1.573   0.289  12.989  0.3242 -3.4027  0.2570
  293MPD2    H1 4420   1.869   0.499  12.763  0.6608 -0.8219 -0.9609
  293MPD2    H2 4421   1.626   0.214  12.569  1.2102  0.4558 -1.0439
  293MPD2    H3 4422   1.799   0.382  12.562 -0.8249  0.4634 -0.6440
  293MPD2     N 4423   1.754   0.480  13.001  0.1628  0.6548 -0.1563
  293MPD2    H5 4424   1.707   0.435  13.079 -2.2061  2.3226 -0.6172
  293MPD2    N1 4425   1.493   0.137  12.770 -0.0529  0.2599 -0.5095
  293MPD2    H7 4426   1.491   0.083  12.684  1.5599 -1.1110  0.3403
  294TMC3    C1 4427   1.311   4.716  12.813  0.6636  0.0328  0.4680
  294TMC3    C2 4428   1.177   0.029  12.822 -0.2747  0.1445 -0.0439
  294TMC3    C3 4429   1.096   4.683  12.737 -0.1407  0.6378  0.6893
  294TMC3    C4 4430   1.361   4.623  12.731 -0.5996  0.0693  0.1665
  294TMC3    C5 4431   1.276   4.571  12.642  0.3625 -0.8885  0.5724
  294TMC3    C6 4432   1.142   4.593  12.647 -0.4537  0.3829  0.2803
  294TMC3     C 4433   1.396   0.105  12.863 -0.1691 -0.1422  0.8345
  294TMC3     O 4434   1.374   0.147  12.976 -0.5010  0.2398  0.1589
  294TMC3     H 4435   1.145   0.113  12.883  0.4359  0.7922 -0.5531
  294TMC3    H1 4436   1.469   4.607  12.729 -0.5629  0.5436 -1.8840
  294TMC3    H2 4437   1.077   4.541  12.578  1.0108 -0.5359 -0.3971
  294TMC3    C7 4438   1.318   4.553  12.500  0.6126 -0.2903 -0.2485
  294TMC3    C8 4439   0.954   4.717  12.739  0.4449  0.1160 -0.2408
  294TMC3    O1 4440   1.234   4.603  12.421 -0.0779  0.1719  0.0369
  294TMC3    O2 4441   0.916   0.034  12.852  0.1515  0.5119 -0.7074
  295MPD2     C 4442   2.872   3.383   0.903  0.6856  0.4155  0.4492
  295MPD2    C1 4443   2.761   3.357   0.833  0.0668 -0.3678 -0.1370
  295MPD2    C2 4444   2.665   3.268   0.883 -0.0572  0.2176 -0.4108
  295MPD2    C3 4445   2.680   3.212   1.008 -0.1385 -0.9824  0.7503
  295MPD2    C4 4446   2.788   3.240   1.080  0.3842 -0.1308 -0.3960
  295MPD2    C5 4447   2.883   3.327   1.027 -0.1717  0.2105  0.5322
  295MPD2     H 4448   2.567   3.261   0.838 -0.9999 -0.0125  1.6457
  295MPD2    H1 4449   2.805   3.196   1.177 -0.4430 -1.5147 -0.8838
  295MPD2    H2 4450   2.953   3.448   0.871  0.8901 -0.0338  0.0647
  295MPD2    H3 4451   2.975   3.331   1.084  1.5635  1.6104 -2.3726
  295MPD2     N 4452   2.589   3.120   1.068  0.0027 -0.5160 -0.2642
  295MPD2    H5 4453   2.600   3.093   1.165 -0.2601 -1.2814 -0.4449
  295MPD2    N1 4454   2.738   3.421   0.713 -0.0699  0.4608  0.0660
  295MPD2    H7 4455   2.647   3.400   0.673 -0.0383 -0.3737  0.4171
  296TMC3    C1 4456   2.412   2.966   1.097  0.0452 -0.3858  0.3218
  296TMC3    C2 4457   2.460   2.934   1.220 -0.4835 -0.1937 -0.0858
  296TMC3    C3 4458   2.387   2.852   1.300  0.4666  0.6510  0.0200
  296TMC3    C4 4459   2.284   2.944   1.068 -0.3176  0.3604  0.1525
  296TMC3    C5 4460   2.213   2.857   1.146 -1.0946  0.0836 -0.6264
  296TMC3    C6 4461   2.261   2.808   1.263  0.4026  0.2926 -0.2583
  296TMC3     C 4462   2.479   3.066   1.011  0.9764  0.0429  0.4089
  296TMC3     O 4463   2.434   3.081   0.897  0.0284  0.2891 -1.0554
  296TMC3     H 4464   2.567   2.944   1.237  0.0058 -2.4767 -1.7875
  296TMC3    H1 4465   2.235   2.959   0.972 -2.2595  0.8852  1.2288
  296TMC3    H2 4466   2.220   2.718   1.307 -0.3914  0.8313  0.0909
  296TMC3    C7 4467   2.083   2.827   1.106 -0.5624 -0.7335 -0.2749
  296TMC3    C8 4468   2.462   2.788   1.416  0.4224 -0.4324 -0.1260
  296TMC3    O1 4469   2.057   2.830   0.986  0.5954 -0.1523  0.0163
  296TMC3    O2 4470   2.411   2.684   1.459  0.4918  0.1372 -0.1137
  297MPD2     C 4471   3.669   1.236  16.581  0.3023 -0.0558 -0.2965
  297MPD2    C1 4472   3.669   1.270  16.450 -0.2199  0.3717 -0.0270
  297MPD2    C2 4473   3.779   1.333  16.403  0.5361 -0.0653 -0.4557
  297MPD2    C3 4474   3.873   1.394  16.489  0.4052  0.6407  0.0440
  297MPD2    C4 4475   3.865   1.370  16.626 -0.2497  0.4381 -0.5612
  297MPD2    C5 4476   3.765   1.292  16.667 -0.3735 -0.2774 -0.2070
  297MPD2     H 4477   3.773   1.360  16.298  0.2209  1.7940  0.0447
  297MPD2    H1 4478   3.921   1.421  16.704 -0.0544  0.5382 -0.7661
  297MPD2    H2 4479   3.594   1.175  16.630  0.7547  0.4726  1.0526
  297MPD2    H3 4480   3.745   1.282  16.773 -0.2071  0.5309 -0.1013
  297MPD2     N 4481   3.962   1.496  16.438  0.0593 -0.2508  0.6245
  297MPD2    H5 4482   3.956   1.513  16.338 -1.7783  0.6334  0.8939
  297MPD2    N1 4483   3.557   1.237  16.368  0.0021 -0.1140  0.0428
  297MPD2    H7 4484   3.574   1.244  16.269  2.8920  0.8018  0.5918
  298TMC3    C1 4485   3.336   1.162  16.312  0.8765  0.1285 -0.8188
  298TMC3    C2 4486   3.374   1.120  16.185 -0.5685 -0.1995  0.4395
  298TMC3    C3 4487   3.281   1.106  16.088  0.3680  0.2833  0.0901
  298TMC3    C4 4488   3.205   1.196  16.335 -0.0908 -0.3059 -0.7624
  298TMC3    C5 4489   3.116   1.194  16.230  0.2153 -1.3139  0.4562
  298TMC3    C6 4490   3.151   1.140  16.113 -0.2233  0.5156 -0.2370
  298TMC3     C 4491   3.431   1.201  16.414  0.2789  1.5395 -0.8762
  298TMC3     O 4492   3.387   1.225  16.525 -0.4056  0.3716 -0.3617
  298TMC3     H 4493   3.474   1.078  16.177 -0.8561 -0.7344 -0.4016
  298TMC3    H1 4494   3.179   1.247  16.427 -0.1158 -1.5700 -0.0653
  298TMC3    H2 4495   3.080   1.145  16.031 -1.9863  2.7289  1.4145
  298TMC3    C7 4496   3.016   1.302  16.228  0.1433  0.3248  0.0417
  298TMC3    C8 4497   3.317   1.065  15.959 -0.5818 -0.0340  0.1117
  298TMC3    O1 4498   2.976   1.348  16.336  0.0774 -0.6982  0.5407
  298TMC3    O2 4499   3.232   1.018  15.879  0.2492 -0.3939  0.0153
  299MPD2     C 4500   0.149   0.964  10.902  0.2792 -0.0558  0.6666
  299MPD2    C1 4501   0.107   1.088  10.864 -0.1942  0.1091 -0.0009
  299MPD2    C2 4502   0.018   1.101  10.759  0.0067  0.1441  0.0645
  299MPD2    C3 4503   4.683   0.993  10.699 -0.1871 -0.4603 -0.0741
  299MPD2    C4 4504   4.721   0.867  10.740 -0.2924 -0.5806 -0.2625
  299MPD2    C5 4505   0.103   0.857  10.828  0.3410 -0.2566 -0.5008
  299MPD2     H 4506   4.688   1.194  10.741 -0.5824 -0.2789 -0.4295
  299MPD2    H1 4507   4.687   0.776  10.691  0.3759 -0.2870 -1.2837
  299MPD2    H2 4508   0.221   0.948  10.981  1.0371 -0.5671 -0.1289
  299MPD2    H3 4509   0.146   0.759  10.843  0.0855 -0.2965 -0.0138
  299MPD2     N 4510   4.591   0.997  10.593 -0.0800 -0.5681  0.4779
  299MPD2    H5 4511   4.558   0.914  10.546  2.0500 -1.3823  0.3863
  299MPD2    N1 4512   0.169   1.200  10.924 -0.2090  0.0713  0.7908
  299MPD2    H7 4513   0.220   1.191  11.012  1.7428  0.0382 -0.3412
  300TMC3    C1 4514   4.421   1.095  10.456 -0.7527  0.1479  0.2923
  300TMC3    C2 4515   4.377   1.203  10.394  0.2027  0.4223 -0.0662
  300TMC3    C3 4516   4.246   1.210  10.346  0.3641 -0.1474 -0.0733
  300TMC3    C4 4517   4.333   0.984  10.483 -0.1465 -0.0758 -1.0741
  300TMC3    C5 4518   4.203   0.998  10.436 -0.6530  0.2642  0.1248
  300TMC3    C6 4519   4.166   1.100  10.358  0.6799  0.1006 -0.3561
  300TMC3     C 4520   4.546   1.110  10.528  0.1493  1.0463 -0.2245
  300TMC3     O 4521   4.594   1.222  10.525  0.3636 -0.1753  0.0943
  300TMC3     H 4522   4.442   1.287  10.373 -0.4947  0.6175 -1.4572
  300TMC3    H1 4523   4.355   0.903  10.551 -0.2477  2.2208  1.6870
  300TMC3    H2 4524   4.063   1.105  10.324  0.5011  1.8817  0.4283
  300TMC3    C7 4525   4.110   0.952  10.535  0.6466  0.2825 -0.1921
  300TMC3    C8 4526   4.178   1.334  10.343 -1.2680  0.0084 -0.1457
  300TMC3    O1 4527   4.128   0.967  10.652 -0.3669  0.1252 -0.1063
  300TMC3    O2 4528   4.091   1.344  10.258  0.2753  0.6884 -0.0744
  301MPD2     C 4529   1.536   1.665   1.720  0.5354  0.6037  0.3754
  301MPD2    C1 4530   1.605   1.767   1.664 -0.7928  0.7795  0.0475
  301MPD2    C2 4531   1.740   1.746   1.633  0.0086 -0.1783 -0.7936
  301MPD2    C3 4532   1.789   1.619   1.655  0.5097  0.0470 -0.8937
  301MPD2    C4 4533   1.722   1.515   1.721 -0.4009  0.1143 -1.1347
  301MPD2    C5 4534   1.590   1.539   1.743 -0.1602 -0.2231  0.0721
  301MPD2     H 4535   1.789   1.822   1.575  0.9587 -1.9380 -2.3061
  301MPD2    H1 4536   1.766   1.418   1.742 -0.4007  0.5483  0.9203
  301MPD2    H2 4537   1.432   1.686   1.741  0.0097  0.2827 -1.8846
  301MPD2    H3 4538   1.523   1.469   1.790 -1.7740  1.0847 -0.2639
  301MPD2     N 4539   1.919   1.593   1.608  0.4954  0.2978 -0.2080
  301MPD2    H5 4540   1.958   1.500   1.619  1.1258  0.5585 -0.2415
  301MPD2    N1 4541   1.558   1.899   1.640  0.2958 -0.1486  0.0828
  301MPD2    H7 4542   1.629   1.957   1.595 -0.4938 -0.3453 -1.4332
  302TMC3    C1 4543   2.103   1.601   1.471  0.1407  0.3487  0.1155
  302TMC3    C2 4544   2.160   1.494   1.538  0.7127 -0.8723 -0.2630
  302TMC3    C3 4545   2.284   1.458   1.497  0.4489  0.3537  0.2145
  302TMC3    C4 4546   2.160   1.667   1.361  0.1088  0.1602 -0.4101
  302TMC3    C5 4547   2.288   1.628   1.326 -1.0364 -0.3934  0.3485
  302TMC3    C6 4548   2.355   1.522   1.396 -0.4023 -0.7083 -0.0338
  302TMC3     C 4549   1.993   1.672   1.525  0.3511 -0.0731  0.3178
  302TMC3     O 4550   1.973   1.779   1.470  0.5647 -0.0159 -0.0143
  302TMC3     H 4551   2.112   1.426   1.607 -0.0963 -1.3576 -1.3055
  302TMC3    H1 4552   2.114   1.746   1.303 -2.2933 -0.4055  0.7219
  302TMC3    H2 4553   2.457   1.497   1.370 -0.1022 -0.4320  0.8532
  302TMC3    C7 4554   2.360   1.661   1.202 -0.0395 -0.3452 -0.7323
  302TMC3    C8 4555   2.330   1.322   1.492 -0.1430 -0.2928 -0.1801
  302TMC3    O1 4556   2.439   1.578   1.154 -0.3710 -0.2030 -0.3291
  302TMC3    O2 4557   2.359   1.283   1.376 -0.0719  0.5253 -0.4026
  303MPD2     C 4558   2.598   0.528   9.795  0.6800  0.7264  0.2754
  303MPD2    C1 4559   2.632   0.448   9.900  0.1297 -0.0121  0.4178
  303MPD2    C2 4560   2.634   0.499  10.029  0.5242 -0.5563  0.0604
  303MPD2    C3 4561   2.575   0.623  10.047  0.1831  0.7135 -0.1551
  303MPD2    C4 4562   2.535   0.697   9.940  0.1662 -0.5324 -0.8590
  303MPD2    C5 4563   2.553   0.658   9.813 -0.0345 -0.2831 -0.3780
  303MPD2     H 4564   2.673   0.449  10.117 -1.1182 -2.6497 -0.3979
  303MPD2    H1 4565   2.492   0.793   9.965  2.1837  0.2241 -0.2868
  303MPD2    H2 4566   2.610   0.494   9.693 -1.6392  0.2076  0.1777
  303MPD2    H3 4567   2.533   0.727   9.732 -1.2386 -0.5305 -0.2984
  303MPD2     N 4568   2.547   0.674  10.175  0.0312 -0.2438 -0.3380
  303MPD2    H5 4569   2.498   0.762  10.187 -0.0472 -0.1267 -1.5277
  303MPD2    N1 4570   2.685   0.321   9.870  0.0345 -0.4280  0.7413
  303MPD2    H7 4571   2.677   0.285   9.775 -0.0669  0.9499  0.2280
  304TMC3    C1 4572   2.747   0.102   9.913 -0.8055 -0.8725 -0.2700
  304TMC3    C2 4573   2.826   0.024   9.990  0.5073 -0.3566  0.4676
  304TMC3    C3 4574   2.794   4.616  10.008 -0.4180 -0.5939  0.3738
  304TMC3    C4 4575   2.623   0.051   9.873 -0.1257 -0.9213 -0.1861
  304TMC3    C5 4576   2.596   4.636   9.888 -0.1335  0.7803 -0.1224
  304TMC3    C6 4577   2.685   4.557   9.952  0.7467  0.2053 -0.5020
  304TMC3     C 4578   2.740   0.235   9.965 -0.4932 -0.3688  0.2377
  304TMC3     O 4579   2.791   0.261  10.075  0.0521 -0.5554  0.6429
  304TMC3     H 4580   2.920   0.060  10.030  0.6003 -1.7517  1.5078
  304TMC3    H1 4581   2.555   0.110   9.813 -1.1442  1.1412  2.9512
  304TMC3    H2 4582   2.661   4.452   9.965 -2.8129  1.2206  1.1384
  304TMC3    C7 4583   2.465   4.628   9.958 -0.5488 -0.5385  0.6013
  304TMC3    C8 4584   2.833   4.574  10.144 -0.4636 -0.0190  0.4629
  304TMC3    O1 4585   2.479   4.574  10.066  0.1130 -0.0335  0.1759
  304TMC3    O2 4586   2.944   4.617  10.184  0.5770 -0.3345 -0.0682
  305MPD2     C 4587   0.432   2.761  14.021 -0.2771 -0.1806 -0.2066
  305MPD2    C1 4588   0.409   2.625  14.048 -0.3115 -0.7747 -0.4494
  305MPD2    C2 4589   0.416   2.535  13.946 -0.0081  0.0875 -0.3536
  305MPD2    C3 4590   0.453   2.581  13.822  0.0997  0.1282  0.4501
  305MPD2    C4 4591   0.497   2.707  13.796  0.0781  0.5967 -0.4254
  305MPD2    C5 4592   0.482   2.798  13.897 -0.1371  0.0105 -1.2399
  305MPD2     H 4593   0.384   2.431  13.955  1.3157 -0.2150  0.9231
  305MPD2    H1 4594   0.541   2.735  13.702 -0.3904 -2.4470 -1.5454
  305MPD2    H2 4595   0.429   2.832  14.102 -1.9027 -1.0578  0.5145
  305MPD2    H3 4596   0.508   2.901  13.878  3.7486 -1.3989 -3.4947
  305MPD2     N 4597   0.463   2.489  13.713  0.1808  0.3729 -0.2348
  305MPD2    H5 4598   0.502   2.526  13.626  0.7586  1.2489  0.3920
  305MPD2    N1 4599   0.387   2.581  14.186  0.1918 -0.1679 -0.2994
  305MPD2    H7 4600   0.407   2.654  14.254  0.6134 -0.5199 -0.0420
  306TMC3    C1 4601   0.387   2.462  14.378  0.1847  0.2225  0.0258
  306TMC3    C2 4602   0.477   2.382  14.441 -0.0794  0.4853 -0.6360
  306TMC3    C3 4603   0.495   2.410  14.578 -0.8128  0.9507  0.2032
  306TMC3    C4 4604   0.314   2.568  14.430  0.1346  0.2958 -0.4024
  306TMC3    C5 4605   0.338   2.585  14.563  0.6439 -0.1842  0.1425
  306TMC3    C6 4606   0.419   2.507  14.641 -0.8488 -0.2368  0.5526
  306TMC3     C 4607   0.383   2.453  14.232  0.1926  0.2395  0.5604
  306TMC3     O 4608   0.399   2.343  14.177 -0.1168 -0.4138 -0.0600
  306TMC3     H 4609   0.546   2.329  14.377 -0.8224 -1.7670  0.4123
  306TMC3    H1 4610   0.238   2.625  14.378  0.6787  2.1239  0.8038
  306TMC3    H2 4611   0.434   2.532  14.745 -0.1560 -2.2869  0.9575
  306TMC3    C7 4612   0.260   2.687  14.627 -0.4147 -0.3488 -0.2025
  306TMC3    C8 4613   0.581   2.320  14.654 -0.0064 -0.1992  0.1370
  306TMC3    O1 4614   0.150   2.714  14.577  0.1733 -0.1336 -0.2989
  306TMC3    O2 4615   0.620   2.215  14.599  0.3025 -0.1445 -0.0111
  307MPD2     C 4616   2.741   4.655   0.557 -0.7557  0.0313 -0.2043
  307MPD2    C1 4617   2.718   0.063   0.583 -0.6082  1.2183  0.1262
  307MPD2    C2 4618   2.616   0.093   0.667 -0.0274  0.2936 -0.6066
  307MPD2    C3 4619   2.532   4.711   0.712  0.8199 -0.2301 -0.0289
  307MPD2    C4 4620   2.548   4.573   0.680  0.3556  1.1196 -0.1968
  307MPD2    C5 4621   2.659   4.553   0.602 -0.4083 -0.2295  0.2080
  307MPD2     H 4622   2.596   0.195   0.698 -0.0795  0.2135 -0.3740
  307MPD2    H1 4623   2.477   4.497   0.711  1.2692  0.3183 -0.0407
  307MPD2    H2 4624   2.824   4.619   0.498  0.7840  0.3401  1.7728
  307MPD2    H3 4625   2.683   4.453   0.568  1.7383  1.2017 -2.4855
  307MPD2     N 4626   2.429   0.034   0.794  0.4379 -0.3559  0.4743
  307MPD2    H5 4627   2.437   0.125   0.839  0.2409  0.6117 -1.4197
  307MPD2    N1 4628   2.788   0.172   0.521  0.2117  0.1701  0.7460
  307MPD2    H7 4629   2.764   0.267   0.547  0.9183  0.9123 -1.4071
  308TMC3    C1 4630   2.030   4.716   1.060 -0.6339 -0.0684  0.1587
  308TMC3    C2 4631   2.086   0.067   1.166  0.0391 -0.1555  0.6127
  308TMC3    C3 4632   2.217   0.111   1.153 -0.0768 -1.0121  0.4519
  308TMC3    C4 4633   2.102   4.696   0.943  0.6506  0.5285 -0.6008
  308TMC3    C5 4634   2.232   0.020   0.931 -0.1039 -1.0094 -0.4497
  308TMC3    C6 4635   2.285   0.091   1.029  0.1548  0.3321  0.8156
  308TMC3     C 4636   1.888   0.002   1.039  0.5678  0.1547  0.2120
  308TMC3     O 4637   1.835   4.614   1.021  0.1209  0.2289 -0.0161
  308TMC3     H 4638   2.036   0.086   1.261  0.0246 -0.1935  0.6127
  308TMC3    H1 4639   2.050   4.658   0.856 -0.6095  2.0003 -0.4916
  308TMC3    H2 4640   2.382   0.139   1.017  1.0461 -2.0688 -1.4643
  308TMC3    C7 4641   2.319   4.679   0.830  0.0206 -0.3284  0.0010
  308TMC3    C8 4642   2.267   0.210   1.253 -0.2672  0.0975  0.1751
  308TMC3    O1 4643   2.261   4.582   0.780 -0.2246 -0.1247  0.2877
  308TMC3    O2 4644   2.235   0.185   1.366  0.1695 -0.1566  0.3834
  309MPD2     C 4645   1.749   0.871  17.525  0.2698 -0.0191 -0.1794
  309MPD2    C1 4646   1.651   0.835  17.433 -0.8030  0.3463 -0.0931
  309MPD2    C2 4647   1.529   0.899  17.436 -0.5625 -0.2533  0.0428
  309MPD2    C3 4648   1.506   0.996  17.538  0.1884 -0.1190  0.4325
  309MPD2    C4 4649   1.608   1.031  17.626 -0.4494  0.4289  0.3160
  309MPD2    C5 4650   1.722   0.962  17.625 -0.4394 -0.4335 -0.5790
  309MPD2     H 4651   1.446   0.869  17.374 -0.1657 -0.2897 -0.4769
  309MPD2    H1 4652   1.594   1.103   0.018 -3.6374  1.6368 -1.3216
  309MPD2    H2 4653   1.848   0.827  17.535  0.7790  1.2195  0.2067
  309MPD2    H3 4654   1.809   0.978  17.689 -0.0171  0.9762 -1.5061
  309MPD2     N 4655   1.388   1.070  17.549  1.1190  0.4470  0.3883
  309MPD2    H5 4656   1.384   1.141  17.622 -2.7442  2.4024 -1.7365
  309MPD2    N1 4657   1.671   0.736  17.332 -0.2128  0.7496 -0.2863
  309MPD2    H7 4658   1.596   0.732  17.264  1.4735  0.2358 -2.1130
  310TMC3    C1 4659   1.805   0.607  17.176 -0.4436 -0.1516 -0.6341
  310TMC3    C2 4660   1.769   0.673  17.065  0.4486  0.2919 -0.3220
  310TMC3    C3 4661   1.808   0.622  16.944  0.2361  0.0373 -0.6034
  310TMC3    C4 4662   1.890   0.500  17.179  0.4532 -0.6922 -0.2504
  310TMC3    C5 4663   1.938   0.453  17.056 -0.0022 -0.0514 -0.1507
  310TMC3    C6 4664   1.899   0.517  16.937 -0.0606  0.0056 -0.8510
  310TMC3     C 4665   1.790   0.666  17.311  0.7956  0.1699 -1.0325
  310TMC3     O 4666   1.875   0.634  17.395 -0.8272 -0.0973 -0.3275
  310TMC3     H 4667   1.699   0.755  17.070  0.0829  0.0599 -1.7405
  310TMC3    H1 4668   1.932   0.465  17.273  0.4721 -2.1142 -0.7974
  310TMC3    H2 4669   1.933   0.478  16.841 -1.7481 -0.4139 -1.2805
  310TMC3    C7 4670   2.057   0.374  17.058 -0.2865 -1.3610  0.1875
  310TMC3    C8 4671   1.789   0.719  16.838  0.8749  0.2763 -0.2941
  310TMC3    O1 4672   2.114   0.362  16.952 -0.3403 -0.6190 -0.0536
  310TMC3    O2 4673   1.694   0.799  16.837  0.3154  0.2308  0.0301
  311MPD2     C 4674   4.193   2.203  12.991 -0.0820  0.6008 -0.0959
  311MPD2    C1 4675   4.137   2.305  12.918 -0.3375  0.3849 -0.4293
  311MPD2    C2 4676   4.021   2.281  12.844  0.0712 -0.0979 -0.6874
  311MPD2    C3 4677   3.967   2.154  12.855  0.4993  0.0569  0.8515
  311MPD2    C4 4678   4.028   2.058  12.934  0.1101  0.0083 -0.5100
  311MPD2    C5 4679   4.140   2.079  12.996  0.1491  0.6094  0.1200
  311MPD2     H 4680   3.973   2.367  12.799  0.7331  0.3829 -0.4723
  311MPD2    H1 4681   3.987   1.958  12.939  1.4470 -0.6419 -2.4274
  311MPD2    H2 4682   4.281   2.223  13.051 -0.7292 -0.5862  1.2461
  311MPD2    H3 4683   4.181   1.993  13.048  0.8128  1.8815  1.6859
  311MPD2     N 4684   3.837   2.133  12.806  0.1697 -0.0560 -0.1465
  311MPD2    H5 4685   3.789   2.211  12.763 -0.5447 -0.4451 -0.0587
  311MPD2    N1 4686   4.185   2.441  12.919  0.7422  0.4120 -0.1039
  311MPD2    H7 4687   4.132   2.510  12.866  0.7103 -0.1163 -0.7700
  312TMC3    C1 4688   3.619   2.076  12.854 -0.0411 -0.0443  0.6981
  312TMC3    C2 4689   3.514   1.998  12.815 -0.6290 -0.3298  0.1574
  312TMC3    C3 4690   3.389   2.042  12.858  0.2782 -0.3681 -0.1118
  312TMC3    C4 4691   3.609   2.186  12.944 -0.7013  0.2753  0.1258
  312TMC3    C5 4692   3.481   2.226  12.969 -0.2696 -0.2322 -1.0275
  312TMC3    C6 4693   3.373   2.157  12.920  0.5139 -0.0767  0.4987
  312TMC3     C 4694   3.755   2.023  12.829  0.0595 -0.3885 -0.4791
  312TMC3     O 4695   3.788   1.903  12.832  0.2942 -0.4365  0.9299
  312TMC3     H 4696   3.519   1.905  12.760  1.1023 -0.1416 -0.0290
  312TMC3    H1 4697   3.695   2.252  12.955 -0.0039 -0.1367 -2.7110
  312TMC3    H2 4698   3.279   2.195  12.959 -0.7809 -1.1698 -1.5883
  312TMC3    C7 4699   3.450   2.342  13.056  0.4655  0.1776  0.3361
  312TMC3    C8 4700   3.277   1.982  12.799  0.4910  0.5407 -0.5982
  312TMC3    O1 4701   3.342   2.397  13.044 -0.0155 -0.2515 -0.0689
  312TMC3    O2 4702   3.278   1.859  12.776  0.0844 -0.4150 -0.4669
  313MPD2     C 4703   3.612   2.020  11.361  0.2327  0.6866 -0.1467
  313MPD2    C1 4704   3.580   2.075  11.238 -0.2670  0.1453 -0.3667
  313MPD2    C2 4705   3.647   2.025  11.126  0.7431  0.9111 -0.3779
  313MPD2    C3 4706   3.747   1.930  11.143  0.0367 -0.1342  0.1651
  313MPD2    C4 4707   3.783   1.880  11.268 -0.0404 -0.2701 -0.0262
  313MPD2    C5 4708   3.716   1.927  11.380  0.0768 -0.0019  0.4431
  313MPD2     H 4709   3.612   2.055  11.028 -3.2939  1.9708  1.3833
  313MPD2    H1 4710   3.865   1.810  11.282  0.4601  0.1564 -0.7910
  313MPD2    H2 4711   3.549   2.047  11.446 -2.5898  0.0482 -2.0448
  313MPD2    H3 4712   3.743   1.892  11.479 -0.6389 -2.1333 -0.1258
  313MPD2     N 4713   3.821   1.869  11.041  0.1913  0.0090  0.3901
  313MPD2    H5 4714   3.894   1.804  11.067  1.9001  1.1404 -1.5545
  313MPD2    N1 4715   3.490   2.182  11.221 -0.2095  0.1944  0.2363
  313MPD2    H7 4716   3.485   2.228  11.131  1.1889  0.8697  0.4896
  314TMC3    C1 4717   3.368   2.377  11.284  0.4428 -0.1900 -0.3099
  314TMC3    C2 4718   3.434   2.495  11.319 -0.4841 -0.2318 -0.4852
  314TMC3    C3 4719   3.425   2.600  11.231  0.0102  0.1517 -0.1204
  314TMC3    C4 4720   3.288   2.373  11.174  0.1009  0.4930 -0.5795
  314TMC3    C5 4721   3.283   2.477  11.089 -0.7062 -0.2056 -0.3750
  314TMC3    C6 4722   3.354   2.591  11.108 -0.9472  0.5511 -0.1517
  314TMC3     C 4723   3.419   2.245  11.324 -0.6478  0.0013  0.2461
  314TMC3     O 4724   3.430   2.225  11.445 -0.2464 -0.0584 -0.4758
  314TMC3     H 4725   3.504   2.483  11.400 -0.5526 -0.5801 -0.4754
  314TMC3    H1 4726   3.239   2.281  11.145  2.0390 -1.0469  1.1135
  314TMC3    H2 4727   3.351   2.669  11.033 -0.5505 -1.3467 -2.1029
  314TMC3    C7 4728   3.224   2.436  10.963  0.0315 -0.0615 -0.4344
  314TMC3    C8 4729   3.516   2.712  11.252 -0.7986  0.1499  0.5717
  314TMC3    O1 4730   3.122   2.367  10.966 -0.0696  0.3768  0.2505
  314TMC3    O2 4731   3.533   2.779  11.153 -0.5744 -0.5454  0.2928
  315MPD2     C 4732   2.831   1.005  17.595 -0.5255  0.5490  0.0287
  315MPD2    C1 4733   2.957   1.059  17.635 -0.0771  0.7837 -0.0963
  315MPD2    C2 4734   2.987   1.186  17.601 -0.8374  0.1599 -0.2111
  315MPD2    C3 4735   2.904   1.258  17.513 -0.7482  0.3988  0.5118
  315MPD2    C4 4736   2.792   1.197  17.466 -0.2340  0.9236  0.8787
  315MPD2    C5 4737   2.749   1.081  17.522  0.9436  0.8142 -0.3383
  315MPD2     H 4738   3.077   1.235  17.636  0.1520 -1.8999  0.1217
  315MPD2    H1 4739   2.726   1.243  17.393  0.1790  1.4038  0.8077
  315MPD2    H2 4740   2.799   0.903  17.611 -4.6733  2.1299  1.8078
  315MPD2    H3 4741   2.657   1.038  17.484  1.2894 -1.0191  0.8802
  315MPD2     N 4742   2.946   1.388  17.470  0.1077 -0.6917 -0.1936
  315MPD2    H5 4743   3.015   1.440  17.522 -1.1524  0.9896 -0.2139
  315MPD2    N1 4744   3.057   0.996   0.026 -0.0136  0.1934 -0.2087
  315MPD2    H7 4745   3.146   1.044   0.038  1.0817 -1.6017 -1.0625
  316TMC3    C1 4746   2.965   1.566  17.326  0.2358  0.2347 -0.7310
  316TMC3    C2 4747   3.087   1.587  17.377 -0.0926  0.0180 -0.8050
  316TMC3    C3 4748   3.142   1.706  17.347  0.5112 -0.5624  0.4334
  316TMC3    C4 4749   2.897   1.660  17.253  0.2676 -0.8507  0.2003
  316TMC3    C5 4750   2.959   1.777  17.212 -0.4779  0.3310 -0.1249
  316TMC3    C6 4751   3.087   1.798  17.264  0.0100 -0.4801  0.9084
  316TMC3     C 4752   2.894   1.450  17.360 -0.1651 -0.1496 -0.9834
  316TMC3     O 4753   2.808   1.426  17.278 -0.6252  0.2474  0.6174
  316TMC3     H 4754   3.142   1.508  17.426 -3.4470 -2.3661 -0.9133
  316TMC3    H1 4755   2.793   1.644  17.229 -0.5428  1.6045  1.9807
  316TMC3    H2 4756   3.137   1.894  17.264  3.1753 -2.1275 -2.7233
  316TMC3    C7 4757   2.885   1.885  17.156  0.2699  0.4889  0.4532
  316TMC3    C8 4758   3.275   1.733  17.394 -0.3780 -0.1871  0.5032
  316TMC3    O1 4759   2.914   1.998  17.195  0.2855  0.0964 -0.8210
  316TMC3    O2 4760   3.332   1.814  17.320  0.1760 -0.0738 -0.5499
  317MPD2     C 4761   0.413   4.124  13.197 -1.0240 -0.3888  0.1463
  317MPD2    C1 4762   0.510   4.038  13.149  0.2693 -0.0107 -0.4350
  317MPD2    C2 4763   0.608   3.993  13.235 -0.5328 -0.0834  0.0607
  317MPD2    C3 4764   0.601   4.013  13.369 -0.6894 -0.4396 -0.8677
  317MPD2    C4 4765   0.489   4.077  13.416  0.3061 -0.2985  0.5299
  317MPD2    C5 4766   0.394   4.122  13.328 -0.3066 -0.4566  0.5623
  317MPD2     H 4767   0.704   3.955  13.202 -0.6912  0.1224 -0.6193
  317MPD2    H1 4768   0.469   4.099  13.520 -0.9989 -0.9505  0.4150
  317MPD2    H2 4769   0.327   4.154  13.136  0.0596 -0.7130 -1.5470
  317MPD2    H3 4770   0.310   4.178  13.367 -0.9085 -0.1458 -1.1844
  317MPD2     N 4771   0.698   3.944  13.450  0.1110  0.0582  0.4176
  317MPD2    H5 4772   0.776   3.896  13.406 -0.4375  0.0031 -0.4979
  317MPD2    N1 4773   0.515   3.992  13.015  0.0256 -0.2515  0.2899
  317MPD2    H7 4774   0.600   3.938  12.998  0.5905  0.9300 -0.6568
  318TMC3    C1 4775   0.788   3.836  13.629  0.2443 -0.1846  0.9093
  318TMC3    C2 4776   0.742   3.732  13.701 -1.0438  0.2037  0.0226
  318TMC3    C3 4777   0.806   3.617  13.699 -0.8233  0.5807 -0.0831
  318TMC3    C4 4778   0.911   3.828  13.560  0.5773  0.2890 -0.3455
  318TMC3    C5 4779   0.989   3.719  13.582 -0.4725 -0.0902 -0.0116
  318TMC3    C6 4780   0.930   3.610  13.642  0.0026  0.8127 -0.4763
  318TMC3     C 4781   0.691   3.937  13.585 -0.1536 -0.3450  0.1503
  318TMC3     O 4782   0.629   3.995  13.672  0.4945  0.3367 -0.2734
  318TMC3     H 4783   0.650   3.741  13.758 -0.0617  0.0583  1.6479
  318TMC3    H1 4784   0.943   3.917  13.508 -0.4712  0.5034 -0.6105
  318TMC3    H2 4785   0.977   3.512  13.636 -0.9339  0.3472 -0.1454
  318TMC3    C7 4786   1.088   3.688  13.480 -0.7753 -0.5447  0.2077
  318TMC3    C8 4787   0.726   3.510  13.668  0.1576 -0.0837  0.1638
  318TMC3    O1 4788   1.084   3.761  13.379  0.1562 -0.0182 -0.3824
  318TMC3    O2 4789   0.780   3.402  13.674 -0.3968  0.1086 -0.7316
  319MPD2     C 4790   1.610   0.343  17.112  0.3214 -0.4830  0.4531
  319MPD2    C1 4791   1.488   0.359  17.174  0.9866  0.2606  0.1326
  319MPD2    C2 4792   1.377   0.379  17.098 -0.0490  0.1262 -0.5692
  319MPD2    C3 4793   1.385   0.357  16.957 -0.7122 -0.6869  0.0694
  319MPD2    C4 4794   1.503   0.322  16.894  0.3336 -0.2510 -0.4247
  319MPD2    C5 4795   1.614   0.324  16.977  0.2684 -0.8027  0.1871
  319MPD2     H 4796   1.284   0.398  17.150  0.1581 -1.4499  0.3710
  319MPD2    H1 4797   1.501   0.313  16.786 -1.3078  1.3518 -0.5175
  319MPD2    H2 4798   1.705   0.329  17.162  0.1199 -1.2031  0.6244
  319MPD2    H3 4799   1.711   0.301  16.935  0.1800 -1.3100  0.2574
  319MPD2     N 4800   1.272   0.356  16.873 -0.1492 -0.0180  0.6047
  319MPD2    H5 4801   1.285   0.333  16.775  0.4688  1.1531  0.4143
  319MPD2    N1 4802   1.467   0.361  17.315 -0.4332 -0.0281  0.2882
  319MPD2    H7 4803   1.370   0.362  17.344  0.3636 -1.2841  3.0038
  320TMC3    C1 4804   1.049   0.355  16.801 -0.5866 -0.4743 -0.1854
  320TMC3    C2 4805   0.953   0.447  16.774 -0.0819  0.0077  0.7587
  320TMC3    C3 4806   0.896   0.442  16.648  0.7291  0.1272 -0.4986
  320TMC3    C4 4807   1.079   0.248  16.715  0.3424 -0.2065  0.2411
  320TMC3    C5 4808   1.015   0.255  16.589 -0.2280 -0.4544  0.3479
  320TMC3    C6 4809   0.930   0.353  16.552  0.1505 -0.3234  0.2135
  320TMC3     C 4810   1.141   0.376  16.915 -0.2078  0.4808 -1.1814
  320TMC3     O 4811   1.099   0.430  17.014 -0.3825  0.6024 -0.7639
  320TMC3     H 4812   0.930   0.532  16.837  0.5657 -2.0674  3.7752
  320TMC3    H1 4813   1.152   0.172  16.739 -0.8712 -1.5507 -0.3427
  320TMC3    H2 4814   0.891   0.345  16.451 -0.0237  3.0403  0.0313
  320TMC3    C7 4815   1.011   0.133  16.519 -0.1298  0.6625 -0.7698
  320TMC3    C8 4816   0.819   0.563  16.619 -0.3053  0.5481 -0.5517
  320TMC3    O1 4817   1.008   0.148  16.399  0.4433  0.2916 -0.1997
  320TMC3    O2 4818   0.747   0.608  16.710  0.2726 -0.0540  0.1571
  321TMC3    C1 4819   1.500   0.309  17.537 -0.7511 -0.8902 -0.2331
  321TMC3    C2 4820   1.420   0.202  17.536  0.2462  0.2250  0.3808
  321TMC3    C3 4821   1.400   0.141  17.653  0.1438 -1.3165  0.5855
  321TMC3    C4 4822   1.557   0.372  17.648 -0.6452 -0.5362 -0.3068
  321TMC3    C5 4823   1.519   0.315   0.075  0.0421 -0.0533 -0.2748
  321TMC3    C6 4824   1.429   0.217   0.083 -0.3246 -0.4940  0.2928
  321TMC3     C 4825   1.564   0.345  17.411  0.1560  1.0580  0.2875
  321TMC3     O 4826   1.685   0.344  17.394  0.0253  0.2778 -0.5354
  321TMC3     H 4827   1.401   0.145  17.446 -0.2487  1.0306 -0.0234
  321TMC3    H1 4828   1.637   0.446  17.645 -1.2938  0.1549 -0.5007
  321TMC3    H2 4829   1.381   0.185   0.175 -1.2254  2.4493  0.8533
  321TMC3    C7 4830   1.610   0.298   0.179  0.4662 -0.5964 -0.4986
  321TMC3    C8 4831   1.431   0.001  17.653  0.5019 -0.2475  0.3978
  321TMC3    O1 4832   1.615   0.187   0.228 -0.1690 -0.0867  0.3428
  321TMC3    O2 4833   1.416   4.671  17.546  0.1075 -0.4207 -0.0335
  322MPD2     C 4834   0.129   1.724  13.782  0.3723  0.1822 -0.0877
  322MPD2    C1 4835   0.116   1.699  13.917  0.6872  1.2558 -0.1853
  322MPD2    C2 4836   0.089   1.571  13.959  0.0238  0.0722 -0.0362
  322MPD2    C3 4837   0.059   1.472  13.863 -0.2121 -0.4329 -0.2812
  322MPD2    C4 4838   0.072   1.496  13.726  0.4500  0.3478 -0.0291
  322MPD2    C5 4839   0.114   1.624  13.690  0.7119  0.0463  0.6942
  322MPD2     H 4840   0.096   1.549  14.065  0.3978 -1.0991 -0.3039
  322MPD2    H1 4841   0.031   1.432  13.649  1.2998 -0.8223  0.4785
  322MPD2    H2 4842   0.163   1.821  13.747 -0.8758  1.8805  3.3718
  322MPD2    H3 4843   0.117   1.651  13.585 -1.8569  0.2594  0.6736
  322MPD2     N 4844   0.049   1.336  13.908 -0.3399  0.3775  0.6577
  322MPD2    H5 4845   0.045   1.314  14.007 -0.5819 -1.9814  0.1185
  322MPD2    N1 4846   0.142   1.811  14.002 -1.1479  0.2283  0.0929
  322MPD2    H7 4847   0.167   1.903  13.968 -0.8381  0.2963  0.4995
  323TMC3    C1 4848   0.193   1.901  14.222  0.2730 -0.8344 -0.4958
  323TMC3    C2 4849   0.293   1.976  14.167 -0.5871 -0.1787  0.4092
  323TMC3    C3 4850   0.367   2.049  14.257  0.5733 -1.1303  0.1115
  323TMC3    C4 4851   0.162   1.910  14.359 -0.6059 -1.0914  0.2941
  323TMC3    C5 4852   0.241   1.976  14.445  0.2273 -0.2932  0.2596
  323TMC3    C6 4853   0.343   2.051  14.393  0.2464 -0.3575  0.6700
  323TMC3     C 4854   0.125   1.803  14.142  0.1656 -0.0152 -0.3921
  323TMC3     O 4855   0.052   1.722  14.199  0.4170 -0.0793  0.3365
  323TMC3     H 4856   0.336   1.958  14.069  2.1113  0.3040  1.4963
  323TMC3    H1 4857   0.079   1.847  14.389 -1.8259  0.8488  1.0111
  323TMC3    H2 4858   0.414   2.100  14.459  0.0125  0.4318  0.3382
  323TMC3    C7 4859   0.251   1.919  14.576 -0.1221  0.1186  0.3429
  323TMC3    C8 4860   0.512   2.042  14.227 -0.0642 -0.3293 -0.2071
  323TMC3    O1 4861   0.183   1.822  14.598  0.0376 -0.0032  0.0424
  323TMC3    O2 4862   0.586   2.014  14.318  0.1496  0.3867  0.1665
  324MPD2     C 4863   1.934   2.722  14.445  0.4314 -0.1520 -0.3295
  324MPD2    C1 4864   1.949   2.858  14.451 -0.4053 -0.1178 -0.2719
  324MPD2    C2 4865   1.869   2.933  14.375 -0.5255 -0.3622  0.0882
  324MPD2    C3 4866   1.786   2.873  14.285 -0.7868  0.1184 -0.0892
  324MPD2    C4 4867   1.771   2.736  14.285  0.9991  0.5940 -0.3349
  324MPD2    C5 4868   1.852   2.660  14.360  0.1382  0.4486 -1.0378
  324MPD2     H 4869   1.880   3.040  14.389  3.2622 -0.6299 -0.7946
  324MPD2    H1 4870   1.693   2.694  14.222 -0.7224  0.0193  2.1824
  324MPD2    H2 4871   1.988   2.655  14.511 -0.0409  0.6934  0.9276
  324MPD2    H3 4872   1.841   2.553  14.349 -2.3031  0.4018  1.8829
  324MPD2     N 4873   1.699   2.951  14.207  0.0635 -0.6892 -0.5973
  324MPD2    H5 4874   1.615   2.899  14.183 -0.1586 -1.4970  1.8585
  324MPD2    N1 4875   2.030   2.924  14.547 -0.1958  0.3636  0.3918
  324MPD2    H7 4876   2.045   3.025  14.541  1.3356  0.3088  3.1395
  325TMC3    C1 4877   1.582   3.148  14.153 -0.0076  0.2593 -0.2618
  325TMC3    C2 4878   1.471   3.111  14.221  0.3346 -0.2158  0.3714
  325TMC3    C3 4879   1.348   3.175  14.196  0.3791  0.0519 -0.2547
  325TMC3    C4 4880   1.570   3.243  14.057 -0.2720 -0.7177 -0.5503
  325TMC3    C5 4881   1.444   3.292  14.024  0.7341 -1.0389  0.2862
  325TMC3    C6 4882   1.335   3.268  14.099  0.5457 -0.5259  0.0672
  325TMC3     C 4883   1.712   3.087  14.195 -0.2253 -0.4620  0.2664
  325TMC3     O 4884   1.816   3.148  14.177  0.5555  0.5364 -0.2660
  325TMC3     H 4885   1.476   3.023  14.284 -1.1711 -1.1422 -0.7913
  325TMC3    H1 4886   1.654   3.289  14.006 -1.8406  1.6677 -1.0010
  325TMC3    H2 4887   1.238   3.309  14.075  1.0571  2.3246  2.9425
  325TMC3    C7 4888   1.449   3.417  13.951  0.0541  0.2173  0.6354
  325TMC3    C8 4889   1.243   3.071  14.193  0.5933 -0.1359  0.0485
  325TMC3    O1 4890   1.512   3.417  13.844 -0.2324 -0.4988  0.5619
  325TMC3    O2 4891   1.194   3.040  14.084  0.6532 -0.1862 -0.3592
  326MPD2     C 4892   3.726   4.060  11.262  0.2619  0.5653 -0.0298
  326MPD2    C1 4893   3.654   4.142  11.177 -0.4103 -0.3245  0.2279
  326MPD2    C2 4894   3.706   4.267  11.149  0.5696  0.1987  0.7886
  326MPD2    C3 4895   3.817   4.316  11.211  0.3386 -0.0511  0.0202
  326MPD2    C4 4896   3.876   4.234  11.304 -0.3645  0.5740 -0.0801
  326MPD2    C5 4897   3.832   4.106  11.329  0.1584  0.5305 -0.0735
  326MPD2     H 4898   3.656   4.331  11.076  2.2072  1.6054  0.9016
  326MPD2    H1 4899   3.969   4.254  11.355  0.2157  0.5303 -1.1373
  326MPD2    H2 4900   3.692   3.960  11.287  0.3478  0.2317 -1.2384
  326MPD2    H3 4901   3.880   4.042  11.403  2.4332  0.7096 -1.3840
  326MPD2     N 4902   3.874   4.444  11.199  0.0369 -0.0067 -0.3089
  326MPD2    H5 4903   3.956   4.458  11.258 -1.5383 -0.5404  1.9887
  326MPD2    N1 4904   3.544   4.097  11.105 -0.4507 -1.0574  0.7051
  326MPD2    H7 4905   3.499   4.163  11.043 -0.0533  1.1356  2.7720
  327TMC3    C1 4906   3.393   3.951  11.000  0.5537 -0.1050 -0.4162
  327TMC3    C2 4907   3.305   4.045  10.995  0.2197 -0.3735 -0.4764
  327TMC3    C3 4908   3.239   4.067  10.873 -0.4101 -0.1461 -0.4199
  327TMC3    C4 4909   3.432   3.877  10.890 -0.5714 -0.6291 -0.3073
  327TMC3    C5 4910   3.388   3.923  10.768 -0.3199  0.3279  0.0010
  327TMC3    C6 4911   3.277   4.000  10.763 -0.4346 -0.0663  0.2062
  327TMC3     C 4912   3.500   3.963  11.094  0.1374  0.2157 -0.0192
  327TMC3     O 4913   3.563   3.864  11.123  0.4672  0.2404  0.0381
  327TMC3     H 4914   3.278   4.100  11.085 -0.0744 -0.6541 -0.3923
  327TMC3    H1 4915   3.512   3.807  10.913 -0.8110 -1.5998 -2.4447
  327TMC3    H2 4916   3.229   4.005  10.666 -1.0052 -2.3552  0.3811
  327TMC3    C7 4917   3.499   3.980  10.691  0.3629  0.2610 -0.1059
  327TMC3    C8 4918   3.151   4.176  10.848  0.2002  0.0274 -0.3168
  327TMC3    O1 4919   3.471   4.046  10.590 -0.0351  0.2452 -0.6507
  327TMC3    O2 4920   3.136   4.209  10.731  0.7611  0.0722  0.0061
  328MPD2     C 4921   0.715   3.851  17.396  0.5798  0.0083  0.3481
  328MPD2    C1 4922   0.632   3.819  17.283  0.3836  0.1214  0.6693
  328MPD2    C2 4923   0.588   3.917  17.196 -0.1505  0.3475 -0.2488
  328MPD2    C3 4924   0.609   4.051  17.226  0.1865 -0.5018 -0.5365
  328MPD2    C4 4925   0.686   4.081  17.336  0.1427  0.7101 -0.2397
  328MPD2    C5 4926   0.737   3.986  17.421  0.5424  0.1281 -0.4819
  328MPD2     H 4927   0.545   3.889  17.100  3.3664 -1.1830 -1.4041
  328MPD2    H1 4928   0.703   4.183  17.370  0.1777  0.9337 -0.9126
  328MPD2    H2 4929   0.751   3.770  17.458  0.4877  0.3746  0.8766
  328MPD2    H3 4930   0.800   4.023  17.501 -0.4850  0.8151  0.0076
  328MPD2     N 4931   0.538   4.166  17.169 -0.0968 -0.0896  0.6490
  328MPD2    H5 4932   0.556   4.260  17.205  1.0785  0.6008 -1.7204
  328MPD2    N1 4933   0.599   3.680  17.274  0.3638  0.1611  0.5960
  328MPD2    H7 4934   0.629   3.622  17.352 -1.1550 -0.7613  0.4970
  329TMC3    C1 4935   0.457   3.489  17.214  0.6797 -0.2472 -0.3047
  329TMC3    C2 4936   0.322   3.501  17.216  0.1870  0.8944 -0.4204
  329TMC3    C3 4937   0.249   3.407  17.283 -0.4522 -0.5792 -0.7007
  329TMC3    C4 4938   0.518   3.395  17.294  0.0224 -0.4379  0.5104
  329TMC3    C5 4939   0.442   3.304  17.364  0.3909 -0.2027 -0.2153
  329TMC3    C6 4940   0.305   3.306  17.362  0.4598 -0.2359  0.5238
  329TMC3     C 4941   0.524   3.614  17.176 -0.4081  0.0003 -0.0373
  329TMC3     O 4942   0.467   3.657  17.077  0.1315  0.5947  0.5468
  329TMC3     H 4943   0.270   3.575  17.157  0.0613 -0.4779 -2.0348
  329TMC3    H1 4944   0.627   3.390  17.295  0.0335 -0.7053 -2.0068
  329TMC3    H2 4945   0.238   3.236  17.410 -1.5023  1.7679  0.6961
  329TMC3    C7 4946   0.509   3.216  17.458 -0.3234 -0.2935 -0.5690
  329TMC3    C8 4947   0.112   3.429  17.293 -0.2802 -0.0034 -0.3341
  329TMC3    O1 4948   0.626   3.180  17.436  0.7030  0.0704 -0.0622
  329TMC3    O2 4949   0.037   3.336  17.284 -0.2933  0.2999 -0.1965
  330TMC3    C1 4950   3.430   4.034   9.633 -0.2040 -0.6108  0.0579
  330TMC3    C2 4951   3.403   3.954   9.524 -0.1223 -0.8299  0.0639
  330TMC3    C3 4952   3.487   3.847   9.506  0.4901 -0.3646 -0.6393
  330TMC3    C4 4953   3.537   4.010   9.719  0.4630  0.4035 -0.0499
  330TMC3    C5 4954   3.623   3.908   9.686 -0.2582  0.0470 -0.1266
  330TMC3    C6 4955   3.591   3.816   9.580 -0.2466 -0.4267 -0.5101
  330TMC3     C 4956   3.334   4.139   9.670  0.0314  0.3944  0.2447
  330TMC3     O 4957   3.376   4.219   9.749  0.6272  0.1832  0.2437
  330TMC3     H 4958   3.327   3.991   9.456  0.7170  0.0464 -0.4067
  330TMC3    H1 4959   3.552   4.066   9.810  0.3853 -1.6998  1.2753
  330TMC3    H2 4960   3.659   3.738   9.548  0.2542 -0.5700  0.8746
  330TMC3    C7 4961   3.769   3.918   9.718 -0.6883  0.4103 -0.3675
  330TMC3    C8 4962   3.420   3.749   9.420  0.3522  0.6967 -0.5160
  330TMC3    O1 4963   3.801   4.009   9.796  0.4650  0.4436 -0.5162
  330TMC3    O2 4964   3.323   3.797   9.360  1.2617  0.0693  0.2584
  331MPD2     C 4965   1.214   1.841  12.289 -0.0445  0.1301  0.2240
  331MPD2    C1 4966   1.335   1.904  12.269  0.6303  0.5855 -0.4293
  331MPD2    C2 4967   1.425   1.820  12.195 -0.1070  0.2568 -0.1775
  331MPD2    C3 4968   1.406   1.692  12.164 -0.1982 -0.2507 -0.3769
  331MPD2    C4 4969   1.281   1.634  12.182  0.0243 -0.0391 -0.2481
  331MPD2    C5 4970   1.183   1.711  12.249  0.3759  0.7406  0.0521
  331MPD2     H 4971   1.525   1.861  12.179  0.8576 -1.5945  1.0631
  331MPD2    H1 4972   1.257   1.531  12.159 -2.4683  0.3111  0.7611
  331MPD2    H2 4973   1.141   1.882  12.358 -2.3909 -0.8019 -1.6707
  331MPD2    H3 4974   1.087   1.663  12.266  1.0813 -0.1460  1.5475
  331MPD2     N 4975   1.516   1.631  12.099  0.4942  0.3414 -0.1670
  331MPD2    H5 4976   1.596   1.692  12.083 -0.5525  1.3629 -1.5923
  331MPD2    N1 4977   1.373   2.023  12.329  0.2656  0.0878 -0.3883
  331MPD2    H7 4978   1.297   2.067  12.380  0.2075  1.5341 -1.7110
  332TMC3    C1 4979   1.634   1.464  11.968 -0.2740 -0.0066  0.0044
  332TMC3    C2 4980   1.679   1.547  11.868 -0.1825 -0.6358  0.4915
  332TMC3    C3 4981   1.805   1.531  11.821  0.1289 -0.1393 -0.1837
  332TMC3    C4 4982   1.708   1.360  12.015  0.7633  0.0604  0.6048
  332TMC3    C5 4983   1.833   1.348  11.972 -0.2237  0.6351 -0.2889
  332TMC3    C6 4984   1.887   1.437  11.880  0.3638  0.2932 -0.3820
  332TMC3     C 4985   1.517   1.505  12.045 -0.1297 -0.5907 -0.3105
  332TMC3     O 4986   1.440   1.410  12.072 -0.2561 -0.0842 -0.3086
  332TMC3     H 4987   1.618   1.629  11.833  0.3505 -0.8680 -1.0077
  332TMC3    H1 4988   1.664   1.300  12.094 -0.2067 -0.5678 -0.4045
  332TMC3    H2 4989   1.989   1.425  11.845 -0.1160  0.1435 -1.7186
  332TMC3    C7 4990   1.915   1.256  12.037 -0.5442  0.0790 -0.8872
  332TMC3    C8 4991   1.858   1.644  11.747  0.3262  0.0011 -0.2866
  332TMC3    O1 4992   1.862   1.156  12.083 -0.1721  0.2264 -0.5411
  332TMC3    O2 4993   1.975   1.668  11.770 -0.4403  0.1111 -0.2995
  333MPD2     C 4994   2.001   2.527  11.136  0.5910 -0.1898  0.0216
  333MPD2    C1 4995   1.988   2.470  11.013  0.1297 -0.2461 -0.0203
  333MPD2    C2 4996   1.889   2.368  11.000  0.3557  0.0646  0.7073
  333MPD2    C3 4997   1.802   2.336  11.097 -1.0264  0.1928 -0.8913
  333MPD2    C4 4998   1.810   2.409  11.220  0.0462  0.5822  0.5376
  333MPD2    C5 4999   1.912   2.498  11.237  0.0926 -0.1123 -0.6819
  333MPD2     H 5000   1.878   2.313  10.907 -0.9644  1.0584  0.2838
  333MPD2    H1 5001   1.750   2.383  11.307  2.5036  2.4388  2.7951
  333MPD2    H2 5002   2.073   2.606  11.159 -0.1868  0.4778  0.1625
  333MPD2    H3 5003   1.907   2.554  11.329 -2.2519 -0.1305 -0.8089
  333MPD2     N 5004   1.705   2.239  11.069 -0.4198 -0.7127 -0.3440
  333MPD2    H5 5005   1.711   2.196  10.978 -1.8615 -2.4260  0.3867
  333MPD2    N1 5006   2.080   2.506  10.914  0.5536 -0.5349  0.0763
  333MPD2    H7 5007   2.138   2.586  10.935 -0.7439  0.3488  0.2915
  334TMC3    C1 5008   2.169   2.514  10.689 -0.1880 -0.1545  0.8520
  334TMC3    C2 5009   2.271   2.446  10.634  0.0444  0.5566  0.1570
  334TMC3    C3 5010   2.351   2.522  10.550  0.3363  0.1178 -0.0636
  334TMC3    C4 5011   2.158   2.657  10.679 -0.6530  0.1050  0.5750
  334TMC3    C5 5012   2.251   2.721  10.594 -1.4541 -0.5644 -0.5264
  334TMC3    C6 5013   2.348   2.653  10.529 -0.3993 -0.0007 -0.4395
  334TMC3     C 5014   2.091   2.446  10.796  0.0839  0.1705  0.3406
  334TMC3     O 5015   2.064   2.330  10.768 -0.3613 -0.2588 -0.2086
  334TMC3     H 5016   2.283   2.339  10.644  0.1998  0.6271  0.7537
  334TMC3    H1 5017   2.085   2.709  10.739  0.4720  0.4463  1.6603
  334TMC3    H2 5018   2.418   2.713  10.472  1.5015 -0.7054  1.1660
  334TMC3    C7 5019   2.236   2.864  10.582  0.1736 -0.3746 -0.8226
  334TMC3    C8 5020   2.470   2.456  10.499 -0.2602 -0.0839  0.8940
  334TMC3    O1 5021   2.178   2.932  10.664 -0.5311  0.1896  0.0751
  334TMC3    O2 5022   2.456   2.337  10.472 -0.2395 -0.1232 -0.2847
  335TMC3    C1 5023   1.323   4.180   0.012 -0.3298  0.2729  0.2897
  335TMC3    C2 5024   1.228   4.156  17.604  0.3713  0.8068  0.6700
  335TMC3    C3 5025   1.254   4.046  17.521 -0.3513 -0.8528  0.5396
  335TMC3    C4 5026   1.446   4.118   0.014 -0.0135  0.2367 -0.1387
  335TMC3    C5 5027   1.460   4.017  17.616  0.0209  0.0992  0.1932
  335TMC3    C6 5028   1.363   3.973  17.527  0.0945 -0.2154  0.1584
  335TMC3     C 5029   1.310   4.284   0.106  0.5585 -0.8131  0.0320
  335TMC3     O 5030   1.369   4.280   0.213  0.2306 -0.4677  0.2634
  335TMC3     H 5031   1.131   4.202  17.596 -1.0198 -2.2852 -0.4530
  335TMC3    H1 5032   1.513   4.143   0.096 -0.2300  0.9077 -0.1686
  335TMC3    H2 5033   1.384   3.903  17.447 -0.3137  1.1287 -1.1102
  335TMC3    C7 5034   1.591   3.962  17.608 -0.4570 -0.9039 -0.9211
  335TMC3    C8 5035   1.159   4.007  17.427  0.2885 -0.7221 -0.3207
  335TMC3    O1 5036   1.689   4.033  17.634 -0.4462 -0.9357  0.1838
  335TMC3    O2 5037   1.090   4.094  17.376  0.2057 -0.4817 -0.0595
  336MPD2     C 5038   0.570   1.688  16.778 -0.3347  0.4832 -0.1494
  336MPD2    C1 5039   0.603   1.628  16.660 -0.2420 -0.2591  0.7847
  336MPD2    C2 5040   0.684   1.517  16.659 -0.1945 -0.8030 -0.7821
  336MPD2    C3 5041   0.716   1.460  16.777  0.0999 -0.0482  0.8646
  336MPD2    C4 5042   0.677   1.515  16.894  0.0535  0.1790 -0.1420
  336MPD2    C5 5043   0.602   1.630  16.898  0.3606  0.0963 -0.2360
  336MPD2     H 5044   0.699   1.472  16.562 -0.1838 -1.2429 -0.5754
  336MPD2    H1 5045   0.696   1.460  16.986 -1.5059 -0.9549 -0.5091
  336MPD2    H2 5046   0.514   1.780  16.770 -3.3631 -1.4001 -0.2823
  336MPD2    H3 5047   0.565   1.672  16.991 -0.3168  0.2646 -0.5791
  336MPD2     N 5048   0.782   1.335  16.777 -0.2205  0.2474 -0.1011
  336MPD2    H5 5049   0.809   1.295  16.866 -1.1457  0.7730  0.4120
  336MPD2    N1 5050   0.563   1.680  16.532  0.2354  0.5892 -0.3482
  336MPD2    H7 5051   0.580   1.623  16.449 -0.6924  0.9369 -0.7798
  337TMC3    C1 5052   0.476   1.823  16.354 -0.1262  0.6344  0.6655
  337TMC3    C2 5053   0.379   1.919  16.331  0.2673 -0.2594  0.0107
  337TMC3    C3 5054   0.377   1.984  16.204 -0.1636  0.1891 -0.1746
  337TMC3    C4 5055   0.583   1.813  16.270 -0.3347  0.5472 -0.3434
  337TMC3    C5 5056   0.596   1.905  16.170 -0.2947 -0.4178  0.3397
  337TMC3    C6 5057   0.487   1.984  16.130  0.0918  0.2541 -0.5042
  337TMC3     C 5058   0.480   1.783  16.500  0.6915 -0.1325  0.2875
  337TMC3     O 5059   0.419   1.855  16.575  0.1052  0.3252  0.0257
  337TMC3     H 5060   0.291   1.909  16.395  1.5152 -1.1182  1.6008
  337TMC3    H1 5061   0.662   1.745  16.299 -0.4935  1.1180  1.4339
  337TMC3    H2 5062   0.497   2.045  16.041  2.2200 -0.6187 -0.8848
  337TMC3    C7 5063   0.722   1.920  16.105  0.3910  0.1805  0.8619
  337TMC3    C8 5064   0.259   2.031  16.140 -0.4288  0.1000 -0.8709
  337TMC3    O1 5065   0.755   2.033  16.063 -0.0492 -0.8826 -0.2387
  337TMC3    O2 5066   0.171   2.058  16.220 -0.4160 -0.0839 -0.1169
  338MPD2     C 5067   1.868   1.086   1.134  0.4630 -0.3271  0.2756
  338MPD2    C1 5068   1.751   1.142   1.093 -0.3328 -0.0813 -0.4060
  338MPD2    C2 5069   1.723   1.274   1.130 -1.0693 -0.1378  0.1488
  338MPD2    C3 5070   1.815   1.358   1.194  0.1400  0.3949  0.6023
  338MPD2    C4 5071   1.937   1.299   1.217 -0.6832  0.1942 -0.1458
  338MPD2    C5 5072   1.960   1.171   1.189 -0.4538 -0.0156 -0.2245
  338MPD2     H 5073   1.625   1.312   1.106 -0.4339 -0.9026 -3.6580
  338MPD2    H1 5074   2.020   1.355   1.259  0.5277 -2.2017  0.6560
  338MPD2    H2 5075   1.907   0.987   1.112 -0.5288 -0.9077  1.1709
  338MPD2    H3 5076   2.058   1.131   1.213 -0.4278  1.7935  2.6995
  338MPD2     N 5077   1.788   1.497   1.225 -0.4423  0.8162 -0.4605
  338MPD2    H5 5078   1.865   1.563   1.228  0.8574 -0.7394  0.7940
  338MPD2    N1 5079   1.651   1.063   1.036  0.6238  0.6582 -0.2472
  338MPD2    H7 5080   1.564   1.104   1.003  0.4721 -0.3951 -1.1552
  339TMC3    C1 5081   1.638   1.671   1.252  0.7651  0.2991 -0.1434
  339TMC3    C2 5082   1.524   1.709   1.316 -0.5919 -0.7563  0.2549
  339TMC3    C3 5083   1.479   1.836   1.297  0.4297 -0.0713 -0.1730
  339TMC3    C4 5084   1.704   1.754   1.163  0.2758 -0.7256  0.0028
  339TMC3    C5 5085   1.655   1.882   1.155  0.0296  0.0955 -0.1805
  339TMC3    C6 5086   1.548   1.927   1.223 -0.5858  0.1599 -0.1956
  339TMC3     C 5087   1.658   1.533   1.248 -0.3670  0.8992  0.2874
  339TMC3     O 5088   1.577   1.458   1.302 -0.0020 -0.1890 -0.7077
  339TMC3     H 5089   1.468   1.643   1.381 -3.1514  1.2563  0.1017
  339TMC3    H1 5090   1.781   1.710   1.101 -1.4413 -0.0967 -2.5607
  339TMC3    H2 5091   1.512   2.027   1.201  1.3627  0.9667  0.2701
  339TMC3    C7 5092   1.713   1.967   1.046  0.4401 -0.3006  0.4450
  339TMC3    C8 5093   1.343   1.866   1.329  0.6523 -0.5119 -0.5629
  339TMC3    O1 5094   1.657   2.076   1.028 -0.0953 -0.4803  0.1234
  339TMC3    O2 5095   1.307   1.983   1.310  0.6505 -0.1302  0.2541
  340MPD2     C 5096   1.534   3.630  10.185 -0.0888 -0.1203  0.1299
  340MPD2    C1 5097   1.549   3.730  10.093 -0.2862 -0.5939 -1.0805
  340MPD2    C2 5098   1.611   3.848  10.123  0.1647 -0.0178 -0.7554
  340MPD2    C3 5099   1.646   3.872  10.260  0.6036 -0.5850  0.4683
  340MPD2    C4 5100   1.620   3.781  10.355 -0.2679  0.3390 -0.8242
  340MPD2    C5 5101   1.568   3.659  10.317 -0.4441  0.1698 -0.3635
  340MPD2     H 5102   1.621   3.928  10.051 -1.7779  0.5411 -0.4087
  340MPD2    H1 5103   1.638   3.811  10.458  0.9231 -0.1270 -0.8944
  340MPD2    H2 5104   1.499   3.528  10.173 -0.3736  0.0274 -0.2810
  340MPD2    H3 5105   1.536   3.590  10.394  0.9900 -1.3680 -1.1317
  340MPD2     N 5106   1.700   3.997  10.294 -0.1652  0.1153  0.3491
  340MPD2    H5 5107   1.753   4.009  10.380  2.0276 -0.1736 -0.9673
  340MPD2    N1 5108   1.511   3.689   9.963  0.4188  0.0149  0.1486
  340MPD2    H7 5109   1.503   3.592   9.936 -1.9698 -0.0923  1.2004
  341TMC3    C1 5110   1.481   3.698   9.740  0.3326 -0.0312  0.2550
  341TMC3    C2 5111   1.389   3.597   9.745 -0.3149  0.4031  0.5043
  341TMC3    C3 5112   1.353   3.544   9.623 -0.8969  0.0345  0.0007
  341TMC3    C4 5113   1.538   3.742   9.627 -0.1555  0.1954  0.2433
  341TMC3    C5 5114   1.490   3.697   9.504 -0.3787  0.2323 -0.1084
  341TMC3    C6 5115   1.397   3.596   9.500 -0.3367 -0.1729  0.1733
  341TMC3     C 5116   1.513   3.773   9.859 -0.4423 -0.4699 -0.9134
  341TMC3     O 5117   1.548   3.892   9.850  0.0824 -0.0784 -0.3702
  341TMC3     H 5118   1.337   3.569   9.836  1.3634 -0.9498  1.0255
  341TMC3    H1 5119   1.606   3.826   9.623 -0.6315  0.5648 -0.0038
  341TMC3    H2 5120   1.380   3.541   9.408  0.8544  0.4240 -0.3951
  341TMC3    C7 5121   1.534   3.778   9.385  0.1774 -1.0769 -0.1483
  341TMC3    C8 5122   1.267   3.426   9.628  0.6954  0.1959  0.2108
  341TMC3    O1 5123   1.637   3.836   9.402 -0.3241 -0.4846  0.0660
  341TMC3    O2 5124   1.255   3.375   9.739  0.8506  0.4386 -0.0000
  342MPD2     C 5125   3.922   2.448  17.437  0.1920 -0.1266  0.3254
  342MPD2    C1 5126   4.058   2.415  17.452 -0.2577 -0.3454  0.0300
  342MPD2    C2 5127   4.144   2.519  17.490  0.4051 -0.2050 -0.1631
  342MPD2    C3 5128   4.094   2.641  17.517 -0.1432  0.7748  0.1963
  342MPD2    C4 5129   3.962   2.666  17.507  0.5206  0.2943 -0.7651
  342MPD2    C5 5130   3.875   2.568  17.469 -0.1631 -0.0814 -0.7014
  342MPD2     H 5131   4.248   2.500  17.513  0.1506 -0.9083  0.3856
  342MPD2    H1 5132   3.924   2.766  17.529  2.0682  0.6427  0.2788
  342MPD2    H2 5133   3.857   2.371  17.398 -0.9493 -0.1799  2.3382
  342MPD2    H3 5134   3.770   2.594  17.455 -0.8591 -2.5233 -0.0826
  342MPD2     N 5135   4.185   2.741  17.567 -0.3864 -0.6780 -0.4703
  342MPD2    H5 5136   4.282   2.712  17.565  0.0743  0.8568 -0.5821
  342MPD2    N1 5137   4.113   2.286  17.429 -0.2542  0.2674  0.2717
  342MPD2    H7 5138   4.214   2.283  17.423 -0.2805 -1.9234  1.0297
  343TMC3    C1 5139   4.113   2.054  17.375  0.0532 -0.1494  0.9977
  343TMC3    C2 5140   4.233   2.068  17.315 -0.1085  0.4332  0.0451
  343TMC3    C3 5141   4.287   1.968  17.244 -0.1620  0.0811 -0.1692
  343TMC3    C4 5142   4.040   1.936  17.374 -0.5367  0.3221 -0.5689
  343TMC3    C5 5143   4.093   1.836  17.295  0.5179  0.3239  0.0047
  343TMC3    C6 5144   4.216   1.852  17.234 -0.0292  0.3752  0.0153
  343TMC3     C 5145   4.039   2.168  17.422 -0.3002  0.1764 -0.3609
  343TMC3     O 5146   3.919   2.151  17.451  0.4283  0.0838  0.6029
  343TMC3     H 5147   4.297   2.155  17.323  0.1865  0.1035  1.2217
  343TMC3    H1 5148   3.937   1.932  17.408 -1.5749  0.2210 -3.6449
  343TMC3    H2 5149   4.254   1.763  17.185  0.1798  1.5464 -1.9518
  343TMC3    C7 5150   4.027   1.711  17.278 -0.2646 -0.3032 -0.2522
  343TMC3    C8 5151   4.433   1.971  17.224  0.0887 -1.1437  0.2569
  343TMC3    O1 5152   4.046   1.634  17.185  0.1976 -0.6851  0.2539
  343TMC3    O2 5153   4.486   2.080  17.222 -0.0480 -0.4577  0.5327
  344MPD2     C 5154   0.683   1.647  10.692 -0.2207  0.4552  0.6336
  344MPD2    C1 5155   0.563   1.714  10.679 -0.1334 -0.0492 -0.0934
  344MPD2    C2 5156   0.543   1.783  10.554  0.3870  0.3080  0.4152
  344MPD2    C3 5157   0.651   1.798  10.457 -0.0350 -0.0272  0.1221
  344MPD2    C4 5158   0.771   1.727  10.480 -0.0613 -0.2120  0.5942
  344MPD2    C5 5159   0.776   1.647  10.589  0.2038  0.2949  0.2052
  344MPD2     H 5160   0.448   1.830  10.532 -0.0211 -0.0995  1.2988
  344MPD2    H1 5161   0.852   1.738  10.409  0.6030 -2.4425  1.0242
  344MPD2    H2 5162   0.701   1.592  10.784 -1.8795  1.2724  1.4473
  344MPD2    H3 5163   0.853   1.570  10.596 -0.0778 -0.1698 -2.0000
  344MPD2     N 5164   0.647   1.874  10.342  0.1574  0.1474  0.0426
  344MPD2    H5 5165   0.728   1.874  10.281 -0.6641 -0.7366 -1.0540
  344MPD2    N1 5166   0.459   1.704  10.781  0.5269 -0.1081 -0.1548
  344MPD2    H7 5167   0.369   1.743  10.757 -0.0706 -0.8715  0.8197
  345TMC3    C1 5168   0.577   2.041  10.192 -0.6438 -0.3378  1.2215
  345TMC3    C2 5169   0.690   2.017  10.120 -0.3058  0.3385  0.7078
  345TMC3    C3 5170   0.771   2.120  10.085 -0.3959 -0.0782  0.3374
  345TMC3    C4 5171   0.520   2.168  10.198 -0.4093  0.4860  0.3625
  345TMC3    C5 5172   0.606   2.270  10.154  0.6317  0.6262 -0.5196
  345TMC3    C6 5173   0.734   2.249  10.106  0.3202  0.3438 -1.1088
  345TMC3     C 5174   0.548   1.961  10.311 -0.2866 -0.2673  0.6523
  345TMC3     O 5175   0.435   1.982  10.358 -0.8392 -0.2378  0.0873
  345TMC3     H 5176   0.725   1.917  10.098  0.1522  0.4366  0.9700
  345TMC3    H1 5177   0.434   2.189  10.260 -2.9886 -1.2635 -2.6339
  345TMC3    H2 5178   0.797   2.335  10.090  0.7520 -0.1590 -2.0703
  345TMC3    C7 5179   0.568   2.409  10.160 -0.7214 -0.4199  0.2004
  345TMC3    C8 5180   0.915   2.094  10.077  0.0353 -0.3708 -0.0035
  345TMC3    O1 5181   0.670   2.478  10.160  0.5244 -0.3531  0.3534
  345TMC3    O2 5182   0.960   1.990  10.126  0.0846 -0.3439  0.8922
  346MPD2     C 5183   0.888   3.379  14.532 -0.8977  0.2571  0.2864
  346MPD2    C1 5184   0.845   3.447  14.426 -0.8751 -0.3045 -1.3657
  346MPD2    C2 5185   0.855   3.582  14.407  0.4311  0.0515 -0.0767
  346MPD2    C3 5186   0.936   3.656  14.493  0.4743 -0.3804 -0.0180
  346MPD2    C4 5187   0.992   3.593  14.600  0.0442 -0.4652  0.3291
  346MPD2    C5 5188   0.958   3.459  14.620  0.4375  0.7363 -0.1360
  346MPD2     H 5189   0.809   3.633  14.324 -3.2833 -0.5537  1.6216
  346MPD2    H1 5190   1.045   3.647  14.678 -2.2729  2.4416 -0.1168
  346MPD2    H2 5191   0.878   3.272  14.546 -0.0554  0.1728  0.2935
  346MPD2    H3 5192   0.991   3.400  14.705  2.4255 -0.5465 -1.8019
  346MPD2     N 5193   0.956   3.789  14.451  0.0830  0.3379 -0.1732
  346MPD2    H5 5194   0.895   3.832  14.384  2.3738  2.6646 -0.7632
  346MPD2    N1 5195   0.787   3.381  14.317 -0.5625  0.0398 -0.5203
  346MPD2    H7 5196   0.743   3.440  14.247 -2.5244  0.2259  0.8500
  347TMC3    C1 5197   1.071   3.989  14.421  0.2986  0.4930  0.0224
  347TMC3    C2 5198   1.039   3.984  14.287 -0.7258  0.1213 -0.3311
  347TMC3    C3 5199   1.070   4.091  14.211  0.3805  0.1967  0.0241
  347TMC3    C4 5200   1.140   4.100  14.477  0.0426  0.1472  0.5147
  347TMC3    C5 5201   1.166   4.207  14.397 -0.2836  0.4326  0.3744
  347TMC3    C6 5202   1.128   4.203  14.262 -0.7180 -0.0770  0.0093
  347TMC3     C 5203   1.042   3.876  14.506  0.4664  0.3636  0.1226
  347TMC3     O 5204   1.094   3.880  14.617  0.5145  0.0928  0.2333
  347TMC3     H 5205   0.976   3.906  14.246 -0.5924  0.8935 -2.0007
  347TMC3    H1 5206   1.169   4.104  14.581 -1.2235  1.5761  0.8098
  347TMC3    H2 5207   1.147   4.292  14.203  1.6458 -1.4995 -1.3483
  347TMC3    C7 5208   1.267   4.301  14.449  0.2773  0.6571  0.2629
  347TMC3    C8 5209   1.137   4.050  14.091  0.3756  0.5767 -0.6842
  347TMC3    O1 5210   1.307   4.295  14.567 -0.4933 -0.1586 -0.0188
  347TMC3    O2 5211   1.171   4.143  14.018  1.1316  0.4193 -0.1277
  348MPD2     C 5212   4.254   3.380  12.306  0.1873 -0.1904  0.0415
  348MPD2    C1 5213   4.182   3.315  12.206  0.1316  0.5407  0.0207
  348MPD2    C2 5214   4.193   3.361  12.076 -0.5505 -0.1603  0.5819
  348MPD2    C3 5215   4.280   3.467  12.040  0.7906 -0.5544  0.1236
  348MPD2    C4 5216   4.350   3.532  12.138  0.2492 -0.0105 -0.6535
  348MPD2    C5 5217   4.336   3.488  12.271  0.7910  0.5008  0.3338
  348MPD2     H 5218   4.153   3.308  11.990 -0.1948 -0.8907  0.8748
  348MPD2    H1 5219   4.422   3.608  12.111  0.8571 -0.4654 -0.3040
  348MPD2    H2 5220   4.249   3.341  12.407 -0.1501 -1.4280 -0.4546
  348MPD2    H3 5221   4.405   3.530  12.343  0.1911  0.4347  0.9376
  348MPD2     N 5222   4.296   3.475  11.901  0.1949  0.7869 -0.5593
  348MPD2    H5 5223   4.265   3.404  11.836  0.6954 -0.8560  0.9650
  348MPD2    N1 5224   4.097   3.203  12.216  0.2751 -0.0354 -0.3450
  348MPD2    H7 5225   4.066   3.168  12.126  0.3543 -4.1724  1.2269
  349TMC3    C1 5226   3.963   3.046  12.321  0.0435  0.5226  0.7098
  349TMC3    C2 5227   3.965   2.939  12.408 -0.2128  0.0391 -0.3455
  349TMC3    C3 5228   3.893   2.824  12.374  0.9238 -0.2760  0.3766
  349TMC3    C4 5229   3.888   3.043  12.204 -0.9049 -0.0358 -0.2404
  349TMC3    C5 5230   3.806   2.930  12.188 -0.2023  0.3495 -0.4912
  349TMC3    C6 5231   3.796   2.821  12.277 -0.8494 -0.0007 -0.1068
  349TMC3     C 5232   4.062   3.149  12.339  0.2111 -0.2109  0.1137
  349TMC3     O 5233   4.096   3.179  12.453  0.2238 -0.3071  0.4546
  349TMC3     H 5234   4.040   2.939  12.487 -0.4048 -0.7950 -0.1637
  349TMC3    H1 5235   3.868   3.139  12.158 -1.6425  0.7241  1.6502
  349TMC3    H2 5236   3.749   2.734  12.232 -0.6604 -0.0995 -0.1148
  349TMC3    C7 5237   3.707   2.948  12.083 -0.6113  0.1999  0.0317
  349TMC3    C8 5238   3.923   2.702  12.446  0.3725 -0.2980  0.4378
  349TMC3    O1 5239   3.615   2.866  12.075  0.3404  0.3219 -0.5890
  349TMC3    O2 5240   3.997   2.721  12.543 -0.3115 -0.0189 -0.5892
  350MPD2     C 5241   3.226   1.556  10.446 -0.3079  0.2004 -0.0580
  350MPD2    C1 5242   3.299   1.447  10.482  0.1148 -0.7543  0.6269
  350MPD2    C2 5243   3.438   1.462  10.502  0.5764 -0.8357  1.0278
  350MPD2    C3 5244   3.500   1.581  10.490 -0.0933  0.1638  0.6874
  350MPD2    C4 5245   3.424   1.686  10.443  0.0945  0.5100 -0.0238
  350MPD2    C5 5246   3.291   1.668  10.410  0.6210  0.4951  0.1784
  350MPD2     H 5247   3.498   1.384  10.549 -0.0510 -1.0203  1.5323
  350MPD2    H1 5248   3.456   1.789  10.435  2.9085 -0.4285 -0.8225
  350MPD2    H2 5249   3.120   1.557  10.427 -0.4339  0.3569  0.6531
  350MPD2    H3 5250   3.237   1.758  10.384  0.8552  0.1692 -1.4570
  350MPD2     N 5251   3.632   1.602  10.526 -0.5565  0.5817  0.5555
  350MPD2    H5 5252   3.673   1.520  10.570 -0.4840  1.8518  2.8264
  350MPD2    N1 5253   3.243   1.320  10.503 -0.3885 -0.5808 -0.4809
  350MPD2    H7 5254   3.302   1.238  10.517 -0.6972 -1.1948 -2.7904
  351TMC3    C1 5255   3.089   1.135  10.507 -0.5087  0.9006 -0.0396
  351TMC3    C2 5256   3.194   1.048  10.480 -0.4765 -0.2435  0.1279
  351TMC3    C3 5257   3.182   0.917  10.516  0.1320  0.0202 -0.8176
  351TMC3    C4 5258   2.974   1.097  10.564  0.5023  0.1724  0.4739
  351TMC3    C5 5259   2.960   0.959  10.583 -0.4125 -0.1910  0.0411
  351TMC3    C6 5260   3.070   0.870  10.573  0.2865  0.0680  0.4848
  351TMC3     C 5261   3.108   1.280  10.492  0.4946  0.4136  0.0630
  351TMC3     O 5262   3.013   1.354  10.482  0.2201  0.0371  0.4268
  351TMC3     H 5263   3.281   1.070  10.418  1.4518 -0.7339  2.6470
  351TMC3    H1 5264   2.892   1.162  10.592 -0.0573 -1.0864  1.7669
  351TMC3    H2 5265   3.056   0.764  10.593 -2.8296  0.3187 -0.4170
  351TMC3    C7 5266   2.856   0.924  10.486 -0.6899 -0.0503 -0.3519
  351TMC3    C8 5267   3.273   0.813  10.471  0.1281  0.0806  0.3471
  351TMC3    O1 5268   2.758   0.994  10.481 -0.1346 -0.0947 -0.0798
  351TMC3    O2 5269   3.340   0.838  10.371  0.4744 -0.1935 -0.2643
  352MPD2     C 5270   0.735   2.567   1.499  0.2299 -0.9611 -0.2864
  352MPD2    C1 5271   0.829   2.570   1.394 -0.4049  0.3638  0.0462
  352MPD2    C2 5272   0.937   2.478   1.398  0.0805 -0.0221  0.5098
  352MPD2    C3 5273   0.945   2.376   1.496 -0.0667 -0.0986  0.8546
  352MPD2    C4 5274   0.844   2.375   1.589  0.1042 -0.4699  0.1428
  352MPD2    C5 5275   0.748   2.471   1.594 -0.0421 -0.0653  0.2012
  352MPD2     H 5276   1.020   2.481   1.329 -1.0560  0.3283 -0.8361
  352MPD2    H1 5277   0.852   2.300   1.668  0.5836  0.4121  0.9293
  352MPD2    H2 5278   0.660   2.645   1.509  0.5411 -0.6848 -0.0892
  352MPD2    H3 5279   0.672   2.470   1.671 -0.4274 -0.7777 -0.1908
  352MPD2     N 5280   1.053   2.282   1.515 -0.1960  0.1123 -0.3374
  352MPD2    H5 5281   1.068   2.226   1.598  0.7016  0.2259 -0.4219
  352MPD2    N1 5282   0.832   2.683   1.310 -0.7473 -1.2211  0.0857
  352MPD2    H7 5283   0.759   2.754   1.319  0.3043 -0.2318  0.8038
  353TMC3    C1 5284   1.290   2.222   1.481  0.7975 -0.0425  0.2212
  353TMC3    C2 5285   1.299   2.124   1.578 -0.0124  0.0084 -0.3054
  353TMC3    C3 5286   1.425   2.086   1.620  0.1385  0.9612  0.2520
  353TMC3    C4 5287   1.395   2.280   1.420  0.2764  0.1130  0.2473
  353TMC3    C5 5288   1.519   2.241   1.463 -0.1842 -0.9017 -0.5505
  353TMC3    C6 5289   1.541   2.147   1.567 -0.0112 -0.2104 -0.6689
  353TMC3     C 5290   1.159   2.269   1.425 -0.8223 -0.5867  0.1663
  353TMC3     O 5291   1.155   2.303   1.306  0.7665  0.0012 -0.7128
  353TMC3     H 5292   1.216   2.061   1.610 -0.1979  0.0834 -0.6342
  353TMC3    H1 5293   1.379   2.357   1.345  2.1070  0.1577 -0.0880
  353TMC3    H2 5294   1.639   2.126   1.610  0.6547  1.9735 -1.1367
  353TMC3    C7 5295   1.630   2.313   1.401 -0.3630 -0.1350 -0.1043
  353TMC3    C8 5296   1.432   1.946   1.664  0.5684  0.4972  0.0147
  353TMC3    O1 5297   1.613   2.365   1.291  0.6922  0.5086 -0.1195
  353TMC3    O2 5298   1.333   1.892   1.707  0.1887 -0.6872  0.0016
  354TMC3    C1 5299   3.021   3.957  13.593  0.7116 -0.0367  0.4008
  354TMC3    C2 5300   2.998   4.088  13.606 -0.5915 -0.1535 -0.0583
  354TMC3    C3 5301   3.032   4.161  13.491 -0.2875  0.2742 -0.4612
  354TMC3    C4 5302   3.065   3.898  13.474 -0.1430  0.1924 -0.0001
  354TMC3    C5 5303   3.085   3.976  13.359  0.0789  0.3026  0.3843
  354TMC3    C6 5304   3.070   4.112  13.368  0.1961 -0.1986  0.0911
  354TMC3     C 5305   3.031   3.883  13.716  0.3285  0.0006 -0.2178
  354TMC3     O 5306   2.985   3.942  13.816 -0.6978  0.1860  0.1374
  354TMC3     H 5307   2.971   4.126  13.704  0.4270 -0.6729  0.4222
  354TMC3    H1 5308   3.100   3.795  13.482  0.4242  0.3287 -0.7611
  354TMC3    H2 5309   3.086   4.174  13.281 -1.2877  1.3266  0.9064
  354TMC3    C7 5310   3.197   3.942  13.284 -1.0004 -0.3740  0.0161
  354TMC3    C8 5311   3.045   4.306  13.511 -0.4411  0.1126 -0.0691
  354TMC3    O1 5312   3.198   3.859  13.194 -0.3390  0.2189  0.3647
  354TMC3    O2 5313   3.007   4.346  13.619 -0.0080  0.0249  0.4895
  355MPD2     C 5314   3.251   0.365  12.007 -0.0904  0.8799 -0.4681
  355MPD2    C1 5315   3.287   0.398  11.875 -0.0611 -0.3874  0.3185
  355MPD2    C2 5316   3.424   0.406  11.839 -0.1900 -0.0738  0.0535
  355MPD2    C3 5317   3.524   0.397  11.937 -0.4648  0.1646 -0.4916
  355MPD2    C4 5318   3.491   0.353  12.059  1.0048  0.1629  0.3620
  355MPD2    C5 5319   3.360   0.342  12.091 -0.2140  0.5049  0.1930
  355MPD2     H 5320   3.448   0.418  11.734 -2.7388  4.1763 -0.0781
  355MPD2    H1 5321   3.569   0.341  12.134  2.7939  2.5013 -1.1198
  355MPD2    H2 5322   3.152   0.366  12.051  0.4239 -0.9816  0.7122
  355MPD2    H3 5323   3.344   0.331  12.198  1.5442  2.3846  0.6453
  355MPD2     N 5324   3.661   0.420  11.912  0.1751  0.5350  0.1067
  355MPD2    H5 5325   3.719   0.409  11.994  0.6242  0.6479 -0.1946
  355MPD2    N1 5326   3.179   0.428  11.790  0.1275 -0.9109 -0.2232
  355MPD2    H7 5327   3.093   0.381  11.817  0.3412 -0.7412  0.7474
  356TMC3    C1 5328   3.860   0.504  11.802  0.1406 -0.3401 -0.0440
  356TMC3    C2 5329   3.931   0.529  11.685  0.7018 -0.1259 -0.4513
  356TMC3    C3 5330   4.048   0.597  11.690  0.1512  0.5304 -0.5429
  356TMC3    C4 5331   3.905   0.552  11.922 -0.1424  0.2823  0.4968
  356TMC3    C5 5332   4.014   0.637  11.922 -0.1222 -0.2934  0.0984
  356TMC3    C6 5333   4.097   0.653  11.809 -0.9551  1.1831 -0.4401
  356TMC3     C 5334   3.717   0.462  11.791 -0.1175 -0.0712  0.2100
  356TMC3     O 5335   3.665   0.461  11.679 -0.3535 -0.4243  0.2391
  356TMC3     H 5336   3.890   0.515  11.586  0.9605  1.0017 -0.7224
  356TMC3    H1 5337   3.837   0.558  12.007  1.7578  1.3244  1.9434
  356TMC3    H2 5338   4.195   0.697  11.817 -1.2710  2.0840 -1.5806
  356TMC3    C7 5339   4.069   0.643  12.051  0.3831  1.0878 -0.3783
  356TMC3    C8 5340   4.131   0.626  11.574 -0.4294 -0.1223 -0.7964
  356TMC3    O1 5341   4.037   0.551  12.128 -0.2407 -0.2142  0.2124
  356TMC3    O2 5342   4.141   0.542  11.480 -0.2358 -0.1701 -0.4550
  357MPD2     C 5343   3.464   3.499   1.978 -0.2877  0.1355 -0.4819
  357MPD2    C1 5344   3.526   3.533   1.862  0.3617 -0.0242  0.2508
  357MPD2    C2 5345   3.598   3.433   1.797 -0.4327 -0.0532  0.0294
  357MPD2    C3 5346   3.584   3.304   1.833 -0.6679 -0.1060  0.5020
  357MPD2    C4 5347   3.518   3.272   1.949  0.2249 -0.1062 -0.3898
  357MPD2    C5 5348   3.456   3.371   2.025 -0.1374  0.8548 -0.0977
  357MPD2     H 5349   3.656   3.452   1.708  0.2112  0.4970  0.5638
  357MPD2    H1 5350   3.515   3.168   1.977  2.6897  0.7060  2.8658
  357MPD2    H2 5351   3.409   3.574   2.033  1.2165 -1.3912  3.0894
  357MPD2    H3 5352   3.400   3.344   2.114 -0.4214  1.5527 -0.0647
  357MPD2     N 5353   3.627   3.196   1.756 -0.1591 -0.3413  0.4034
  357MPD2    H5 5354   3.594   3.106   1.791 -0.5497  0.1832  1.3762
  357MPD2    N1 5355   3.521   3.671   1.832  0.6460  0.5729 -1.0032
  357MPD2    H7 5356   3.458   3.735   1.880  2.0345  0.2323  1.2297
  358TMC3    C1 5357   3.597   3.872   1.730 -0.6239  0.2055 -0.1607
  358TMC3    C2 5358   3.624   3.923   1.610  0.0420  0.4079  0.1531
  358TMC3    C3 5359   3.636   4.059   1.605  0.3041 -0.5190  0.1932
  358TMC3    C4 5360   3.604   3.939   1.850  0.0383 -0.1757 -0.0035
  358TMC3    C5 5361   3.619   4.075   1.836 -0.2092  0.1667  0.1857
  358TMC3    C6 5362   3.626   4.143   1.718 -0.0467  0.4201  0.0670
  358TMC3     C 5363   3.586   3.729   1.726  0.6983 -0.1322  0.4005
  358TMC3     O 5364   3.649   3.670   1.637 -0.0680 -0.4293 -0.1826
  358TMC3     H 5365   3.585   3.883   1.517  0.6046  0.4295 -0.0942
  358TMC3    H1 5366   3.558   3.907   1.942  0.4570 -1.2207 -0.1646
  358TMC3    H2 5367   3.671   4.242   1.709  0.7395  0.0372 -0.2180
  358TMC3    C7 5368   3.640   4.154   1.953  0.0797  0.6662  0.1815
  358TMC3    C8 5369   3.650   4.123   1.475  0.8836 -0.6350 -0.4197
  358TMC3    O1 5370   3.636   4.085   2.055 -0.2419  0.7855  0.0595
  358TMC3    O2 5371   3.596   4.232   1.463  0.2424 -0.7185  0.0668
  359MPD2     C 5372   3.951   3.557  12.712  0.1836 -0.3816  0.0526
  359MPD2    C1 5373   3.903   3.595  12.592  0.0626  1.1244  0.3279
  359MPD2    C2 5374   3.765   3.590  12.575  0.2007  0.3809 -0.0886
  359MPD2    C3 5375   3.674   3.537  12.659 -0.7752  0.0143 -0.1036
  359MPD2    C4 5376   3.735   3.494  12.776  0.6698 -0.6256  0.3256
  359MPD2    C5 5377   3.871   3.509  12.807 -0.0602 -0.2079 -0.1011
  359MPD2     H 5378   3.738   3.629  12.477 -0.8490  1.3732  0.5992
  359MPD2    H1 5379   3.671   3.442  12.847 -0.5731 -0.9009 -1.0024
  359MPD2    H2 5380   4.051   3.571  12.750 -0.0969  0.0461  0.6283
  359MPD2    H3 5381   3.914   3.495  12.906 -1.0162  2.7327  0.7060
  359MPD2     N 5382   3.539   3.502  12.629 -0.5646  0.0110  0.2062
  359MPD2    H5 5383   3.475   3.452  12.690  0.1268 -2.2286 -0.8825
  359MPD2    N1 5384   3.985   3.651  12.491  0.2004 -0.4481 -0.5803
  359MPD2    H7 5385   3.945   3.664  12.398  1.7756  0.7078 -1.1014
  360TMC3    C1 5386   4.171   3.793  12.411  0.1240  0.0313  0.1301
  360TMC3    C2 5387   4.295   3.844  12.440  0.1601 -1.3148  0.3282
  360TMC3    C3 5388   4.362   3.888  12.333 -0.6165  0.7735 -0.4513
  360TMC3    C4 5389   4.114   3.805  12.284 -0.2643  0.6180  0.2394
  360TMC3    C5 5390   4.172   3.878  12.186  0.5257 -0.0537  0.0842
  360TMC3    C6 5391   4.302   3.923  12.208 -0.1207 -0.2374  0.6926
  360TMC3     C 5392   4.112   3.713  12.517  0.4293  0.2118 -0.9126
  360TMC3     O 5393   4.174   3.720  12.621  0.6799  0.4142 -0.2441
  360TMC3     H 5394   4.353   3.808  12.524  1.8235 -2.4233 -1.2661
  360TMC3    H1 5395   4.011   3.777  12.263 -0.1353 -1.0828  1.8854
  360TMC3    H2 5396   4.361   3.967  12.129  1.3953 -1.3015  1.2226
  360TMC3    C7 5397   4.145   3.850  12.045  0.4773 -0.2773 -0.3263
  360TMC3    C8 5398   4.502   3.850  12.327 -0.2005  0.6408 -0.2669
  360TMC3    O1 5399   4.202   3.918  11.964 -0.2102  0.0346  0.5236
  360TMC3    O2 5400   4.550   3.808  12.431 -0.3148 -0.4233  0.9707
  361MPD2     C 5401   0.702   2.802  16.803 -0.5795  0.5598  0.4095
  361MPD2    C1 5402   0.683   2.819  16.939  0.0810 -0.6758 -0.5314
  361MPD2    C2 5403   0.719   2.720  17.027  0.4918 -0.6883 -0.4177
  361MPD2    C3 5404   0.762   2.604  16.977  0.2140 -0.2577 -0.9060
  361MPD2    C4 5405   0.771   2.579  16.838 -0.1327  0.3480  0.4462
  361MPD2    C5 5406   0.737   2.681  16.747  0.1316 -0.1220  0.0428
  361MPD2     H 5407   0.713   2.751  17.130 -0.9020 -1.9320 -0.1281
  361MPD2    H1 5408   0.797   2.481  16.799  1.2362  0.5796  0.7911
  361MPD2    H2 5409   0.674   2.883  16.735  1.4768  1.1153  0.2054
  361MPD2    H3 5410   0.751   2.668  16.640  0.9111 -0.6559  0.2099
  361MPD2     N 5411   0.794   2.498  17.062 -0.2927  0.2924  0.8417
  361MPD2    H5 5412   0.824   2.416  17.010 -1.8431 -1.1711  2.2379
  361MPD2    N1 5413   0.625   2.935  17.001  0.4714 -0.4260 -0.0411
  361MPD2    H7 5414   0.623   2.938  17.103 -1.5845  0.9333 -0.1211
  362TMC3    C1 5415   0.506   3.142  17.010  0.7032  0.4528  0.1206
  362TMC3    C2 5416   0.409   3.077  17.080 -0.0180 -0.1930  0.4043
  362TMC3    C3 5417   0.283   3.131  17.076 -0.3829  0.3800 -0.1240
  362TMC3    C4 5418   0.479   3.257  16.939  0.4949 -0.7340  0.2632
  362TMC3    C5 5419   0.355   3.305  16.935 -0.0120 -0.2987  0.1534
  362TMC3    C6 5420   0.254   3.245  17.010  0.4267 -0.4355 -0.1973
  362TMC3     C 5421   0.577   3.047  16.931  0.6605 -0.7588 -0.7763
  362TMC3     O 5422   0.582   3.081  16.819 -0.1285 -0.1223  0.1527
  362TMC3     H 5423   0.425   2.980  17.125 -0.1670  0.2097  1.3344
  362TMC3    H1 5424   0.560   3.290  16.875 -1.5416  0.8267 -1.4852
  362TMC3    H2 5425   0.150   3.266  16.990 -0.1136 -2.1730  0.8715
  362TMC3    C7 5426   0.310   3.394  16.831 -0.2108  0.5372 -0.0300
  362TMC3    C8 5427   0.170   3.044  17.083 -0.4342 -0.4866 -0.3023
  362TMC3    O1 5428   0.189   3.411  16.817 -0.1087 -0.3675  0.4592
  362TMC3    O2 5429   0.191   2.932  17.035 -0.1653  0.4198 -0.2577
  363TMC3    C1 5430   3.599   0.778   9.998  0.9098 -0.3144 -0.2805
  363TMC3    C2 5431   3.711   0.740  10.064  0.0784  0.8378  0.1890
  363TMC3    C3 5432   3.811   0.835  10.076  0.6793  0.1371 -0.0827
  363TMC3    C4 5433   3.584   0.907   9.947 -0.4122  0.2332 -0.6729
  363TMC3    C5 5434   3.688   0.996   9.964 -0.1257 -0.6618 -0.1886
  363TMC3    C6 5435   3.807   0.965  10.029 -0.5625 -0.1863  0.4603
  363TMC3     C 5436   3.565   0.672   9.901  0.6084  0.3404 -0.6452
  363TMC3     O 5437   3.654   0.592   9.887 -1.0554  0.0783 -0.2234
  363TMC3     H 5438   3.722   0.643  10.112  1.1571  0.7983 -0.1351
  363TMC3    H1 5439   3.515   0.933   9.867 -0.7375  0.1495 -0.4200
  363TMC3    H2 5440   3.885   1.037  10.051 -1.1049  0.0335  1.6410
  363TMC3    C7 5441   3.655   1.131   9.919 -0.7585 -0.6878  0.0931
  363TMC3    C8 5442   3.941   0.793  10.126  0.6034 -0.2704 -0.5364
  363TMC3    O1 5443   3.550   1.146   9.857  0.6504  0.1260  0.0292
  363TMC3    O2 5444   4.015   0.881  10.173  0.2722  0.0935  0.1121
  364MPD2     C 5445   2.910   4.616  10.960  0.0444 -1.0431 -0.5626
  364MPD2    C1 5446   2.963   4.575  10.843 -0.3660 -0.4361 -0.9027
  364MPD2    C2 5447   3.026   4.452  10.842 -0.2004 -0.0571 -0.1796
  364MPD2    C3 5448   3.040   4.368  10.955  0.1308 -0.4788 -0.1429
  364MPD2    C4 5449   2.993   4.422  11.072 -0.6240 -0.0965 -0.0199
  364MPD2    C5 5450   2.917   4.538  11.071  0.1762  0.0555  0.4381
  364MPD2     H 5451   3.064   4.414  10.748 -0.6426  1.7564 -1.0935
  364MPD2    H1 5452   2.999   4.359  11.160 -1.0793  0.8507  0.6872
  364MPD2    H2 5453   2.859   4.711  10.971  0.2979 -0.7406 -1.9657
  364MPD2    H3 5454   2.865   4.563  11.163  0.4274  0.3893  0.4897
  364MPD2     N 5455   3.107   4.240  10.956  0.8814 -0.4307  0.4253
  364MPD2    H5 5456   3.120   4.197  11.048 -0.0760 -0.7343  0.4214
  364MPD2    N1 5457   2.963   4.667  10.734  0.0532 -0.5833  0.2183
  364MPD2    H7 5458   2.913   0.034  10.740 -0.6331 -0.9470 -0.0982
  365TMC3    C1 5459   3.059   0.064  10.542 -0.4530 -0.2798 -0.1743
  365TMC3    C2 5460   3.105   0.045  10.412  0.2351  0.1671  0.4092
  365TMC3    C3 5461   3.108   0.150  10.325  0.4110  0.1068  0.6506
  365TMC3    C4 5462   3.019   0.184  10.584  0.0989 -0.7820  0.5568
  365TMC3    C5 5463   3.012   0.291  10.487  0.5285  0.3892 -0.1669
  365TMC3    C6 5464   3.064   0.269  10.365 -0.4371 -0.4954  0.2049
  365TMC3     C 5465   3.048   4.664  10.625  0.1776 -0.1737  0.5298
  365TMC3     O 5466   3.114   4.567  10.585 -0.5083  1.0391  0.5486
  365TMC3     H 5467   3.143   4.669  10.384  1.3103  0.5923  0.3855
  365TMC3    H1 5468   2.983   0.201  10.684  0.2314  1.6048  0.1794
  365TMC3    H2 5469   3.068   0.348  10.291  0.0551  0.5353  1.3343
  365TMC3    C7 5470   2.941   0.413  10.529 -0.4372 -0.5876  0.4577
  365TMC3    C8 5471   3.168   0.137  10.194 -0.8512  0.3872 -0.1598
  365TMC3    O1 5472   2.979   0.522  10.490 -0.1979 -0.1203  0.1333
  365TMC3    O2 5473   3.132   0.215  10.104 -0.1933  0.3255  0.4134
  366MPD2     C 5474   0.972   0.827  15.235  0.2363 -0.0941 -0.3770
  366MPD2    C1 5475   0.996   0.857  15.365  0.0143  0.1987 -0.3868
  366MPD2    C2 5476   1.120   0.842  15.414  0.5263 -0.4199  0.1417
  366MPD2    C3 5477   1.228   0.794  15.339  0.0584  0.4301 -0.6244
  366MPD2    C4 5478   1.197   0.751  15.212 -0.0579  0.0342 -0.2195
  366MPD2    C5 5479   1.070   0.762  15.164  0.2451  0.7250  0.2191
  366MPD2     H 5480   1.125   0.862  15.521 -0.9604  1.5469 -0.1633
  366MPD2    H1 5481   1.268   0.715  15.139 -1.2626 -1.6554 -0.5585
  366MPD2    H2 5482   0.882   0.846  15.179  1.0095  0.8517 -1.3070
  366MPD2    H3 5483   1.047   0.742  15.060  0.8300 -0.0745  0.2418
  366MPD2     N 5484   1.361   0.778  15.394 -0.0692 -0.0832  0.1704
  366MPD2    H5 5485   1.429   0.733  15.333 -1.0082 -1.4572  0.1254
  366MPD2    N1 5486   0.898   0.921  15.445 -0.1811  0.4089  0.0585
  366MPD2    H7 5487   0.926   0.967  15.531 -0.9276 -1.2226  1.1636
  367TMC3    C1 5488   0.687   0.997  15.518  0.4657  0.1824 -0.2694
  367TMC3    C2 5489   0.739   1.011  15.642  0.1270  0.7159 -0.2784
  367TMC3    C3 5490   0.699   1.121  15.719 -0.1353 -0.1968 -0.0402
  367TMC3    C4 5491   0.580   1.072  15.485  0.4986 -0.4354  1.2148
  367TMC3    C5 5492   0.548   1.181  15.559 -0.0809  0.5060  0.0972
  367TMC3    C6 5493   0.616   1.213  15.669 -0.3386  0.1376  0.6120
  367TMC3     C 5494   0.765   0.931  15.416 -0.6951  0.2820  0.1110
  367TMC3     O 5495   0.688   0.876  15.336 -0.1987  0.4096 -0.2396
  367TMC3     H 5496   0.805   0.935  15.684  1.8404  1.7608 -1.0766
  367TMC3    H1 5497   0.540   1.045  15.388 -1.7396  0.1431  1.9606
  367TMC3    H2 5498   0.592   1.300  15.729 -0.8034  0.8519 -0.6248
  367TMC3    C7 5499   0.441   1.271  15.503 -0.9552 -0.3585 -1.1821
  367TMC3    C8 5500   0.798   1.147  15.822  0.5013 -0.7917  0.0428
  367TMC3    O1 5501   0.416   1.375  15.561 -0.1830  0.6101 -0.5826
  367TMC3    O2 5502   0.902   1.083  15.824  0.4904  0.4035  0.1631
  368MPD2     C 5503   1.944   2.538  13.038 -0.0767  0.0807  0.0989
  368MPD2    C1 5504   1.968   2.665  12.997 -0.1108  0.1009  0.7603
  368MPD2    C2 5505   2.074   2.698  12.917 -0.6999  0.0614  0.0270
  368MPD2    C3 5506   2.168   2.598  12.888  0.2019  0.1625 -0.1090
  368MPD2    C4 5507   2.137   2.465  12.912  0.2373  0.2190  0.3349
  368MPD2    C5 5508   2.035   2.442  13.003 -0.1090  0.0445  0.5529
  368MPD2     H 5509   2.095   2.804  12.901 -0.9214  0.0371 -0.4258
  368MPD2    H1 5510   2.207   2.386  12.890 -0.1021  0.3509 -1.2427
  368MPD2    H2 5511   1.874   2.509  13.115 -1.4409  1.3101 -0.6464
  368MPD2    H3 5512   2.033   2.343  13.045  0.2600 -0.3190 -0.2821
  368MPD2     N 5513   2.285   2.623  12.811  0.0114 -0.0316 -0.4078
  368MPD2    H5 5514   2.363   2.559  12.828 -0.2467 -0.3988 -0.6041
  368MPD2    N1 5515   1.876   2.763  13.043  0.0350  0.1765  0.0193
  368MPD2    H7 5516   1.801   2.726  13.101 -0.9312 -0.4849 -1.6371
  369TMC3    C1 5517   1.805   2.982  13.128  0.0660  0.4371  0.6765
  369TMC3    C2 5518   1.829   3.118  13.127 -0.2087 -0.3993  0.2980
  369TMC3    C3 5519   1.732   3.194  13.178 -0.6174  0.1409 -0.6249
  369TMC3    C4 5520   1.681   2.924  13.151 -0.6475  0.2696  0.0117
  369TMC3    C5 5521   1.582   3.009  13.200 -0.0079 -0.2747 -0.4706
  369TMC3    C6 5522   1.610   3.149  13.215  0.1798  0.1991 -0.4600
  369TMC3     C 5523   1.908   2.899  13.055  0.1730  0.1416 -0.3076
  369TMC3     O 5524   2.018   2.948  13.036 -0.6569 -0.6447 -0.6875
  369TMC3     H 5525   1.928   3.152  13.100 -0.2492 -1.9738 -1.8155
  369TMC3    H1 5526   1.670   2.816  13.143 -0.4675  0.1663  1.0951
  369TMC3    H2 5527   1.541   3.212  13.269 -0.8143 -1.0470 -0.2688
  369TMC3    C7 5528   1.486   2.949  13.285 -0.7314  0.1326  0.1503
  369TMC3    C8 5529   1.729   3.326  13.123  0.0442 -1.0044 -0.2974
  369TMC3    O1 5530   1.502   2.964  13.403  0.3921  0.3877 -0.5151
  369TMC3    O2 5531   1.625   3.370  13.083  0.1434 -0.3531  0.0891
  370TMC3    C1 5532   1.629   3.677  16.475 -0.8273 -0.4257 -0.1659
  370TMC3    C2 5533   1.531   3.607  16.546 -0.3944 -0.2352  0.6601
  370TMC3    C3 5534   1.437   3.540  16.472 -0.1399  0.3054 -0.4156
  370TMC3    C4 5535   1.636   3.675  16.335  0.7954 -0.1955 -0.0329
  370TMC3    C5 5536   1.540   3.609  16.271 -0.3496 -0.0826  0.8065
  370TMC3    C6 5537   1.446   3.536  16.334  0.2544  0.1565 -0.2021
  370TMC3     C 5538   1.749   3.708  16.549  0.0838  0.2070 -0.4490
  370TMC3     O 5539   1.770   3.644  16.651  0.1732  0.8857  0.0654
  370TMC3     H 5540   1.526   3.620  16.653 -1.9828  2.5439  0.2464
  370TMC3    H1 5541   1.720   3.718  16.282  1.1893  0.3723  1.0412
  370TMC3    H2 5542   1.366   3.483  16.284 -0.8926  1.1562  0.5879
  370TMC3    C7 5543   1.563   3.578  16.137  0.7775 -0.4052  0.3972
  370TMC3    C8 5544   1.359   3.433  16.543 -0.2322 -0.7634  0.4401
  370TMC3    O1 5545   1.631   3.660  16.079 -0.3996 -0.7011 -0.4929
  370TMC3    O2 5546   1.311   3.339  16.483 -0.3209 -0.0928  0.0985
  371TMC3    C1 5547   2.251   1.606  15.825 -0.3158  0.6179 -0.0754
  371TMC3    C2 5548   2.128   1.655  15.835  0.0676 -0.2533  0.1799
  371TMC3    C3 5549   2.103   1.785  15.833  0.1543  0.1132 -0.1373
  371TMC3    C4 5550   2.357   1.681  15.799 -0.1469 -0.6959  0.5430
  371TMC3    C5 5551   2.323   1.815  15.791  0.0094 -0.2496 -0.2920
  371TMC3    C6 5552   2.204   1.873  15.809  0.0068  0.6464 -0.1472
  371TMC3     C 5553   2.265   1.460  15.841  0.5866  0.1218 -0.3824
  371TMC3     O 5554   2.229   1.405  15.947  0.0067 -0.0452  0.5798
  371TMC3     H 5555   2.055   1.580  15.862  0.2082 -0.1383  0.9010
  371TMC3    H1 5556   2.455   1.636  15.807  0.2282 -0.2575 -1.6923
  371TMC3    H2 5557   2.191   1.980  15.817 -0.6550  0.5408  0.1809
  371TMC3    C7 5558   2.429   1.907  15.750 -0.2346  0.0822  0.2395
  371TMC3    C8 5559   1.970   1.825  15.801  0.7327  0.2445 -0.4580
  371TMC3    O1 5560   2.417   2.030  15.763 -0.2497 -0.4446  0.3009
  371TMC3    O2 5561   1.891   1.731  15.780  0.2512 -0.0876 -0.0341
  372MPD2     C 5562   1.957   3.036  13.441 -0.3280 -0.0470  0.8542
  372MPD2    C1 5563   2.091   3.013  13.472 -0.1025 -0.3460  0.0269
  372MPD2    C2 5564   2.128   2.892  13.531  0.0744 -0.1090  0.0193
  372MPD2    C3 5565   2.030   2.794  13.571  0.0454 -0.6201  0.4950
  372MPD2    C4 5566   1.899   2.830  13.549  0.2198  0.5663  0.0840
  372MPD2    C5 5567   1.865   2.947  13.484 -0.1144  0.6118  0.4004
  372MPD2     H 5568   2.232   2.870  13.550 -0.1204  1.2339  2.7461
  372MPD2    H1 5569   1.819   2.774  13.595  2.4500 -2.9004 -0.2465
  372MPD2    H2 5570   1.921   3.124  13.390  1.0261 -0.4960 -0.8785
  372MPD2    H3 5571   1.765   2.986  13.475  0.3236  1.7287  0.4071
  372MPD2     N 5572   2.080   2.668  13.621  0.1980 -0.1677  0.3449
  372MPD2    H5 5573   2.177   2.669  13.650  0.0941  2.3705  0.5821
  372MPD2    N1 5574   2.186   3.110  13.451  0.1995  0.2645  0.3946
  372MPD2    H7 5575   2.281   3.088  13.481  0.7384  0.9916 -0.7601
  373TMC3    C1 5576   2.066   2.450  13.698  0.1555 -0.0941  0.1988
  373TMC3    C2 5577   1.985   2.360  13.762  0.4198 -0.1911  0.2773
  373TMC3    C3 5578   2.042   2.253  13.827 -0.2191  0.4118  0.3830
  373TMC3    C4 5579   2.199   2.446  13.692 -0.4244 -0.3484  0.0466
  373TMC3    C5 5580   2.250   2.335  13.753  0.8870  0.1399  0.1371
  373TMC3    C6 5581   2.177   2.238  13.816  0.3762  0.2939  0.5184
  373TMC3     C 5582   1.998   2.554  13.630  0.8614  0.5892  0.2760
  373TMC3     O 5583   1.873   2.547  13.630 -0.0928 -0.1245  0.2325
  373TMC3     H 5584   1.877   2.368  13.757  0.3612 -0.4463  1.1603
  373TMC3    H1 5585   2.258   2.502  13.620 -0.9190 -2.0498 -1.7021
  373TMC3    H2 5586   2.223   2.155  13.867 -2.4816 -0.3160  2.1122
  373TMC3    C7 5587   2.392   2.309  13.755  0.2741  0.1253 -0.2362
  373TMC3    C8 5588   1.962   2.143  13.871 -0.1488 -0.1781  0.3648
  373TMC3    O1 5589   2.421   2.189  13.754  0.4252  0.1757 -0.3447
  373TMC3    O2 5590   1.922   2.078  13.775  0.2284 -0.5533  0.1312
  374TMC3    C1 5591   3.038   3.239   9.825 -0.4094 -0.2792  0.3099
  374TMC3    C2 5592   3.137   3.321   9.867  0.2554 -0.5843 -0.0801
  374TMC3    C3 5593   3.170   3.427   9.787  0.7586  0.6858 -0.0046
  374TMC3    C4 5594   2.990   3.237   9.696 -0.0996  0.0519  0.2296
  374TMC3    C5 5595   3.015   3.351   9.624  1.3441  0.6037  0.7204
  374TMC3    C6 5596   3.112   3.443   9.667 -0.8455  0.0830  0.3233
  374TMC3     C 5597   3.028   3.118   9.905 -0.6659  0.4861  0.0908
  374TMC3     O 5598   3.132   3.079   9.960  0.4218  0.2573  0.1397
  374TMC3     H 5599   3.170   3.320   9.971  2.2373  1.0350 -0.6943
  374TMC3    H1 5600   2.921   3.161   9.661  0.4882 -0.5993  0.4674
  374TMC3    H2 5601   3.139   3.523   9.599 -0.5304 -1.2703 -1.1258
  374TMC3    C7 5602   2.932   3.386   9.509  0.2125 -0.3700  0.1891
  374TMC3    C8 5603   3.270   3.524   9.824  0.0994  0.2720 -1.0489
  374TMC3    O1 5604   2.967   3.472   9.431 -0.5707  0.2028  0.2950
  374TMC3    O2 5605   3.313   3.606   9.744 -0.0491 -0.3151  0.0916
  375MPD2     C 5606   2.862   3.598  17.357 -0.1769  0.8506  0.5947
  375MPD2    C1 5607   2.765   3.616  17.255 -0.7298  0.7576  0.3159
  375MPD2    C2 5608   2.791   3.553  17.138 -0.1227  0.0289  0.2505
  375MPD2    C3 5609   2.915   3.482  17.117  0.0008  0.1262  0.1034
  375MPD2    C4 5610   3.013   3.468  17.221  0.0505  0.1847  0.5664
  375MPD2    C5 5611   2.981   3.533  17.334 -0.3113 -0.2842 -0.8587
  375MPD2     H 5612   2.726   3.555  17.051  0.7051 -2.0416 -0.4144
  375MPD2    H1 5613   3.111   3.423  17.206 -0.4923 -0.6061 -0.6005
  375MPD2    H2 5614   2.856   3.649  17.453  2.6873  2.2699  0.0052
  375MPD2    H3 5615   3.056   3.542  17.412 -2.2824 -1.7391  1.2150
  375MPD2     N 5616   2.958   3.434  16.986  0.5683 -0.3861  0.2569
  375MPD2    H5 5617   3.049   3.390  16.992  0.3498 -0.9251 -0.5157
  375MPD2    N1 5618   2.637   3.678  17.275  0.9886 -0.0410  0.2302
  375MPD2    H7 5619   2.567   3.679  17.202  1.6254 -1.0786 -0.3781
  376TMC3    C1 5620   2.977   3.403  16.760  0.0381 -0.0167 -0.2356
  376TMC3    C2 5621   3.111   3.377  16.786 -0.2869  0.2825  0.0987
  376TMC3    C3 5622   3.193   3.328  16.683 -0.2062 -0.2662  0.4500
  376TMC3    C4 5623   2.915   3.366  16.645 -0.0752 -0.3680  0.3199
  376TMC3    C5 5624   2.995   3.330  16.544  0.2631  0.6283  0.1272
  376TMC3    C6 5625   3.132   3.313  16.561  1.1039 -0.1178 -0.0075
  376TMC3     C 5626   2.892   3.442  16.872  0.3953 -0.0626  0.3352
  376TMC3     O 5627   2.772   3.472  16.849  0.5386  0.2011 -0.2677
  376TMC3     H 5628   3.158   3.413  16.877  2.7137 -0.4920 -1.1305
  376TMC3    H1 5629   2.817   3.403  16.619 -0.8661 -2.3290  0.5589
  376TMC3    H2 5630   3.201   3.298  16.479 -1.0648  0.3135 -1.8924
  376TMC3    C7 5631   2.950   3.337  16.405 -0.1457  0.1723  0.1339
  376TMC3    C8 5632   3.326   3.371  16.691 -0.1592 -0.4363 -0.3403
  376TMC3    O1 5633   2.860   3.415  16.377 -0.0397  0.1642 -0.5866
  376TMC3    O2 5634   3.344   3.491  16.709 -0.1925  0.0333 -0.3250
  377MPD2     C 5635   1.040   3.496  12.459  0.2735  0.3158  0.0628
  377MPD2    C1 5636   1.092   3.385  12.522 -0.1214  0.1309  0.2113
  377MPD2    C2 5637   1.041   3.347  12.648  0.7974  0.2380 -0.6141
  377MPD2    C3 5638   0.913   3.387  12.686  0.2920  1.0320  0.1165
  377MPD2    C4 5639   0.850   3.485  12.608 -1.2495  0.3781  0.2201
  377MPD2    C5 5640   0.914   3.534  12.500  0.0108 -0.5774  0.1752
  377MPD2     H 5641   1.090   3.270  12.707  2.9205  2.7545  0.9408
  377MPD2    H1 5642   0.745   3.514  12.613 -1.3906 -0.2297  0.7900
  377MPD2    H2 5643   1.085   3.538  12.370 -0.2117  2.5894  0.9064
  377MPD2    H3 5644   0.867   3.618  12.449 -0.8718 -1.6270 -0.7556
  377MPD2     N 5645   0.848   3.350  12.809  0.1217 -0.2140 -0.5692
  377MPD2    H5 5646   0.756   3.388  12.832  0.0279 -1.5869  1.3220
  377MPD2    N1 5647   1.198   3.316  12.461  0.1487  0.2488 -0.0321
  377MPD2    H7 5648   1.224   3.352  12.370  0.4161 -1.5243 -0.6467
  378TMC3    C1 5649   1.551   3.222  12.272 -0.0381  0.0397  0.8352
  378TMC3    C2 5650   1.427   3.255  12.330  0.1707  0.5612 -0.1177
  378TMC3    C3 5651   1.377   3.169  12.423  0.4751  0.4171 -0.4065
  378TMC3    C4 5652   1.622   3.111  12.314 -0.3275 -0.6660  0.1173
  378TMC3    C5 5653   1.566   3.030  12.407 -0.3503 -0.6732  0.2986
  378TMC3    C6 5654   1.442   3.054  12.458  0.5026  0.5216 -0.4781
  378TMC3     C 5655   1.607   3.319  12.176 -1.1756 -0.2922 -0.4049
  378TMC3     O 5656   1.539   3.416  12.150 -0.2077 -0.1130  0.0686
  378TMC3     H 5657   1.368   3.341  12.300  1.3580  1.1158 -0.8236
  378TMC3    H1 5658   1.721   3.086  12.280 -0.3993  1.3073 -1.5333
  378TMC3    H2 5659   1.411   3.000  12.546  0.4910  1.2036 -0.0662
  378TMC3    C7 5660   1.637   2.909  12.447 -0.3229 -0.2388  0.0848
  378TMC3    C8 5661   1.269   3.205  12.509  0.3981  0.0548  0.0607
  378TMC3    O1 5662   1.575   2.838  12.522 -0.5742  0.1552 -0.1147
  378TMC3    O2 5663   1.240   3.130  12.599  0.7655  0.6426  0.4557
  379MPD2     C 5664   1.925   0.896  16.363 -0.3470 -0.2737  0.1965
  379MPD2    C1 5665   1.813   0.922  16.435 -0.0661 -0.3655  0.2347
  379MPD2    C2 5666   1.786   0.857  16.562 -0.2311  0.2560 -0.3784
  379MPD2    C3 5667   1.888   0.781  16.619  0.3665 -0.5303 -0.2400
  379MPD2    C4 5668   1.990   0.751  16.537  0.3427 -0.0683 -1.1257
  379MPD2    C5 5669   2.016   0.805  16.415  0.7190 -0.7213  0.4528
  379MPD2     H 5670   1.694   0.878  16.616 -0.7537 -2.6291 -0.1348
  379MPD2    H1 5671   2.061   0.678  16.576 -1.8987 -0.2371  2.6810
  379MPD2    H2 5672   1.946   0.958  16.276 -0.0959  0.2647  0.6414
  379MPD2    H3 5673   2.106   0.778  16.360 -0.0918 -0.2243 -1.1314
  379MPD2     N 5674   1.885   0.712  16.747  0.0658  0.9475 -0.2662
  379MPD2    H5 5675   1.965   0.652  16.767  0.0602 -0.0499 -3.1538
  379MPD2    N1 5676   1.719   1.004  16.367 -0.4273  0.2808 -0.3452
  379MPD2    H7 5677   1.728   1.015  16.266 -0.3288 -1.3628 -0.5254
  380TMC3    C1 5678   1.568   1.171  16.337 -0.2643 -0.6378  0.1743
  380TMC3    C2 5679   1.619   1.189  16.207  0.4773  0.4852  0.4841
  380TMC3    C3 5680   1.537   1.257  16.121 -0.2325  0.4159  0.0439
  380TMC3    C4 5681   1.436   1.211  16.366 -0.1128  0.0949  0.2537
  380TMC3    C5 5682   1.360   1.265  16.268 -0.6457  0.3673  0.4586
  380TMC3    C6 5683   1.407   1.292  16.144  0.6107  0.4833 -0.0747
  380TMC3     C 5684   1.631   1.088  16.429  0.1337  0.0400  0.4296
  380TMC3     O 5685   1.588   1.087  16.548 -0.0055  0.0492 -0.6105
  380TMC3     H 5686   1.720   1.169  16.175  1.2464  3.4262  1.0669
  380TMC3    H1 5687   1.404   1.183  16.466 -1.9511  0.3235 -0.2736
  380TMC3    H2 5688   1.353   1.351  16.071 -2.5078 -2.2978 -0.0145
  380TMC3    C7 5689   1.226   1.304  16.299  0.4096  0.3206  0.3200
  380TMC3    C8 5690   1.596   1.296  15.997  0.0649 -0.3618  0.0223
  380TMC3    O1 5691   1.187   1.348  16.407  0.4085  0.6998  0.1555
  380TMC3    O2 5692   1.570   1.411  15.959  0.0113  0.2465 -0.1670
  381TMC3    C1 5693   1.192   2.822  16.098  0.0625 -0.1502 -0.4984
  381TMC3    C2 5694   1.293   2.906  16.109 -0.6123  0.1541 -0.0783
  381TMC3    C3 5695   1.340   2.957  16.231 -0.2992 -0.2883 -0.6947
  381TMC3    C4 5696   1.131   2.781  16.215 -0.1360  0.7761 -1.2627
  381TMC3    C5 5697   1.169   2.829  16.336  0.1730 -0.1857 -1.8442
  381TMC3    C6 5698   1.277   2.915  16.345  0.2731  0.2448 -0.2875
  381TMC3     C 5699   1.170   2.754  15.967  0.1075  0.1657  0.8268
  381TMC3     O 5700   1.251   2.784  15.879 -0.2156  0.0894 -0.7913
  381TMC3     H 5701   1.351   2.907  16.017  2.8028 -1.7591  2.0513
  381TMC3    H1 5702   1.042   2.719  16.211  0.1121  0.2540  1.7262
  381TMC3    H2 5703   1.308   2.949  16.444 -0.2410 -0.2402  0.0371
  381TMC3    C7 5704   1.133   2.756  16.454 -0.4029  0.1165 -1.3483
  381TMC3    C8 5705   1.483   2.988  16.242 -0.3484  0.2542 -0.2909
  381TMC3    O1 5706   1.130   2.635  16.433  0.0483  0.1025  0.0403
  381TMC3    O2 5707   1.545   2.965  16.142 -0.5066 -0.3671  0.1293
  382MPD2     C 5708   1.030   0.104  17.430 -0.8347 -0.3221 -0.5306
  382MPD2    C1 5709   0.937   0.208  17.426 -0.6663 -0.3807  0.0475
  382MPD2    C2 5710   0.807   0.180  17.458  0.8908 -0.3914 -0.5050
  382MPD2    C3 5711   0.767   0.050  17.486 -0.7636 -0.3069  0.4374
  382MPD2    C4 5712   0.861   4.667  17.488  0.0648 -0.1523  0.5468
  382MPD2    C5 5713   0.992   4.696  17.460 -0.3903  0.6030  0.1522
  382MPD2     H 5714   0.741   0.266  17.462 -2.2347 -2.7483 -2.3441
  382MPD2    H1 5715   0.817   4.569  17.500 -0.2984 -0.2817 -1.9614
  382MPD2    H2 5716   1.135   0.120  17.407 -0.3566 -0.0226  1.8322
  382MPD2    H3 5717   1.062   4.613  17.456  1.2786  2.1578 -2.6328
  382MPD2     N 5718   0.631   0.020  17.522  0.2641 -0.1873  0.3228
  382MPD2    H5 5719   0.606   4.646  17.544  1.3753 -0.3766  0.7548
  382MPD2    N1 5720   0.979   0.337  17.392  0.4177 -0.0439  0.2090
  382MPD2    H7 5721   0.899   0.398  17.378  1.7645  1.6456 -0.1997
  383TMC3    C1 5722   0.404   0.062  17.557 -0.4027 -0.1315 -0.4693
  383TMC3    C2 5723   0.361   4.664  17.510 -0.1716 -0.2229 -0.1434
  383TMC3    C3 5724   0.231   4.631  17.530 -0.9729 -0.1012 -0.6092
  383TMC3    C4 5725   0.317   0.145  17.634 -0.0422  0.3960  0.5256
  383TMC3    C5 5726   0.195   0.098  17.661  0.9026 -0.0264  0.2513
  383TMC3    C6 5727   0.142   4.710  17.600 -0.5726  0.4120 -0.8663
  383TMC3     C 5728   0.534   0.118  17.536  0.5313  0.2621 -0.3472
  383TMC3     O 5729   0.554   0.237  17.563  0.3499  0.2429  0.0019
  383TMC3     H 5730   0.415   4.607  17.436  1.4989  0.2498  0.7049
  383TMC3    H1 5731   0.358   0.233  17.680  0.0522  0.5136  0.2126
  383TMC3    H2 5732   0.042   4.674  17.619 -0.1958  0.0121  0.4307
  383TMC3    C7 5733   0.104   0.160   0.065  0.7397 -0.4712 -0.4045
  383TMC3    C8 5734   0.166   4.533  17.442 -0.8047  0.4435  0.2311
  383TMC3    O1 5735   4.713   0.113   0.088 -0.0046 -0.3188 -0.8691
  383TMC3    O2 5736   0.053   4.554  17.415  0.4575 -0.4674  0.0354
  384MPD2     C 5737   2.806   0.834  12.138  0.5634  0.0724 -0.5275
  384MPD2    C1 5738   2.777   0.749  12.243  0.1635 -0.1503 -0.0226
  384MPD2    C2 5739   2.798   0.607  12.225  0.1120 -0.5181  0.4618
  384MPD2    C3 5740   2.814   0.567  12.096 -0.4727  1.1152 -0.3175
  384MPD2    C4 5741   2.837   0.653  11.989 -0.5125  0.0532 -0.2404
  384MPD2    C5 5742   2.840   0.785  12.018 -1.1750  0.4396 -0.3535
  384MPD2     H 5743   2.776   0.535  12.302 -1.6818  0.7058  1.0958
  384MPD2    H1 5744   2.860   0.623  11.887  0.2419  2.2722 -0.7036
  384MPD2    H2 5745   2.800   0.942  12.144  0.6445  0.0433  0.0606
  384MPD2    H3 5746   2.871   0.854  11.940  2.3488  0.0907  0.7130
  384MPD2     N 5747   2.820   0.423  12.083 -0.8306  0.3789  0.4400
  384MPD2    H5 5748   2.800   0.365  12.164  0.0242  0.2238  0.5376
  384MPD2    N1 5749   2.729   0.791  12.362  0.3514  0.2522 -1.3545
  384MPD2    H7 5750   2.722   0.719  12.433 -0.8653  0.3823 -1.3482
  385TMC3    C1 5751   2.817   0.206  11.996  0.9150  0.1186 -0.8902
  385TMC3    C2 5752   2.698   0.170  11.945  0.2527  0.0108  0.0376
  385TMC3    C3 5753   2.614   0.104  12.030  0.1943  0.0153  0.2108
  385TMC3    C4 5754   2.853   0.177  12.127  0.5650  0.0653  0.9279
  385TMC3    C5 5755   2.762   0.123  12.209  0.3212 -0.3625  0.0384
  385TMC3    C6 5756   2.639   0.077  12.163  0.0279 -0.1352 -0.3487
  385TMC3     C 5757   2.843   0.351  11.967  0.3479 -0.3727 -0.7745
  385TMC3     O 5758   2.878   0.387  11.853 -0.0658 -0.4396 -0.0644
  385TMC3     H 5759   2.667   0.205  11.848  0.5394 -1.5867 -0.6273
  385TMC3    H1 5760   2.946   0.215  12.167  0.4637  0.0333  1.2015
  385TMC3    H2 5761   2.573   0.018  12.226  0.1621  1.0325  0.8986
  385TMC3    C7 5762   2.754   0.188  12.338 -0.0153  0.7582  0.5976
  385TMC3    C8 5763   2.471   0.092  11.988  0.1082 -0.1855 -0.2281
  385TMC3    O1 5764   2.826   0.287  12.343 -0.5738  0.4768 -0.0118
  385TMC3    O2 5765   2.404   0.069  12.084 -0.4181 -0.4816 -0.0493
  386TMC3    C1 5766   2.524   3.175  11.830 -0.0766  0.5397  0.0393
  386TMC3    C2 5767   2.542   3.193  11.699  0.6256  0.2451  0.6470
  386TMC3    C3 5768   2.522   3.323  11.644  0.7718  0.0113 -0.1258
  386TMC3    C4 5769   2.474   3.275  11.917 -0.1208 -0.4464 -0.1800
  386TMC3    C5 5770   2.443   3.401  11.861  0.0536 -0.8226 -0.0164
  386TMC3    C6 5771   2.467   3.425  11.721 -0.0742 -0.6852  0.4834
  386TMC3     C 5772   2.605   3.072  11.886  0.6991  0.2496 -0.5443
  386TMC3     O 5773   2.554   3.002  11.974  0.2638 -0.1578 -0.0125
  386TMC3     H 5774   2.568   3.101  11.649  0.0255  0.5850 -0.2951
  386TMC3    H1 5775   2.439   3.254  12.017 -1.1419  3.1365  0.2250
  386TMC3    H2 5776   2.461   3.527  11.687  1.5195 -0.1526  1.7948
  386TMC3    C7 5777   2.360   3.489  11.944 -0.1801 -0.2332 -0.1624
  386TMC3    C8 5778   2.532   3.340  11.499  0.1092  0.3404  0.3754
  386TMC3    O1 5779   2.307   3.445  12.042 -0.6906  0.0300  0.1292
  386TMC3    O2 5780   2.515   3.453  11.455 -0.4030  0.3738 -0.1001
  387MPD2     C 5781   0.413   3.803   9.499 -0.4205  0.0935  0.5363
  387MPD2    C1 5782   0.485   3.794   9.620 -0.4892  0.0392 -0.4907
  387MPD2    C2 5783   0.509   3.665   9.667  0.0986  0.4653  0.0485
  387MPD2    C3 5784   0.465   3.547   9.604 -0.0271  0.1696 -0.8703
  387MPD2    C4 5785   0.395   3.562   9.491 -0.0095 -0.0890 -0.4553
  387MPD2    C5 5786   0.378   3.691   9.430  0.2548 -0.1043 -0.3181
  387MPD2     H 5787   0.556   3.654   9.764 -0.7320 -1.1544  0.2699
  387MPD2    H1 5788   0.352   3.481   9.434 -0.6204  1.7708 -2.6493
  387MPD2    H2 5789   0.398   3.899   9.452  1.6345  0.4351  0.6110
  387MPD2    H3 5790   0.341   3.700   9.329 -2.3856  2.1076  0.8499
  387MPD2     N 5791   0.485   3.425   9.665  0.6599 -0.7824  0.0189
  387MPD2    H5 5792   0.528   3.423   9.757  1.0715 -1.6062 -0.1862
  387MPD2    N1 5793   0.536   3.894   9.702  0.1534 -0.2874  0.1956
  387MPD2    H7 5794   0.571   3.856   9.790  2.2687 -1.5207 -1.1546
  388TMC3    C1 5795   0.632   4.084   9.769  0.8311 -1.1833 -0.3094
  388TMC3    C2 5796   0.687   4.205   9.726 -0.2791  0.1464  0.0426
  388TMC3    C3 5797   0.803   4.242   9.787  0.2079  0.7932  0.3096
  388TMC3    C4 5798   0.700   4.003   9.860 -0.3953  0.5950 -0.5665
  388TMC3    C5 5799   0.815   4.050   9.915  0.3393 -0.4255  0.4374
  388TMC3    C6 5800   0.868   4.169   9.886  0.4357 -0.8285 -0.0902
  388TMC3     C 5801   0.548   4.026   9.672  0.4017  0.2201 -0.2370
  388TMC3     O 5802   0.499   4.090   9.581  0.2020  0.3825  0.0602
  388TMC3     H 5803   0.649   4.276   9.654 -3.2894 -2.1060 -0.5719
  388TMC3    H1 5804   0.649   3.927   9.919 -1.8090  0.3970 -2.0383
  388TMC3    H2 5805   0.962   4.196   9.932  0.6877  0.1861 -1.1972
  388TMC3    C7 5806   0.908   3.944   9.946  0.0479 -0.0501 -0.4827
  388TMC3    C8 5807   0.844   4.380   9.767  0.2707 -0.3912  0.2103
  388TMC3    O1 5808   1.012   3.979  10.000  0.0098  0.2669  0.3908
  388TMC3    O2 5809   0.814   4.436   9.662  0.1677  0.5757  0.4142
  389MPD2     C 5810   4.466   1.989  11.634 -0.6230 -0.4054 -0.1220
  389MPD2    C1 5811   4.399   1.906  11.551 -0.0119 -0.1216 -0.1761
  389MPD2    C2 5812   4.308   1.818  11.606 -0.3516 -0.1026 -0.3553
  389MPD2    C3 5813   4.295   1.812  11.746 -0.0928  0.3818  0.1249
  389MPD2    C4 5814   4.366   1.903  11.831  0.0133  0.1751  0.1553
  389MPD2    C5 5815   4.447   1.995  11.769 -0.0363  0.0268  0.2588
  389MPD2     H 5816   4.243   1.760  11.540  0.3312  0.4425 -1.5110
  389MPD2    H1 5817   4.365   1.893  11.939 -2.3403 -4.7000 -0.2901
  389MPD2    H2 5818   4.547   2.050  11.596 -0.7723 -1.1235 -1.5589
  389MPD2    H3 5819   4.500   2.064  11.833 -1.5968  1.1004  0.3925
  389MPD2     N 5820   4.217   1.719  11.817  0.2835 -0.4654  0.4102
  389MPD2    H5 5821   4.209   1.728  11.917  0.4240  1.1181  0.2809
  389MPD2    N1 5822   4.418   1.921  11.409 -0.6506  0.3214 -0.2312
  389MPD2    H7 5823   4.491   1.984  11.377 -1.2843  1.5122  0.6646
  390TMC3    C1 5824   4.080   1.543  11.866 -0.2133 -0.0369 -0.5616
  390TMC3    C2 5825   4.096   1.411  11.887 -0.2391  0.1815 -0.5510
  390TMC3    C3 5826   4.032   1.353  11.996  0.0839 -0.0208 -0.6107
  390TMC3    C4 5827   3.980   1.615  11.929  0.1062  0.3804 -0.6350
  390TMC3    C5 5828   3.894   1.549  12.016  0.2703 -0.7445  0.5413
  390TMC3    C6 5829   3.939   1.426  12.059  0.0540 -0.1972  0.2561
  390TMC3     C 5830   4.156   1.608  11.766 -0.0457  0.2279 -0.8560
  390TMC3     O 5831   4.176   1.554  11.661 -0.4636 -0.2083 -1.0617
  390TMC3     H 5832   4.168   1.348  11.835  0.6035  1.2918 -0.7325
  390TMC3    H1 5833   3.979   1.723  11.915 -1.9921  0.6187  1.3058
  390TMC3    H2 5834   3.897   1.380  12.148 -0.0191 -0.2887  0.1728
  390TMC3    C7 5835   3.763   1.558  11.962 -0.0045  0.0391  0.1165
  390TMC3    C8 5836   3.981   1.225  11.964 -0.1244 -0.1357  0.0991
  390TMC3    O1 5837   3.751   1.655  11.887 -0.2237  0.4513 -0.0595
  390TMC3    O2 5838   3.962   1.202  11.849  0.7568  0.1722 -0.1790
  391MPD2     C 5839   3.901   3.257  11.315 -0.1769  0.2561 -0.0110
  391MPD2    C1 5840   4.008   3.313  11.251 -0.1885  0.0655 -0.5274
  391MPD2    C2 5841   3.996   3.330  11.113 -0.3555 -0.5301  0.7499
  391MPD2    C3 5842   3.897   3.273  11.038 -0.3566 -0.0838  0.4381
  391MPD2    C4 5843   3.802   3.194  11.100  0.0525  0.1812 -0.6692
  391MPD2    C5 5844   3.799   3.200  11.237  0.3658  0.3258 -0.5911
  391MPD2     H 5845   4.080   3.384  11.070 -0.6740 -0.6397  0.0090
  391MPD2    H1 5846   3.720   3.134  11.062 -0.1216 -0.6112  0.9705
  391MPD2    H2 5847   3.904   3.237  11.422 -0.8764  0.9678  0.1451
  391MPD2    H3 5848   3.715   3.145  11.277  1.2303  0.5900  1.5509
  391MPD2     N 5849   3.895   3.305  10.898  0.5992 -0.7795 -0.4821
  391MPD2    H5 5850   3.974   3.359  10.867  0.1195  0.8616  1.1344
  391MPD2    N1 5851   4.123   3.360  11.318  0.5687 -0.1516  0.4349
  391MPD2    H7 5852   4.189   3.402  11.255  1.1463 -2.4317 -0.4903
  392TMC3    C1 5853   3.825   3.323  10.675  0.0938  0.4671 -0.5521
  392TMC3    C2 5854   3.725   3.349  10.586  0.1809 -0.4722  0.1133
  392TMC3    C3 5855   3.764   3.393  10.463  0.4164 -0.0668 -0.1084
  392TMC3    C4 5856   3.958   3.336  10.641 -0.2596  0.4540 -0.2034
  392TMC3    C5 5857   3.987   3.397  10.518 -0.4661  0.1607 -0.1953
  392TMC3    C6 5858   3.889   3.430  10.426  0.3642 -0.1939 -0.6309
  392TMC3     C 5859   3.797   3.267  10.811 -0.3477  0.3392 -0.8260
  392TMC3     O 5860   3.685   3.214  10.826  0.0466 -0.0472  0.2759
  392TMC3     H 5861   3.624   3.320  10.610  0.1777  0.0862  0.7821
  392TMC3    H1 5862   4.042   3.300  10.698 -0.0626  0.0890 -0.7232
  392TMC3    H2 5863   3.910   3.473  10.329  1.8981  0.2839 -0.0948
  392TMC3    C7 5864   4.114   3.464  10.503  0.2887  0.1662  0.9369
  392TMC3    C8 5865   3.656   3.409  10.361 -0.1922 -0.1445 -0.3502
  392TMC3    O1 5866   4.174   3.491  10.609  0.9035  0.1857  0.1865
  392TMC3    O2 5867   3.557   3.331  10.368 -0.3060 -0.1436 -0.1952
  393TMC3    C1 5868   2.936   1.466  10.867  0.9450 -0.0102  0.3536
  393TMC3    C2 5869   2.837   1.418  10.949 -0.8118 -0.3885 -0.2748
  393TMC3    C3 5870   2.841   1.287  10.989  1.4087 -0.9996 -0.2012
  393TMC3    C4 5871   3.045   1.390  10.846 -0.3263 -0.0128 -0.4699
  393TMC3    C5 5872   3.044   1.259  10.891 -0.5697  0.5331  0.0223
  393TMC3    C6 5873   2.951   1.204  10.970 -0.2455  0.0285  0.3119
  393TMC3     C 5874   2.950   1.608  10.836  0.1880  0.2130  0.6591
  393TMC3     O 5875   3.003   1.677  10.922 -0.9124  0.0464  0.1186
  393TMC3     H 5876   2.753   1.482  10.971 -0.4790  0.3061 -1.0328
  393TMC3    H1 5877   3.130   1.440  10.800 -1.5732  1.3443 -1.2752
  393TMC3    H2 5878   2.940   1.096  10.979  0.1274 -0.0753 -0.4897
  393TMC3    C7 5879   3.161   1.184  10.869 -0.2064  1.1890  0.1037
  393TMC3    C8 5880   2.728   1.233  11.050 -0.0105 -0.1828 -0.1909
  393TMC3    O1 5881   3.153   1.067  10.854  0.2516 -0.2543 -0.0558
  393TMC3    O2 5882   2.630   1.305  11.031 -0.2809 -0.4584 -0.4126
  394TMC3    C1 5883   4.398   1.883  11.176  0.0343  0.0508  0.2891
  394TMC3    C2 5884   4.356   1.803  11.071  0.7331 -0.6917 -0.5405
  394TMC3    C3 5885   4.360   1.840  10.942  0.0772 -0.2564  0.3934
  394TMC3    C4 5886   4.464   2.000  11.139 -0.1583  0.4509 -1.0829
  394TMC3    C5 5887   4.456   2.041  11.012  0.6881 -0.1019 -0.5590
  394TMC3    C6 5888   4.396   1.965  10.907 -0.3307  0.8320  0.3900
  394TMC3     C 5889   4.348   1.851  11.308  0.7545  0.6332 -0.1432
  394TMC3     O 5890   4.282   1.747  11.320 -0.4016 -0.1934  0.1030
  394TMC3     H 5891   4.308   1.707  11.088 -1.1878  0.0947 -1.4954
  394TMC3    H1 5892   4.498   2.073  11.211 -1.2766 -0.6589  0.5689
  394TMC3    H2 5893   4.389   1.997  10.804  0.7105  1.8405  0.6340
  394TMC3    C7 5894   4.526   2.160  10.971  0.5443 -1.4188 -0.2468
  394TMC3    C8 5895   4.305   1.749  10.846 -0.5087  0.4759  0.7769
  394TMC3    O1 5896   4.626   2.199  11.033 -0.2536 -0.7435 -0.4884
  394TMC3    O2 5897   4.310   1.633  10.880  0.4570 -0.2633  0.0902
  395TMC3    C1 5898   3.504   3.537  14.774 -0.0547  1.1120  0.1034
  395TMC3    C2 5899   3.544   3.497  14.653  0.7310 -0.6273 -0.0952
  395TMC3    C3 5900   3.666   3.536  14.604 -0.0854 -0.5833  0.6256
  395TMC3    C4 5901   3.574   3.623  14.859  0.0924  0.6590 -0.1582
  395TMC3    C5 5902   3.696   3.656  14.802 -0.6685  0.7523 -0.3482
  395TMC3    C6 5903   3.740   3.620  14.674  0.2360  0.1693  0.9355
  395TMC3     C 5904   3.421   3.434  14.836 -0.6882  0.0819 -0.1855
  395TMC3     O 5905   3.367   3.351  14.766  0.1813  0.1206  0.1359
  395TMC3     H 5906   3.479   3.432  14.596 -0.7359  0.1342  0.6923
  395TMC3    H1 5907   3.539   3.649  14.958 -1.2398  0.2668 -0.5280
  395TMC3    H2 5908   3.826   3.667  14.629 -1.4971  0.8729 -1.6191
  395TMC3    C7 5909   3.787   3.712  14.890 -0.1446 -0.1184 -0.2032
  395TMC3    C8 5910   3.701   3.517  14.467 -0.5881  0.1535 -0.1342
  395TMC3    O1 5911   3.734   3.765  14.987 -0.2256  0.6754 -0.9076
  395TMC3    O2 5912   3.819   3.536  14.428  0.1913 -0.4974  0.7015
  396MPD2     C 5913   3.557   0.093  17.276 -0.6611  0.5720  0.3999
  396MPD2    C1 5914   3.668   0.164  17.322 -0.9533  0.0535  0.0700
  396MPD2    C2 5915   3.710   0.274  17.256  0.3057  0.5662  0.6274
  396MPD2    C3 5916   3.644   0.309  17.142 -0.8496  0.1210  0.4330
  396MPD2    C4 5917   3.538   0.241  17.091 -0.8233 -0.6857  0.2547
  396MPD2    C5 5918   3.495   0.128  17.165  0.3304  0.0437 -0.2643
  396MPD2     H 5919   3.796   0.328  17.295 -0.0179  0.2540  1.7822
  396MPD2    H1 5920   3.493   0.261  16.994  0.4462 -0.3283 -0.2535
  396MPD2    H2 5921   3.523   0.009  17.336 -0.5160 -0.7330 -1.3353
  396MPD2    H3 5922   3.405   0.077  17.133  0.1122 -0.6393  1.4011
  396MPD2     N 5923   3.701   0.414  17.072 -0.2035  0.7539  0.1709
  396MPD2    H5 5924   3.799   0.429  17.095  0.7757 -3.1674 -1.5427
  396MPD2    N1 5925   3.722   0.114  17.447  0.1462  0.2470 -0.6440
  396MPD2    H7 5926   3.677   0.032  17.486  0.3153 -0.2418 -1.4676
  397TMC3    C1 5927   3.845   0.079  17.645 -0.5095  0.2724 -0.6844
  397TMC3    C2 5928   3.811   4.675  17.618 -0.1552 -0.8387  0.4075
  397TMC3    C3 5929   3.751   4.593   0.021  0.3695  0.5667  0.5329
  397TMC3    C4 5930   3.802   0.133   0.074  0.6210  0.1649 -0.2089
  397TMC3    C5 5931   3.744   0.052   0.169 -0.1333 -0.8948  0.1798
  397TMC3    C6 5932   3.713   4.645   0.138 -0.0948 -0.7331 -0.1533
  397TMC3     C 5933   3.820   0.164  17.529 -0.0064  0.6603 -0.5186
  397TMC3     O 5934   3.890   0.258  17.499 -0.3991  0.8303  0.4941
  397TMC3     H 5935   3.844   4.633  17.524  2.4173  0.7149  0.6254
  397TMC3    H1 5936   3.823   0.239   0.087  1.4257  0.0219 -0.3798
  397TMC3    H2 5937   3.666   4.579   0.210 -1.3125  0.2259 -0.0736
  397TMC3    C7 5938   3.735   0.112   0.302  0.5635  1.0969  0.2348
  397TMC3    C8 5939   3.660   4.522  17.632  0.2759 -0.3803  0.3320
  397TMC3    O1 5940   3.718   0.235   0.307  0.3204  0.5287 -0.1292
  397TMC3    O2 5941   3.577   4.593  17.574  0.1385  0.3459  0.0850
  398MPD2     C 5942   1.642   0.990   0.531  0.3117  0.3372  0.4724
  398MPD2    C1 5943   1.705   0.879   0.579 -0.3633  0.2874 -0.0094
  398MPD2    C2 5944   1.816   0.898   0.666 -0.2459 -0.1190  0.0053
  398MPD2    C3 5945   1.845   1.024   0.715 -0.2037 -0.2904 -0.4853
  398MPD2    C4 5946   1.770   1.132   0.675 -0.5316  0.2422 -0.0881
  398MPD2    C5 5947   1.670   1.112   0.585 -0.1879 -0.2322  0.5829
  398MPD2     H 5948   1.873   0.812   0.701  0.0199 -0.3240 -0.9296
  398MPD2    H1 5949   1.781   1.226   0.728  0.2499 -0.1875  0.5197
  398MPD2    H2 5950   1.558   0.989   0.463 -0.2422  1.1881  1.1585
  398MPD2    H3 5951   1.603   1.189   0.549 -1.4730 -1.5694  0.1126
  398MPD2     N 5952   1.958   1.033   0.804  0.1665 -0.3253  0.4113
  398MPD2    H5 5953   2.001   0.944   0.825 -1.2309 -1.0061  0.3549
  398MPD2    N1 5954   1.666   0.738   0.556 -0.4131  0.0791  0.3103
  398MPD2    H7 5955   1.719   0.674   0.613 -0.3520 -1.8302 -1.8849
  399TMC3    C1 5956   1.523   0.566   0.489 -0.8633 -0.2265 -1.1699
  399TMC3    C2 5957   1.615   0.470   0.529  0.2316  0.8164 -0.3776
  399TMC3    C3 5958   1.561   0.347   0.546 -0.5865 -0.0821  0.8145
  399TMC3    C4 5959   1.390   0.533   0.467  0.0284 -0.5659 -0.0406
  399TMC3    C5 5960   1.339   0.405   0.489 -0.5283 -0.6395  0.6602
  399TMC3    C6 5961   1.426   0.308   0.522 -0.3173 -0.1349 -0.6297
  399TMC3     C 5962   1.558   0.705   0.482  0.6422  0.1885 -0.9644
  399TMC3     O 5963   1.488   0.780   0.410  0.0589  0.2624  0.1989
  399TMC3     H 5964   1.715   0.508   0.545  1.1110 -1.7683  0.2039
  399TMC3    H1 5965   1.328   0.617   0.438  0.1662 -0.1964  0.7285
  399TMC3    H2 5966   1.385   0.210   0.542 -0.3748  0.3713  1.7748
  399TMC3    C7 5967   1.213   0.357   0.436 -0.5398  0.6960 -0.4157
  399TMC3    C8 5968   1.656   0.242   0.580 -0.0843 -0.2781 -0.1333
  399TMC3    O1 5969   1.154   0.256   0.485 -0.1031 -0.4882  0.3045
  399TMC3    O2 5970   1.765   0.287   0.612  0.4623  0.7204  0.3755
  400TMC3    C1 5971   0.388   4.282  17.038 -1.0060 -0.5600 -0.0793
  400TMC3    C2 5972   0.288   4.281  16.943 -0.3757  0.3931 -0.3836
  400TMC3    C3 5973   0.238   4.404  16.904 -0.6829 -0.0672  0.6734
  400TMC3    C4 5974   0.434   4.398  17.097  0.3650  0.0614  1.4506
  400TMC3    C5 5975   0.368   4.505  17.068 -0.4731  0.2619  0.1433
  400TMC3    C6 5976   0.266   4.522  16.973 -0.4770 -0.0994 -0.1856
  400TMC3     C 5977   0.449   4.157  17.066 -0.1161  0.7253  0.5044
  400TMC3     O 5978   0.416   4.061  17.002  0.5547 -0.0819  0.3687
  400TMC3     H 5979   0.272   4.187  16.891 -1.6292 -0.1247  0.9309
  400TMC3    H1 5980   0.518   4.397  17.166 -0.1503 -0.5687  2.0646
  400TMC3    H2 5981   0.221   4.617  16.945  1.7956  1.0235 -0.0362
  400TMC3    C7 5982   0.420   4.622  17.140  0.0733  0.0533  0.4579
  400TMC3    C8 5983   0.140   4.418  16.797 -0.1407 -0.1706 -0.3898
  400TMC3    O1 5984   0.528   4.618  17.195  0.8118  0.8170 -1.1257
  400TMC3    O2 5985   0.125   4.528  16.755  0.3374  0.2366 -0.6445
  401MPD2     C 5986   3.002   3.004   1.275 -0.2631 -0.7240  0.2956
  401MPD2    C1 5987   3.113   2.958   1.208  0.3251  0.8179  1.0459
  401MPD2    C2 5988   3.100   2.843   1.139 -0.6603 -0.1556  0.8077
  401MPD2    C3 5989   2.980   2.772   1.120  0.3432  0.1310  0.1902
  401MPD2    C4 5990   2.871   2.814   1.195  0.1488 -0.1831  0.1516
  401MPD2    C5 5991   2.881   2.931   1.264 -0.2608 -0.1487  0.3840
  401MPD2     H 5992   3.184   2.804   1.082 -1.0879 -2.3068  1.6187
  401MPD2    H1 5993   2.778   2.759   1.192  1.8352 -3.1218  1.7610
  401MPD2    H2 5994   3.008   3.097   1.330  4.2397  0.3307 -1.9665
  401MPD2    H3 5995   2.786   2.965   1.305  0.1653  3.2248 -1.4333
  401MPD2     N 5996   2.979   2.659   1.041  0.2158 -0.2569  0.1437
  401MPD2    H5 5997   3.072   2.629   1.013 -0.9655 -1.4962 -2.4992
  401MPD2    N1 5998   3.245   3.010   1.214  0.1674  0.3876 -0.1678
  401MPD2    H7 5999   3.310   2.965   1.150 -0.6323 -1.2126  0.1663
  402TMC3    C1 6000   2.931   2.457   0.946 -0.2751 -0.4528  0.5384
  402TMC3    C2 6001   2.930   2.334   1.013 -0.4700 -0.5520 -0.2953
  402TMC3    C3 6002   3.019   2.234   0.981  0.0651  0.1348 -0.3720
  402TMC3    C4 6003   3.033   2.482   0.859 -0.2433 -0.1227  0.4672
  402TMC3    C5 6004   3.133   2.383   0.838 -0.7994  0.2267 -0.3612
  402TMC3    C6 6005   3.131   2.266   0.911  0.9944 -0.4420  0.1046
  402TMC3     C 6006   2.878   2.570   1.022 -0.4353 -0.4549  0.2038
  402TMC3     O 6007   2.777   2.550   1.095 -0.2391  0.2328 -0.0851
  402TMC3     H 6008   2.843   2.331   1.078 -0.3795  0.0777 -0.1487
  402TMC3    H1 6009   3.036   2.574   0.802  0.8609  0.3659  1.3141
  402TMC3    H2 6010   3.199   2.186   0.885  1.7317  0.1057  0.3734
  402TMC3    C7 6011   3.250   2.414   0.759 -0.1432  0.1560  0.3155
  402TMC3    C8 6012   3.056   2.139   1.080 -0.2739  1.2051 -0.4462
  402TMC3    O1 6013   3.254   2.526   0.717  0.2561  0.2800  0.4793
  402TMC3    O2 6014   3.167   2.084   1.073  0.0103 -0.2727 -0.0318
  403MPD2     C 6015   1.926   1.280  13.143  0.7507  0.2815  0.1848
  403MPD2    C1 6016   2.005   1.186  13.206 -0.1462 -0.4838  0.4452
  403MPD2    C2 6017   2.118   1.224  13.280  0.0908  0.0891  0.0228
  403MPD2    C3 6018   2.153   1.354  13.282 -0.6972  0.0398  0.1972
  403MPD2    C4 6019   2.075   1.441  13.218  0.5744 -0.5126 -0.2304
  403MPD2    C5 6020   1.964   1.412  13.149 -0.1126 -0.1577  0.4492
  403MPD2     H 6021   2.180   1.154  13.334  0.7721  0.8909  0.2741
  403MPD2    H1 6022   2.091   1.549  13.213 -0.9517 -0.3275 -0.8904
  403MPD2    H2 6023   1.840   1.244  13.088  1.3887 -1.2731  0.2229
  403MPD2    H3 6024   1.906   1.494  13.108 -1.0723 -2.4723 -2.7625
  403MPD2     N 6025   2.273   1.382  13.354 -0.1359  0.4783 -0.4582
  403MPD2    H5 6026   2.311   1.301  13.401 -0.2810  0.4497 -0.3909
  403MPD2    N1 6027   1.960   1.051  13.210 -0.6342  0.0274  0.0811
  403MPD2    H7 6028   1.889   1.032  13.140 -1.3005 -1.5377  1.1856
  404TMC3    C1 6029   1.915   0.832  13.283  0.3794  0.1730  0.0894
  404TMC3    C2 6030   1.927   0.740  13.389  0.4418  0.0948 -0.1145
  404TMC3    C3 6031   1.879   0.615  13.373  0.2273 -0.4159  0.4512
  404TMC3    C4 6032   1.860   0.789  13.162  0.0811  0.6574  0.2741
  404TMC3    C5 6033   1.838   0.655  13.147 -0.0627  0.6457 -0.4310
  404TMC3    C6 6034   1.848   0.564  13.250  0.5162 -0.1450 -0.2999
  404TMC3     C 6035   1.995   0.951  13.302  0.1581 -0.2775 -0.3121
  404TMC3     O 6036   2.066   0.964  13.398  0.1675  0.6484  0.5201
  404TMC3     H 6037   1.978   0.761  13.482  0.7614 -0.5931 -0.1331
  404TMC3    H1 6038   1.856   0.842  13.067 -2.8564  1.7497  1.0275
  404TMC3    H2 6039   1.810   0.465  13.227 -0.3531 -0.3410  1.9328
  404TMC3    C7 6040   1.822   0.603  13.008  0.1010  0.0089 -0.2352
  404TMC3    C8 6041   1.919   0.520  13.470  0.0475  0.1601  0.3682
  404TMC3    O1 6042   1.859   0.678  12.917 -0.2383  0.3267 -0.0517
  404TMC3    O2 6043   1.945   0.406  13.428  0.3671 -0.3859  0.4115
  405MPD2     C 6044   2.007   1.332  14.804 -0.5415 -0.4365 -0.9842
  405MPD2    C1 6045   1.975   1.240  14.708 -0.0861 -0.2625 -0.5263
  405MPD2    C2 6046   1.975   1.272  14.573  0.5375 -0.2202  0.0394
  405MPD2    C3 6047   2.013   1.401  14.539  0.0020  0.1358 -0.0583
  405MPD2    C4 6048   2.058   1.490  14.638  0.4428  0.2464  0.5387
  405MPD2    C5 6049   2.047   1.456  14.768  0.2631  0.5077  0.4776
  405MPD2     H 6050   1.959   1.200  14.493  1.0769  1.5967 -1.6895
  405MPD2    H1 6051   2.077   1.596  14.626  2.3092 -0.4095 -2.2553
  405MPD2    H2 6052   1.994   1.315  14.911 -0.8459 -1.7272 -1.2278
  405MPD2    H3 6053   2.074   1.529  14.843 -0.8232  2.1838 -0.7817
  405MPD2     N 6054   1.993   1.437  14.400 -0.3174  0.2772  0.1561
  405MPD2    H5 6055   1.938   1.376  14.341  1.0459 -1.8370  1.0795
  405MPD2    N1 6056   1.933   1.110  14.749  0.0103 -0.7088  0.0882
  405MPD2    H7 6057   1.942   1.096  14.849 -4.3272  0.8575  0.6664
  406TMC3    C1 6058   1.826   1.756  14.125  0.3097  0.9256  0.3435
  406TMC3    C2 6059   1.767   1.663  14.042  0.6861  0.0444 -0.0156
  406TMC3    C3 6060   1.795   1.531  14.066  0.1445 -0.0680  0.7610
  406TMC3    C4 6061   1.910   1.721  14.224 -0.0507  0.4116 -0.1300
  406TMC3    C5 6062   1.958   1.596  14.230 -0.5768 -0.6769 -0.2227
  406TMC3    C6 6063   1.898   1.499  14.145  0.4021 -0.4947 -0.1009
  406TMC3     C 6064   1.737   1.869  14.140  0.0123 -0.5547  0.7150
  406TMC3     O 6065   1.724   1.954  14.053  0.3566 -0.4458  0.4072
  406TMC3     H 6066   1.689   1.693  13.974  0.6745 -1.2060 -0.5649
  406TMC3    H1 6067   1.929   1.791  14.305  0.7283  0.6107 -0.4839
  406TMC3    H2 6068   1.922   1.393  14.139  0.6134 -0.3312 -1.9125
  406TMC3    C7 6069   2.019   1.561  14.353 -0.5736  0.1816  0.6253
  406TMC3    C8 6070   1.672   1.456  14.074  0.6796 -1.0745 -0.4310
  406TMC3    O1 6071   2.061   1.651  14.423 -0.0014 -0.3573 -0.2424
  406TMC3    O2 6072   1.572   1.509  14.028  0.3138 -0.1025  0.8924
  407MPD2     C 6073   4.686   3.443   9.397  0.2604 -0.2577  0.5969
  407MPD2    C1 6074   0.076   3.382   9.457 -0.6325  0.8144 -0.3768
  407MPD2    C2 6075   0.120   3.426   9.586  0.3611 -0.0959 -0.3597
  407MPD2    C3 6076   0.050   3.533   9.646 -0.6377 -0.8418 -0.0669
  407MPD2    C4 6077   4.669   3.598   9.575 -0.1356  0.2170  0.1768
  407MPD2    C5 6078   4.626   3.551   9.459  0.1723  0.4708  0.4634
  407MPD2     H 6079   0.197   3.375   9.643  0.1718 -0.0741 -0.0845
  407MPD2    H1 6080   4.616   3.685   9.613 -1.1733 -0.1771 -0.3936
  407MPD2    H2 6081   4.648   3.415   9.300 -0.2150  0.3008  0.6204
  407MPD2    H3 6082   4.541   3.604   9.417  0.0828  0.2636  0.3823
  407MPD2     N 6083   0.100   3.581   9.769  0.2795  0.4530 -0.4726
  407MPD2    H5 6084   0.184   3.537   9.806 -0.1951 -1.2372 -1.4051
  407MPD2    N1 6085   0.159   3.305   9.377  0.1433 -0.0131 -0.0399
  407MPD2    H7 6086   0.253   3.299   9.416  0.2530 -0.5829 -0.3927
  408TMC3    C1 6087   0.250   3.201   9.188  0.0184 -0.2076  0.1055
  408TMC3    C2 6088   0.356   3.281   9.200 -0.3957 -0.1602  0.4551
  408TMC3    C3 6089   0.476   3.227   9.142 -0.0680  0.0870 -0.2674
  408TMC3    C4 6090   0.246   3.079   9.129  0.6708 -0.1464 -0.0686
  408TMC3    C5 6091   0.362   3.027   9.076 -0.6455 -0.8368 -0.2110
  408TMC3    C6 6092   0.476   3.110   9.077 -0.0256  0.3124 -0.3338
  408TMC3     C 6093   0.122   3.243   9.261 -0.3039  0.0719  0.3916
  408TMC3     O 6094   0.014   3.227   9.208  0.2154  0.2968  0.0772
  408TMC3     H 6095   0.361   3.375   9.253 -1.6070 -0.7230  1.5692
  408TMC3    H1 6096   0.156   3.019   9.132  0.6925 -0.2207 -0.8643
  408TMC3    H2 6097   0.571   3.070   9.041 -0.1359  0.6796 -1.0364
  408TMC3    C7 6098   0.370   2.886   9.033  0.0942 -0.6982  0.5423
  408TMC3    C8 6099   0.597   3.260   9.209 -0.4186 -0.0555  0.3039
  408TMC3    O1 6100   0.264   2.827   9.055  0.5153  0.3627 -0.0876
  408TMC3    O2 6101   0.671   3.170   9.248 -0.3277 -0.0601  0.0987
  409MPD2     C 6102   3.832   3.712  17.218 -0.1720  0.1466 -0.2861
  409MPD2    C1 6103   3.960   3.672  17.214 -0.8526  0.4448  0.3422
  409MPD2    C2 6104   4.050   3.765  17.157  0.4624  0.1122 -0.0775
  409MPD2    C3 6105   4.009   3.886  17.093  0.3255  0.1675 -0.0460
  409MPD2    C4 6106   3.874   3.908  17.091  0.9667  0.2026  0.2244
  409MPD2    C5 6107   3.788   3.822  17.152  0.0438 -0.4151  0.2027
  409MPD2     H 6108   4.155   3.739  17.159 -0.0801 -1.8421  2.7245
  409MPD2    H1 6109   3.831   3.987  17.031 -2.1752 -0.0611  2.1139
  409MPD2    H2 6110   3.750   3.651  17.255 -0.9907  0.0711 -2.1656
  409MPD2    H3 6111   3.681   3.839  17.145  0.5263  1.7871 -1.6281
  409MPD2     N 6112   4.104   3.973  17.025 -0.5958  0.5490  0.6326
  409MPD2    H5 6113   4.071   4.060  16.984  0.8170  0.9379  0.3330
  409MPD2    N1 6114   4.005   3.545  17.263  0.5111 -0.2152 -0.1987
  409MPD2    H7 6115   4.105   3.525  17.260  0.7543  1.1211 -1.3231
  410TMC3    C1 6116   4.305   4.076  16.973 -0.7326 -0.7453  1.4110
  410TMC3    C2 6117   4.436   4.098  17.009 -0.2824  0.4505 -0.3229
  410TMC3    C3 6118   4.499   4.214  16.981  0.1044 -0.1844  0.2454
  410TMC3    C4 6119   4.249   4.166  16.880 -0.2007 -0.4230  0.3315
  410TMC3    C5 6120   4.318   4.277  16.847 -0.2244 -0.4078  0.3241
  410TMC3    C6 6121   4.441   4.306  16.898  0.1508 -0.1729 -0.0130
  410TMC3     C 6122   4.239   3.953  17.018  0.1021  0.8664 -0.3250
  410TMC3     O 6123   4.308   3.851  17.033 -1.0675  0.6969 -0.2829
  410TMC3     H 6124   4.482   4.026  17.076  0.4929  0.6704 -0.6162
  410TMC3    H1 6125   4.156   4.133  16.835 -0.1212 -1.0554  0.6322
  410TMC3    H2 6126   4.492   4.400  16.878 -0.3857  0.4893  1.7411
  410TMC3    C7 6127   4.273   4.332  16.725 -0.9359 -0.2434 -0.1907
  410TMC3    C8 6128   4.608   4.259  17.059 -0.3003 -0.3133 -0.3008
  410TMC3    O1 6129   4.189   4.269  16.670  0.3060 -0.4670  0.0048
  410TMC3    O2 6130   4.620   4.380  17.074 -0.0707 -0.4690 -0.1541
  411MPD2     C 6131   4.291   4.261  14.948  0.3192  0.6679 -0.7021
  411MPD2    C1 6132   4.167   4.306  14.923  0.2882 -0.0268  0.2623
  411MPD2    C2 6133   4.088   4.229  14.846 -0.9745  0.6145  0.1676
  411MPD2    C3 6134   4.136   4.101  14.813  0.4720 -0.6420 -0.3555
  411MPD2    C4 6135   4.248   4.048  14.860 -0.2800  0.4839 -0.3199
  411MPD2    C5 6136   4.338   4.136  14.914 -0.4877 -0.2810  0.0856
  411MPD2     H 6137   3.996   4.269  14.804 -0.8977  3.4215  2.6577
  411MPD2    H1 6138   4.281   3.945  14.846 -0.0364  0.6726 -1.1655
  411MPD2    H2 6139   4.360   4.315  15.011  3.3403 -4.6141  0.4533
  411MPD2    H3 6140   4.440   4.114  14.941 -0.5293  0.8183  1.1466
  411MPD2     N 6141   4.073   4.013  14.715  0.3779 -0.5185  0.2780
  411MPD2    H5 6142   4.127   3.935  14.680  1.3037  1.0753 -1.8339
  411MPD2    N1 6143   4.125   4.435  14.971 -0.4705  0.0661 -0.2611
  411MPD2    H7 6144   4.028   4.450  14.949 -1.2496 -2.5487  1.3813
  412TMC3    C1 6145   3.916   3.930  14.549 -0.4254 -0.3495  0.0351
  412TMC3    C2 6146   3.797   3.950  14.480 -0.4305  0.1321 -0.1928
  412TMC3    C3 6147   3.796   3.907  14.349  0.1328  0.2721 -0.2292
  412TMC3    C4 6148   4.014   3.841  14.499 -0.0476  0.0924 -0.0218
  412TMC3    C5 6149   4.009   3.790  14.371 -0.5284 -0.6067 -1.2838
  412TMC3    C6 6150   3.894   3.830  14.299 -0.4114 -0.3234 -0.4318
  412TMC3     C 6151   3.949   4.032  14.651  0.5203 -0.0435  0.0786
  412TMC3     O 6152   3.868   4.123  14.676 -0.7457  0.9742 -0.6108
  412TMC3     H 6153   3.734   4.023  14.528  0.7765  0.8985  0.2374
  412TMC3    H1 6154   4.112   3.842  14.546 -0.4374 -1.1551  0.8225
  412TMC3    H2 6155   3.894   3.812  14.193  0.2524 -0.5021 -0.4015
  412TMC3    C7 6156   4.128   3.815  14.298 -0.2177 -0.1440 -0.3212
  412TMC3    C8 6157   3.773   4.026  14.263  0.3066  0.2989  0.4127
  412TMC3    O1 6158   4.116   3.890  14.206  0.0671 -0.5648 -0.1234
  412TMC3    O2 6159   3.683   4.097  14.307  0.2082  0.0302 -0.4767
  413MPD2     C 6160   1.277   3.322  15.296  0.2403 -0.4923 -0.0397
  413MPD2    C1 6161   1.198   3.247  15.205  0.0150 -0.3581 -0.4927
  413MPD2    C2 6162   1.238   3.130  15.156 -0.1660  0.5979 -0.2499
  413MPD2    C3 6163   1.361   3.085  15.195 -0.6886 -1.1046 -0.4436
  413MPD2    C4 6164   1.444   3.157  15.281  0.1558  0.2813  0.0785
  413MPD2    C5 6165   1.403   3.278  15.328  0.1812  0.1416  0.3913
  413MPD2     H 6166   1.180   3.064  15.093 -2.5215  2.8686 -0.4350
  413MPD2    H1 6167   1.549   3.140  15.300  0.1415  1.3464  1.0587
  413MPD2    H2 6168   1.246   3.417  15.339  0.1249  0.3586 -2.0197
  413MPD2    H3 6169   1.477   3.338  15.379  0.4133  1.9738 -2.0940
  413MPD2     N 6170   1.391   2.955  15.151 -0.0373  0.0985 -0.8419
  413MPD2    H5 6171   1.322   2.913  15.089 -1.8518  1.8505 -0.0094
  413MPD2    N1 6172   1.066   3.296  15.180  0.2600  0.5821 -0.0417
  413MPD2    H7 6173   1.040   3.378  15.235  0.1644 -0.0781  0.8891
  414TMC3    C1 6174   1.517   2.747  15.128 -0.1292 -0.4469  0.4006
  414TMC3    C2 6175   1.571   2.641  15.201 -0.8862 -0.4327  0.3731
  414TMC3    C3 6176   1.585   2.517  15.145  0.2166 -0.0164  0.2581
  414TMC3    C4 6177   1.473   2.730  15.003 -0.2089 -0.8030 -0.2378
  414TMC3    C5 6178   1.488   2.604  14.949 -0.3533  0.2116  0.2419
  414TMC3    C6 6179   1.539   2.494  15.017 -0.4421  0.7852  0.3846
  414TMC3     C 6180   1.506   2.882  15.185 -0.4338 -0.2111 -0.5611
  414TMC3     O 6181   1.583   2.908  15.281  0.0435  0.1420  0.0298
  414TMC3     H 6182   1.597   2.651  15.306  0.9352 -1.7376  0.0503
  414TMC3    H1 6183   1.437   2.813  14.944  0.9936  0.1464  0.3629
  414TMC3    H2 6184   1.562   2.401  14.966 -0.2712  1.1499 -0.2090
  414TMC3    C7 6185   1.434   2.600  14.815  0.1851 -0.7318  0.0706
  414TMC3    C8 6186   1.659   2.400  15.202  0.1159 -0.3457  0.2549
  414TMC3    O1 6187   1.321   2.648  14.821  0.6557 -0.2287 -0.1279
  414TMC3    O2 6188   1.651   2.297  15.141  0.9295  0.2968 -0.0790
  415TMC3    C1 6189   2.531   0.676  10.410  0.3930 -0.1751  0.3809
  415TMC3    C2 6190   2.517   0.810  10.401 -0.4097 -0.4858  0.8326
  415TMC3    C3 6191   2.425   0.876  10.482 -0.1647  0.8025  0.3206
  415TMC3    C4 6192   2.450   0.602  10.496  0.5443  0.9642 -0.6614
  415TMC3    C5 6193   2.351   0.671  10.567 -0.0391 -0.9167  0.4376
  415TMC3    C6 6194   2.348   0.805  10.567  0.7814 -0.2546  0.0618
  415TMC3     C 6195   2.570   0.604  10.292 -0.3346 -0.5804  0.2183
  415TMC3     O 6196   2.591   0.485  10.314 -0.0214  0.1769 -0.5343
  415TMC3     H 6197   2.591   0.868  10.347  1.5191  0.1629  4.1550
  415TMC3    H1 6198   2.470   0.496  10.504 -0.3791  1.0033  1.9028
  415TMC3    H2 6199   2.273   0.862  10.621  0.7707 -0.2550  0.0472
  415TMC3    C7 6200   2.271   0.611  10.671  0.2421 -0.2992 -0.3743
  415TMC3    C8 6201   2.405   1.019  10.462  0.4335 -0.0142  0.1310
  415TMC3    O1 6202   2.208   0.681  10.751  0.3289  0.4896 -0.1128
  415TMC3    O2 6203   2.293   1.065  10.478  0.5322  0.3438  0.2136
  416MPD2     C 6204   4.130   0.064  11.452  0.3023  0.0111 -0.1004
  416MPD2    C1 6205   4.048   4.692  11.521 -0.0862  0.1136  0.1044
  416MPD2    C2 6206   4.069   4.559  11.492  0.3374  0.5020  0.0816
  416MPD2    C3 6207   4.169   4.521  11.408  0.0477  0.3662 -0.0851
  416MPD2    C4 6208   4.255   4.614  11.340 -0.1512  0.3176  0.0840
  416MPD2    C5 6209   4.231   0.025  11.363  0.4735 -1.1409 -0.4588
  416MPD2     H 6210   4.008   4.483  11.539 -0.3643 -0.2098 -1.9904
  416MPD2    H1 6211   4.350   4.583  11.297  0.1604  0.3708  0.7393
  416MPD2    H2 6212   4.111   0.171  11.459 -0.9103 -0.2776  1.0606
  416MPD2    H3 6213   4.286   0.099  11.305  2.1140 -3.0751 -1.3671
  416MPD2     N 6214   4.192   4.377  11.400 -0.3899  0.7171  0.0304
  416MPD2    H5 6215   4.131   4.314  11.451  0.4420  0.2254  0.4239
  416MPD2    N1 6216   3.952   0.019  11.620 -0.2821  0.6002 -0.0233
  416MPD2    H7 6217   3.920   0.115  11.613  0.4093  0.8380  0.0699
  417TMC3    C1 6218   3.785   4.719  11.788  0.3194 -0.2545  0.2924
  417TMC3    C2 6219   3.792   4.708  11.920  0.0818 -0.2288  0.4455
  417TMC3    C3 6220   3.683   0.022  11.991  0.1094 -0.1461  0.1290
  417TMC3    C4 6221   3.673   0.032  11.717  0.1753 -0.2954  0.2144
  417TMC3    C5 6222   3.562   0.060  11.792 -0.4796 -0.5080  0.5534
  417TMC3    C6 6223   3.563   0.064  11.935  0.6559 -0.2089 -0.0639
  417TMC3     C 6224   3.893   4.667  11.719 -0.5781 -1.0214 -0.2646
  417TMC3     O 6225   3.933   4.558  11.762 -0.4866 -0.2662 -0.2939
  417TMC3     H 6226   3.885   4.676  11.966 -1.4765  0.2685  3.9313
  417TMC3    H1 6227   3.680   0.037  11.609 -2.0296  1.4630  0.1419
  417TMC3    H2 6228   3.475   0.095  11.990  1.2982  0.3262  0.6563
  417TMC3    C7 6229   3.445   0.083  11.711 -0.0140 -0.2586  0.1984
  417TMC3    C8 6230   3.683   0.003  12.134  0.3223  0.0709  0.0957
  417TMC3    O1 6231   3.463   0.115  11.592 -0.2375 -0.1232  0.5963
  417TMC3    O2 6232   3.589   0.050  12.197 -0.0492  0.3325  0.5398
  418TMC3    C1 6233   2.330   1.065   0.730 -0.2388  0.5495 -0.2162
  418TMC3    C2 6234   2.239   1.159   0.777  0.0476 -0.5082  0.8328
  418TMC3    C3 6235   2.157   1.120   0.876  0.9217  0.3755 -0.1214
  418TMC3    C4 6236   2.359   0.956   0.804  0.3002  0.2816 -0.1524
  418TMC3    C5 6237   2.294   0.931   0.917  0.5761  0.1646  0.0417
  418TMC3    C6 6238   2.183   1.006   0.939  0.0511  0.0172  0.6087
  418TMC3     C 6239   2.415   1.101   0.612 -0.2232  0.5119 -0.1088
  418TMC3     O 6240   2.421   1.219   0.576  0.2484  1.0842  0.3050
  418TMC3     H 6241   2.225   1.251   0.722 -0.2679 -0.4190  1.0641
  418TMC3    H1 6242   2.438   0.885   0.784 -1.2291 -1.7555  1.0274
  418TMC3    H2 6243   2.112   0.974   1.015  1.0688  0.9202  1.9545
  418TMC3    C7 6244   2.317   0.796   0.978 -0.1422 -0.1169  0.4520
  418TMC3    C8 6245   2.018   1.153   0.847  0.6466 -0.5319 -0.1491
  418TMC3    O1 6246   2.332   0.699   0.906  0.0085 -0.0769 -0.6313
  418TMC3    O2 6247   1.996   1.270   0.818  0.2356  0.1695 -0.4858
  419MPD2     C 6248   0.650   4.265  12.564  0.0082  0.0365 -0.6082
  419MPD2    C1 6249   0.521   4.301  12.532 -1.3608 -0.4288  0.3161
  419MPD2    C2 6250   0.440   4.345  12.631  0.2192 -0.5759 -0.6248
  419MPD2    C3 6251   0.481   4.357  12.763 -0.0354 -0.0387 -0.6085
  419MPD2    C4 6252   0.608   4.321  12.793  0.7017 -0.5710  0.0345
  419MPD2    C5 6253   0.692   4.280  12.691  0.8597  0.5487  1.3602
  419MPD2     H 6254   0.341   4.375  12.599  1.4566  2.5492 -1.4575
  419MPD2    H1 6255   0.651   4.330  12.892 -0.5658 -1.0419  0.6411
  419MPD2    H2 6256   0.723   4.240  12.487  0.3696  2.8924 -1.1873
  419MPD2    H3 6257   0.793   4.258  12.723  1.3719  1.2427  0.2341
  419MPD2     N 6258   0.381   4.411  12.857 -0.4068  0.6348 -0.4882
  419MPD2    H5 6259   0.288   4.433  12.823 -0.8941  0.1266  0.5095
  419MPD2    N1 6260   0.463   4.296  12.404  0.2802  0.3028 -0.4291
  419MPD2    H7 6261   0.363   4.303  12.391 -0.2033  2.1092  4.3777
  420TMC3    C1 6262   0.297   4.489  13.058  0.1314  0.3782 -0.1425
  420TMC3    C2 6263   0.224   4.579  12.987  0.5715  0.3932  0.1573
  420TMC3    C3 6264   0.116   4.642  13.042 -0.0786 -0.4234  0.1780
  420TMC3    C4 6265   0.261   4.449  13.182  0.7650  0.3064  0.2924
  420TMC3    C5 6266   0.154   4.508  13.236  0.1004  0.4391 -0.6760
  420TMC3    C6 6267   0.083   4.603  13.167 -0.1534  0.3416 -0.3277
  420TMC3     C 6268   0.405   4.423  12.990  0.2760 -0.6810 -0.3565
  420TMC3     O 6269   0.493   4.373  13.052 -0.4324  0.0957  0.8191
  420TMC3     H 6270   0.249   4.610  12.887 -0.6974  2.5444  0.4937
  420TMC3    H1 6271   0.308   4.371  13.241  0.4175  1.1952  1.7361
  420TMC3    H2 6272   0.004   4.659  13.216 -0.4271  0.3533 -0.7805
  420TMC3    C7 6273   0.159   4.515  13.382  0.1989 -0.7259  0.5571
  420TMC3    C8 6274   0.073   0.048  12.976 -0.5262  0.6996  0.0873
  420TMC3    O1 6275   0.272   4.490  13.420 -0.0863 -0.4498  0.1653
  420TMC3    O2 6276   0.143   0.089  12.883  0.2273 -0.2245 -0.1742
  421TMC3    C1 6277   2.444   1.509  13.449 -0.5598 -0.4130 -0.3101
  421TMC3    C2 6278   2.486   1.626  13.517 -0.1525  0.4462  0.0739
  421TMC3    C3 6279   2.603   1.611  13.593 -0.4265  0.4874  0.3315
  421TMC3    C4 6280   2.511   1.388  13.466  0.4253  0.3056 -0.1971
  421TMC3    C5 6281   2.630   1.383  13.530 -0.5564 -0.1274  0.5650
  421TMC3    C6 6282   2.679   1.498  13.590  0.1925  0.0390 -0.3482
  421TMC3     C 6283   2.325   1.508  13.363  0.0391 -0.5950  0.3692
  421TMC3     O 6284   2.280   1.616  13.332  0.2176  0.3042 -0.6833
  421TMC3     H 6285   2.433   1.719  13.502 -1.1171  0.3606  2.8648
  421TMC3    H1 6286   2.488   1.297  13.411  1.8494  0.6983 -1.4288
  421TMC3    H2 6287   2.777   1.499  13.636  0.8791 -1.1560 -1.7999
  421TMC3    C7 6288   2.702   1.261  13.557  0.1885  0.0748  0.3796
  421TMC3    C8 6289   2.660   1.720  13.677  0.0062 -0.0062 -0.0455
  421TMC3    O1 6290   2.822   1.264  13.576 -0.4136 -0.1917 -0.1649
  421TMC3    O2 6291   2.782   1.713  13.687 -0.0935  0.0481 -0.2672
  422TMC3    C1 6292   4.274   2.821  12.838  0.0250 -0.0693  0.3068
  422TMC3    C2 6293   4.253   2.886  12.954 -0.4846 -0.5051  0.1816
  422TMC3    C3 6294   4.289   2.828  13.073 -0.1077 -0.2161  0.0281
  422TMC3    C4 6295   4.296   2.682  12.849  0.0854 -0.1025 -0.5748
  422TMC3    C5 6296   4.312   2.625  12.969  0.3563  0.3336 -0.1279
  422TMC3    C6 6297   4.312   2.695  13.087 -0.5765  0.2424  0.3868
  422TMC3     C 6298   4.265   2.903  12.716 -0.2233  0.4546 -0.1260
  422TMC3     O 6299   4.250   3.027  12.724 -0.1778 -0.0337  0.2370
  422TMC3     H 6300   4.225   2.990  12.947  2.3350  0.3187  1.5128
  422TMC3    H1 6301   4.308   2.621  12.760 -1.4089 -1.0912 -0.0919
  422TMC3    H2 6302   4.339   2.650  13.182 -1.9576  1.0617  1.1614
  422TMC3    C7 6303   4.291   2.486  12.998  0.1161  0.0928  0.1957
  422TMC3    C8 6304   4.292   2.901  13.198 -0.1215 -0.2098 -0.2224
  422TMC3    O1 6305   4.344   2.428  13.092 -0.5787 -0.1506  0.9163
  422TMC3    O2 6306   4.300   2.833  13.303  0.2471  0.4048  0.3556
  423MPD2     C 6307   1.337   3.224   0.854  0.3718  0.1151  0.1295
  423MPD2    C1 6308   1.215   3.186   0.795  0.1270 -0.1725 -0.2156
  423MPD2    C2 6309   1.200   3.206   0.654  0.4381 -0.5085  0.0181
  423MPD2    C3 6310   1.311   3.253   0.584  0.2695 -0.2434  0.6005
  423MPD2    C4 6311   1.433   3.265   0.645  0.3595 -0.5719  0.0277
  423MPD2    C5 6312   1.452   3.253   0.781  0.0920 -0.0107 -0.2962
  423MPD2     H 6313   1.106   3.188   0.604  1.2181 -2.3562 -0.7963
  423MPD2    H1 6314   1.518   3.279   0.580 -1.8974  0.0085 -2.8141
  423MPD2    H2 6315   1.353   3.217   0.961  2.6269  1.7987 -0.1071
  423MPD2    H3 6316   1.548   3.274   0.826  0.0494 -0.5466  0.0481
  423MPD2     N 6317   1.322   3.252   0.441  0.0610  0.3485  0.1871
  423MPD2    H5 6318   1.416   3.244   0.404  1.0186  2.5948  2.1071
  423MPD2    N1 6319   1.106   3.137   0.872 -0.2518  0.6801 -0.4040
  423MPD2    H7 6320   1.018   3.130   0.823 -0.3949  2.2783 -0.3600
  424TMC3    C1 6321   1.002   3.041   1.065 -0.0695 -0.3021 -0.3138
  424TMC3    C2 6322   1.015   2.919   1.125 -0.6989  0.1613  0.3147
  424TMC3    C3 6323   0.900   2.850   1.152  0.1021 -0.5278 -0.0381
  424TMC3    C4 6324   0.879   3.094   1.035  0.4460  0.0444 -0.5631
  424TMC3    C5 6325   0.765   3.018   1.065  0.4382  0.1870  0.7311
  424TMC3    C6 6326   0.770   2.895   1.128 -0.1397 -0.2215  0.7474
  424TMC3     C 6327   1.124   3.095   1.003  0.4434  0.3217 -0.3060
  424TMC3     O 6328   1.217   3.066   1.073 -0.8701 -0.2735 -0.0969
  424TMC3     H 6329   1.114   2.876   1.137 -1.0076 -1.2652 -2.2331
  424TMC3    H1 6330   0.875   3.188   0.981  0.2553 -0.7603 -1.9523
  424TMC3    H2 6331   0.684   2.830   1.138  0.3342 -1.0533 -0.6011
  424TMC3    C7 6332   0.632   3.062   1.024  0.1536 -0.5723  0.1323
  424TMC3    C8 6333   0.927   2.722   1.217  0.3068 -0.5129 -0.1706
  424TMC3    O1 6334   0.639   3.130   0.921  0.2256  0.7545 -0.1173
  424TMC3    O2 6335   1.041   2.687   1.204 -0.1119 -0.1888 -0.6966
  425MPD2     C 6336   0.279   2.775  17.333 -0.4003  0.5382  0.1948
  425MPD2    C1 6337   0.159   2.718  17.299  0.5911 -0.3360  0.4070
  425MPD2    C2 6338   0.040   2.756  17.367  0.6584  0.1895 -0.6386
  425MPD2    C3 6339   0.043   2.854  17.462  0.5038 -0.0164  0.1167
  425MPD2    C4 6340   0.168   2.915  17.495 -0.5180 -0.1894  0.1560
  425MPD2    C5 6341   0.284   2.871  17.433  0.1557 -0.9630 -0.0084
  425MPD2     H 6342   4.673   2.701  17.338  0.3978 -1.3562  3.1684
  425MPD2    H1 6343   0.177   2.987  17.575  1.3633 -2.2924  1.8439
  425MPD2    H2 6344   0.374   2.743  17.293 -0.7309 -0.0476 -0.1207
  425MPD2    H3 6345   0.375   2.916  17.472 -0.0183 -0.8744  0.2981
  425MPD2     N 6346   4.646   2.883  17.532  0.3394  0.4225  0.1847
  425MPD2    H5 6347   4.558   2.841  17.505  0.3664 -0.0518  0.8328
  425MPD2    N1 6348   0.159   2.613  17.204 -0.0200  0.0119 -0.1871
  425MPD2    H7 6349   0.249   2.582  17.171  1.6473  0.8818  3.5763
  426TMC3    C1 6350   0.085   2.435  17.084 -0.4198  0.0078 -0.0348
  426TMC3    C2 6351   0.005   2.371  16.990  0.6682 -0.6301  0.7209
  426TMC3    C3 6352   0.055   2.248  16.948  0.3962  0.1717  0.8263
  426TMC3    C4 6353   0.190   2.373  17.142 -0.6362  0.5391 -0.0111
  426TMC3    C5 6354   0.222   2.256  17.101 -0.6798  0.2380  0.1632
  426TMC3    C6 6355   0.164   2.190  16.996  0.2574 -0.6305  0.7084
  426TMC3     C 6356   0.046   2.550  17.149  0.0505  0.7649  0.3695
  426TMC3     O 6357   4.647   2.564  17.160  0.4415  0.6296 -0.3643
  426TMC3     H 6358   4.643   2.419  16.941  0.6208 -0.7284  0.7051
  426TMC3    H1 6359   0.238   2.406  17.234 -0.4490  0.0019  0.0825
  426TMC3    H2 6360   0.208   2.094  16.972  0.5105 -0.4495  0.4440
  426TMC3    C7 6361   0.316   2.189  17.181  0.1526  0.8106  0.3973
  426TMC3    C8 6362   4.679   2.159  16.893 -0.0330 -0.0191 -0.4137
  426TMC3    O1 6363   0.414   2.143  17.131 -0.8523 -0.3515 -0.0715
  426TMC3    O2 6364   0.014   2.070  16.828  0.5656 -0.6008  0.1789
  427MPD2     C 6365   3.551   4.553  15.053  0.4265  0.0055  0.4308
  427MPD2    C1 6366   3.482   4.511  15.165  0.2973 -0.2631  0.0163
  427MPD2    C2 6367   3.348   4.548  15.175 -0.1942 -0.9628 -0.5639
  427MPD2    C3 6368   3.284   4.619  15.073  0.5936  0.0341 -0.5593
  427MPD2    C4 6369   3.353   4.655  14.961  0.1795  0.4007 -0.4798
  427MPD2    C5 6370   3.483   4.620  14.954  0.6302  0.3143  0.3133
  427MPD2     H 6371   3.301   4.518  15.268  1.3232  2.2936  1.2491
  427MPD2    H1 6372   3.312   4.711  14.877  2.4580  0.6847 -1.3907
  427MPD2    H2 6373   3.655   4.529  15.032  1.3624  2.5342  2.2004
  427MPD2    H3 6374   3.540   4.636  14.864  0.0517  0.2816 -0.0567
  427MPD2     N 6375   3.147   4.655  15.069  0.5309  0.0862  0.1920
  427MPD2    H5 6376   3.110   4.706  14.990 -1.2254  1.1089  1.6695
  427MPD2    N1 6377   3.543   4.444  15.275  0.0917 -0.8066  0.0371
  427MPD2    H7 6378   3.492   4.429  15.362 -0.6725 -1.4215 -0.5227
  428TMC3    C1 6379   3.706   4.371  15.419  0.1442 -0.4169 -0.1507
  428TMC3    C2 6380   3.635   4.269  15.461 -0.3896  0.8961  0.1197
  428TMC3    C3 6381   3.642   4.243  15.596  0.6388  0.2319 -0.1591
  428TMC3    C4 6382   3.786   4.448  15.494  0.2988 -0.0519  0.2085
  428TMC3    C5 6383   3.780   4.423  15.628 -0.0596  0.5379 -0.0335
  428TMC3    C6 6384   3.701   4.330  15.680 -0.4759  0.0678 -0.0914
  428TMC3     C 6385   3.676   4.426  15.288 -0.2215 -1.1220  0.0607
  428TMC3     O 6386   3.774   4.460  15.224  0.1089 -0.1034 -0.9195
  428TMC3     H 6387   3.572   4.205  15.401 -0.5872 -0.1343  1.4166
  428TMC3    H1 6388   3.822   4.538  15.447  0.9493 -0.5795 -0.3019
  428TMC3    H2 6389   3.698   4.311  15.787 -1.0886  2.1679  0.2514
  428TMC3    C7 6390   3.861   4.494  15.732 -0.1070 -0.1175  0.0689
  428TMC3    C8 6391   3.572   4.134  15.645  0.4267 -0.1188  0.3235
  428TMC3    O1 6392   3.824   4.495  15.844 -0.0709  0.1733 -0.1840
  428TMC3    O2 6393   3.535   4.053  15.561  0.2126 -0.1111 -0.3895
  429MPD2     C 6394   4.078   4.700   0.172  1.2044 -1.1085 -0.2677
  429MPD2    C1 6395   4.130   4.672   0.050  0.2091  1.0519 -0.0590
  429MPD2    C2 6396   4.204   0.042  17.675  0.4957  0.2026  0.3387
  429MPD2    C3 6397   4.223   0.167   0.034 -0.4561 -0.1090 -0.0640
  429MPD2    C4 6398   4.170   0.206   0.160 -0.9237 -0.1058  0.6310
  429MPD2    C5 6399   4.097   0.109   0.229  0.3652 -0.3567  0.6281
  429MPD2     H 6400   4.267   0.010  17.593  2.6969 -0.0618  2.1142
  429MPD2    H1 6401   4.194   0.297   0.213  1.0116 -1.7625  2.5995
  429MPD2    H2 6402   4.023   4.631   0.234 -0.5123 -0.7232 -1.3447
  429MPD2    H3 6403   4.042   0.141   0.317  0.5040  3.9369 -0.8467
  429MPD2     N 6404   4.314   0.244  17.657 -0.3706 -0.1687  0.7621
  429MPD2    H5 6405   4.350   0.213  17.567  0.7215  1.1655  0.7348
  429MPD2    N1 6406   4.113   4.544  17.674  0.2812  0.2411 -0.6681
  429MPD2    H7 6407   4.171   4.530  17.593  1.2171 -1.2382  0.2678
  430TMC3    C1 6408   4.450   0.434  17.629  0.3922 -0.2462 -0.7797
  430TMC3    C2 6409   4.438   0.559  17.567 -0.2192 -0.8823  0.2785
  430TMC3    C3 6410   4.539   0.609  17.495 -0.3749  0.3765 -0.0464
  430TMC3    C4 6411   4.553   0.345  17.594 -1.4332 -0.5440  0.1562
  430TMC3    C5 6412   4.647   0.400  17.507 -0.4564 -0.1075  0.1790
  430TMC3    C6 6413   4.647   0.532  17.472  0.6827  0.1585  0.8333
  430TMC3     C 6414   4.334   0.376  17.687  0.1599 -0.0257  0.4731
  430TMC3     O 6415   4.258   0.456   0.053 -0.3242 -0.0985  0.0599
  430TMC3     H 6416   4.343   0.611  17.576  0.3131  0.2254 -0.5558
  430TMC3    H1 6417   4.561   0.243  17.632 -0.8126 -1.5227 -2.5757
  430TMC3    H2 6418   4.720   0.567  17.399  1.0575 -1.9875  0.1965
  430TMC3    C7 6419   0.021   0.307  17.457  0.1788  0.6357  0.1427
  430TMC3    C8 6420   4.511   0.701  17.379  0.4342  0.2060  0.2350
  430TMC3    O1 6421   4.704   0.193  17.448 -0.4505 -0.1235 -0.1584
  430TMC3    O2 6422   4.604   0.775  17.349  0.5192 -0.2719 -0.1655
  431MPD2     C 6423   0.657   0.000  12.724  0.3762  0.3910  0.3298
  431MPD2    C1 6424   0.742   4.700  12.617  0.4043 -0.4700  0.1813
  431MPD2    C2 6425   0.687   4.666  12.492 -0.1821 -0.5757  0.0273
  431MPD2    C3 6426   0.551   4.677  12.466  0.4566 -0.3240 -0.3895
  431MPD2    C4 6427   0.469   4.698  12.580  0.7105 -0.0883 -0.0769
  431MPD2    C5 6428   0.517   4.719  12.709  0.3303 -0.0526 -0.3114
  431MPD2     H 6429   0.756   4.635  12.415  0.9090 -0.3299  0.9032
  431MPD2    H1 6430   0.362   4.693  12.564  0.6244 -1.0630  0.7833
  431MPD2    H2 6431   0.685   0.016  12.827 -0.9378  0.7601  0.6306
  431MPD2    H3 6432   0.455   4.718  12.797 -0.4061 -0.9524 -0.8399
  431MPD2     N 6433   0.498   4.656  12.338 -0.6897  0.1095 -0.2397
  431MPD2    H5 6434   0.397   4.643  12.334 -0.5095 -1.9006  1.5217
  431MPD2    N1 6435   0.885   4.694  12.627 -0.1539  0.4461  0.1173
  431MPD2    H7 6436   0.938   4.672  12.542 -0.7516  0.8423 -0.3511
  432TMC3    C1 6437   0.488   4.563  12.117 -0.1043 -0.1110  0.5663
  432TMC3    C2 6438   0.575   4.527  12.014 -0.4626  0.5524 -0.1462
  432TMC3    C3 6439   0.593   4.399  11.975  0.2544 -0.0254  0.2589
  432TMC3    C4 6440   0.426   4.461  12.184 -0.0879 -0.0999 -0.3038
  432TMC3    C5 6441   0.462   4.328  12.166  0.7034 -0.7999  0.0276
  432TMC3    C6 6442   0.544   4.298  12.058 -0.4447  0.1701 -0.4211
  432TMC3     C 6443   0.569   4.628  12.219  0.1807 -0.0354  0.2767
  432TMC3     O 6444   0.686   4.650  12.195 -0.3550  0.2235  0.0888
  432TMC3     H 6445   0.610   4.605  11.948  2.0710 -0.4765 -0.0028
  432TMC3    H1 6446   0.363   4.479  12.271  0.4372  1.5456 -0.2728
  432TMC3    H2 6447   0.595   4.203  12.042 -0.3006  0.5761 -2.3803
  432TMC3    C7 6448   0.532   4.288  12.287  0.2420  0.0393  0.6374
  432TMC3    C8 6449   0.715   4.360  11.912 -0.3545 -0.2247 -0.4258
  432TMC3    O1 6450   0.650   4.281  12.262 -0.3373  0.4466 -0.8256
  432TMC3    O2 6451   0.821   4.421  11.942  0.0763  0.3780 -0.4325
  433MPD2     C 6452   0.081   3.845  10.775 -0.5545  0.3987 -0.4840
  433MPD2    C1 6453   0.092   3.717  10.813 -0.8466 -0.0979  0.5587
  433MPD2    C2 6454   0.123   3.696  10.943 -0.4620 -0.6546  0.2002
  433MPD2    C3 6455   0.136   3.796  11.033 -0.0211 -0.6322  0.4165
  433MPD2    C4 6456   0.128   3.924  10.994  0.1214  0.2442  0.3273
  433MPD2    C5 6457   0.108   3.942  10.863 -0.1715 -0.1532 -0.5714
  433MPD2     H 6458   0.143   3.593  10.972  1.9646 -0.3578 -0.3930
  433MPD2    H1 6459   0.142   4.005  11.065  1.6709 -2.6050  3.2803
  433MPD2    H2 6460   0.067   3.875  10.672  1.3317  2.2226 -0.2152
  433MPD2    H3 6461   0.110   4.043  10.822 -0.7775 -0.4119 -1.2382
  433MPD2     N 6462   0.147   3.751  11.163 -0.2136 -0.4627 -0.0393
  433MPD2    H5 6463   0.150   3.651  11.176 -3.0959 -0.2444  2.5216
  433MPD2    N1 6464   0.087   3.614  10.710 -0.1285  0.3616 -0.2243
  433MPD2    H7 6465   0.099   3.634  10.611  0.0517 -0.6434 -0.4118
  434TMC3    C1 6466   0.139   3.390  10.647 -0.3889  0.1312  0.2110
  434TMC3    C2 6467   0.198   3.273  10.687  0.4527  0.0724 -0.6421
  434TMC3    C3 6468   0.282   3.218  10.594 -0.8223  0.1149 -0.1363
  434TMC3    C4 6469   0.140   3.434  10.519  0.2493 -0.3192  0.1570
  434TMC3    C5 6470   0.227   3.376  10.437  0.6710  0.1005 -0.4301
  434TMC3    C6 6471   0.306   3.274  10.472  0.0327  0.1664  0.1939
  434TMC3     C 6472   0.093   3.478  10.747 -0.0261  0.0147 -0.4687
  434TMC3     O 6473   0.086   3.419  10.854  0.4885 -0.1532 -0.3154
  434TMC3     H 6474   0.185   3.234  10.787 -0.6144 -0.2953 -0.9227
  434TMC3    H1 6475   0.082   3.521  10.488 -0.7327 -1.0883 -0.1971
  434TMC3    H2 6476   0.338   3.213  10.389 -0.8257  0.8711 -0.6571
  434TMC3    C7 6477   0.191   3.382  10.293 -0.0383 -0.0161  0.0472
  434TMC3    C8 6478   0.390   3.146  10.654  0.2111  0.5765  0.0438
  434TMC3    O1 6479   0.289   3.406  10.220  0.2407  0.0130 -0.3629
  434TMC3    O2 6480   0.360   3.073  10.746 -0.1552  0.1134 -0.0813
  435MPD2     C 6481   1.683   3.936  15.690  0.3699  0.3980  0.0385
  435MPD2    C1 6482   1.671   3.863  15.806  0.6370 -0.1650  0.5355
  435MPD2    C2 6483   1.782   3.783  15.838 -0.5887 -0.3382  0.0254
  435MPD2    C3 6484   1.874   3.742  15.742 -0.6355 -0.7300 -0.4893
  435MPD2    C4 6485   1.875   3.808  15.622 -0.1745 -0.0869  0.1129
  435MPD2    C5 6486   1.791   3.912  15.603 -0.0774  0.5280 -0.2437
  435MPD2     H 6487   1.787   3.730  15.932  0.3647  0.2194  0.2957
  435MPD2    H1 6488   1.951   3.784  15.549 -0.6948  2.7991 -1.3669
  435MPD2    H2 6489   1.614   4.016  15.668 -1.9334 -1.1009  1.8969
  435MPD2    H3 6490   1.796   3.955  15.504 -0.1327  0.5734 -0.2266
  435MPD2     N 6491   1.955   3.629  15.775 -0.9959 -0.1309  0.1309
  435MPD2    H5 6492   1.965   3.608  15.874  1.4038 -2.5920 -0.6415
  435MPD2    N1 6493   1.560   3.869  15.896 -0.4192 -0.0302 -1.1482
  435MPD2    H7 6494   1.575   3.815  15.981  0.2830  1.9949  0.0025
  436TMC3    C1 6495   1.316   3.880  16.210 -0.4816  0.0625 -0.1841
  436TMC3    C2 6496   1.396   3.908  16.099 -0.0316 -0.4911  0.2166
  436TMC3    C3 6497   1.344   3.892  15.976 -0.4438  0.5061  0.3444
  436TMC3    C4 6498   1.187   3.836  16.201  0.2378  0.2675  0.6427
  436TMC3    C5 6499   1.136   3.823  16.074 -0.7402 -0.8581  0.4018
  436TMC3    C6 6500   1.215   3.850  15.962  0.1894 -0.3083  0.4998
  436TMC3     C 6501   1.370   3.940  16.334  0.0957 -0.3104  0.2735
  436TMC3     O 6502   1.483   3.987  16.325 -0.4784 -0.3671  0.0426
  436TMC3     H 6503   1.495   3.953  16.102 -0.2860  0.1409 -0.9708
  436TMC3    H1 6504   1.118   3.841  16.285 -1.3103 -0.4644 -0.5963
  436TMC3    H2 6505   1.163   3.850  15.866  1.1733  4.5646 -0.0260
  436TMC3    C7 6506   0.991   3.827  16.067 -0.1733  0.5008 -0.6975
  436TMC3    C8 6507   1.434   3.913  15.867  0.0494 -0.0486  0.3103
  436TMC3    O1 6508   0.939   3.939  16.072 -0.5250 -0.6762  0.0911
  436TMC3    O2 6509   1.378   3.935  15.760 -0.0797  0.6501  0.3164
  437TMC3    C1 6510   0.616   0.879  12.486 -0.3421 -0.5873  0.0229
  437TMC3    C2 6511   0.531   0.979  12.475  1.0096 -0.8505 -0.0313
  437TMC3    C3 6512   0.532   1.052  12.355 -0.8644 -0.8402  0.1838
  437TMC3    C4 6513   0.713   0.850  12.397  0.4826  0.2458  0.2272
  437TMC3    C5 6514   0.714   0.929  12.278  0.2101  0.2870 -0.4791
  437TMC3    C6 6515   0.615   1.021  12.253  0.4677  0.4981 -0.1267
  437TMC3     C 6516   0.575   0.779  12.582 -0.9730 -0.0301 -0.0183
  437TMC3     O 6517   0.455   0.786  12.620 -0.1272  0.4896  0.0183
  437TMC3     H 6518   0.465   1.006  12.557  0.3297 -2.3551 -0.0701
  437TMC3    H1 6519   0.760   0.753  12.400  0.6396  0.4132  2.6712
  437TMC3    H2 6520   0.623   1.085  12.166 -0.4396  1.8837  0.8182
  437TMC3    C7 6521   0.835   0.931  12.203 -0.4144 -0.1937  0.4635
  437TMC3    C8 6522   0.428   1.146  12.339  0.2027 -0.0244 -0.8058
  437TMC3    O1 6523   0.820   0.968  12.085  0.2985 -0.0621  0.1679
  437TMC3    O2 6524   0.338   1.139  12.415  0.6983 -0.2944  0.0912
  438MPD2     C 6525   2.224   1.295  17.061 -0.6388  0.3613 -0.0518
  438MPD2    C1 6526   2.337   1.218  17.038 -0.7807  0.0036 -0.1186
  438MPD2    C2 6527   2.364   1.124  17.140 -0.2712  0.0958  0.4207
  438MPD2    C3 6528   2.289   1.111  17.258 -0.7768  0.5800 -0.4403
  438MPD2    C4 6529   2.186   1.192  17.275 -0.2411 -0.1212  0.3674
  438MPD2    C5 6530   2.154   1.284  17.178 -1.4837  0.5418 -0.3838
  438MPD2     H 6531   2.457   1.068  17.131 -0.0970  0.7566 -1.9657
  438MPD2    H1 6532   2.120   1.185  17.362 -3.0064 -0.9594 -1.7940
  438MPD2    H2 6533   2.186   1.372  16.996  2.2302  2.3387  0.6218
  438MPD2    H3 6534   2.064   1.342  17.194 -0.7163  0.8809  2.6870
  438MPD2     N 6535   2.322   1.018  17.358 -0.3072 -0.3544 -0.4634
  438MPD2    H5 6536   2.251   1.016  17.430  1.8657  1.4938  1.7256
  438MPD2    N1 6537   2.425   1.242  16.929  0.1844 -0.3030  0.2098
  438MPD2    H7 6538   2.517   1.198  16.926  0.0654 -0.4514 -0.9273
  439TMC3    C1 6539   2.479   1.328  16.714 -0.4078  0.1426 -0.2626
  439TMC3    C2 6540   2.444   1.320  16.586 -0.4248  0.1571 -0.1106
  439TMC3    C3 6541   2.541   1.313  16.491  0.1576  0.0568  0.5586
  439TMC3    C4 6542   2.615   1.329  16.751 -0.6400  0.3966 -0.1730
  439TMC3    C5 6543   2.704   1.318  16.653  0.2626  0.4267  0.1871
  439TMC3    C6 6544   2.676   1.303  16.519  0.2816  0.2538 -0.1363
  439TMC3     C 6545   2.374   1.298  16.812 -0.3191  0.6697  0.8985
  439TMC3     O 6546   2.259   1.307  16.774  0.3788  0.0901  0.1682
  439TMC3     H 6547   2.344   1.314  16.545 -0.9823 -1.5166  1.4868
  439TMC3    H1 6548   2.650   1.337  16.854 -1.2278 -0.2096  0.0763
  439TMC3    H2 6549   2.747   1.297  16.438  0.7460 -1.5869  0.4237
  439TMC3    C7 6550   2.833   1.257  16.699 -0.7501 -0.7829  0.7665
  439TMC3    C8 6551   2.496   1.286  16.352 -0.8280 -0.2485 -0.4353
  439TMC3    O1 6552   2.885   1.298  16.807 -0.1616 -0.0156  0.4676
  439TMC3    O2 6553   2.444   1.373  16.285  0.3351  0.1179  0.0462
  440MPD2     C 6554   1.519   2.135  14.797  0.5201 -0.2868 -0.1869
  440MPD2    C1 6555   1.472   2.115  14.921 -0.0448 -0.2814 -0.3625
  440MPD2    C2 6556   1.508   2.014  15.012  0.1354 -0.0824  0.0751
  440MPD2    C3 6557   1.609   1.930  14.967  0.4424  0.4857 -0.1045
  440MPD2    C4 6558   1.668   1.961  14.844  0.0485  0.2779 -0.1457
  440MPD2    C5 6559   1.621   2.061  14.762  0.1675  0.4671  0.5652
  440MPD2     H 6560   1.456   1.996  15.105 -2.1359  0.3116 -1.1079
  440MPD2    H1 6561   1.751   1.901  14.808 -1.6445 -1.4691 -1.1304
  440MPD2    H2 6562   1.492   2.210  14.723 -3.3836 -1.0831  0.4226
  440MPD2    H3 6563   1.656   2.074  14.660  0.9972 -0.6569  0.6907
  440MPD2     N 6564   1.680   1.840  15.055 -0.5490 -0.3386 -0.3113
  440MPD2    H5 6565   1.760   1.803  15.006  0.0145 -1.2153  1.2747
  440MPD2    N1 6566   1.352   2.189  14.954  0.3466  0.1819 -0.3429
  440MPD2    H7 6567   1.311   2.179  15.047  0.1363 -0.1891 -0.4740
  441TMC3    C1 6568   1.759   1.759  15.253 -0.1657  0.2173 -0.1245
  441TMC3    C2 6569   1.883   1.819  15.233  0.4798 -0.0949 -0.6151
  441TMC3    C3 6570   1.979   1.805  15.337  0.2596  0.4478 -0.0913
  441TMC3    C4 6571   1.733   1.682  15.361  0.3894 -0.0869  0.3421
  441TMC3    C5 6572   1.824   1.671  15.457 -0.4449  0.1915 -0.1897
  441TMC3    C6 6573   1.948   1.723  15.439  0.2064  0.4830  0.3179
  441TMC3     C 6574   1.650   1.820  15.191  0.7047  0.2522  0.3939
  441TMC3     O 6575   1.555   1.855  15.264  0.3788  0.1657  0.1096
  441TMC3     H 6576   1.903   1.884  15.148 -0.3005  0.0123 -0.7148
  441TMC3    H1 6577   1.633   1.642  15.372  0.3679 -0.3516 -0.7957
  441TMC3    H2 6578   2.022   1.713  15.517 -0.8489  0.5501  1.3278
  441TMC3    C7 6579   1.785   1.580  15.557  0.0146 -1.0605 -0.0758
  441TMC3    C8 6580   2.038   1.927  15.388  0.0349 -0.6531 -0.1350
  441TMC3    O1 6581   1.671   1.578  15.606  0.3971 -0.5116 -0.0432
  441TMC3    O2 6582   2.149   1.931  15.438 -0.1126  0.0331  0.1303
  442MPD2     C 6583   4.476   2.431  16.709  0.1091  0.7083  0.3093
  442MPD2    C1 6584   4.349   2.390  16.721  0.8351  0.0061  0.3144
  442MPD2    C2 6585   4.313   2.283  16.645 -0.3474 -0.2181  0.9576
  442MPD2    C3 6586   4.406   2.206  16.575  0.3961  0.4152  0.5485
  442MPD2    C4 6587   4.540   2.247  16.576 -0.2533 -0.0537  0.0005
  442MPD2    C5 6588   4.568   2.363  16.634 -0.3743  0.2298  0.1744
  442MPD2     H 6589   4.211   2.249  16.658 -0.4091  0.3405  1.9526
  442MPD2    H1 6590   4.614   2.181  16.532 -1.1120 -1.4626  0.6527
  442MPD2    H2 6591   4.508   2.515  16.769 -0.8100 -0.0707  1.8750
  442MPD2    H3 6592   4.667   2.408  16.634  0.5197 -1.7698 -0.4203
  442MPD2     N 6593   4.366   2.081  16.505  0.2792 -0.2723 -0.1284
  442MPD2    H5 6594   4.438   2.030  16.454 -0.2837 -1.1742 -0.0192
  442MPD2    N1 6595   4.254   2.436  16.811 -0.1482  0.2319 -0.3372
  442MPD2    H7 6596   4.165   2.388  16.804 -1.3095  2.3355 -0.2059
  443TMC3    C1 6597   4.145   2.565  16.976 -0.1526 -0.3706 -0.0604
  443TMC3    C2 6598   4.073   2.680  16.950  0.3182  0.3200 -1.0488
  443TMC3    C3 6599   3.939   2.674  16.953  0.3251 -0.2307 -0.3469
  443TMC3    C4 6600   4.085   2.457  17.034 -0.1944  0.1489  1.0683
  443TMC3    C5 6601   3.951   2.469  17.060  0.7318 -0.6232 -1.0961
  443TMC3    C6 6602   3.879   2.572  17.020  0.0567 -0.0140  0.0939
  443TMC3     C 6603   4.266   2.544  16.898 -0.1087 -0.6287 -0.3616
  443TMC3     O 6604   4.353   2.634  16.893  0.3401 -0.3346 -0.1277
  443TMC3     H 6605   4.122   2.755  16.889  1.7324 -1.0765 -1.6417
  443TMC3    H1 6606   4.140   2.366  17.055  0.4804  0.8157  2.1907
  443TMC3    H2 6607   3.771   2.567  17.028  0.0914  2.3495  1.9132
  443TMC3    C7 6608   3.884   2.342  17.098 -0.1229 -0.2333 -0.3092
  443TMC3    C8 6609   3.894   2.668  16.815  0.1829 -0.5803 -0.4806
  443TMC3    O1 6610   3.950   2.239  17.101  0.4830 -0.0500 -0.1759
  443TMC3    O2 6611   3.812   2.578  16.797 -0.0632 -0.2473 -0.5039
  444MPD2     C 6612   0.003   1.911  17.173  0.2319  0.8912 -0.4945
  444MPD2    C1 6613   4.620   1.817  17.207  0.5538  0.5681 -0.0288
  444MPD2    C2 6614   4.652   1.688  17.246  0.0156  0.1467 -0.0871
  444MPD2    C3 6615   0.061   1.648  17.259  0.2509  0.6829  0.1496
  444MPD2    C4 6616   0.161   1.738  17.228  0.2176 -0.7024  0.2752
  444MPD2    C5 6617   0.127   1.870  17.185 -0.6589  0.2051  0.8609
  444MPD2     H 6618   4.574   1.620  17.277 -0.1058 -0.2591 -1.2557
  444MPD2    H1 6619   0.265   1.720  17.251 -0.0951 -0.9981  1.4271
  444MPD2    H2 6620   4.711   2.018  17.157  0.2165  0.9851  0.1409
  444MPD2    H3 6621   0.212   1.931  17.159 -1.1260  0.0355 -1.0905
  444MPD2     N 6622   0.086   1.519  17.314 -0.4051  0.0572 -0.4279
  444MPD2    H5 6623   0.005   1.468  17.347  0.4545 -1.7969 -1.1767
  444MPD2    N1 6624   4.487   1.846  17.217 -0.2626  0.0796 -0.3311
  444MPD2    H7 6625   4.420   1.769  17.225  1.4463 -1.2440  1.2891
  445TMC3    C1 6626   0.197   1.351  17.422  0.4487  0.0022 -0.0729
  445TMC3    C2 6627   0.073   1.297  17.441  0.3256 -0.3427  0.0432
  445TMC3    C3 6628   0.067   1.166  17.455 -0.0957  0.4019 -0.1640
  445TMC3    C4 6629   0.311   1.273  17.417 -0.6877 -0.0518  0.5381
  445TMC3    C5 6630   0.296   1.137  17.437  1.2270  0.3087 -0.3150
  445TMC3    C6 6631   0.176   1.087  17.453  0.4417 -0.2717 -0.4593
  445TMC3     C 6632   0.209   1.468  17.342  0.1730 -0.5700 -0.3481
  445TMC3     O 6633   0.316   1.510  17.305  0.5100  0.6670  0.0618
  445TMC3     H 6634   4.703   1.353  17.455  1.3298  0.5886  2.8689
  445TMC3    H1 6635   0.403   1.320  17.383 -0.8976  1.0005  1.3952
  445TMC3    H2 6636   0.171   0.982  17.479 -1.1696 -0.3827 -1.2580
  445TMC3    C7 6637   0.408   1.064  17.391  0.4316 -0.6385  0.5195
  445TMC3    C8 6638   4.661   1.112  17.500 -0.2885 -0.0475 -0.0771
  445TMC3    O1 6639   0.517   1.121  17.387  0.0662  0.2889 -0.0352
  445TMC3    O2 6640   4.563   1.176  17.461 -0.4605 -0.0916  0.5922
  446MPD2     C 6641   0.000   2.973  11.174  0.5022 -0.1666  0.8004
  446MPD2    C1 6642   4.685   3.074  11.091  0.1911 -0.1713  0.4865
  446MPD2    C2 6643   0.060   3.157  11.033  0.6551 -0.2936  0.9881
  446MPD2    C3 6644   0.195   3.134  11.068  0.5116 -0.1869 -0.4473
  446MPD2    C4 6645   0.236   3.030  11.150 -0.3138  0.8098  0.4545
  446MPD2    C5 6646   0.134   2.950  11.203 -0.3105 -0.5648 -0.2375
  446MPD2     H 6647   0.026   3.237  10.969  0.6541 -0.4563  0.7878
  446MPD2    H1 6648   0.333   3.000  11.187  0.3854  1.5873 -0.7683
  446MPD2    H2 6649   4.655   2.902  11.221 -0.1934  0.9816  1.5438
  446MPD2    H3 6650   0.161   2.863  11.262  0.6739  0.4686  0.8401
  446MPD2     N 6651   0.289   3.232  11.031 -0.8488  0.3027  0.4418
  446MPD2    H5 6652   0.255   3.319  10.992  1.3628  0.6669 -0.6183
  446MPD2    N1 6653   4.548   3.093  11.055  0.5416  0.1959  0.1434
  446MPD2    H7 6654   4.526   3.164  10.986 -0.0788 -0.7761 -0.6623
  447TMC3    C1 6655   0.487   3.348  11.019  0.0603  0.1073 -0.2949
  447TMC3    C2 6656   0.458   3.399  10.901 -0.4472  0.0820  0.0315
  447TMC3    C3 6657   0.565   3.455  10.830  0.4231 -0.5995 -0.3845
  447TMC3    C4 6658   0.614   3.357  11.075  0.5327  0.5216  0.0588
  447TMC3    C5 6659   0.717   3.421  11.004  0.0130 -0.7596  0.1863
  447TMC3    C6 6660   0.692   3.477  10.881  0.2211  0.0399  0.3143
  447TMC3     C 6661   0.419   3.230  11.068  0.6415 -0.7843 -0.4082
  447TMC3     O 6662   0.487   3.158  11.141  0.4124 -0.2907 -0.0689
  447TMC3     H 6663   0.364   3.391  10.848 -0.4253  0.7593 -0.1003
  447TMC3    H1 6664   0.638   3.309  11.169 -1.3207  1.4961  1.0380
  447TMC3    H2 6665   0.776   3.508  10.820 -1.8754  0.3898 -2.4264
  447TMC3    C7 6666   0.851   3.415  11.059 -0.5872 -0.0732  0.0595
  447TMC3    C8 6667   0.537   3.508  10.700 -0.1909  0.3275  0.0506
  447TMC3    O1 6668   0.938   3.442  10.976 -0.1353  0.1655  0.7649
  447TMC3    O2 6669   0.423   3.516  10.669  0.1540 -0.0539  0.1413
  448TMC3    C1 6670   2.419   2.827  16.821  0.2718 -0.7087 -0.6235
  448TMC3    C2 6671   2.399   2.761  16.702 -0.9092  0.2870  0.2548
  448TMC3    C3 6672   2.471   2.645  16.673 -0.1158  0.1302  0.4403
  448TMC3    C4 6673   2.500   2.772  16.911  0.0257 -0.0674  0.3889
  448TMC3    C5 6674   2.574   2.657  16.883  0.2973 -0.4564 -0.4330
  448TMC3    C6 6675   2.568   2.596  16.758  0.0612  0.2076  0.1324
  448TMC3     C 6676   2.359   2.960  16.831 -0.2622  0.6400  0.4147
  448TMC3     O 6677   2.321   3.006  16.721 -0.0418  0.1850 -0.3001
  448TMC3     H 6678   2.330   2.802  16.630  1.2615  1.3547 -1.2365
  448TMC3    H1 6679   2.524   2.819  17.006 -0.7959 -0.6179  0.8715
  448TMC3    H2 6680   2.622   2.502  16.751 -0.5331 -0.2221  1.2730
  448TMC3    C7 6681   2.693   2.632  16.968  0.2673 -0.3197 -0.7224
  448TMC3    C8 6682   2.420   2.544  16.588 -0.0402  0.1439  0.3297
  448TMC3    O1 6683   2.806   2.622  16.922  0.2096 -0.0139 -0.7212
  448TMC3    O2 6684   2.466   2.432  16.604  0.5646 -0.9361 -0.6827
  449MPD2     C 6685   4.276   1.123  13.866  0.1895  0.1368 -0.2346
  449MPD2    C1 6686   4.182   1.226  13.869  0.1310 -0.5702 -0.6837
  449MPD2    C2 6687   4.050   1.195  13.874 -0.0755  0.0673  0.2629
  449MPD2    C3 6688   4.011   1.063  13.863 -0.6589 -0.6774  0.5552
  449MPD2    C4 6689   4.101   0.960  13.864  0.7127  0.0230 -0.6074
  449MPD2    C5 6690   4.233   0.996  13.863  0.3351  0.8196 -0.9464
  449MPD2     H 6691   3.979   1.277  13.876 -1.5307 -1.2107  1.6257
  449MPD2    H1 6692   4.071   0.856  13.856 -1.2915  0.6285 -0.7801
  449MPD2    H2 6693   4.378   1.148  13.842 -0.2047  1.4454 -0.5276
  449MPD2    H3 6694   4.300   0.911  13.864  1.1602  1.4814 -0.2202
  449MPD2     N 6695   3.870   1.045  13.861 -0.6281 -0.0877 -0.2062
  449MPD2    H5 6696   3.821   1.134  13.866 -1.2206 -0.3756 -0.7553
  449MPD2    N1 6697   4.215   1.357  13.882 -0.2660  1.3681 -0.0579
  449MPD2    H7 6698   4.140   1.422  13.859 -0.9123  0.7600  0.3565
  450TMC3    C1 6699   4.322   1.557  13.919 -0.0046  0.1103  0.0081
  450TMC3    C2 6700   4.386   1.604  13.805 -0.0022  0.1006 -0.3835
  450TMC3    C3 6701   4.322   1.700  13.735 -0.2632  0.4414  0.8937
  450TMC3    C4 6702   4.195   1.595  13.948 -0.2469 -0.0122 -0.4068
  450TMC3    C5 6703   4.121   1.683  13.873  0.4456 -0.0066 -0.1644
  450TMC3    C6 6704   4.193   1.736  13.768  0.2687 -0.6026  0.4447
  450TMC3     C 6705   4.335   1.414  13.921 -0.0604 -0.5642 -0.1439
  450TMC3     O 6706   4.439   1.355  13.955  0.0089 -0.1524 -0.4979
  450TMC3     H 6707   4.486   1.567  13.787  0.7420  3.1600 -2.5508
  450TMC3    H1 6708   4.147   1.543  14.029  0.5417  1.8706  1.2679
  450TMC3    H2 6709   4.139   1.793  13.692 -1.7157 -1.9634  0.8427
  450TMC3    C7 6710   3.992   1.621  13.831  0.5554  0.3286 -0.7517
  450TMC3    C8 6711   4.383   1.755  13.613 -0.3105  0.0094 -0.3504
  450TMC3    O1 6712   3.976   1.514  13.886 -0.2927 -0.0721 -0.4450
  450TMC3    O2 6713   4.334   1.861  13.572  0.1135  0.5396  0.6334
  451MPD2     C 6714   0.105   0.567   1.777 -0.3195  0.6710  0.9915
  451MPD2    C1 6715   0.128   0.582   1.636  0.5101  0.1935  1.0771
  451MPD2    C2 6716   0.123   0.459   1.568 -0.1754  0.0923  0.2506
  451MPD2    C3 6717   0.108   0.337   1.630 -0.2257 -0.1666 -0.4448
  451MPD2    C4 6718   0.105   0.332   1.766  0.8358  0.6083  0.0121
  451MPD2    C5 6719   0.099   0.447   1.837  1.2085 -0.0601 -0.4939
  451MPD2     H 6720   0.120   0.468   1.460  0.4434  1.6937  0.3759
  451MPD2    H1 6721   0.087   0.235   1.812 -0.6418  1.8845  2.1208
  451MPD2    H2 6722   0.100   0.656   1.838 -0.8334  0.5504  1.1196
  451MPD2    H3 6723   0.078   0.439   1.943 -0.2932  1.0331 -0.6880
  451MPD2     N 6724   0.096   0.211   1.565  0.2274  0.1260  0.3523
  451MPD2    H5 6725   0.095   0.131   1.628 -0.1619  0.5836  0.9244
  451MPD2    N1 6726   0.152   0.706   1.583 -0.3888  0.8152  0.3852
  451MPD2    H7 6727   0.145   0.781   1.651  1.0091  0.0147  1.4106
  452TMC3    C1 6728   0.103   0.052   1.392  0.0624  0.0435 -0.2069
  452TMC3    C2 6729   0.011   4.687   1.452  0.4431  0.6423 -0.3974
  452TMC3    C3 6730   4.698   4.583   1.371  0.3107  0.4235 -0.5703
  452TMC3    C4 6731   0.153   0.037   1.259  0.0059  0.4259 -0.6269
  452TMC3    C5 6732   0.109   4.648   1.189  0.0365 -1.1151 -0.0337
  452TMC3    C6 6733   0.024   4.553   1.243  0.1217  0.1670 -0.5178
  452TMC3     C 6734   0.118   0.193   1.428 -0.2984  0.0390 -0.6457
  452TMC3     O 6735   0.151   0.275   1.340  0.0653  0.4593 -0.1336
  452TMC3     H 6736   4.684   4.717   1.544  0.0032 -0.0898 -0.3978
  452TMC3    H1 6737   0.218   0.109   1.210  2.5360 -0.1929  1.8735
  452TMC3    H2 6738   4.708   4.466   1.190  2.1540  0.3672 -2.2949
  452TMC3    C7 6739   0.151   4.636   1.057  0.1810  0.4631  0.2493
  452TMC3    C8 6740   4.646   4.473   1.449 -0.0724  0.0940  0.5756
  452TMC3    O1 6741   0.170   0.014   0.988 -0.5136 -0.0142 -0.1412
  452TMC3    O2 6742   4.575   4.502   1.543 -0.0463  0.5489  0.7257
  453TMC3    C1 6743   1.974   1.855  11.253  0.3104  0.2339  0.2888
  453TMC3    C2 6744   1.908   1.741  11.286  0.3770  0.7767 -0.3679
  453TMC3    C3 6745   1.826   1.684  11.193  0.4041 -0.3452 -0.1860
  453TMC3    C4 6746   1.953   1.915  11.135  0.0861  0.3419 -0.0381
  453TMC3    C5 6747   1.883   1.847  11.038  0.2900 -0.0401  0.3637
  453TMC3    C6 6748   1.823   1.731  11.067 -0.0850  0.6154 -0.7436
  453TMC3     C 6749   2.100   1.888  11.321 -0.4541  0.4596  0.6868
  453TMC3     O 6750   2.158   1.988  11.292  0.0537 -0.3307 -0.4303
  453TMC3     H 6751   1.916   1.702  11.387 -1.9386 -2.0970 -1.2843
  453TMC3    H1 6752   2.004   2.007  11.110 -2.6688  1.8025 -0.3088
  453TMC3    H2 6753   1.778   1.660  10.999 -1.1091 -1.1136  1.7556
  453TMC3    C7 6754   1.877   1.908  10.908 -0.5158 -0.0838  0.4164
  453TMC3    C8 6755   1.730   1.580  11.220 -0.4172 -0.0179  0.4656
  453TMC3    O1 6756   1.877   2.028  10.909 -0.3344  0.0824 -0.1995
  453TMC3    O2 6757   1.635   1.562  11.145 -0.1823  0.2097  0.5641
  454MPD2     C 6758   0.202   1.070  17.033  0.2547 -0.0211  0.3685
  454MPD2    C1 6759   0.178   1.206  17.001 -0.1304 -0.2681 -0.8075
  454MPD2    C2 6760   0.063   1.262  17.056 -0.8847 -0.0268 -0.1168
  454MPD2    C3 6761   4.687   1.187  17.124 -0.3460  0.6608 -0.4995
  454MPD2    C4 6762   0.001   1.057  17.160 -0.0950  0.6328 -0.2747
  454MPD2    C5 6763   0.114   1.004  17.111 -0.1590 -0.0867  0.0308
  454MPD2     H 6764   0.039   1.363  17.025 -1.0344  1.0350  3.4682
  454MPD2    H1 6765   4.657   0.990  17.214 -1.5084  1.0203 -1.5016
  454MPD2    H2 6766   0.296   1.021  17.010 -0.3566 -1.0156 -0.0166
  454MPD2    H3 6767   0.142   0.906  17.148  2.1517  0.2609 -0.7836
  454MPD2     N 6768   4.558   1.233  17.172  0.1355  0.0527  0.5079
  454MPD2    H5 6769   4.532   1.191  17.260 -0.0639 -2.6071 -0.8144
  454MPD2    N1 6770   0.256   1.276  16.918  0.4483  0.3515  0.2108
  454MPD2    H7 6771   0.231   1.372  16.897  0.5862  0.4312  0.4047
  455TMC3    C1 6772   4.485   1.365  16.977  0.3780 -0.3109 -0.6694
  455TMC3    C2 6773   4.452   1.495  16.945 -0.1639 -0.1010  0.0789
  455TMC3    C3 6774   4.474   1.521  16.817 -0.5531 -0.4752  0.1844
  455TMC3    C4 6775   4.526   1.272  16.886 -0.0402 -0.7786 -0.2612
  455TMC3    C5 6776   4.552   1.311  16.758  1.1346 -0.0807  0.0414
  455TMC3    C6 6777   4.527   1.437  16.718 -0.3833 -0.3157 -0.3218
  455TMC3     C 6778   4.487   1.337  17.120  0.0004 -0.1331  0.3791
  455TMC3     O 6779   4.420   1.412  17.187 -0.0531 -0.3886 -0.4362
  455TMC3     H 6780   4.431   1.571  17.020 -1.4076 -0.5546  0.2036
  455TMC3    H1 6781   4.547   1.168  16.909 -0.5185 -0.3894  1.9746
  455TMC3    H2 6782   4.554   1.481  16.623  0.7489  0.0374  0.1735
  455TMC3    C7 6783   4.628   1.225  16.669 -0.7003  0.1153 -0.2884
  455TMC3    C8 6784   4.479   1.663  16.792 -0.6146 -0.2062 -0.7029
  455TMC3    O1 6785   4.609   1.237  16.548  1.0615 -0.2479 -0.5452
  455TMC3    O2 6786   4.564   1.704  16.716  0.0796  0.0084  0.1280
  456MPD2     C 6787   2.917   1.497  15.932  0.2613 -0.1093 -0.0974
  456MPD2    C1 6788   2.903   1.451  16.058 -0.4466  0.9542  0.0059
  456MPD2    C2 6789   2.804   1.500  16.141  0.1775  0.5160  0.2180
  456MPD2    C3 6790   2.729   1.605  16.096 -0.2276  0.2259  0.4016
  456MPD2    C4 6791   2.746   1.658  15.970 -0.3558  0.3157 -0.0963
  456MPD2    C5 6792   2.839   1.596  15.885 -0.3805  0.1426 -0.1192
  456MPD2     H 6793   2.783   1.454  16.237  0.5762 -1.4542 -0.6501
  456MPD2    H1 6794   2.684   1.738  15.933  0.4940  0.4065 -1.3283
  456MPD2    H2 6795   2.993   1.458  15.866  0.3056  1.3798 -0.9312
  456MPD2    H3 6796   2.847   1.623  15.780 -0.5274  2.9477  0.5800
  456MPD2     N 6797   2.630   1.655  16.185  0.6076  0.8520 -0.1590
  456MPD2    H5 6798   2.607   1.606  16.271 -0.0068  0.4546 -0.5542
  456MPD2    N1 6799   2.989   1.346  16.101 -0.0075 -0.1725  0.0387
  456MPD2    H7 6800   3.052   1.319  16.026 -1.9944 -1.0713 -1.2974
  457TMC3    C1 6801   2.463   1.792  16.288 -0.0563 -0.3327  0.7264
  457TMC3    C2 6802   2.374   1.892  16.277  0.2943 -0.2263  0.9364
  457TMC3    C3 6803   2.291   1.924  16.383 -0.6079  0.1163 -0.1456
  457TMC3    C4 6804   2.482   1.716  16.400  0.5341  0.6492  0.4936
  457TMC3    C5 6805   2.410   1.767  16.508 -0.3443  0.4725  0.5735
  457TMC3    C6 6806   2.308   1.863  16.503 -0.1132  0.1881  0.5166
  457TMC3     C 6807   2.550   1.766  16.169 -0.0159  0.2334 -0.7003
  457TMC3     O 6808   2.543   1.848  16.078 -0.2750  0.2461 -0.3601
  457TMC3     H 6809   2.357   1.949  16.187  0.1527 -0.3437  0.8887
  457TMC3    H1 6810   2.551   1.634  16.415 -0.3649 -0.3343 -0.7910
  457TMC3    H2 6811   2.239   1.886  16.582 -0.9625  0.5621 -0.3348
  457TMC3    C7 6812   2.484   1.780  16.635 -0.0352 -0.6524 -0.4750
  457TMC3    C8 6813   2.295   2.066  16.416 -0.0841  0.3885  0.7695
  457TMC3    O1 6814   2.561   1.681  16.655  0.5744 -0.2900 -0.8014
  457TMC3    O2 6815   2.346   2.087  16.529  0.1826  0.4356  0.5053
  458MPD2     C 6816   1.345   0.844  12.176 -0.7143 -0.3044 -0.5002
  458MPD2    C1 6817   1.297   0.794  12.296  0.2533  0.4005 -0.7621
  458MPD2    C2 6818   1.162   0.811  12.324 -0.9442 -0.6437  0.0661
  458MPD2    C3 6819   1.076   0.864  12.232  0.4661  0.1640 -0.0517
  458MPD2    C4 6820   1.124   0.914  12.116  0.0864 -0.6388 -0.0489
  458MPD2    C5 6821   1.256   0.900  12.088  0.7770 -0.3490  1.0057
  458MPD2     H 6822   1.115   0.780  12.417 -1.0655 -0.9513 -0.0988
  458MPD2    H1 6823   1.059   0.957  12.041  1.6046  1.9247  0.1261
  458MPD2    H2 6824   1.450   0.862  12.159 -0.5921  2.6871  3.3443
  458MPD2    H3 6825   1.296   0.947  11.999 -3.2769 -0.8406 -1.1308
  458MPD2     N 6826   0.942   0.880  12.276  0.0473  0.3269 -0.3630
  458MPD2    H5 6827   0.926   0.854  12.373  1.2700 -0.6261 -0.4128
  458MPD2    N1 6828   1.391   0.741  12.383 -0.2812  0.6271  0.4066
  458MPD2    H7 6829   1.489   0.760  12.364 -0.7166  1.8418 -0.5738
  459TMC3    C1 6830   1.478   0.681  12.595  0.1761 -0.0567  0.9003
  459TMC3    C2 6831   1.582   0.779  12.578 -1.1989  0.6769  0.0063
  459TMC3    C3 6832   1.627   0.849  12.683  0.0766  0.2674  0.6264
  459TMC3    C4 6833   1.426   0.665  12.723  0.4122  0.7871  0.4778
  459TMC3    C5 6834   1.484   0.737  12.830  0.4858 -0.1760  0.1434
  459TMC3    C6 6835   1.588   0.819  12.812 -1.0821  0.3025  0.2389
  459TMC3     C 6836   1.365   0.689  12.508  0.4051 -0.1141 -0.0391
  459TMC3     O 6837   1.265   0.632  12.548  0.3786 -0.4325  0.4711
  459TMC3     H 6838   1.641   0.780  12.487 -3.3818  1.8252 -1.3897
  459TMC3    H1 6839   1.347   0.594  12.743  1.3877 -0.0419  1.4332
  459TMC3    H2 6840   1.649   0.855  12.894 -1.0796  1.2830 -0.2001
  459TMC3    C7 6841   1.471   0.674  12.960  0.4271 -0.4090  0.8278
  459TMC3    C8 6842   1.758   0.909  12.670 -0.5038  0.3929  1.0313
  459TMC3    O1 6843   1.404   0.574  12.974 -0.4356  0.1565  0.0455
  459TMC3    O2 6844   1.840   0.912  12.763  0.3061 -0.0940 -1.0241
  460MPD2     C 6845   0.779   3.570  10.426  0.0493 -0.1914 -0.4065
  460MPD2    C1 6846   0.651   3.568  10.489 -0.2439  0.6107  0.4799
  460MPD2    C2 6847   0.544   3.624  10.413 -0.3931  0.3441  0.2171
  460MPD2    C3 6848   0.567   3.679  10.290 -0.1731  0.6045 -0.0779
  460MPD2    C4 6849   0.694   3.684  10.231 -0.3787 -0.4249 -1.4298
  460MPD2    C5 6850   0.794   3.617  10.300  1.0229 -0.2009  0.3058
  460MPD2     H 6851   0.439   3.626  10.441 -0.4244  0.8471  0.0502
  460MPD2    H1 6852   0.707   3.719  10.129  0.4823  4.0974  0.2243
  460MPD2    H2 6853   0.867   3.522  10.467 -0.3517 -1.4442 -1.0132
  460MPD2    H3 6854   0.890   3.597  10.255  0.2762 -0.5142 -1.1508
  460MPD2     N 6855   0.447   3.727  10.230 -0.2020 -0.0228  0.0649
  460MPD2    H5 6856   0.365   3.712  10.287  0.2890 -2.2259  0.1599
  460MPD2    N1 6857   0.647   3.523  10.624 -0.0269  0.0115 -0.0922
  460MPD2    H7 6858   0.734   3.494  10.667 -1.2722 -0.8004  1.8851
  461TMC3    C1 6859   0.298   3.798  10.064  0.3991  0.0849  0.0509
  461TMC3    C2 6860   0.238   3.734   9.956  0.2455 -0.5457  0.2632
  461TMC3    C3 6861   0.101   3.740   9.947  0.7750  0.2476 -0.0885
  461TMC3    C4 6862   0.224   3.862  10.156 -0.6802  0.6295 -0.0630
  461TMC3    C5 6863   0.093   3.873  10.137  0.8562 -0.5352 -0.1266
  461TMC3    C6 6864   0.023   3.810  10.038 -0.7395 -0.1052  1.0968
  461TMC3     C 6865   0.432   3.759  10.098 -0.5902 -0.3595 -0.5995
  461TMC3     O 6866   0.509   3.748  10.002  0.5517  0.6080 -0.4908
  461TMC3     H 6867   0.300   3.684   9.883  0.1716  1.0397 -0.8983
  461TMC3    H1 6868   0.272   3.911  10.240  0.6544 -2.5064  0.9954
  461TMC3    H2 6869   4.639   3.830  10.025 -0.3703 -0.4194 -2.5531
  461TMC3    C7 6870   0.033   3.999  10.169  0.2446 -0.3772  0.3002
  461TMC3    C8 6871   0.022   3.672   9.840  0.2668 -0.3593  0.4777
  461TMC3    O1 6872   4.636   4.019  10.150 -0.0613 -0.2286  0.4764
  461TMC3    O2 6873   4.618   3.687   9.837 -0.0454 -0.1323  0.0370
  462TMC3    C1 6874   4.491   4.410  17.442 -0.3937 -0.1653 -0.0308
  462TMC3    C2 6875   4.503   4.293  17.381  0.7845  0.1195  0.0833
  462TMC3    C3 6876   4.545   4.186  17.456 -0.3334  1.0132  0.3447
  462TMC3    C4 6877   4.502   4.422  17.579 -0.0674  0.0671 -0.6334
  462TMC3    C5 6878   4.545   4.320  17.654 -0.6354  0.0031  0.3561
  462TMC3    C6 6879   4.584   4.203  17.588  0.2706 -0.5919 -0.7243
  462TMC3     C 6880   4.383   4.499  17.393  0.0453  0.3488  0.2909
  462TMC3     O 6881   4.295   4.539  17.467 -0.1514  0.3809 -0.5149
  462TMC3     H 6882   4.489   4.278  17.275 -2.7043  0.9225  0.4513
  462TMC3    H1 6883   4.478   4.514  17.631 -2.5536  0.1300 -1.8472
  462TMC3    H2 6884   4.620   4.118  17.646 -0.4846  0.4986  1.3415
  462TMC3    C7 6885   4.466   4.288   0.076 -0.8717  0.6186 -0.0111
  462TMC3    C8 6886   4.492   4.056  17.407  0.0249 -0.2520  0.8580
  462TMC3    O1 6887   4.438   4.173   0.094  0.4111  0.1226 -0.1315
  462TMC3    O2 6888   4.397   4.060  17.328  0.1598  0.2056 -0.4586
  463MPD2     C 6889   0.768   3.037   1.866 -0.1905  1.0819  0.4763
  463MPD2    C1 6890   0.744   2.900   1.859 -0.6294 -0.1681 -0.6678
  463MPD2    C2 6891   0.835   2.801   1.810 -0.7241 -0.1566  0.3645
  463MPD2    C3 6892   0.956   2.851   1.761 -0.1300  0.3084 -0.7388
  463MPD2    C4 6893   0.984   2.983   1.761  0.3692  0.1911 -0.3712
  463MPD2    C5 6894   0.893   3.070   1.810  1.2353 -0.9934  0.0869
  463MPD2     H 6895   0.822   2.693   1.805 -0.3845 -0.1322 -1.0825
  463MPD2    H1 6896   1.072   3.020   1.709  2.4962 -3.6343  0.4995
  463MPD2    H2 6897   0.700   3.113   1.903 -1.4077 -0.4911  1.4696
  463MPD2    H3 6898   0.916   3.176   1.799 -1.6753 -0.4474 -0.7757
  463MPD2     N 6899   1.072   2.779   1.724 -0.3653  0.1477  0.3429
  463MPD2    H5 6900   1.153   2.828   1.688 -0.3169 -0.4135 -0.3090
  463MPD2    N1 6901   0.631   2.833   1.905  0.4222 -0.2948  0.0267
  463MPD2    H7 6902   0.630   2.732   1.896 -1.2046 -0.2837  0.0083
  464TMC3    C1 6903   0.441   2.790   2.026  0.1180  0.3143 -0.8891
  464TMC3    C2 6904   0.307   2.790   1.987 -0.4502 -0.5374 -0.2576
  464TMC3    C3 6905   0.229   2.679   1.991  0.2644 -0.0913 -0.2678
  464TMC3    C4 6906   0.496   2.665   2.063  0.8735  0.0210  0.1860
  464TMC3    C5 6907   0.420   2.549   2.062 -0.6065 -0.0949 -0.1140
  464TMC3    C6 6908   0.286   2.554   2.026 -0.3145  0.5616  0.0683
  464TMC3     C 6909   0.514   2.887   1.954 -0.1468 -0.5337  0.1566
  464TMC3     O 6910   0.462   2.992   1.914 -0.1291  0.3758 -0.3900
  464TMC3     H 6911   0.261   2.881   1.951  1.2880  1.0154  1.4231
  464TMC3    H1 6912   0.604   2.657   2.077  0.5304 -2.4726  1.3753
  464TMC3    H2 6913   0.215   2.476   2.050 -1.3602  0.8599 -2.0839
  464TMC3    C7 6914   0.491   2.438   2.006 -0.4678 -0.1147 -0.4317
  464TMC3    C8 6915   0.140   2.686   1.882  0.1238 -0.4148 -0.2150
  464TMC3    O1 6916   0.612   2.417   2.023  0.0699 -0.0268  0.2836
  464TMC3    O2 6917   0.158   2.766   1.792 -0.2530  0.4706 -0.9221
  465MPD2     C 6918   2.018   1.287  16.364  0.3295  0.1052  0.1452
  465MPD2    C1 6919   1.937   1.296  16.476  0.4967 -0.5493 -1.1026
  465MPD2    C2 6920   1.817   1.366  16.456  0.0047  0.3894  0.0344
  465MPD2    C3 6921   1.786   1.435  16.329  0.4056 -0.1131 -0.3141
  465MPD2    C4 6922   1.866   1.413  16.220 -0.2108  0.5612  0.2854
  465MPD2    C5 6923   1.983   1.344  16.242 -0.0134 -0.4578 -0.4716
  465MPD2     H 6924   1.747   1.371  16.538  2.7359 -1.5702  2.4749
  465MPD2    H1 6925   1.840   1.444  16.119  0.0281  0.6470  0.2481
  465MPD2    H2 6926   2.111   1.233  16.367 -0.4900 -1.4367 -2.4625
  465MPD2    H3 6927   2.047   1.327  16.157  0.1536 -0.7996 -0.2776
  465MPD2     N 6928   1.674   1.524  16.311 -0.0455 -0.0891  0.0520
  465MPD2    H5 6929   1.605   1.532  16.386 -1.4495 -0.4128 -1.2190
  465MPD2    N1 6930   1.952   1.235  16.600 -0.5287  0.6042 -0.0634
  465MPD2    H7 6931   1.873   1.244  16.663  0.4829  1.0368  1.1345
  466TMC3    C1 6932   1.341   1.763  16.245  0.5328 -0.3996 -0.6966
  466TMC3    C2 6933   1.365   1.896  16.211 -0.4100 -0.8741 -0.8595
  466TMC3    C3 6934   1.497   1.931  16.205 -0.4330 -0.0032  0.3070
  466TMC3    C4 6935   1.441   1.670  16.261 -0.0530  0.1039 -0.0629
  466TMC3    C5 6936   1.568   1.717  16.243  0.1726 -0.1828  0.4145
  466TMC3    C6 6937   1.603   1.848  16.228 -0.1577  0.2602  0.2505
  466TMC3     C 6938   1.222   1.734  16.328 -0.1601  0.5380  0.1022
  466TMC3     O 6939   1.225   1.645  16.409 -0.1949 -0.1767 -0.6750
  466TMC3     H 6940   1.289   1.973  16.210  0.9669  0.5241  1.7613
  466TMC3    H1 6941   1.413   1.566  16.273 -0.8721  0.3822  0.4634
  466TMC3    H2 6942   1.704   1.885  16.227  0.0954 -0.4278  0.5759
  466TMC3    C7 6943   1.673   1.624  16.222 -0.0653  0.8333 -0.5595
  466TMC3    C8 6944   1.524   2.072  16.235  0.3275  0.7295  0.0951
  466TMC3    O1 6945   1.757   1.658  16.139 -0.4776 -0.5048 -0.2596
  466TMC3    O2 6946   1.615   2.102  16.314  0.5188 -0.0068 -0.4099
  467TMC3    C1 6947   2.971   0.140  13.879  0.5784  0.7536 -0.2163
  467TMC3    C2 6948   2.895   0.224  13.807  0.4569 -0.6791  0.3256
  467TMC3    C3 6949   2.756   0.220  13.803  0.3020 -0.0382 -0.2303
  467TMC3    C4 6950   2.909   0.056  13.971  0.4343  0.1897 -0.2943
  467TMC3    C5 6951   2.775   0.051  13.961  0.1756  0.1482 -0.3699
  467TMC3    C6 6952   2.690   0.128  13.886  0.1434 -0.1294  1.1869
  467TMC3     C 6953   3.112   0.161  13.902 -0.2738 -0.0559 -0.6401
  467TMC3     O 6954   3.150   0.276  13.887 -0.0663  0.0065 -0.4612
  467TMC3     H 6955   2.945   0.266  13.720 -0.3276 -1.0000 -0.2766
  467TMC3    H1 6956   2.961   0.006  14.052  0.8267  2.3134  0.7878
  467TMC3    H2 6957   2.582   0.123  13.893 -0.0098 -1.3524 -1.9283
  467TMC3    C7 6958   2.710   4.669  14.040 -0.2066  0.0685 -0.4426
  467TMC3    C8 6959   2.682   0.284  13.695  0.0476 -1.1566  0.6054
  467TMC3    O1 6960   2.783   4.575  14.067  0.6913  0.3078  0.6240
  467TMC3    O2 6961   2.559   0.268  13.702  0.2415 -0.0417 -0.2879
  468MPD2     C 6962   2.295   3.302  10.307  0.2243 -0.3389 -0.1600
  468MPD2    C1 6963   2.269   3.287  10.440 -0.4794 -0.2007  0.2247
  468MPD2    C2 6964   2.267   3.156  10.488 -0.0063  0.0493  0.2848
  468MPD2    C3 6965   2.285   3.038  10.411  0.2248  0.2905  0.0062
  468MPD2    C4 6966   2.305   3.068  10.273 -0.3409  0.1736 -0.1317
  468MPD2    C5 6967   2.311   3.196  10.229 -0.6362 -0.0332  0.3290
  468MPD2     H 6968   2.227   3.155  10.589  2.9512 -2.5350  1.4358
  468MPD2    H1 6969   2.322   2.990  10.200  1.2047 -0.5802  1.0266
  468MPD2    H2 6970   2.285   3.396  10.254  1.1115 -0.8458 -1.2208
  468MPD2    H3 6971   2.327   3.212  10.123  0.0778 -0.3939  0.3789
  468MPD2     N 6972   2.269   2.908  10.455 -0.2899 -0.1821 -0.5934
  468MPD2    H5 6973   2.278   2.842  10.379  2.8024 -1.8288  1.2231
  468MPD2    N1 6974   2.231   3.391  10.529  1.2752 -0.0843  0.3273
  468MPD2    H7 6975   2.212   3.357  10.623  0.1932 -1.5042 -0.3844
  469TMC3    C1 6976   2.229   3.594  10.633  0.2445  0.7940  0.7939
  469TMC3    C2 6977   2.195   3.516  10.742  0.1435  0.2773 -0.1059
  469TMC3    C3 6978   2.268   3.504  10.852  0.5283  0.1935 -0.1471
  469TMC3    C4 6979   2.341   3.669  10.644 -1.1894  0.0964  0.7533
  469TMC3    C5 6980   2.411   3.659  10.758  0.6477  1.2356  0.3804
  469TMC3    C6 6981   2.388   3.575  10.867  0.1624  0.7078  0.6697
  469TMC3     C 6982   2.237   3.528  10.505 -0.1523 -0.1330  0.4271
  469TMC3     O 6983   2.278   3.583  10.405 -0.3067 -0.1417  0.1096
  469TMC3     H 6984   2.105   3.457  10.729 -0.6873  1.0924  1.9145
  469TMC3    H1 6985   2.358   3.744  10.568 -1.0053 -0.7427 -0.0352
  469TMC3    H2 6986   2.451   3.543  10.950 -2.1963 -2.1635  1.3756
  469TMC3    C7 6987   2.543   3.722  10.749  0.0896  0.0282 -0.1910
  469TMC3    C8 6988   2.278   3.368  10.887 -0.2843  0.4759 -0.0481
  469TMC3    O1 6989   2.605   3.745  10.642 -0.8190  0.2294 -0.0403
  469TMC3    O2 6990   2.280   3.285  10.795 -0.0653 -0.4031  0.4355
  470TMC3    C1 6991   4.284   4.421   1.458  0.5014  0.5649  0.4830
  470TMC3    C2 6992   4.271   4.556   1.457  0.4574 -0.4342  0.3165
  470TMC3    C3 6993   4.278   4.622   1.578 -0.0107  0.9201 -0.0789
  470TMC3    C4 6994   4.287   4.352   1.572  0.7054 -0.1239  0.1126
  470TMC3    C5 6995   4.278   4.423   1.689  0.3847 -0.2733  0.4865
  470TMC3    C6 6996   4.287   4.555   1.698 -0.6059  0.4767 -0.0993
  470TMC3     C 6997   4.330   4.357   1.333  0.8052 -0.1810  0.5176
  470TMC3     O 6998   4.348   4.236   1.336  0.4217  0.1766 -0.2038
  470TMC3     H 6999   4.241   4.612   1.369 -0.0642 -2.3178 -0.6864
  470TMC3    H1 7000   4.313   4.247   1.576  0.8306 -0.0866  0.2796
  470TMC3    H2 7001   4.265   4.610   1.790  0.3393  0.3346  0.2106
  470TMC3    C7 7002   4.236   4.356   1.818 -0.2195 -0.4754  0.6620
  470TMC3    C8 7003   4.241   0.041   1.591  0.0971  0.6331  0.4393
  470TMC3    O1 7004   4.241   4.427   1.921 -0.2014  0.7495  0.0051
  470TMC3    O2 7005   4.144   0.081   1.519 -0.2431 -0.5357 -0.2825
  471MPD2     C 7006   4.315   0.832  16.925 -0.7839 -0.0015  0.5710
  471MPD2    C1 7007   4.280   0.700  16.950 -0.9007  0.1959  0.7839
  471MPD2    C2 7008   4.311   0.645  17.070 -0.4243  0.5299 -0.3929
  471MPD2    C3 7009   4.378   0.718  17.168  0.0783 -0.3068 -0.7519
  471MPD2    C4 7010   4.397   0.854  17.147 -0.5494  0.4970  0.4828
  471MPD2    C5 7011   4.357   0.910  17.028  0.1532 -0.0879  0.2700
  471MPD2     H 7012   4.293   0.539  17.087 -0.5980  0.4837 -0.8571
  471MPD2    H1 7013   4.446   0.917  17.221 -1.2882  2.9982 -1.1584
  471MPD2    H2 7014   4.301   0.879  16.828  0.5369 -1.8497 -0.5322
  471MPD2    H3 7015   4.363   1.015  17.002  2.8905 -0.3339 -0.0505
  471MPD2     N 7016   4.416   0.652  17.292 -0.4819  0.4151  0.5525
  471MPD2    H5 7017   4.388   0.557  17.312 -1.1618  0.6986  0.9446
  471MPD2    N1 7018   4.219   0.623  16.845 -0.4342 -0.2694 -0.1802
  471MPD2    H7 7019   4.198   0.527  16.873  0.1066  0.2656  2.0744
  472TMC3    C1 7020   4.163   0.578  16.625  0.4051 -0.3790  0.2005
  472TMC3    C2 7021   4.085   0.610  16.517  0.7788 -0.2408 -0.3468
  472TMC3    C3 7022   4.075   0.522  16.411  0.6361  0.8340 -0.5285
  472TMC3    C4 7023   4.226   0.458  16.639 -0.1076 -0.0340 -0.5757
  472TMC3    C5 7024   4.213   0.373  16.535 -0.2633  0.3394 -0.3052
  472TMC3    C6 7025   4.142   0.406  16.423  0.0279  0.4709 -0.0728
  472TMC3     C 7026   4.179   0.676  16.724  0.0929 -0.4051 -0.2213
  472TMC3     O 7027   4.163   0.792  16.687  0.0499 -0.1836  0.2235
  472TMC3     H 7028   4.050   0.710  16.496  2.7391  0.1101 -1.9646
  472TMC3    H1 7029   4.282   0.429  16.728 -0.9721 -0.2837 -0.1118
  472TMC3    H2 7030   4.163   0.349  16.333 -0.9189  0.6492 -0.4063
  472TMC3    C7 7031   4.244   0.239  16.566  0.0314  0.0140 -0.3059
  472TMC3    C8 7032   3.938   0.505  16.378 -0.0342  0.7700  0.1338
  472TMC3    O1 7033   4.325   0.225  16.655  0.6868 -0.0009  0.7753
  472TMC3    O2 7034   3.899   0.580  16.282 -0.5267  0.2953  0.7244
  473MPD2     C 7035   0.001   2.665  13.983  0.7992 -0.4760  0.4362
  473MPD2    C1 7036   0.058   2.787  13.966  0.3393  0.4042 -0.8038
  473MPD2    C2 7037   0.108   2.854  14.076  0.5369  0.0657 -0.3523
  473MPD2    C3 7038   0.097   2.798  14.206  0.2584  0.4763  0.2664
  473MPD2    C4 7039   0.027   2.676  14.224 -0.0093 -0.6143  1.1496
  473MPD2    C5 7040   4.704   2.613  14.112 -0.6009 -0.0709 -0.1954
  473MPD2     H 7041   0.154   2.947  14.047 -0.9585  0.4741 -1.3991
  473MPD2    H1 7042   0.000   2.639  14.322 -1.3977  0.6578  1.2473
  473MPD2    H2 7043   4.681   2.613  13.898 -0.4107 -1.6429  1.7282
  473MPD2    H3 7044   4.650   2.520  14.124  1.7643 -1.5122 -0.7568
  473MPD2     N 7045   0.130   2.865  14.323 -0.0259 -0.6204 -0.0795
  473MPD2    H5 7046   0.115   2.816  14.410  0.6847  0.6870  0.7821
  473MPD2    N1 7047   0.064   2.856  13.843  0.4204 -0.5075  0.4862
  473MPD2    H7 7048   0.106   2.948  13.844  0.9082 -0.7174 -2.0432
  474TMC3    C1 7049   0.221   3.025  14.455  0.7659 -0.2555 -0.0664
  474TMC3    C2 7050   0.108   3.029  14.524 -0.5881 -1.1397  0.9088
  474TMC3    C3 7051   0.100   3.103  14.637 -0.9002 -0.0424 -0.0035
  474TMC3    C4 7052   0.330   3.091  14.501  0.4918 -0.5334 -0.1958
  474TMC3    C5 7053   0.318   3.159  14.620 -0.0815  0.2706 -0.1298
  474TMC3    C6 7054   0.201   3.169  14.691  0.0446  0.4937  0.6707
  474TMC3     C 7055   0.214   2.967  14.324  0.6234  0.5095 -0.4814
  474TMC3     O 7056   0.294   3.007  14.238  0.4687  0.2433  0.4875
  474TMC3     H 7057   0.019   2.986  14.481 -0.2025 -0.6927 -0.3372
  474TMC3    H1 7058   0.421   3.068  14.447  0.8536 -0.3730  0.3436
  474TMC3    H2 7059   0.192   3.220  14.786 -1.5894 -0.4767  1.0278
  474TMC3    C7 7060   0.429   3.244  14.645 -0.6797 -1.0493 -0.4083
  474TMC3    C8 7061   4.689   3.144  14.673  0.8341 -0.0031  0.8150
  474TMC3    O1 7062   0.515   3.256  14.557 -0.6179 -0.1367  0.4811
  474TMC3    O2 7063   4.597   3.063  14.672 -0.1142  0.4584  0.7226
  475MPD2     C 7064   3.634   1.174  10.668 -0.7343  0.1761 -0.1402
  475MPD2    C1 7065   3.622   1.286  10.749  0.0741  0.1387 -0.2064
  475MPD2    C2 7066   3.509   1.310  10.828 -0.5106 -0.2088 -0.0178
  475MPD2    C3 7067   3.400   1.223  10.816  0.0238  0.8118  0.2566
  475MPD2    C4 7068   3.410   1.116  10.724  0.1343 -0.2652  0.3326
  475MPD2    C5 7069   3.520   1.094  10.646 -0.2310  0.3094 -0.2342
  475MPD2     H 7070   3.504   1.400  10.888  1.6653  0.3559 -0.7127
  475MPD2    H1 7071   3.333   1.041  10.710  0.1828 -0.5038  1.3226
  475MPD2    H2 7072   3.730   1.163  10.619 -0.6723 -1.5838  0.3874
  475MPD2    H3 7073   3.528   1.008  10.580 -2.7444 -0.1067 -0.0217
  475MPD2     N 7074   3.277   1.259  10.874 -0.5145  0.0772  0.0651
  475MPD2    H5 7075   3.261   1.352  10.910 -0.5847  0.3968 -0.7994
  475MPD2    N1 7076   3.728   1.375  10.738 -0.0151  0.7343 -0.4313
  475MPD2    H7 7077   3.805   1.348  10.677  0.8564  0.3713  0.8307
  476TMC3    C1 7078   3.865   1.563  10.783 -0.0540 -0.2980 -0.2271
  476TMC3    C2 7079   3.840   1.580  10.647  0.3764  0.5434  0.3100
  476TMC3    C3 7080   3.822   1.711  10.605  0.2726  0.6691  0.0508
  476TMC3    C4 7081   3.872   1.670  10.868  0.1864 -0.5529  0.3769
  476TMC3    C5 7082   3.856   1.800  10.819  0.5192 -1.2840 -0.2640
  476TMC3    C6 7083   3.840   1.817  10.687 -0.1649 -0.3867  0.0770
  476TMC3     C 7084   3.758   1.480  10.829  0.0417  0.1482 -0.1625
  476TMC3     O 7085   3.704   1.511  10.933 -0.3825 -0.0601  0.3547
  476TMC3     H 7086   3.862   1.502  10.576 -0.3871  0.3727  0.2578
  476TMC3    H1 7087   3.883   1.655  10.975  2.3127  2.1116  0.5237
  476TMC3    H2 7088   3.830   1.918  10.649 -1.6218 -0.4807  0.2126
  476TMC3    C7 7089   3.816   1.904  10.909 -0.1483 -0.6984 -0.3296
  476TMC3    C8 7090   3.697   1.723  10.533  0.5219 -0.1166  0.0485
  476TMC3    O1 7091   3.766   2.002  10.853 -0.1379  0.2515  0.0522
  476TMC3    O2 7092   3.664   1.832  10.492 -0.0456 -0.3919  0.5411
  477MPD2     C 7093   1.112   2.741  11.749 -0.2151  0.0970 -0.1874
  477MPD2    C1 7094   1.031   2.647  11.680 -0.4808 -0.4035  0.0514
  477MPD2    C2 7095   1.014   2.523  11.742  0.1370 -0.4528 -0.2794
  477MPD2    C3 7096   1.076   2.492  11.860  0.1425 -0.8239  0.3508
  477MPD2    C4 7097   1.156   2.584  11.924 -0.0625 -0.1916  0.2776
  477MPD2    C5 7098   1.175   2.710  11.868  0.5040 -0.2955  0.2476
  477MPD2     H 7099   0.953   2.451  11.689  2.6728  0.2445 -4.1788
  477MPD2    H1 7100   1.210   2.560  12.015  0.3755  0.2613  0.1345
  477MPD2    H2 7101   1.136   2.835  11.700  2.4162 -0.8687 -0.7654
  477MPD2    H3 7102   1.252   2.775  11.908 -1.3251  1.9632  0.1102
  477MPD2     N 7103   1.057   2.357  11.902  0.0558 -0.4990 -0.7198
  477MPD2    H5 7104   1.012   2.296  11.834  1.1985 -0.9220 -1.1031
  477MPD2    N1 7105   0.966   2.669  11.559 -1.0883 -0.4868  0.1296
  477MPD2    H7 7106   0.895   2.605  11.526 -1.3517 -0.1399  0.0278
  478TMC3    C1 7107   0.903   2.783  11.360 -0.2193 -0.5896 -0.9088
  478TMC3    C2 7108   0.770   2.751  11.390 -0.0401 -0.2728  0.7021
  478TMC3    C3 7109   0.674   2.806  11.309  0.0659 -0.3641 -0.8151
  478TMC3    C4 7110   0.937   2.877  11.269 -0.3597 -0.0259 -0.0686
  478TMC3    C5 7111   0.835   2.924  11.191 -0.4523 -0.5167  0.1061
  478TMC3    C6 7112   0.700   2.896  11.207 -0.3997  0.4624  0.4726
  478TMC3     C 7113   0.995   2.779  11.477 -0.1676 -0.2507  0.2146
  478TMC3     O 7114   1.080   2.869  11.491  0.3395 -0.5313  0.3245
  478TMC3     H 7115   0.733   2.681  11.464  1.5079 -0.8373  0.9333
  478TMC3    H1 7116   1.042   2.895  11.252 -0.4480  0.0860 -0.4917
  478TMC3    H2 7117   0.613   2.907  11.144 -1.5395 -2.6261  1.4750
  478TMC3    C7 7118   0.877   2.989  11.074 -0.5719  1.1165  0.0544
  478TMC3    C8 7119   0.548   2.811  11.380 -0.4393  0.2700 -0.8013
  478TMC3    O1 7120   0.996   2.979  11.031  0.3668  0.5241 -0.0398
  478TMC3    O2 7121   0.507   2.709  11.436 -0.0758 -0.6813 -0.2847
  479MPD2     C 7122   4.125   0.004  15.645  0.2544 -0.0089  0.5509
  479MPD2    C1 7123   4.027   4.670  15.728  0.0188 -0.4600 -0.1199
  479MPD2    C2 7124   4.007   4.722  15.853 -0.3131 -0.4621 -0.3316
  479MPD2    C3 7125   4.074   0.114  15.888 -0.4695  0.1987 -0.1935
  479MPD2    C4 7126   4.178   0.167  15.810 -0.5790  0.3869 -0.2208
  479MPD2    C5 7127   4.206   0.107  15.691 -0.0397 -0.2498 -0.1380
  479MPD2     H 7128   3.947   4.659  15.918  1.2270  1.2845  2.7404
  479MPD2    H1 7129   4.222   0.259  15.845  0.2903  0.1600 -0.7180
  479MPD2    H2 7130   4.150   4.688  15.547  0.9494  1.4688  0.1504
  479MPD2    H3 7131   4.285   0.148  15.629  1.7931 -1.6913  1.2708
  479MPD2     N 7132   4.062   0.179  16.021 -0.3246  0.5484  0.0006
  479MPD2    H5 7133   4.139   0.244  16.033 -0.1220  0.2662  0.2623
  479MPD2    N1 7134   3.944   4.578  15.668  0.2427 -0.1312  0.3854
  479MPD2    H7 7135   3.949   4.569  15.567 -1.5729 -1.4450  0.3978
  480TMC3    C1 7136   3.672   4.719  16.221  0.6195  0.1057 -0.1464
  480TMC3    C2 7137   3.595   4.707  16.104  0.4737  0.1229 -0.1114
  480TMC3    C3 7138   3.648   0.046  15.996  0.4723  0.4380  0.1184
  480TMC3    C4 7139   3.793   0.051  16.222 -0.6568  0.1678  0.3215
  480TMC3    C5 7140   3.843   0.102  16.106  0.2981  0.1995  0.1538
  480TMC3    C6 7141   3.769   0.110  15.992 -0.5719 -0.0513  0.3345
  480TMC3     C 7142   3.640   4.621  16.325 -0.0073  0.4704  0.2418
  480TMC3     O 7143   3.740   4.588  16.384  0.4756  0.3591 -0.0870
  480TMC3     H 7144   3.509   4.643  16.085  0.3436 -0.3073  2.0146
  480TMC3    H1 7145   3.844   0.052  16.317  0.1478 -0.2037 -0.1116
  480TMC3    H2 7146   3.808   0.175  15.914  0.0927 -0.1297  0.6038
  480TMC3    C7 7147   3.972   0.163  16.125  0.2576 -0.0713 -0.5611
  480TMC3    C8 7148   3.580   0.030  15.867 -0.2809  0.3611  0.9509
  480TMC3    O1 7149   3.993   0.198  16.240 -0.4099  0.1519  0.3410
  480TMC3    O2 7150   3.466   4.706  15.863 -0.1219 -0.5911 -0.6224
  481MPD2     C 7151   0.932   4.687  14.278  0.3237 -0.1154 -0.2488
  481MPD2    C1 7152   0.865   4.567  14.317 -0.6619  0.5904  0.1552
  481MPD2    C2 7153   0.903   4.500  14.432  0.7512  0.1550  0.0308
  481MPD2    C3 7154   1.005   4.563  14.508  0.3894 -0.5288  0.5734
  481MPD2    C4 7155   1.076   4.675  14.467 -0.0926  0.1830 -0.3979
  481MPD2    C5 7156   1.043   0.011  14.348 -0.0580 -0.1017 -0.4214
  481MPD2     H 7157   0.848   4.415  14.471 -0.7611  0.5318 -1.2825
  481MPD2    H1 7158   1.152   4.719  14.532 -0.7453 -1.0791  1.2167
  481MPD2    H2 7159   0.904   0.026  14.193  0.6074 -0.9527 -0.9403
  481MPD2    H3 7160   1.078   0.111  14.325  0.1292  0.0668  0.6056
  481MPD2     N 7161   1.054   4.517  14.632 -0.3202  0.3198  0.1628
  481MPD2    H5 7162   1.126   4.570  14.679  0.8285 -1.7665  0.7407
  481MPD2    N1 7163   0.752   4.527  14.242  0.4840 -0.7593  0.1996
  481MPD2    H7 7164   0.719   4.581  14.163  2.0738  0.8525  0.6347
  482TMC3    C1 7165   0.615   4.368  14.136  0.1967 -1.1661 -0.8647
  482TMC3    C2 7166   0.609   4.235  14.106 -0.4448 -0.2101 -0.5940
  482TMC3    C3 7167   0.503   4.187  14.038 -0.0341 -0.6031  0.4543
  482TMC3    C4 7168   0.518   4.453  14.097 -0.5685  0.3936 -0.3162
  482TMC3    C5 7169   0.409   4.405  14.030  0.2290 -0.1829 -0.0795
  482TMC3    C6 7170   0.401   4.273  14.002  0.1500 -0.7040  0.1538
  482TMC3     C 7171   0.694   4.402  14.252 -0.3641  0.1594  0.5026
  482TMC3     O 7172   0.726   4.308  14.321  0.1666 -0.1252  0.9452
  482TMC3     H 7173   0.699   4.176  14.113  1.5793  3.0972  1.0942
  482TMC3    H1 7174   0.517   4.550  14.145 -0.5534  0.8658 -1.2712
  482TMC3    H2 7175   0.309   4.230  13.965  0.3822 -0.1350 -1.0921
  482TMC3    C7 7176   0.300   4.493  14.005  0.8730 -0.3499 -0.4436
  482TMC3    C8 7177   0.484   4.037  14.032 -0.2959  0.4395  0.2153
  482TMC3    O1 7178   0.284   4.579  14.087 -0.2826 -0.3252  0.1746
  482TMC3    O2 7179   0.569   3.979  14.096  0.2432  0.0971  0.5528
  483TMC3    C1 7180   3.435   3.124   1.267  0.1283  0.1704 -0.0210
  483TMC3    C2 7181   3.486   3.250   1.243  0.4816 -0.6183  0.6260
  483TMC3    C3 7182   3.609   3.253   1.184  0.3465  0.1004  0.1047
  483TMC3    C4 7183   3.493   3.009   1.211  0.7002 -0.3284 -0.5733
  483TMC3    C5 7184   3.614   3.021   1.149  0.2898 -1.2444  0.7736
  483TMC3    C6 7185   3.673   3.146   1.133 -0.5348  0.3857  0.1300
  483TMC3     C 7186   3.292   3.118   1.283 -0.4993  0.0593 -0.3841
  483TMC3     O 7187   3.232   3.204   1.352  0.5793 -0.1037  0.3816
  483TMC3     H 7188   3.421   3.336   1.253  0.1531 -0.5386 -2.3935
  483TMC3    H1 7189   3.464   2.909   1.243  0.5669 -0.9561 -2.6813
  483TMC3    H2 7190   3.766   3.159   1.078  0.9303 -1.5291  2.1495
  483TMC3    C7 7191   3.670   2.903   1.079 -0.9200  0.3053 -0.0848
  483TMC3    C8 7192   3.653   3.383   1.118  0.0598  0.3779 -0.2696
  483TMC3    O1 7193   3.620   2.794   1.099 -0.4321  0.0525  0.4946
  483TMC3    O2 7194   3.744   3.368   1.037 -0.3938  0.1138 -0.1647
  484MPD2     C 7195   1.857   1.172  12.443  0.3270  0.2419 -0.8538
  484MPD2    C1 7196   1.870   1.054  12.510 -0.1420 -0.6980  0.2947
  484MPD2    C2 7197   1.997   1.006  12.536 -0.5157 -0.5158  0.1830
  484MPD2    C3 7198   2.110   1.075  12.509  0.1618  0.3022  0.0899
  484MPD2    C4 7199   2.093   1.197  12.449 -0.3656  0.6049  0.0973
  484MPD2    C5 7200   1.966   1.239  12.410 -0.8296  0.6109 -0.6233
  484MPD2     H 7201   2.001   0.907  12.579 -2.5969 -0.9351 -0.5731
  484MPD2    H1 7202   2.175   1.267  12.438 -0.6699  1.1113  1.0837
  484MPD2    H2 7203   1.765   1.223  12.416  0.5509  0.7360 -0.6946
  484MPD2    H3 7204   1.963   1.336  12.361  0.2002  0.3444 -1.2293
  484MPD2     N 7205   2.243   1.034  12.535  0.7067  0.1275 -0.1538
  484MPD2    H5 7206   2.312   1.108  12.522  1.3558 -0.4094  0.2829
  484MPD2    N1 7207   1.754   0.982  12.555  0.4345 -0.0084  0.3251
  484MPD2    H7 7208   1.665   0.991  12.508  1.4597  0.1071 -1.5811
  485TMC3    C1 7209   2.416   0.884  12.602 -0.0744  0.0753 -0.1908
  485TMC3    C2 7210   2.433   0.760  12.655 -0.4505  0.0803 -0.0012
  485TMC3    C3 7211   2.555   0.710  12.657  0.2360  0.1504 -0.3497
  485TMC3    C4 7212   2.510   0.956  12.539 -0.0516  0.1279  0.4860
  485TMC3    C5 7213   2.633   0.894  12.535  0.0216  0.8213  0.1295
  485TMC3    C6 7214   2.658   0.780  12.598  0.3916  0.3502 -0.4972
  485TMC3     C 7215   2.273   0.916  12.597  0.6988  0.0244  0.4083
  485TMC3     O 7216   2.193   0.839  12.652 -0.0784 -0.2982 -0.3674
  485TMC3     H 7217   2.359   0.696  12.702 -2.2619  0.5051 -2.2691
  485TMC3    H1 7218   2.500   1.056  12.497  0.9219 -0.1880 -0.4696
  485TMC3    H2 7219   2.761   0.745  12.604  0.2115 -0.4340 -1.9901
  485TMC3    C7 7220   2.694   0.916  12.405  0.9071  0.4902  0.0090
  485TMC3    C8 7221   2.560   0.580  12.605 -0.2829 -0.0619 -0.9099
  485TMC3    O1 7222   2.671   1.013  12.337 -0.4164  0.0625 -0.0658
  485TMC3    O2 7223   2.578   0.570  12.482  0.1314 -0.7745 -0.5004
  486MPD2     C 7224   3.691   0.403  13.591  0.2908  0.0817  0.5653
  486MPD2    C1 7225   3.664   0.332  13.473  0.1514  0.1841 -0.0755
  486MPD2    C2 7226   3.634   0.410  13.364 -0.8816  0.8016 -0.0083
  486MPD2    C3 7227   3.641   0.548  13.363  0.4527  0.5848  0.8761
  486MPD2    C4 7228   3.671   0.613  13.481  0.2757 -1.0938 -0.1604
  486MPD2    C5 7229   3.695   0.542  13.592 -0.0960 -0.4998 -0.5264
  486MPD2     H 7230   3.612   0.351  13.276 -0.0950  1.8726 -0.9092
  486MPD2    H1 7231   3.684   0.721  13.482 -0.8087 -0.9670  0.0999
  486MPD2    H2 7232   3.711   0.347  13.682  0.3087 -0.8606 -0.0201
  486MPD2    H3 7233   3.731   0.590  13.683 -2.2915  1.1229 -0.4852
  486MPD2     N 7234   3.617   0.620  13.242  0.4290 -0.1282  0.7165
  486MPD2    H5 7235   3.596   0.566  13.159  0.5713  0.7913  0.0848
  486MPD2    N1 7236   3.679   0.189  13.467  0.3302  0.0563 -0.3880
  486MPD2    H7 7237   3.710   0.155  13.557 -2.5326 -0.0770  0.5310
  487TMC3    C1 7238   3.733   4.695  13.386 -0.5694 -0.4346 -0.0080
  487TMC3    C2 7239   3.704   4.609  13.284  1.1758  0.0227 -0.6908
  487TMC3    C3 7240   3.801   4.513  13.253  0.2883 -0.2570  0.2033
  487TMC3    C4 7241   3.854   4.692  13.451  0.3598  0.1914 -0.2096
  487TMC3    C5 7242   3.934   4.582  13.424 -0.0875 -0.1984  0.0319
  487TMC3    C6 7243   3.916   4.499  13.320  0.0808 -0.2399 -0.5479
  487TMC3     C 7244   3.679   0.108  13.358 -0.0695 -0.6695  0.0182
  487TMC3     O 7245   3.653   0.133  13.241  0.3974  1.0717 -0.2235
  487TMC3     H 7246   3.617   4.625  13.220  0.7505 -0.8576 -0.3352
  487TMC3    H1 7247   3.887   0.049  13.519  0.7446 -1.1318  1.1271
  487TMC3    H2 7248   3.968   4.405  13.334 -1.9519 -1.0760  1.5096
  487TMC3    C7 7249   4.064   4.572  13.488  0.4286  0.4317  0.1181
  487TMC3    C8 7250   3.760   4.387  13.201 -0.6276 -0.7136 -0.5410
  487TMC3    O1 7251   4.084   4.622  13.601  0.4030  0.1654 -0.0853
  487TMC3    O2 7252   3.843   4.317  13.144 -0.2921 -0.1073  0.2611
  488MPD2     C 7253   3.681   1.697  16.266  0.5608  0.3020 -0.6459
  488MPD2    C1 7254   3.741   1.784  16.358 -1.0426  0.1920  0.3725
  488MPD2    C2 7255   3.713   1.761  16.493 -0.0806 -0.8637 -0.7006
  488MPD2    C3 7256   3.626   1.666  16.541  0.1982 -0.8618  0.3882
  488MPD2    C4 7257   3.563   1.580  16.446 -0.4766 -0.5632  0.1408
  488MPD2    C5 7258   3.593   1.596  16.312 -0.5170 -0.1664  0.4678
  488MPD2     H 7259   3.756   1.831  16.565  0.5548  0.0745 -2.0021
  488MPD2    H1 7260   3.502   1.491  16.461  0.0849 -0.7171  1.4428
  488MPD2    H2 7261   3.698   1.711  16.160 -0.3263 -0.2984 -0.8660
  488MPD2    H3 7262   3.541   1.538  16.236 -1.1243  0.9782  0.0089
  488MPD2     N 7263   3.608   1.660  16.683 -0.5097  0.4907  0.5509
  488MPD2    H5 7264   3.670   1.722  16.734  0.1240  0.5465 -0.2701
  488MPD2    N1 7265   3.815   1.896  16.317  0.2504 -0.3508 -0.1735
  488MPD2    H7 7266   3.841   1.959  16.393 -0.9998 -0.5743  0.4447
  489TMC3    C1 7267   3.520   1.609  16.893 -0.1479  0.7828 -0.4414
  489TMC3    C2 7268   3.615   1.696  16.951  0.8554 -0.6308  0.0296
  489TMC3    C3 7269   3.621   1.709  17.084 -0.0105 -0.0480 -0.3211
  489TMC3    C4 7270   3.429   1.538  16.970  0.1756 -0.0443  0.1409
  489TMC3    C5 7271   3.426   1.563  17.108 -0.4522  0.3158  0.0871
  489TMC3    C6 7272   3.517   1.648  17.157  0.3395  0.3944  0.3513
  489TMC3     C 7273   3.514   1.585  16.746 -0.1153 -0.1040  0.0185
  489TMC3     O 7274   3.439   1.498  16.695 -0.5207  0.0609  0.7162
  489TMC3     H 7275   3.691   1.742  16.890 -1.7477  0.9566 -2.0098
  489TMC3    H1 7276   3.365   1.468  16.918  0.1398 -1.4094  2.0345
  489TMC3    H2 7277   3.517   1.668  17.264  0.4050 -0.5003  0.5170
  489TMC3    C7 7278   3.375   1.461  17.197 -0.0381 -0.4124 -0.5824
  489TMC3    C8 7279   3.661   1.845  17.117 -0.8715 -0.1822 -0.3568
  489TMC3    O1 7280   3.410   1.457  17.313  0.0320  0.3369 -0.0660
  489TMC3    O2 7281   3.760   1.884  17.060 -0.3837  0.2523 -0.1111
  490MPD2     C 7282   4.593   1.788  17.565 -0.2011 -0.5217 -0.3649
  490MPD2    C1 7283   4.593   1.651  17.605  0.7519 -0.4880 -0.0313
  490MPD2    C2 7284   4.709   1.588  17.646  0.0865 -0.3047  0.2761
  490MPD2    C3 7285   0.114   1.658  17.636 -0.2898  0.3458  0.3093
  490MPD2    C4 7286   0.107   1.781  17.566  0.5804  0.1477  0.2722
  490MPD2    C5 7287   4.717   1.846  17.537  0.1254 -0.5647  0.4409
  490MPD2     H 7288   4.712   1.482  17.668  0.8715  0.0564  1.9311
  490MPD2    H1 7289   0.200   1.829  17.536  1.2062 -0.0722  1.8447
  490MPD2    H2 7290   4.501   1.832  17.529 -0.6031 -1.0485  0.0112
  490MPD2    H3 7291   4.718   1.938  17.481 -0.5115 -2.0150 -1.9446
  490MPD2     N 7292   0.228   1.599   0.007 -0.0493 -0.2538  0.3618
  490MPD2    H5 7293   0.315   1.647  17.676 -1.9085  3.2800  0.7753
  490MPD2    N1 7294   4.472   1.580  17.610 -0.2042  0.4009 -0.6818
  490MPD2    H7 7295   4.469   1.501  17.674  0.9100  1.1703  0.3231
  491TMC3    C1 7296   4.262   1.521  17.555 -0.1460  0.0635  0.6912
  491TMC3    C2 7297   4.234   1.484  17.681 -0.1990 -0.9259 -0.0862
  491TMC3    C3 7298   4.151   1.375   0.006  0.2305 -0.8028 -0.0338
  491TMC3    C4 7299   4.217   1.444  17.447 -0.8909  0.4593 -0.4241
  491TMC3    C5 7300   4.149   1.331  17.468 -0.3377  0.1379  0.3850
  491TMC3    C6 7301   4.117   1.288  17.591 -0.4799 -0.1099 -1.1684
  491TMC3     C 7302   4.367   1.609  17.527  0.6886 -0.5241  0.6668
  491TMC3     O 7303   4.366   1.654  17.409 -0.2195  0.3894 -0.3208
  491TMC3     H 7304   4.255   1.543   0.080 -2.2937 -0.2748 -0.0383
  491TMC3    H1 7305   4.255   1.463  17.347 -0.8315 -2.0153 -0.8794
  491TMC3    H2 7306   4.034   1.219  17.598 -0.7836  0.1620 -2.1492
  491TMC3    C7 7307   4.102   1.249  17.356 -0.0442  0.6244 -0.4450
  491TMC3    C8 7308   4.115   1.339   0.139 -0.2496  0.6758 -0.4090
  491TMC3    O1 7309   4.063   1.137  17.384 -0.1118 -0.6624  0.3536
  491TMC3    O2 7310   4.104   1.432   0.220 -0.0213 -0.5804 -0.7636
  492MPD2     C 7311   0.282   1.665  11.564 -0.5672 -0.1828 -0.3598
  492MPD2    C1 7312   0.272   1.541  11.506  0.1401 -0.8939 -0.4918
  492MPD2    C2 7313   0.221   1.435  11.574 -0.5260 -0.5936 -0.0855
  492MPD2    C3 7314   0.174   1.447  11.707  0.0837  0.2563  0.1730
  492MPD2    C4 7315   0.176   1.578  11.762 -0.0553  0.2857 -0.4543
  492MPD2    C5 7316   0.234   1.679  11.692 -0.6852  0.1393 -0.0679
  492MPD2     H 7317   0.202   1.338  11.528 -0.8955 -0.0626 -1.0481
  492MPD2    H1 7318   0.136   1.600  11.860  0.3056 -0.6258 -0.1037
  492MPD2    H2 7319   0.309   1.753  11.506  0.5931 -1.3394 -1.5813
  492MPD2    H3 7320   0.235   1.779  11.732 -0.3624 -0.8519  2.4085
  492MPD2     N 7321   0.113   1.343  11.782  0.2083 -0.2755 -0.5713
  492MPD2    H5 7322   0.079   1.370  11.874  0.3088  3.1789 -1.5132
  492MPD2    N1 7323   0.298   1.539  11.370  0.3824  0.0513 -0.3339
  492MPD2    H7 7324   0.292   1.625  11.317  0.5928  2.5847  3.7199
  493TMC3    C1 7325   0.314   1.456  11.152 -0.5968  0.1840 -0.7229
  493TMC3    C2 7326   0.386   1.560  11.102  0.0984 -0.2202  0.5796
  493TMC3    C3 7327   0.360   1.596  10.972  0.0536  0.3832 -0.1827
  493TMC3    C4 7328   0.220   1.389  11.076  0.3805  0.2041  1.3178
  493TMC3    C5 7329   0.210   1.428  10.946 -0.4674  1.0236 -0.2880
  493TMC3    C6 7330   0.269   1.529  10.890 -0.4549  0.3188 -1.0600
  493TMC3     C 7331   0.300   1.426  11.290 -0.0695 -0.4766 -0.2533
  493TMC3     O 7332   0.284   1.307  11.316  0.0171  0.2255 -0.4288
  493TMC3     H 7333   0.450   1.614  11.170  0.4672  0.5310 -0.3622
  493TMC3    H1 7334   0.140   1.331  11.122 -0.0923  0.3547  0.6841
  493TMC3    H2 7335   0.255   1.545  10.783  1.4388  0.4626 -1.2922
  493TMC3    C7 7336   0.165   1.325  10.860 -0.7667 -0.7018 -0.1286
  493TMC3    C8 7337   0.476   1.653  10.908 -0.1200  0.2189 -0.0990
  493TMC3    O1 7338   0.122   1.365  10.749  0.3079 -0.2720  0.4212
  493TMC3    O2 7339   0.579   1.641  10.963  0.2040 -0.1590  0.1516
  494TMC3    C1 7340   0.947   2.791   0.748 -0.4601 -0.3625  0.0052
  494TMC3    C2 7341   1.079   2.769   0.782  0.4963  0.4500  0.0327
  494TMC3    C3 7342   1.178   2.809   0.691  0.5694  0.1016  0.7850
  494TMC3    C4 7343   0.913   2.844   0.627 -0.6919  0.1606 -0.3588
  494TMC3    C5 7344   1.017   2.895   0.547 -0.2643  0.2803 -0.2204
  494TMC3    C6 7345   1.144   2.887   0.583  0.4752 -0.3225 -0.0358
  494TMC3     C 7346   0.841   2.721   0.811  0.1660 -0.4928 -0.0131
  494TMC3     O 7347   0.736   2.778   0.803 -0.3866  0.1595 -0.5763
  494TMC3     H 7348   1.107   2.728   0.878 -1.7257 -0.6625  0.1930
  494TMC3    H1 7349   0.809   2.867   0.605  0.1377  1.6137 -2.6893
  494TMC3    H2 7350   1.219   2.928   0.517  2.0833 -0.4670  1.7023
  494TMC3    C7 7351   0.984   2.962   0.427  0.1121  0.2103 -0.0455
  494TMC3    C8 7352   1.319   2.786   0.724 -0.4208  0.0957  0.5842
  494TMC3    O1 7353   1.072   2.983   0.346  0.1694  0.6517 -0.1239
  494TMC3    O2 7354   1.348   2.693   0.796  0.2609  0.2985 -0.1958
  495TMC3    C1 7355   4.119   4.650  15.050  0.4074  0.6459 -0.3135
  495TMC3    C2 7356   4.062   4.683  14.930  0.9254  0.3049  0.5089
  495TMC3    C3 7357   3.947   0.043  14.932 -0.1340  0.3440  0.2936
  495TMC3    C4 7358   4.068   4.681  15.172 -0.2064  0.4929  0.7239
  495TMC3    C5 7359   3.951   0.028  15.171  0.1156  0.1648  0.4500
  495TMC3    C6 7360   3.891   0.076  15.055  0.1194  0.4569  0.2315
  495TMC3     C 7361   4.187   4.525  15.054 -0.7368 -0.7065  0.5741
  495TMC3     O 7362   4.280   4.504  15.132  0.0988  0.4154  0.3113
  495TMC3     H 7363   4.119   4.680  14.838  2.6553  0.5054  1.5800
  495TMC3    H1 7364   4.111   4.636  15.261  1.2201 -1.6123 -1.0128
  495TMC3    H2 7365   3.803   0.140  15.061  0.4419  0.8836  0.4326
  495TMC3    C7 7366   3.886   0.036  15.298  0.2454  1.0979 -0.4683
  495TMC3    C8 7367   3.851   0.023  14.829 -0.4706 -0.1590 -0.2572
  495TMC3    O1 7368   3.953   4.720  15.394  0.2460  0.2192 -0.2741
  495TMC3    O2 7369   3.743   0.072  14.845  0.2920  0.3447  0.1143
  496MPD2     C 7370   1.422   4.580  16.053 -0.0804  0.5684  0.3180
  496MPD2    C1 7371   1.343   4.613  15.952  0.1187  1.1864  0.0414
  496MPD2    C2 7372   1.230   4.692  15.977 -0.0981  0.4344  0.2417
  496MPD2    C3 7373   1.198   0.007  16.103  0.4240 -0.7270  0.3255
  496MPD2    C4 7374   1.281   4.686  16.206  0.1822  0.4797  0.0619
  496MPD2    C5 7375   1.391   4.609  16.183  0.3068  0.2358 -0.1596
  496MPD2     H 7376   1.174   0.004  15.891 -1.6387 -0.6681  0.8120
  496MPD2    H1 7377   1.259   4.717  16.308  2.8833 -2.4027  1.5170
  496MPD2    H2 7378   1.521   4.539  16.038  0.2968  1.3415  0.7098
  496MPD2    H3 7379   1.455   4.585  16.268  1.6153 -0.7260 -1.4055
  496MPD2     N 7380   1.093   0.095  16.131  0.4307 -0.1915  0.2061
  496MPD2    H5 7381   1.077   0.130  16.225 -0.9720 -1.6501  0.5157
  496MPD2    N1 7382   1.400   4.606  15.821 -0.3032 -0.0833 -0.4450
  496MPD2    H7 7383   1.483   4.547  15.814  0.7244  1.0946  1.5134
  497TMC3    C1 7384   0.932   0.273  16.110  0.2032  0.1690  0.2524
  497TMC3    C2 7385   0.815   0.304  16.039 -0.4245 -0.1165  0.1953
  497TMC3    C3 7386   0.779   0.429  16.044 -0.7968  0.1351 -0.9474
  497TMC3    C4 7387   1.015   0.372  16.162  0.2424 -0.0516  0.0892
  497TMC3    C5 7388   0.981   0.505  16.146  0.0137 -0.3196  0.0871
  497TMC3    C6 7389   0.866   0.525  16.082 -0.1154 -0.4159  0.2973
  497TMC3     C 7390   1.008   0.158  16.044  0.5448  0.1589 -0.1548
  497TMC3     O 7391   1.001   0.146  15.924  0.6364  0.0017 -0.7962
  497TMC3     H 7392   0.750   0.222  16.009  0.0872 -0.4661  0.0321
  497TMC3    H1 7393   1.095   0.340  16.228 -1.4282 -3.3134  0.5427
  497TMC3    H2 7394   0.835   0.629  16.082  1.1717 -0.0354 -2.0800
  497TMC3    C7 7395   1.081   0.592  16.084  0.0990  0.4988 -0.1776
  497TMC3    C8 7396   0.637   0.451  16.057 -0.7314  1.2697 -0.7811
  497TMC3    O1 7397   1.063   0.644  15.973  0.7100 -0.0589  0.1965
  497TMC3    O2 7398   0.607   0.509  16.158  0.1861  0.2892  0.0350
  498MPD2     C 7399   2.533   1.465  10.242  0.1347  0.3116 -0.2712
  498MPD2    C1 7400   2.646   1.384  10.248 -0.0327  0.2017 -0.2300
  498MPD2    C2 7401   2.638   1.261  10.308  0.1678  0.9134  0.5427
  498MPD2    C3 7402   2.516   1.212  10.355  0.9614  0.6982  0.5530
  498MPD2    C4 7403   2.400   1.289  10.341  0.5056 -1.1579 -0.8813
  498MPD2    C5 7404   2.407   1.412  10.282  0.2342  0.0635 -0.3550
  498MPD2     H 7405   2.726   1.200  10.320  0.3667  0.8436 -1.2407
  498MPD2    H1 7406   2.303   1.259  10.379  0.7368  0.0931  0.6688
  498MPD2    H2 7407   2.546   1.565  10.204 -1.5870  0.4340 -0.5160
  498MPD2    H3 7408   2.324   1.480  10.267  0.9610  0.9334 -0.4389
  498MPD2     N 7409   2.507   1.081  10.406  0.1128  0.5867 -0.1081
  498MPD2    H5 7410   2.597   1.033  10.402 -1.0365 -1.6631  0.6198
  498MPD2    N1 7411   2.764   1.438  10.190  0.9640 -0.8711  0.2510
  498MPD2    H7 7412   2.765   1.539  10.181 -1.1582 -1.1622 -3.1994
  499TMC3    C1 7413   3.004   1.462  10.132  0.2795 -0.5181 -0.0869
  499TMC3    C2 7414   3.130   1.400  10.131  0.4727  0.4305 -0.3870
  499TMC3    C3 7415   3.235   1.474  10.067 -0.1764 -1.2076 -0.7766
  499TMC3    C4 7416   2.979   1.580  10.060 -0.0358 -0.2427 -0.1340
  499TMC3    C5 7417   3.086   1.635   9.996  0.0367 -0.1135  0.2513
  499TMC3    C6 7418   3.215   1.589   9.999  0.4754  0.6302  0.1622
  499TMC3     C 7419   2.892   1.375  10.174  0.3504 -0.1500 -0.9258
  499TMC3     O 7420   2.919   1.258  10.194 -0.5315 -0.0026  0.7790
  499TMC3     H 7421   3.145   1.327  10.209 -2.2231 -1.0398 -1.2654
  499TMC3    H1 7422   2.875   1.611  10.054 -0.3681 -1.7157 -2.2399
  499TMC3    H2 7423   3.301   1.638   9.955  0.3388 -1.2648 -2.2561
  499TMC3    C7 7424   3.071   1.755   9.914  0.1233  0.1766 -0.0056
  499TMC3    C8 7425   3.367   1.451  10.116  0.3510  0.1892  0.5297
  499TMC3    O1 7426   3.165   1.829   9.908 -0.0874  0.2466 -0.4948
  499TMC3    O2 7427   3.440   1.553  10.126  0.6842  0.2768 -0.3038
  500MPD2     C 7428   4.125   2.666  10.900  0.7737  0.0597 -0.1166
  500MPD2    C1 7429   4.196   2.695  10.787  0.3103  0.2350 -0.1017
  500MPD2    C2 7430   4.133   2.663  10.665 -0.3276  0.3883 -0.3243
  500MPD2    C3 7431   3.997   2.617  10.664  0.7000  0.4446 -1.2418
  500MPD2    C4 7432   3.932   2.583  10.779 -0.3203 -0.2337  0.1444
  500MPD2    C5 7433   4.004   2.598  10.894 -0.0519  0.2080  0.0445
  500MPD2     H 7434   4.182   2.667  10.568  1.3084 -0.8915  0.4466
  500MPD2    H1 7435   3.853   2.509  10.784 -0.1583 -0.3068  1.5655
  500MPD2    H2 7436   4.156   2.677  11.003  0.8807 -1.4728  0.0151
  500MPD2    H3 7437   3.967   2.571  10.993  0.0189  2.5270  0.6984
  500MPD2     N 7438   3.931   2.583  10.540 -0.2239  0.1228 -0.1259
  500MPD2    H5 7439   3.840   2.539  10.546 -0.8079  1.2875 -0.3520
  500MPD2    N1 7440   4.327   2.741  10.776  0.0211 -0.1988  0.2703
  500MPD2    H7 7441   4.368   2.762  10.686 -3.8836  1.8146 -1.0292
  501TMC3    C1 7442   4.531   2.799  10.832 -0.3185 -0.8024 -0.2970
  501TMC3    C2 7443   4.542   2.873  10.719 -0.4384 -0.2139 -0.0270
  501TMC3    C3 7444   4.666   2.927  10.694  0.3995  0.6833  0.0368
  501TMC3    C4 7445   4.637   2.764  10.909  1.2104  0.1022 -0.0362
  501TMC3    C5 7446   0.040   2.814  10.871  0.1075 -0.1529  0.0454
  501TMC3    C6 7447   0.057   2.886  10.757 -0.6904 -0.6470  0.3163
  501TMC3     C 7448   4.407   2.758  10.881  0.0757  0.3855 -0.1230
  501TMC3     O 7449   4.391   2.727  10.996 -0.9369 -0.1053  0.1756
  501TMC3     H 7450   4.457   2.909  10.662 -1.5701  1.6501  2.8669
  501TMC3    H1 7451   4.630   2.713  11.005  0.9274 -1.1728 -0.7264
  501TMC3    H2 7452   0.152   2.930  10.729 -0.3920 -0.8458  1.0042
  501TMC3    C7 7453   0.163   2.746  10.931 -0.5010  0.1649 -0.1532
  501TMC3    C8 7454   4.679   3.022  10.588  1.0850 -0.1670 -0.6449
  501TMC3    O1 7455   0.129   2.650  10.993  0.3008  0.1984  0.2678
  501TMC3    O2 7456   0.062   3.015  10.524  0.0415  0.7471  0.2438
  502TMC3    C1 7457   3.138   0.984  15.035 -0.6329  0.1232 -0.0889
  502TMC3    C2 7458   3.179   1.038  14.918  0.1371 -0.0937  0.3292
  502TMC3    C3 7459   3.155   1.168  14.886 -0.0024  0.1774 -0.4432
  502TMC3    C4 7460   3.052   1.057  15.119 -0.2857  0.3499  0.1213
  502TMC3    C5 7461   3.036   1.190  15.082 -0.8722 -0.0818  0.4567
  502TMC3    C6 7462   3.083   1.250  14.969 -0.5835 -0.0639 -0.0471
  502TMC3     C 7463   3.216   0.872  15.090 -0.8337 -0.4458 -0.0717
  502TMC3     O 7464   3.308   0.835  15.012 -0.5115  0.1273  0.4666
  502TMC3     H 7465   3.244   0.977  14.856 -0.0714  0.8213 -0.8003
  502TMC3    H1 7466   3.014   1.016  15.212  0.9330  1.6832  1.2191
  502TMC3    H2 7467   3.046   1.348  14.939 -1.8578 -0.7375 -0.6586
  502TMC3    C7 7468   2.931   1.264  15.150 -0.3087  0.3478 -0.0253
  502TMC3    C8 7469   3.257   1.238  14.810  0.1573  0.3752 -0.3676
  502TMC3    O1 7470   2.842   1.305  15.080  0.0829 -0.1314 -0.4644
  502TMC3    O2 7471   3.272   1.358  14.837 -0.2322  0.4334  0.1498
  503MPD2     C 7472   0.673   1.755  17.236 -0.2001  0.7070 -0.3905
  503MPD2    C1 7473   0.796   1.785  17.289 -0.3868 -0.0500 -0.2408
  503MPD2    C2 7474   0.880   1.687  17.331 -0.1990  0.0105 -0.2088
  503MPD2    C3 7475   0.832   1.558  17.341 -0.2514 -0.4418  0.1782
  503MPD2    C4 7476   0.709   1.524  17.277  0.3630 -0.0377 -0.5865
  503MPD2    C5 7477   0.630   1.623  17.229  0.1605 -0.5017  0.5723
  503MPD2     H 7478   0.982   1.700  17.363 -0.1731 -0.6714 -0.0155
  503MPD2    H1 7479   0.656   1.430  17.294  1.3279 -0.4566  0.0880
  503MPD2    H2 7480   0.609   1.823  17.181 -0.0994  0.4772 -0.7932
  503MPD2    H3 7481   0.530   1.605  17.192  0.2612  1.7599 -0.8118
  503MPD2     N 7482   0.903   1.458  17.417 -0.1963 -0.7012 -0.2818
  503MPD2    H5 7483   0.978   1.485  17.481 -1.8481 -0.8244  1.7215
  503MPD2    N1 7484   0.845   1.916  17.292 -0.2450 -0.6947  0.0601
  503MPD2    H7 7485   0.927   1.926  17.351  0.7814 -4.3635 -0.7252
  504TMC3    C1 7486   0.963   1.254  17.518  0.3919 -1.1529  0.0475
  504TMC3    C2 7487   0.980   1.315  17.637  0.3150 -0.2949 -0.7440
  504TMC3    C3 7488   1.094   1.286   0.017  0.2654 -0.4542  1.1223
  504TMC3    C4 7489   1.048   1.159  17.468 -0.8200  0.2360  0.2795
  504TMC3    C5 7490   1.161   1.130  17.539  0.5973  0.7751  0.9392
  504TMC3    C6 7491   1.175   1.194  17.663 -0.8553 -0.4709 -0.5665
  504TMC3     C 7492   0.883   1.326  17.417  0.0846 -0.0006 -0.0668
  504TMC3     O 7493   0.810   1.260  17.340 -0.4276 -0.0286  0.1398
  504TMC3     H 7494   0.912   1.384  17.686  1.2230  0.1434 -0.0986
  504TMC3    H1 7495   1.027   1.114  17.371  0.0177 -0.0731  0.2397
  504TMC3    H2 7496   1.261   1.169   0.036 -0.7197  0.9540 -0.1944
  504TMC3    C7 7497   1.270   1.052  17.479 -0.1405  0.1996  0.1369
  504TMC3    C8 7498   1.115   1.340   0.145  0.2111 -0.5226  0.1711
  504TMC3    O1 7499   1.247   0.975  17.386  0.0216  0.2160  0.0301
  504TMC3    O2 7500   1.049   1.442   0.172  0.3727 -0.2124 -0.0152
  505MPD2     C 7501   2.637   4.375  10.584  0.3073  0.0502 -0.9822
  505MPD2    C1 7502   2.537   4.389  10.491  0.0046 -0.0203  0.0321
  505MPD2    C2 7503   2.571   4.431  10.363  0.6225 -0.9864  0.0385
  505MPD2    C3 7504   2.697   4.473  10.327  0.5699  0.2580  0.2330
  505MPD2    C4 7505   2.794   4.477  10.424  0.2324  0.1673 -0.6939
  505MPD2    C5 7506   2.757   4.425  10.548 -0.2915 -0.6172 -0.0347
  505MPD2     H 7507   2.499   4.434  10.282 -0.2452  0.3455  0.8512
  505MPD2    H1 7508   2.900   4.496  10.416  0.4361 -2.3256 -3.6099
  505MPD2    H2 7509   2.631   4.351  10.690  3.4030  0.7971 -0.6128
  505MPD2    H3 7510   2.829   4.420  10.628  1.3342  0.7868 -1.4012
  505MPD2     N 7511   2.721   4.518  10.196  0.0123  0.1064 -0.2132
  505MPD2    H5 7512   2.641   4.518  10.133  1.0726  1.2573 -1.5659
  505MPD2    N1 7513   2.402   4.378  10.534  0.5827  0.0889  0.8624
  505MPD2    H7 7514   2.387   4.357  10.632 -2.2429 -3.4362 -0.3323
  506TMC3    C1 7515   2.165   4.396  10.522  0.4037  0.0476 -0.0622
  506TMC3    C2 7516   2.157   4.489  10.626 -0.4615 -0.4211 -0.4554
  506TMC3    C3 7517   2.040   4.545  10.657 -0.4906  0.5053  0.6339
  506TMC3    C4 7518   2.050   4.379  10.441  0.0317 -1.0019  0.5142
  506TMC3    C5 7519   1.945   4.461  10.448 -0.8619 -0.1595  0.4320
  506TMC3    C6 7520   1.938   4.532  10.563 -0.6693  0.5010  0.0548
  506TMC3     C 7521   2.293   4.388  10.454  0.3928 -0.1510 -0.6409
  506TMC3     O 7522   2.277   4.404  10.335 -0.1631  0.0075  0.6400
  506TMC3     H 7523   2.241   4.526  10.682 -0.5639 -0.8195 -0.0397
  506TMC3    H1 7524   2.055   4.321  10.349 -2.1179  1.4228 -1.1359
  506TMC3    H2 7525   1.854   4.599  10.571 -1.0639 -0.2085  1.8644
  506TMC3    C7 7526   1.924   4.544  10.329 -0.3451 -0.9662  0.4257
  506TMC3    C8 7527   2.023   4.651  10.751  0.0861 -0.3831  0.0244
  506TMC3    O1 7528   1.816   4.601  10.308 -0.2680  0.0514 -0.3931
  506TMC3    O2 7529   1.959   4.629  10.849  0.0493 -0.6471 -0.0822
  507TMC3    C1 7530   1.682   1.003  14.964  0.4623 -0.3208  0.1854
  507TMC3    C2 7531   1.564   1.031  14.897 -0.1886  0.2423 -0.1003
  507TMC3    C3 7532   1.565   0.996  14.767  0.0585  1.1910 -0.8983
  507TMC3    C4 7533   1.798   0.968  14.901 -0.8446  0.5088 -0.1370
  507TMC3    C5 7534   1.791   0.936  14.766 -0.0208  0.5311 -0.0022
  507TMC3    C6 7535   1.666   0.928  14.712  0.3446 -0.3167 -1.1745
  507TMC3     C 7536   1.679   1.026  15.105 -0.1732 -0.3062  0.2055
  507TMC3     O 7537   1.784   0.991  15.158  0.0229  0.0865 -0.1994
  507TMC3     H 7538   1.482   1.092  14.934 -0.6432 -1.5594  1.8552
  507TMC3    H1 7539   1.893   0.961  14.953 -0.9371 -1.1932 -0.1926
  507TMC3    H2 7540   1.652   0.902  14.607  1.8356  1.2176 -1.7405
  507TMC3    C7 7541   1.875   1.016  14.678  0.9553 -0.4005 -0.8598
  507TMC3    C8 7542   1.497   1.085  14.681 -0.1484 -1.2155 -0.3946
  507TMC3    O1 7543   1.833   1.030  14.563 -0.5884  0.1953 -0.1967
  507TMC3    O2 7544   1.381   1.106  14.709  0.2586  0.3331 -0.0766
  508MPD2     C 7545   3.140   3.203  16.126 -1.1958 -0.1452  1.4865
  508MPD2    C1 7546   3.048   3.289  16.187 -0.3026 -0.6407  0.1780
  508MPD2    C2 7547   3.019   3.406  16.117  0.8162 -0.7260  0.2999
  508MPD2    C3 7548   3.060   3.423  15.989 -0.4161  0.4040  0.1982
  508MPD2    C4 7549   3.147   3.339  15.930 -0.6614  0.6130 -0.0419
  508MPD2    C5 7550   3.185   3.231  15.999 -0.1255 -0.7230 -0.8591
  508MPD2     H 7551   2.966   3.488  16.164  1.0013 -1.1924  1.3196
  508MPD2    H1 7552   3.179   3.338  15.826 -2.4527  0.4595 -0.5787
  508MPD2    H2 7553   3.183   3.114  16.170  0.2057 -1.1881 -1.9795
  508MPD2    H3 7554   3.246   3.157  15.949  0.8978  0.5891 -1.5632
  508MPD2     N 7555   3.036   3.549  15.922  0.0569  0.1955 -0.6126
  508MPD2    H5 7556   2.981   3.614  15.977 -1.4403 -2.2449  0.7339
  508MPD2    N1 7557   3.028   3.264  16.326  0.7221 -0.3136 -0.1205
  508MPD2    H7 7558   3.079   3.192  16.377 -1.3013 -1.3913  0.3846
  509TMC3    C1 7559   2.988   3.858  15.571 -0.3383 -0.4824 -0.5093
  509TMC3    C2 7560   2.999   3.962  15.651 -0.2808 -0.1092 -0.0548
  509TMC3    C3 7561   3.010   3.930  15.782  0.2731 -1.1317 -0.9380
  509TMC3    C4 7562   2.996   3.727  15.609  0.9254 -0.0632  0.4788
  509TMC3    C5 7563   3.013   3.706  15.743 -0.4095 -0.0032 -0.4260
  509TMC3    C6 7564   3.022   3.803  15.834  0.0801  0.2005  0.0198
  509TMC3     C 7565   2.934   3.877  15.436  0.5119  0.2378 -0.1038
  509TMC3     O 7566   2.942   3.783  15.357  0.3601  0.6438  0.4213
  509TMC3     H 7567   2.976   4.065  15.626  0.5942  0.9804  3.5818
  509TMC3    H1 7568   2.995   3.649  15.534 -1.6350  0.9386 -0.5245
  509TMC3    H2 7569   3.046   3.784  15.938 -0.5611  1.9093  0.4847
  509TMC3    C7 7570   3.056   3.575  15.789  0.3172  0.1643  0.0818
  509TMC3    C8 7571   3.012   4.030  15.887  0.1491  0.0827 -0.4073
  509TMC3    O1 7572   3.096   3.501  15.702 -0.1729 -0.1777  0.4958
  509TMC3    O2 7573   2.976   3.998  16.001  0.0137 -0.6578  0.3787
  510MPD2     C 7574   0.874   0.571  14.490 -0.0563 -0.5124 -0.5424
  510MPD2    C1 7575   0.944   0.554  14.604 -0.1584  0.8262 -0.4083
  510MPD2    C2 7576   1.083   0.569  14.599  1.0327  0.1036  0.0084
  510MPD2    C3 7577   1.157   0.569  14.476 -0.3554 -0.2001  0.3574
  510MPD2    C4 7578   1.076   0.556  14.363 -0.8272  0.4515  0.3292
  510MPD2    C5 7579   0.942   0.558  14.371 -0.3286 -0.9093  0.1381
  510MPD2     H 7580   1.141   0.563  14.691 -2.5120 -0.1925  2.2602
  510MPD2    H1 7581   1.120   0.556  14.263  1.3014 -1.8410  1.2687
  510MPD2    H2 7582   0.767   0.559  14.487 -0.3194  2.0896 -1.1777
  510MPD2    H3 7583   0.890   0.550  14.276  0.5322 -1.3944 -0.2899
  510MPD2     N 7584   1.301   0.568  14.465 -0.1053 -0.0813 -0.6000
  510MPD2    H5 7585   1.354   0.564  14.552  1.8189 -0.1808 -1.7960
  510MPD2    N1 7586   0.868   0.525  14.716  0.1084  0.3711 -0.0091
  510MPD2    H7 7587   0.766   0.529  14.714 -0.0626 -3.4448 -0.1468
  511TMC3    C1 7588   0.798   0.462  14.933 -0.5803 -0.0461 -0.2403
  511TMC3    C2 7589   0.794   0.488  15.063 -0.0151  0.2395 -0.2530
  511TMC3    C3 7590   0.693   0.441  15.148 -0.2428  0.2667 -0.2037
  511TMC3    C4 7591   0.715   0.370  14.883  0.0828  0.0985 -0.5309
  511TMC3    C5 7592   0.622   0.307  14.966 -0.5749 -0.7115  0.6544
  511TMC3    C6 7593   0.608   0.345  15.100  0.2327 -0.5925  0.3200
  511TMC3     C 7594   0.910   0.497  14.846  0.2387 -0.1126  0.5665
  511TMC3     O 7595   1.016   0.533  14.898  0.1810 -0.2159 -0.2656
  511TMC3     H 7596   0.871   0.553  15.101 -1.5564  0.7639  1.9601
  511TMC3    H1 7597   0.736   0.330  14.784 -1.5910  0.5721 -1.0817
  511TMC3    H2 7598   0.522   0.306  15.154 -1.2800  1.4112 -0.6166
  511TMC3    C7 7599   0.532   0.215  14.901  0.6169 -0.2932 -0.1728
  511TMC3    C8 7600   0.673   0.489  15.281 -0.0487 -0.5204 -0.4376
  511TMC3    O1 7601   0.521   0.221  14.779 -0.0691 -0.1389 -0.1483
  511TMC3    O2 7602   0.560   0.502  15.321 -0.8027  0.3930  0.8077
  512TMC3    C1 7603   4.159   4.640  12.507  0.1996  0.5574 -0.5275
  512TMC3    C2 7604   4.093   4.659  12.626 -0.4749 -0.2586  0.1811
  512TMC3    C3 7605   4.156   4.593  12.729 -0.4180 -0.0348 -0.1073
  512TMC3    C4 7606   4.278   4.576  12.495 -0.4033  0.0273 -0.4176
  512TMC3    C5 7607   4.329   4.512  12.601  0.4793  0.1026 -0.1587
  512TMC3    C6 7608   4.269   4.523  12.732 -0.8329 -0.0051 -0.0425
  512TMC3     C 7609   4.134   0.015  12.403  0.3934 -0.1532  0.0345
  512TMC3     O 7610   4.069   0.116  12.439 -0.0759  0.0921  0.4329
  512TMC3     H 7611   3.997   4.707  12.636 -0.7124 -0.9091  1.0532
  512TMC3    H1 7612   4.333   4.581  12.401  0.1014  2.1771 -0.0246
  512TMC3    H2 7613   4.305   4.480  12.824  0.7676 -0.4267 -0.8705
  512TMC3    C7 7614   4.450   4.429  12.588  0.0017  0.4665 -0.6137
  512TMC3    C8 7615   4.105   4.649  12.856 -0.1167  0.3723 -0.3474
  512TMC3    O1 7616   4.520   4.450  12.490  0.4351  0.0794  0.2798
  512TMC3    O2 7617   3.990   4.695  12.851  0.2880 -0.5330 -0.1213
  513MPD2     C 7618   1.223   4.056  13.382  0.1785 -0.2814  0.4944
  513MPD2    C1 7619   1.348   4.067  13.325 -0.3122 -0.4189  0.7910
  513MPD2    C2 7620   1.437   4.150  13.389 -0.4455 -0.2177 -0.5025
  513MPD2    C3 7621   1.402   4.232  13.497 -0.4416 -0.6781 -0.2077
  513MPD2    C4 7622   1.271   4.223  13.552  0.5188  0.2807 -0.1904
  513MPD2    C5 7623   1.181   4.146  13.481 -0.7466 -0.1057  0.0989
  513MPD2     H 7624   1.532   4.151  13.337  0.1920 -1.0011  0.6477
  513MPD2    H1 7625   1.240   4.291  13.631 -2.5051 -0.7420 -0.4995
  513MPD2    H2 7626   1.153   3.986  13.340 -0.2172  0.8117 -0.6786
  513MPD2    H3 7627   1.076   4.139  13.507 -0.4726 -0.7418  1.0279
  513MPD2     N 7628   1.495   4.331  13.528  0.0271  0.3436 -0.5280
  513MPD2    H5 7629   1.579   4.340  13.473 -0.4674  0.1448 -1.3062
  513MPD2    N1 7630   1.392   3.998  13.217 -0.0685 -0.2352  0.4606
  513MPD2    H7 7631   1.491   4.008  13.198 -0.0244 -0.1379  0.7486
  514TMC3    C1 7632   1.386   3.930  13.007  0.0615 -0.0582 -0.4592
  514TMC3    C2 7633   1.354   3.984  12.887  0.0548 -0.3777 -0.1656
  514TMC3    C3 7634   1.452   3.993  12.791  0.3114 -0.3180 -0.0422
  514TMC3    C4 7635   1.515   3.892  13.030  0.5113 -0.1868  0.2283
  514TMC3    C5 7636   1.614   3.908  12.938  0.3229 -0.0953  0.1420
  514TMC3    C6 7637   1.584   3.970  12.820 -0.2029 -0.0960 -0.6523
  514TMC3     C 7638   1.311   3.970  13.118 -0.0358  0.4368 -0.9695
  514TMC3     O 7639   1.192   3.995  13.096 -0.1147 -0.0882 -0.1861
  514TMC3     H 7640   1.251   4.004  12.858 -0.2319  0.5791  1.4793
  514TMC3    H1 7641   1.532   3.821  13.111  2.8487 -0.5347 -0.5561
  514TMC3    H2 7642   1.651   3.972  12.735 -0.6581  0.1486 -1.0075
  514TMC3    C7 7643   1.702   3.980  13.016  0.1454 -0.4108  0.1135
  514TMC3    C8 7644   1.432   4.045  12.657 -0.2057 -0.3431 -0.6438
  514TMC3    O1 7645   1.678   3.989  13.135 -0.1839 -0.2043 -0.2798
  514TMC3    O2 7646   1.522   4.043  12.575  0.0620  0.0160 -0.0767
  515MPD2     C 7647   4.178   1.827  15.095 -0.1287  0.4684  0.6159
  515MPD2    C1 7648   4.252   1.793  14.988  0.3902  0.8456  0.3423
  515MPD2    C2 7649   4.378   1.857  14.980  0.0096 -0.3330 -0.4600
  515MPD2    C3 7650   4.421   1.932  15.088  0.4989 -0.4215 -0.1703
  515MPD2    C4 7651   4.340   1.959  15.193 -0.8444 -0.9901 -0.6393
  515MPD2    C5 7652   4.217   1.905  15.198 -0.0552 -0.4463  0.8482
  515MPD2     H 7653   4.453   1.830  14.906  1.2982  1.6543  0.1349
  515MPD2    H1 7654   4.365   2.030  15.271 -0.2898 -2.9202  0.9162
  515MPD2    H2 7655   4.079   1.784  15.108 -0.2611  0.7551  0.5621
  515MPD2    H3 7656   4.153   1.926  15.283  0.5365  0.9767  0.9405
  515MPD2     N 7657   4.554   1.984  15.105 -0.5784  0.0352 -0.1871
  515MPD2    H5 7658   4.567   2.037  15.191 -0.0948  1.0372 -0.8780
  515MPD2    N1 7659   4.227   1.695  14.890 -0.0104  0.0433  0.2994
  515MPD2    H7 7660   4.291   1.686  14.811  0.0498 -1.6797  0.5548
  516TMC3    C1 7661   4.114   1.526  14.777 -0.7132  0.1370  0.0479
  516TMC3    C2 7662   4.121   1.580  14.650  1.3346 -0.2983 -0.1860
  516TMC3    C3 7663   4.075   1.494  14.555 -0.3988  0.7111 -0.1095
  516TMC3    C4 7664   4.060   1.397  14.806  0.2021 -0.2452 -0.6461
  516TMC3    C5 7665   4.016   1.315  14.705  0.2359  0.1808 -0.2686
  516TMC3    C6 7666   4.028   1.369  14.582 -0.7364  0.0643 -0.7752
  516TMC3     C 7667   4.123   1.608  14.890 -0.0819  0.0110  0.3587
  516TMC3     O 7668   4.041   1.590  14.981  0.5514 -0.3533 -0.3983
  516TMC3     H 7669   4.138   1.685  14.632 -0.9118  0.1968  0.6146
  516TMC3    H1 7670   4.076   1.364  14.907 -0.8766 -0.8681 -0.6845
  516TMC3    H2 7671   3.999   1.302  14.502 -0.4500 -1.0115  0.0408
  516TMC3    C7 7672   3.969   1.186  14.719 -0.4156  0.7023 -1.2642
  516TMC3    C8 7673   3.997   1.550  14.450  0.6591  0.0946  0.1418
  516TMC3    O1 7674   3.973   1.101  14.632  0.0647 -0.0283  0.3891
  516TMC3    O2 7675   3.890   1.497  14.424 -0.4084 -0.0345  0.2774
  517MPD2     C 7676   4.180   3.188   0.491 -0.6235 -0.4669 -0.6078
  517MPD2    C1 7677   4.202   3.292   0.398  0.1916  0.6738 -0.2167
  517MPD2    C2 7678   4.154   3.418   0.427 -0.8727 -0.9278  0.0194
  517MPD2    C3 7679   4.085   3.445   0.542  0.5213 -0.2606 -0.0189
  517MPD2    C4 7680   4.066   3.340   0.632  0.0304 -0.0506  0.2527
  517MPD2    C5 7681   4.103   3.212   0.601  0.0073 -0.2213  0.6225
  517MPD2     H 7682   4.178   3.497   0.356 -2.0311 -0.8274 -0.2566
  517MPD2    H1 7683   4.016   3.355   0.727 -0.6282 -2.2175  0.2493
  517MPD2    H2 7684   4.223   3.089   0.487 -0.2048 -0.3105  0.0023
  517MPD2    H3 7685   4.090   3.139   0.679  1.7924 -0.8376  0.3391
  517MPD2     N 7686   4.042   3.573   0.579 -0.2062 -0.5776  0.1607
  517MPD2    H5 7687   3.990   3.583   0.665  0.2005  2.1271  0.1036
  517MPD2    N1 7688   4.255   3.272   0.270 -0.1410 -0.2063  0.0228
  517MPD2    H7 7689   4.249   3.346   0.200  4.3876  1.5719  1.5323
  518TMC3    C1 7690   4.337   3.143   0.092 -0.3147  0.8125 -0.0931
  518TMC3    C2 7691   4.236   3.065   0.036 -0.5741  0.3287 -0.3009
  518TMC3    C3 7692   4.267   2.953  17.646  0.5921  0.3273  0.4422
  518TMC3    C4 7693   4.465   3.112   0.049 -1.1014 -0.1757  0.0027
  518TMC3    C5 7694   4.491   3.008  17.653 -0.0882  0.1461  1.0627
  518TMC3    C6 7695   4.393   2.916  17.611 -0.7474 -0.0310  1.0664
  518TMC3     C 7696   4.326   3.160   0.236 -0.4627 -0.1970  0.6404
  518TMC3     O 7697   4.386   3.069   0.300  1.0767  0.0671 -0.0902
  518TMC3     H 7698   4.137   3.082   0.076 -1.7883  0.4423 -3.4236
  518TMC3    H1 7699   4.550   3.168   0.087  1.0152 -1.5317 -2.7633
  518TMC3    H2 7700   4.413   2.827  17.553  0.8261  1.0794 -0.0956
  518TMC3    C7 7701   4.632   3.001  17.610 -0.4137  0.9347 -0.1124
  518TMC3    C8 7702   4.154   2.874  17.602 -0.6629  0.0958  0.2342
  518TMC3    O1 7703   4.719   3.069  17.663 -0.1233  0.2883  0.0654
  518TMC3    O2 7704   4.053   2.942  17.595 -0.6610 -0.8198  0.1971
  519MPD2     C 7705   1.008   1.533  14.768 -0.1682  0.0031  0.5780
  519MPD2    C1 7706   0.956   1.515  14.638 -0.4588  0.1475  0.3085
  519MPD2    C2 7707   0.986   1.393  14.574 -0.0840  0.1708 -0.4905
  519MPD2    C3 7708   1.073   1.302  14.634  0.7673  0.0531 -0.1636
  519MPD2    C4 7709   1.122   1.332  14.761  0.2586 -0.5502 -0.0310
  519MPD2    C5 7710   1.092   1.446  14.825 -0.0843  0.1183  0.6032
  519MPD2     H 7711   0.939   1.360  14.482  1.7493 -0.8004 -1.0771
  519MPD2    H1 7712   1.169   1.250  14.814  2.5267  1.0773  0.4635
  519MPD2    H2 7713   0.999   1.620  14.832 -0.8930  0.2342  0.1570
  519MPD2    H3 7714   1.125   1.447  14.928 -0.5028 -3.0493  0.7736
  519MPD2     N 7715   1.112   1.176  14.575 -0.3253 -0.5203  0.5154
  519MPD2    H5 7716   1.195   1.132  14.615 -0.7861 -1.5043  0.3729
  519MPD2    N1 7717   0.873   1.612  14.571  0.4078  0.0848 -0.1415
  519MPD2    H7 7718   0.837   1.685  14.631 -0.6949  0.3186 -1.0861
  520TMC3    C1 7719   1.091   0.979  14.423  0.2144  0.2976 -0.2437
  520TMC3    C2 7720   1.030   0.948  14.307  0.1316  0.4525  0.1790
  520TMC3    C3 7721   1.103   0.889  14.203  0.5821  0.6357  0.3154
  520TMC3    C4 7722   1.230   0.967  14.428 -0.0818  0.1269 -0.1471
  520TMC3    C5 7723   1.294   0.910  14.322 -1.2319  0.0657 -0.1798
  520TMC3    C6 7724   1.241   0.882  14.204  0.4165  0.1133 -0.0290
  520TMC3     C 7725   1.037   1.110  14.472  0.0483 -0.7278 -0.1734
  520TMC3     O 7726   0.925   1.130  14.429  0.2025  0.2119 -0.1776
  520TMC3     H 7727   0.922   0.951  14.295  0.2257 -1.6186 -1.2881
  520TMC3    H1 7728   1.287   0.997  14.515 -1.1705  0.3964  0.4633
  520TMC3    H2 7729   1.294   0.834  14.122 -0.3769  3.1664 -2.3281
  520TMC3    C7 7730   1.438   0.905  14.329 -0.2252  0.0379  0.0736
  520TMC3    C8 7731   1.032   0.836  14.086  0.0173 -0.4658 -0.9152
  520TMC3    O1 7732   1.489   0.900  14.439  0.0809  0.1426  0.6339
  520TMC3    O2 7733   1.105   0.760  14.024 -0.0524  0.0574  0.0431
  521MPD2     C 7734   1.649   3.625  17.454  0.2253 -0.2703 -0.8176
  521MPD2    C1 7735   1.682   3.747  17.502  0.3532 -0.3297 -0.7649
  521MPD2    C2 7736   1.817   3.784  17.494 -0.7884 -0.0909  0.6087
  521MPD2    C3 7737   1.914   3.712  17.425  0.2975 -0.0628  0.2240
  521MPD2    C4 7738   1.884   3.586  17.395 -0.2139 -0.0878  0.2112
  521MPD2    C5 7739   1.750   3.548  17.407 -0.3971 -0.3851  0.3519
  521MPD2     H 7740   1.854   3.870  17.549 -0.8056 -0.1574  0.7234
  521MPD2    H1 7741   1.947   3.517  17.342  1.4367  0.1955  1.8036
  521MPD2    H2 7742   1.546   3.593  17.450  0.9065 -2.0441 -4.4258
  521MPD2    H3 7743   1.720   3.448  17.377  1.1673 -1.1844  1.4403
  521MPD2     N 7744   2.031   3.771  17.390  0.3049  0.0032 -0.0373
  521MPD2    H5 7745   2.049   3.867  17.415 -1.1815 -0.2090  1.8387
  521MPD2    N1 7746   1.578   3.841  17.547  0.6902  0.2865 -0.7580
  521MPD2    H7 7747   1.483   3.807  17.540  0.5140  0.4205  1.0772
  522TMC3    C1 7748   2.252   3.800  17.306  0.3559  0.5082 -0.2034
  522TMC3    C2 7749   2.366   3.736  17.340  0.5113  0.8603  0.5957
  522TMC3    C3 7750   2.482   3.808  17.372  0.5573  0.1811 -0.1056
  522TMC3    C4 7751   2.232   3.933  17.323 -0.2631  0.3571 -0.7604
  522TMC3    C5 7752   2.346   3.998  17.362 -0.3892  1.0731 -0.3595
  522TMC3    C6 7753   2.464   3.940  17.406  0.1642 -0.8185  0.8320
  522TMC3     C 7754   2.134   3.713  17.309  0.4844  0.5623 -0.0795
  522TMC3     O 7755   2.132   3.607  17.247  0.0203 -0.2750 -0.3242
  522TMC3     H 7756   2.367   3.630  17.320 -2.1447  1.2337 -1.4943
  522TMC3    H1 7757   2.136   3.974  17.291 -0.3992 -0.7630 -1.7944
  522TMC3    H2 7758   2.548   4.007  17.416 -1.4325  1.4501 -0.8490
  522TMC3    C7 7759   2.345   4.137  17.345 -0.1853  0.3032  0.6366
  522TMC3    C8 7760   2.613   3.758  17.385 -0.0470  0.3341 -0.2937
  522TMC3    O1 7761   2.431   4.206  17.399  0.2837 -0.1402 -0.2866
  522TMC3    O2 7762   2.682   3.794  17.485  0.0441  0.2408 -0.0586
  523MPD2     C 7763   0.220   4.315  10.220 -0.3864 -0.4559 -0.0712
  523MPD2    C1 7764   0.111   4.235  10.204 -0.1102 -0.3354 -0.3452
  523MPD2    C2 7765   4.711   4.295  10.187 -0.5467  0.3723  0.6335
  523MPD2    C3 7766   4.695   4.432  10.170  0.5680 -0.3992  0.2272
  523MPD2    C4 7767   0.084   4.511  10.194  1.1719  0.4585  0.1523
  523MPD2    C5 7768   0.206   4.452  10.217  0.4047  0.1976 -0.1999
  523MPD2     H 7769   4.621   4.234  10.178 -1.3670  1.4247  1.7599
  523MPD2    H1 7770   0.069   4.617  10.179 -1.2723  0.0380 -0.4278
  523MPD2    H2 7771   0.319   4.271  10.230 -0.5019 -0.8669 -0.7784
  523MPD2    H3 7772   0.297   4.509  10.231 -0.2551  1.2126 -0.0275
  523MPD2     N 7773   4.575   4.499  10.117  0.2402  0.1762  0.1284
  523MPD2    H5 7774   4.584   4.597  10.093 -0.4496  0.0976 -0.4757
  523MPD2    N1 7775   0.130   4.096  10.196 -0.5940  0.4240  0.7870
  523MPD2    H7 7776   0.224   4.058  10.204 -0.2869  0.7586 -1.0834
  524TMC3    C1 7777   4.364   4.546  10.025 -0.2326 -0.5950  0.4182
  524TMC3    C2 7778   4.291   4.536   9.911  0.3317 -0.0024  0.0262
  524TMC3    C3 7779   4.225   4.652   9.871 -0.0372 -0.0398  0.3012
  524TMC3    C4 7780   4.382   4.666  10.085 -0.0264 -0.3549  0.3482
  524TMC3    C5 7781   4.323   0.059  10.031  0.0300  0.1931  0.3931
  524TMC3    C6 7782   4.247   0.054   9.920 -0.2816 -0.0062 -0.1044
  524TMC3     C 7783   4.455   4.444  10.081  0.0874 -0.2321  0.6440
  524TMC3     O 7784   4.438   4.329  10.045 -0.0369  0.3998 -0.4664
  524TMC3     H 7785   4.257   4.438   9.880  0.2444  0.7980 -2.3337
  524TMC3    H1 7786   4.434   4.679  10.179  1.9409  0.7121 -0.8719
  524TMC3    H2 7787   4.207   0.138   9.864  0.6542  0.6514  0.2047
  524TMC3    C7 7788   4.333   0.182  10.105 -0.3851 -0.3239  0.1882
  524TMC3    C8 7789   4.169   4.661   9.739  0.8535  0.4257  0.8416
  524TMC3    O1 7790   4.419   0.188  10.188 -0.4539 -0.0826  0.7999
  524TMC3    O2 7791   4.075   0.020   9.718 -0.5029 -1.1511 -0.4441
  525MPD2     C 7792   2.364   1.336  13.864  0.7843 -0.2272 -1.1149
  525MPD2    C1 7793   2.479   1.297  13.927 -0.1929 -0.6680  0.2120
  525MPD2    C2 7794   2.563   1.397  13.975 -0.2036 -0.3322  0.4423
  525MPD2    C3 7795   2.528   1.529  13.975 -0.8718 -0.4432 -0.8941
  525MPD2    C4 7796   2.401   1.559  13.931 -0.0546 -0.1270 -0.1488
  525MPD2    C5 7797   2.326   1.468  13.864  0.6581 -0.0331 -0.0623
  525MPD2     H 7798   2.659   1.354  14.004  0.4932 -1.6836 -3.7404
  525MPD2    H1 7799   2.369   1.663  13.930  0.0661 -0.0805  0.7209
  525MPD2    H2 7800   2.300   1.269  13.808  0.4275 -1.7654  1.1226
  525MPD2    H3 7801   2.237   1.496  13.809  1.0482  0.4230 -0.4607
  525MPD2     N 7802   2.606   1.623  14.044  0.5789  0.2841 -0.3408
  525MPD2    H5 7803   2.582   1.722  14.038  0.1545  0.1698 -0.5106
  525MPD2    N1 7804   2.520   1.168  13.956 -0.8591  0.0021  0.1986
  525MPD2    H7 7805   2.600   1.166  14.019  0.3768 -0.8088 -1.3817
  526TMC3    C1 7806   2.478   0.952  14.010  0.4164 -0.5044  0.2772
  526TMC3    C2 7807   2.410   0.913  14.115 -0.1279 -0.2901  0.5140
  526TMC3    C3 7808   2.464   0.834  14.210  0.6341 -0.0181  0.2804
  526TMC3    C4 7809   2.609   0.927  13.992  0.2706 -0.4520  0.2339
  526TMC3    C5 7810   2.663   0.835  14.084  0.4356  0.0031  0.1116
  526TMC3    C6 7811   2.586   0.776  14.178  0.4090  0.2996 -0.6130
  526TMC3     C 7812   2.438   1.060  13.930  0.1764 -0.4443  0.6115
  526TMC3     O 7813   2.313   1.067  13.912 -0.0993 -0.1065 -0.9126
  526TMC3     H 7814   2.306   0.935  14.136  0.3057  1.2329  1.0811
  526TMC3    H1 7815   2.660   0.949  13.899 -1.0370 -0.3530 -0.4497
  526TMC3    H2 7816   2.637   0.710  14.248 -1.8127  1.7150  2.3194
  526TMC3    C7 7817   2.805   0.822  14.107 -0.6834 -0.2254 -0.3090
  526TMC3    C8 7818   2.450   0.878  14.349  0.1884 -0.0213  0.1297
  526TMC3    O1 7819   2.871   0.926  14.113 -0.2690 -0.0611  0.2120
  526TMC3    O2 7820   2.541   0.834  14.426 -0.3557 -0.0245  0.1819
  527MPD2     C 7821   0.157   3.207   1.123 -0.3266 -0.0926 -0.2898
  527MPD2    C1 7822   0.202   3.148   1.237 -0.0639 -0.3904  0.0021
  527MPD2    C2 7823   0.322   3.091   1.234 -0.1524 -0.0581 -0.0494
  527MPD2    C3 7824   0.400   3.099   1.118 -0.3667 -0.0844  1.0143
  527MPD2    C4 7825   0.353   3.161   1.009  0.2966 -0.0104  0.1934
  527MPD2    C5 7826   0.227   3.212   1.009 -0.0580 -0.3961 -0.1175
  527MPD2     H 7827   0.369   3.055   1.325  0.3065  1.9585  0.5079
  527MPD2    H1 7828   0.416   3.172   0.922  0.3826  2.7964  0.6326
  527MPD2    H2 7829   0.059   3.255   1.123 -0.8073 -1.0833  1.1584
  527MPD2    H3 7830   0.182   3.244   0.916  0.5125  0.7615  0.0048
  527MPD2     N 7831   0.534   3.051   1.127  0.1407 -0.4040  0.0038
  527MPD2    H5 7832   0.546   2.983   1.201  2.8190  0.1346  0.0630
  527MPD2    N1 7833   0.129   3.129   1.354 -0.3009 -0.1334 -0.2762
  527MPD2    H7 7834   0.167   3.070   1.427 -0.9323 -0.4977 -0.2354
  528TMC3    C1 7835   4.681   3.189   1.521  0.3312  0.4613  0.0294
  528TMC3    C2 7836   4.618   3.291   1.593  0.1863  0.5515  0.2588
  528TMC3    C3 7837   4.518   3.254   1.682  0.3450  0.3239 -0.5614
  528TMC3    C4 7838   4.645   3.058   1.545 -0.4025  0.1801  0.2906
  528TMC3    C5 7839   4.553   3.026   1.643 -0.5818 -0.8990 -0.5390
  528TMC3    C6 7840   4.493   3.126   1.718 -0.4952  0.0367 -0.5440
  528TMC3     C 7841   0.024   3.216   1.390  0.2678 -0.1042 -0.2082
  528TMC3     O 7842   4.718   3.327   1.337  0.0988 -0.0703 -0.1867
  528TMC3     H 7843   4.640   3.393   1.563 -1.7153  0.2254 -2.2613
  528TMC3    H1 7844   4.697   2.978   1.493  0.9360  1.6583 -0.6412
  528TMC3    H2 7845   4.426   3.094   1.797 -1.4557 -0.3301 -1.5117
  528TMC3    C7 7846   4.490   2.897   1.652 -0.3601  0.0793 -0.5861
  528TMC3    C8 7847   4.455   3.359   1.752 -0.0049  0.4836 -0.5170
  528TMC3    O1 7848   4.411   2.891   1.741 -0.4323 -0.1431  0.0542
  528TMC3    O2 7849   4.489   3.472   1.711 -0.6365 -0.0640  0.3988
  529MPD2     C 7850   2.618   2.277   0.856 -0.8778  0.0690  0.8078
  529MPD2    C1 7851   2.635   2.149   0.798  0.6018  0.1758  0.5789
  529MPD2    C2 7852   2.629   2.140   0.659 -0.4429  0.2792 -0.7332
  529MPD2    C3 7853   2.599   2.250   0.579  0.0934 -0.7558 -0.3953
  529MPD2    C4 7854   2.573   2.368   0.645  0.9723 -0.4848  0.2687
  529MPD2    C5 7855   2.577   2.380   0.778 -0.0258  0.5186 -0.0239
  529MPD2     H 7856   2.657   2.046   0.613 -1.0362 -0.4237  0.3293
  529MPD2    H1 7857   2.532   2.455   0.596  0.3281 -1.9158 -1.7437
  529MPD2    H2 7858   2.621   2.289   0.964 -1.9896  0.2508  0.8206
  529MPD2    H3 7859   2.558   2.475   0.826  1.8653  0.4622  0.8325
  529MPD2     N 7860   2.584   2.251   0.443  0.3475  0.3171  0.1097
  529MPD2    H5 7861   2.579   2.342   0.399 -2.2143 -0.0028 -0.2506
  529MPD2    N1 7862   2.651   2.033   0.876  0.4855  0.0472 -0.3084
  529MPD2    H7 7863   2.653   1.946   0.824  1.0986  0.2108 -0.5517
  530TMC3    C1 7864   2.729   1.885   1.051  0.3516  0.3585  0.2456
  530TMC3    C2 7865   2.766   1.858   1.178  0.1767 -0.4435  0.5121
  530TMC3    C3 7866   2.812   1.729   1.207  0.6272 -0.5718 -0.3521
  530TMC3    C4 7867   2.730   1.780   0.961  0.2009 -0.1470 -0.2247
  530TMC3    C5 7868   2.772   1.658   1.000  0.6124 -0.1066 -0.3626
  530TMC3    C6 7869   2.820   1.629   1.121  0.6769  0.1745  0.4497
  530TMC3     C 7870   2.687   2.025   1.013 -0.3684  0.4726 -0.5787
  530TMC3     O 7871   2.678   2.108   1.107  0.3405 -0.0404 -1.0953
  530TMC3     H 7872   2.758   1.934   1.255  0.1597  0.3489 -0.2799
  530TMC3    H1 7873   2.707   1.786   0.855 -1.1424  0.3971  0.1089
  530TMC3    H2 7874   2.860   1.532   1.146 -0.8627 -0.5153  0.2439
  530TMC3    C7 7875   2.750   1.551   0.908 -0.9276  0.1850  0.1226
  530TMC3    C8 7876   2.848   1.701   1.337 -0.5831  0.1157 -0.1581
  530TMC3    O1 7877   2.779   1.587   0.790 -0.0968  0.6088 -0.1922
  530TMC3    O2 7878   2.779   1.760   1.421 -0.3529 -0.0368 -0.3422
  531MPD2     C 7879   2.097   4.304  13.094  0.0696  0.5236 -0.0782
  531MPD2    C1 7880   1.982   4.291  13.167  0.0082 -0.5172 -0.3890
  531MPD2    C2 7881   1.895   4.194  13.122  0.2303  0.2736  0.6535
  531MPD2    C3 7882   1.909   4.118  13.003 -1.1244  0.2056  0.0110
  531MPD2    C4 7883   2.026   4.127  12.937 -0.1281 -0.4025  0.0738
  531MPD2    C5 7884   2.118   4.218  12.985  0.0497 -0.2576 -0.4767
  531MPD2     H 7885   1.801   4.185  13.176 -0.5668  1.0864 -0.6231
  531MPD2    H1 7886   2.052   4.073  12.846  0.1157  1.0965 -0.7467
  531MPD2    H2 7887   2.166   4.379  13.133 -2.3531  2.4455  0.4744
  531MPD2    H3 7888   2.213   4.225  12.932  0.1253 -2.0159 -0.5708
  531MPD2     N 7889   1.808   4.028  12.949 -0.1403  0.5003  0.0838
  531MPD2    H5 7890   1.818   3.987  12.857  2.3677  1.5093 -0.1127
  531MPD2    N1 7891   1.945   4.373  13.278  0.1183  0.3556 -0.0274
  531MPD2    H7 7892   2.017   4.426  13.326 -0.6447  1.4983 -0.1320
  532TMC3    C1 7893   1.786   4.452  13.460 -0.9091 -0.2242  0.2496
  532TMC3    C2 7894   1.658   4.496  13.479 -0.1661 -0.0296  0.0687
  532TMC3    C3 7895   1.610   4.515  13.610 -0.1185  0.0031 -0.2818
  532TMC3    C4 7896   1.882   4.454  13.562  0.7228 -0.4099  0.2880
  532TMC3    C5 7897   1.837   4.483  13.685  0.2459  0.2807  0.0794
  532TMC3    C6 7898   1.703   4.501  13.711  0.2052 -0.1309 -0.1306
  532TMC3     C 7899   1.812   4.376  13.335 -0.2890 -1.2298 -0.5611
  532TMC3     O 7900   1.704   4.342  13.289 -0.6366  0.4305 -0.2999
  532TMC3     H 7901   1.594   4.502  13.392 -0.0252 -2.3367 -0.1880
  532TMC3    H1 7902   1.983   4.426  13.535  0.7660 -1.0529  1.1310
  532TMC3    H2 7903   1.665   4.520  13.811  2.8580  1.9382  0.4969
  532TMC3    C7 7904   1.934   4.505  13.798  0.7522 -0.4533 -0.0941
  532TMC3    C8 7905   1.501   4.421  13.633 -0.2419 -0.1269 -0.5148
  532TMC3    O1 7906   1.917   4.590  13.886  0.7533 -0.6209  0.3462
  532TMC3    O2 7907   1.415   4.434  13.721 -0.8283  0.0795 -0.5642
  533TMC3    C1 7908   2.774   1.712  14.177 -0.9662  0.1621  0.4577
  533TMC3    C2 7909   2.909   1.727  14.188  0.5680 -0.5081  0.3880
  533TMC3    C3 7910   2.953   1.831  14.265 -0.1320  0.3144 -0.8664
  533TMC3    C4 7911   2.687   1.797  14.238 -0.0273  0.0725 -0.2896
  533TMC3    C5 7912   2.733   1.893  14.323  0.3648 -0.0726  0.0848
  533TMC3    C6 7913   2.869   1.918  14.331 -0.4406  0.5526  0.8427
  533TMC3     C 7914   2.722   1.594  14.107 -0.6186 -0.1537 -0.0080
  533TMC3     O 7915   2.785   1.490  14.124 -0.1844 -0.1070  0.1451
  533TMC3     H 7916   2.970   1.644  14.152  1.8227  0.4437  0.3424
  533TMC3    H1 7917   2.579   1.799  14.239 -0.0104  1.2083 -0.4105
  533TMC3    H2 7918   2.915   1.972  14.412  0.2527  2.6234 -0.9291
  533TMC3    C7 7919   2.654   1.895  14.445 -0.3708  0.2755 -0.5241
  533TMC3    C8 7920   3.093   1.843  14.285 -0.5985 -0.2813  0.2016
  533TMC3    O1 7921   2.562   1.813  14.455 -0.4192 -0.6107  0.1412
  533TMC3    O2 7922   3.150   1.736  14.302 -0.5402  0.3881  0.4626
  534MPD2     C 7923   0.549   2.189   1.836  0.8227  0.0774  0.2260
  534MPD2    C1 7924   0.423   2.235   1.864 -0.2034 -0.0969 -0.3466
  534MPD2    C2 7925   0.316   2.165   1.822  0.1852 -0.0288  0.1005
  534MPD2    C3 7926   0.331   2.062   1.728  0.2153 -0.1654  0.3238
  534MPD2    C4 7927   0.462   2.019   1.705 -0.2459  0.2760  0.0904
  534MPD2    C5 7928   0.571   2.072   1.769  0.3698  0.6730  0.0706
  534MPD2     H 7929   0.222   2.211   1.849  0.7408  0.0843  1.8355
  534MPD2    H1 7930   0.479   1.938   1.635 -0.7063 -0.0407  0.3487
  534MPD2    H2 7931   0.633   2.242   1.878  0.9458 -0.9010  1.2029
  534MPD2    H3 7932   0.671   2.035   1.749  0.3508  2.0591 -2.5832
  534MPD2     N 7933   0.223   2.006   1.653 -0.5824  0.4441 -1.1395
  534MPD2    H5 7934   0.254   1.935   1.587  0.5760 -1.0388  0.9931
  534MPD2    N1 7935   0.399   2.352   1.949  0.6396  0.4743 -0.0613
  534MPD2    H7 7936   0.305   2.374   1.983  1.1444  3.9540 -0.9067
  535TMC3    C1 7937   0.002   2.005   1.565 -0.0968  0.1054 -0.6162
  535TMC3    C2 7938   4.588   2.015   1.587 -0.4666  0.2872 -0.5275
  535TMC3    C3 7939   4.503   2.015   1.481  0.4434  0.6261 -0.3920
  535TMC3    C4 7940   0.058   2.003   1.440  0.2365  0.3071 -0.4232
  535TMC3    C5 7941   4.686   2.005   1.336  0.4872  0.7962  0.2201
  535TMC3    C6 7942   4.553   1.994   1.356 -0.0969  0.5161 -0.2796
  535TMC3     C 7943   0.091   2.044   1.674 -0.7901  0.1845  0.4269
  535TMC3     O 7944   0.044   2.102   1.773  0.7184  0.5252  0.0105
  535TMC3     H 7945   4.556   2.019   1.690 -0.1805 -0.4380 -0.4122
  535TMC3    H1 7946   0.165   1.999   1.425  0.3693  1.2662  0.2586
  535TMC3    H2 7947   4.491   1.988   1.267 -1.5925 -0.3869  0.8368
  535TMC3    C7 7948   0.026   2.041   1.211 -0.1407 -0.1517  0.1669
  535TMC3    C8 7949   4.360   1.995   1.512 -0.0513  0.1340 -0.1835
  535TMC3    O1 7950   0.146   2.041   1.212 -0.1634  0.4956  0.0670
  535TMC3    O2 7951   4.279   1.963   1.428 -0.5806 -0.5884  0.0132
  536MPD2     C 7952   3.804   0.919  16.302  0.1674 -0.4430 -0.1970
  536MPD2    C1 7953   3.712   0.837  16.367 -0.5855  0.3837 -0.5855
  536MPD2    C2 7954   3.600   0.787  16.301 -0.5446  0.1494  0.3051
  536MPD2    C3 7955   3.578   0.817  16.166  0.6194 -0.5349  0.6378
  536MPD2    C4 7956   3.664   0.907  16.108  0.4203 -0.1446  0.1008
  536MPD2    C5 7957   3.771   0.960  16.177 -0.2311  0.3685 -0.1723
  536MPD2     H 7958   3.530   0.727  16.357  0.4043 -1.6249 -0.4244
  536MPD2    H1 7959   3.656   0.921  16.001 -0.3617  0.3055  0.2129
  536MPD2    H2 7960   3.893   0.959  16.349  0.7959 -0.7506 -1.1269
  536MPD2    H3 7961   3.835   1.025  16.118  2.5645 -2.5373 -0.2983
  536MPD2     N 7962   3.464   0.774  16.093  0.1434 -0.7205  0.1643
  536MPD2    H5 7963   3.462   0.802  15.995 -0.3482  2.2929  1.0593
  536MPD2    N1 7964   3.741   0.823  16.506  0.0670  0.2862  0.0099
  536MPD2    H7 7965   3.817   0.877  16.545  0.4955  0.0448 -0.5026
  537TMC3    C1 7966   3.741   0.714  16.718  0.4943  0.2016 -0.5501
  537TMC3    C2 7967   3.787   0.813  16.794  0.3588  0.0810 -0.1637
  537TMC3    C3 7968   3.830   0.778  16.916 -0.2117  0.4483  0.0766
  537TMC3    C4 7969   3.725   0.585  16.759  0.0936 -0.7207 -0.2379
  537TMC3    C5 7970   3.759   0.555  16.893  0.2276 -0.2188  0.0921
  537TMC3    C6 7971   3.810   0.653  16.970 -0.5504 -0.0672  0.4178
  537TMC3     C 7972   3.686   0.730  16.588 -0.5576 -0.1957 -0.1461
  537TMC3     O 7973   3.587   0.661  16.567 -0.0141  0.3914 -0.9333
  537TMC3     H 7974   3.783   0.914  16.755  0.6952  0.7306  1.5071
  537TMC3    H1 7975   3.679   0.512  16.693 -2.2585 -1.1156  1.8543
  537TMC3    H2 7976   3.858   0.637  17.066  2.9502 -0.9642 -1.4765
  537TMC3    C7 7977   3.654   0.481  16.959 -0.4907  0.3038 -0.0571
  537TMC3    C8 7978   3.916   0.872  16.990 -0.1366  0.1103 -1.1610
  537TMC3    O1 7979   3.536   0.494  16.917  0.1744  0.0399 -0.4252
  537TMC3    O2 7980   3.927   0.850  17.112 -0.3875  0.3369 -0.2844
  538TMC3    C1 7981   0.775   3.787  10.952 -0.3495  0.1589 -0.3961
  538TMC3    C2 7982   0.888   3.774  10.874 -0.7399  0.2733  0.0520
  538TMC3    C3 7983   0.891   3.856  10.761 -0.3117  0.0431 -0.2136
  538TMC3    C4 7984   0.670   3.866  10.914 -0.5820 -0.2157  0.2490
  538TMC3    C5 7985   0.684   3.950  10.803  0.6669  0.2224  0.4423
  538TMC3    C6 7986   0.793   3.943  10.729  0.7455 -0.8609 -0.2009
  538TMC3     C 7987   0.779   3.742  11.092 -0.8245  0.0691  0.6126
  538TMC3     O 7988   0.674   3.744  11.155 -0.3073  0.5043 -0.4403
  538TMC3     H 7989   0.975   3.713  10.895 -1.6886 -1.9487 -2.4255
  538TMC3    H1 7990   0.590   3.869  10.987 -0.4218 -0.7378  0.4467
  538TMC3    H2 7991   0.795   3.994  10.633 -2.4994  0.4011  0.3877
  538TMC3    C7 7992   0.565   4.026  10.759  0.0603 -0.1818  0.8389
  538TMC3    C8 7993   0.995   3.825  10.667 -0.5603  0.3112 -0.6066
  538TMC3    O1 7994   0.461   3.982  10.805 -0.9218 -0.5289  0.0142
  538TMC3    O2 7995   1.009   3.707  10.638  0.6443  0.2070 -0.2249
  539MPD2     C 7996   0.299   2.919  11.511 -1.0783  0.1839 -1.3828
  539MPD2    C1 7997   0.394   2.996  11.452  0.3575  0.7255 -0.2300
  539MPD2    C2 7998   0.383   3.132  11.468  0.0649  0.2740 -0.5758
  539MPD2    C3 7999   0.297   3.192  11.558 -0.1538 -0.0831  0.0905
  539MPD2    C4 8000   0.214   3.108  11.627  0.0315 -0.4019  0.0522
  539MPD2    C5 8001   0.217   2.974  11.602  0.6351 -0.4041 -0.2617
  539MPD2     H 8002   0.441   3.198  11.404  0.6425  0.1148 -0.2045
  539MPD2    H1 8003   0.140   3.145  11.697 -0.1596 -1.7171  0.5417
  539MPD2    H2 8004   0.306   2.811  11.514  0.9653  0.3486 -0.3629
  539MPD2    H3 8005   0.155   2.899  11.650  1.8011 -0.2832  1.4442
  539MPD2     N 8006   0.271   3.329  11.577 -0.3372  0.2030 -0.2767
  539MPD2    H5 8007   0.188   3.358  11.627 -0.0303 -0.5065  0.6494
  539MPD2    N1 8008   0.501   2.942  11.379  0.2989 -0.8695  0.5764
  539MPD2    H7 8009   0.562   3.013  11.339  0.2097  0.0786  2.1191
  540TMC3    C1 8010   0.253   3.559  11.504  0.2679 -0.3304  0.0933
  540TMC3    C2 8011   0.244   3.636  11.390  0.6543  0.0293 -0.3827
  540TMC3    C3 8012   0.173   3.751  11.399 -0.2866  0.8251 -0.3055
  540TMC3    C4 8013   0.195   3.598  11.624  0.3788 -0.4194 -0.3419
  540TMC3    C5 8014   0.126   3.721  11.620  0.1430  0.3496 -0.0678
  540TMC3    C6 8015   0.113   3.799  11.511  0.1516 -0.0530  0.4706
  540TMC3     C 8016   0.321   3.432  11.493  0.1426 -0.0405 -0.0090
  540TMC3     O 8017   0.406   3.436  11.409 -0.3185 -0.0530  0.2167
  540TMC3     H 8018   0.295   3.608  11.298 -0.0912 -0.9765 -0.4889
  540TMC3    H1 8019   0.203   3.529  11.707  0.7455 -0.4301 -0.3838
  540TMC3    H2 8020   0.065   3.896  11.519  2.2466  1.1827 -1.8501
  540TMC3    C7 8021   0.069   3.767  11.747  0.1255  0.1935 -0.9366
  540TMC3    C8 8022   0.174   3.830  11.276  0.4603  0.5630  0.2071
  540TMC3    O1 8023   4.705   3.849  11.739 -0.4191 -0.1195  0.1572
  540TMC3    O2 8024   0.194   3.950  11.285  0.3963  0.4123  0.5990
  541MPD2     C 8025   3.172   4.575  13.538  0.4149 -0.5558  0.1143
  541MPD2    C1 8026   3.151   4.508  13.415  0.0391  0.3390  0.0001
  541MPD2    C2 8027   3.206   4.564  13.305  0.7176 -0.0070  0.1768
  541MPD2    C3 8028   3.281   4.680  13.314  0.6314 -0.6743  0.3999
  541MPD2    C4 8029   3.296   0.025  13.427 -0.2243  0.5912 -0.0435
  541MPD2    C5 8030   3.242   4.692  13.543  0.1236  0.3994 -0.4074
  541MPD2     H 8031   3.196   4.501  13.218 -3.7780 -0.0573  0.7527
  541MPD2    H1 8032   3.346   0.121  13.434 -0.3481  0.6792 -0.3542
  541MPD2    H2 8033   3.149   4.527  13.632 -0.9162 -0.7701 -0.3154
  541MPD2    H3 8034   3.254   0.012  13.642  2.5665  4.0964 -2.2371
  541MPD2     N 8035   3.337   0.025  13.199  0.5102  0.0039 -0.3254
  541MPD2    H5 8036   3.383   0.115  13.209 -1.2031  1.0106 -1.4011
  541MPD2    N1 8037   3.101   4.380  13.407 -0.3600 -0.2961  0.4372
  541MPD2    H7 8038   3.120   4.334  13.318  0.6723  1.2349 -0.1167
  542TMC3    C1 8039   3.427   0.069  12.982  0.1405 -0.8083  0.2694
  542TMC3    C2 8040   3.486   0.014  12.872 -0.0514 -0.2059  0.1852
  542TMC3    C3 8041   3.537   0.106  12.777  1.1375  0.8904  0.3303
  542TMC3    C4 8042   3.423   0.195  13.009 -0.2005 -0.2556 -0.4032
  542TMC3    C5 8043   3.466   0.270  12.913 -0.5667  0.3035 -0.2090
  542TMC3    C6 8044   3.512   0.238  12.791  0.5322  0.5738 -0.2166
  542TMC3     C 8045   3.364   4.694  13.073  0.7692  0.0554 -0.1650
  542TMC3     O 8046   3.343   4.583  13.030  0.2195  0.1668  0.6956
  542TMC3     H 8047   3.489   4.629  12.856 -1.2425 -0.1785 -0.1769
  542TMC3    H1 8048   3.358   0.244  13.081 -1.4741  0.9644 -2.3665
  542TMC3    H2 8049   3.550   0.310  12.719 -2.4858  0.8144 -1.5304
  542TMC3    C7 8050   3.460   0.415  12.944 -0.8275  0.0868  0.4687
  542TMC3    C8 8051   3.607   0.073  12.662  0.4568 -1.1428 -1.1328
  542TMC3    O1 8052   3.483   0.450  13.063 -0.0350  0.3119  0.3363
  542TMC3    O2 8053   3.617   0.161  12.584  0.6581  0.5186  0.2583
  543TMC3    C1 8054   2.432   0.863  17.493  0.7126  0.3645  0.2885
  543TMC3    C2 8055   2.512   0.751  17.500 -0.2824 -0.3165  0.1627
  543TMC3    C3 8056   2.534   0.696  17.618 -0.2813  0.2304  0.1217
  543TMC3    C4 8057   2.402   0.930  17.605  0.0645  0.4417 -0.2144
  543TMC3    C5 8058   2.418   0.869   0.035 -0.3829 -0.0811  1.2117
  543TMC3    C6 8059   2.477   0.746   0.045  0.1757 -0.0474 -0.5605
  543TMC3     C 8060   2.430   0.932  17.368  0.1385 -0.0573 -0.0426
  543TMC3     O 8061   2.504   0.903  17.275  0.6479  0.0299 -0.1348
  543TMC3     H 8062   2.549   0.700  17.412 -1.9219  0.3803 -0.9315
  543TMC3    H1 8063   2.352   1.026  17.601 -0.7915  0.0470  0.8848
  543TMC3    H2 8064   2.515   0.712   0.140  0.6398  0.8122 -0.4367
  543TMC3    C7 8065   2.337   0.908   0.146 -0.7451  0.2561 -0.7222
  543TMC3    C8 8066   2.589   0.564  17.636  0.0954  0.4264  0.7514
  543TMC3    O1 8067   2.331   0.823   0.230  1.0654 -0.4617  0.0420
  543TMC3    O2 8068   2.687   0.537  17.569  0.1857  0.1373 -0.0995
  544MPD2     C 8069   2.665   0.116   0.188  0.1876 -0.4383  0.4472
  544MPD2    C1 8070   2.713   0.162   0.071  0.1708 -0.5931 -1.2629
  544MPD2    C2 8071   2.677   0.289   0.027 -0.8716  0.0857 -0.4353
  544MPD2    C3 8072   2.583   0.367   0.096  0.0803  0.4172 -0.2437
  544MPD2    C4 8073   2.530   0.316   0.210  0.3746 -0.0282  0.0037
  544MPD2    C5 8074   2.574   0.191   0.257 -0.3634 -0.3178 -0.2062
  544MPD2     H 8075   2.707   0.314  17.615 -1.3815 -1.2012 -0.9019
  544MPD2    H1 8076   2.454   0.368   0.267  0.7387 -0.0740  0.5293
  544MPD2    H2 8077   2.695   0.020   0.229 -0.3875 -1.9169 -2.6384
  544MPD2    H3 8078   2.542   0.151   0.352  1.8917  3.5017  2.1767
  544MPD2     N 8079   2.535   0.492   0.058  0.2583  0.4491  0.7770
  544MPD2    H5 8080   2.461   0.536   0.112  0.9084  0.3933  1.6909
  544MPD2    N1 8081   2.798   0.073   0.004  0.4714 -0.1980  0.1649
  544MPD2    H7 8082   2.805   4.698   0.034  0.2232 -0.2947 -0.0929
  545TMC3    C1 8083   2.895   4.682  17.516  0.0025 -0.1913  0.3288
  545TMC3    C2 8084   2.847   4.633  17.401 -0.1543  1.1883  0.3889
  545TMC3    C3 8085   2.878   4.504  17.371  0.1635  0.3858  0.0052
  545TMC3    C4 8086   2.975   4.612  17.603  0.5728  0.6743  0.1320
  545TMC3    C5 8087   3.010   4.482  17.563 -0.5572  0.6537 -0.0512
  545TMC3    C6 8088   2.976   4.429  17.438  0.0375 -0.1275  0.1591
  545TMC3     C 8089   2.853   0.093  17.561 -0.2282  0.5255 -0.0200
  545TMC3     O 8090   2.843   0.188  17.487 -0.2953 -0.1080  0.0536
  545TMC3     H 8091   2.790   4.703  17.340 -1.4068 -1.5569 -1.5938
  545TMC3    H1 8092   3.017   4.657   0.004 -1.0321  1.5656  0.4316
  545TMC3    H2 8093   3.008   4.330  17.408  0.1198  0.9450 -3.2566
  545TMC3    C7 8094   3.103   4.402  17.643 -0.2813 -0.5982  0.8995
  545TMC3    C8 8095   2.837   4.455  17.239 -0.5730 -0.3354  0.1572
  545TMC3    O1 8096   3.155   4.308  17.584  0.2876 -0.4630  0.0581
  545TMC3    O2 8097   2.903   4.372  17.179  0.0642  0.5900  0.1542
  546MPD2     C 8098   3.729   1.363  17.502  0.2512  0.1550  1.2902
  546MPD2    C1 8099   3.752   1.380  17.369  0.2602 -0.4931 -0.0280
  546MPD2    C2 8100   3.829   1.493  17.330 -0.3728  0.1864  0.1949
  546MPD2    C3 8101   3.879   1.578  17.425  0.2643  0.1592  0.8210
  546MPD2    C4 8102   3.832   1.562  17.553 -0.4356 -0.5545  0.6756
  546MPD2    C5 8103   3.765   1.457  17.589 -0.5635 -0.3090 -0.3081
  546MPD2     H 8104   3.848   1.502  17.223 -0.5686 -1.4633  0.0270
  546MPD2    H1 8105   3.858   1.636  17.628  0.8907 -1.1305  0.7888
  546MPD2    H2 8106   3.676   1.281  17.548 -0.9821 -0.4009 -1.1232
  546MPD2    H3 8107   3.724   1.449  17.689  2.8866  0.1402  1.1497
  546MPD2     N 8108   3.963   1.684  17.397 -0.0259  0.3444  0.2042
  546MPD2    H5 8109   3.997   1.740  17.475  2.0568 -1.5549  0.6581
  546MPD2    N1 8110   3.701   1.283  17.286 -0.0018 -0.3107  0.1654
  546MPD2    H7 8111   3.661   1.206  17.338 -1.0985 -0.4600 -0.8894
  547TMC3    C1 8112   3.634   1.172  17.092  0.4954 -0.4764 -0.2946
  547TMC3    C2 8113   3.545   1.192  16.996  0.3740  0.3775  0.3566
  547TMC3    C3 8114   3.451   1.097  16.972 -0.0860  0.4652  0.1776
  547TMC3    C4 8115   3.654   1.050  17.150  0.4020 -0.1316 -0.3189
  547TMC3    C5 8116   3.573   0.949  17.107  0.2289 -0.0164 -0.0241
  547TMC3    C6 8117   3.465   0.968  17.024 -0.1620 -0.3848  0.2789
  547TMC3     C 8118   3.699   1.287  17.150  0.2101 -0.5574  0.1457
  547TMC3     O 8119   3.709   1.383  17.074  0.1493 -0.3747 -0.3164
  547TMC3     H 8120   3.544   1.285  16.941  3.5227  0.8157  1.0699
  547TMC3    H1 8121   3.737   1.037  17.218 -0.8765 -0.0162  1.2627
  547TMC3    H2 8122   3.407   0.879  16.998  1.3472 -1.3026  0.0599
  547TMC3    C7 8123   3.558   0.828  17.186 -0.1863  0.6851  1.5795
  547TMC3    C8 8124   3.352   1.131  16.874 -0.2015  0.9054 -0.0310
  547TMC3    O1 8125   3.443   0.786  17.206 -0.4588  0.0259  0.3371
  547TMC3    O2 8126   3.320   1.247  16.851 -0.2200  0.6681  0.0271
  548MPD2     C 8127   3.773   1.968  12.124 -0.4040 -0.0445 -0.2747
  548MPD2    C1 8128   3.768   1.903  12.246  0.5574  0.0579 -0.4852
  548MPD2    C2 8129   3.882   1.841  12.294 -0.4665  0.0891  0.0254
  548MPD2    C3 8130   3.995   1.831  12.220 -0.1970  0.2739 -0.0184
  548MPD2    C4 8131   4.000   1.898  12.102 -1.0410  0.0033 -0.7012
  548MPD2    C5 8132   3.896   1.965  12.057 -0.2921  1.2626  0.3732
  548MPD2     H 8133   3.874   1.802  12.395 -0.4643 -0.8703 -0.3405
  548MPD2    H1 8134   4.089   1.897  12.039 -1.7588  1.9412 -1.7288
  548MPD2    H2 8135   3.685   2.015  12.080  1.0747  2.3646 -0.6863
  548MPD2    H3 8136   3.904   2.018  11.963  0.9719  0.2860 -0.0621
  548MPD2     N 8137   4.108   1.762  12.278 -0.2653  0.4066 -0.1717
  548MPD2    H5 8138   4.116   1.758  12.380 -2.3690  1.3562  0.0330
  548MPD2    N1 8139   3.642   1.910  12.320 -0.2428 -1.0770  0.2704
  548MPD2    H7 8140   3.567   1.953  12.266 -2.5614 -0.1834  4.1788
  549TMC3    C1 8141   3.469   1.845  12.475 -0.0819  0.1974 -0.5629
  549TMC3    C2 8142   3.382   1.910  12.386 -0.3685  0.1053 -0.3958
  549TMC3    C3 8143   3.259   1.854  12.364 -0.0334 -0.2930 -0.2162
  549TMC3    C4 8144   3.419   1.732  12.540 -0.5402 -0.5849  0.0409
  549TMC3    C5 8145   3.297   1.675  12.509  0.7199 -0.9724 -0.7425
  549TMC3    C6 8146   3.212   1.734  12.416 -0.7261  0.2879  0.1708
  549TMC3     C 8147   3.611   1.847  12.446  0.0138  0.3774  0.3915
  549TMC3     O 8148   3.691   1.801  12.525 -0.6196  0.1827 -0.4346
  549TMC3     H 8149   3.425   1.993  12.331  0.4182 -1.1935 -1.7257
  549TMC3    H1 8150   3.481   1.679  12.612  1.3793  0.4021 -0.8842
  549TMC3    H2 8151   3.119   1.689  12.383 -0.3288  0.8862 -1.7867
  549TMC3    C7 8152   3.245   1.566  12.587 -1.2086  0.5043 -0.2135
  549TMC3    C8 8153   3.168   1.932  12.285  0.5812  0.2282 -0.1226
  549TMC3    O1 8154   3.124   1.547  12.575 -0.0677  0.0915  0.5729
  549TMC3    O2 8155   3.102   1.872  12.204 -0.1952 -0.0862  0.3831
  550TMC3    C1 8156   2.553   4.081  12.377  0.5529 -0.3739  0.0706
  550TMC3    C2 8157   2.536   4.125  12.508  0.2555 -0.0895  0.6940
  550TMC3    C3 8158   2.399   4.141  12.540  0.0093 -0.1688 -0.2611
  550TMC3    C4 8159   2.461   4.084  12.280  0.7857 -0.0713 -0.6366
  550TMC3    C5 8160   2.333   4.098  12.321  0.0215 -0.3762  0.5838
  550TMC3    C6 8161   2.299   4.125  12.448  0.6998 -0.7242  0.5258
  550TMC3     C 8162   2.690   4.068  12.329 -0.4179 -0.0756  0.1642
  550TMC3     O 8163   2.785   4.080  12.405  0.1079 -0.2138 -0.6498
  550TMC3     H 8164   2.620   4.142  12.576  1.7617  0.1472 -1.2394
  550TMC3    H1 8165   2.466   4.029  12.187  1.8386  1.7134 -1.6493
  550TMC3    H2 8166   2.196   4.134  12.478  1.0757 -0.5104  1.7275
  550TMC3    C7 8167   2.226   4.117  12.223  0.6046  0.7991  0.3328
  550TMC3    C8 8168   2.361   4.217  12.662 -0.2436 -0.2476  0.6173
  550TMC3    O1 8169   2.112   4.133  12.265 -0.2218  0.3169 -0.1182
  550TMC3    O2 8170   2.245   4.258  12.661 -0.0932 -0.4137 -0.5793
  551TMC3    C1 8171   0.331   2.155  13.410  0.1669  0.1768 -0.2398
  551TMC3    C2 8172   0.452   2.165  13.356 -0.3123  0.6493  0.0892
  551TMC3    C3 8173   0.551   2.251  13.401 -0.1407  0.2057  0.4835
  551TMC3    C4 8174   0.313   2.222  13.528  0.2584  0.6274 -0.0589
  551TMC3    C5 8175   0.415   2.299  13.577 -0.0493  0.2488 -0.7838
  551TMC3    C6 8176   0.539   2.315  13.517  0.6611  0.4036  0.6804
  551TMC3     C 8177   0.229   2.178  13.311  0.6644 -0.9344 -0.1883
  551TMC3     O 8178   0.230   2.090  13.226  0.1047  0.4057  0.0311
  551TMC3     H 8179   0.464   2.124  13.256 -0.2204  0.7047  0.0771
  551TMC3    H1 8180   0.214   2.227  13.571  0.6914  0.7861  0.9108
  551TMC3    H2 8181   0.619   2.378  13.555  0.1499  1.4148  0.0633
  551TMC3    C7 8182   0.392   2.366  13.698  0.2261 -0.4396  0.1420
  551TMC3    C8 8183   0.648   2.289  13.297 -0.1805 -0.5682  0.0576
  551TMC3    O1 8184   0.312   2.317  13.773  0.3342  0.1482  0.0886
  551TMC3    O2 8185   0.659   2.213  13.201 -0.2365 -0.1784  0.3411
  552MPD2     C 8186   1.894   4.084  14.039  0.4889 -0.5903 -0.8042
  552MPD2    C1 8187   1.873   3.981  14.129  0.5252 -1.0877 -0.3564
  552MPD2    C2 8188   1.959   3.964  14.234  0.1959 -0.2196 -0.3952
  552MPD2    C3 8189   2.064   4.053  14.248  0.0278 -0.2150 -0.4864
  552MPD2    C4 8190   2.090   4.147  14.149  0.3645 -0.4047  0.1417
  552MPD2    C5 8191   2.005   4.167  14.050 -0.2196  0.5797  0.2059
  552MPD2     H 8192   1.941   3.878  14.298  3.2488  0.3497  1.2253
  552MPD2    H1 8193   2.174   4.215  14.157  1.2289 -1.0319 -3.2846
  552MPD2    H2 8194   1.830   4.093  13.952 -1.5854 -0.1884  0.7748
  552MPD2    H3 8195   2.016   4.251  13.983 -3.2277  2.7700  2.4798
  552MPD2     N 8196   2.165   4.035  14.345 -0.2318 -0.2787 -0.2347
  552MPD2    H5 8197   2.238   4.105  14.344  2.3124 -2.8604  2.8895
  552MPD2    N1 8198   1.779   3.881  14.104 -0.1103  0.0279  0.1534
  552MPD2    H7 8199   1.784   3.810  14.177  1.2821 -1.3770 -1.3076
  553TMC3    C1 8200   1.670   3.756  13.947 -0.3885  0.3727  0.2899
  553TMC3    C2 8201   1.677   3.765  13.813  0.3221  0.6883 -0.2141
  553TMC3    C3 8202   1.756   3.673  13.744  0.5387  0.0818  0.0225
  553TMC3    C4 8203   1.740   3.656  14.016 -0.3894  0.1742  0.2385
  553TMC3    C5 8204   1.817   3.566  13.941  0.2623  0.2047 -0.3133
  553TMC3    C6 8205   1.840   3.583  13.811  0.0361 -0.0651  0.6787
  553TMC3     C 8206   1.677   3.884  14.010 -0.9478 -0.1891 -0.4368
  553TMC3     O 8207   1.640   3.980  13.942  0.0431 -0.0287 -0.3133
  553TMC3     H 8208   1.619   3.835  13.755  0.3199 -0.2455 -1.3480
  553TMC3    H1 8209   1.749   3.636  14.122 -0.3010  1.5793  0.4894
  553TMC3    H2 8210   1.923   3.528  13.767  0.7460  1.7127 -0.2174
  553TMC3    C7 8211   1.937   3.568  14.018 -0.1626 -0.4874 -0.1057
  553TMC3    C8 8212   1.794   3.722  13.611 -0.0698  0.3560 -0.5474
  553TMC3    O1 8213   1.958   3.478  14.102 -0.7464 -0.4272  0.2387
  553TMC3    O2 8214   1.727   3.810  13.556 -0.2668 -0.2326  0.7270
  554TMC3    C1 8215   4.358   3.548  11.690  0.0591 -0.3320  0.1978
  554TMC3    C2 8216   4.272   3.450  11.642 -0.8584 -0.4876 -0.1919
  554TMC3    C3 8217   4.250   3.441  11.509  0.4379 -0.1088 -0.1749
  554TMC3    C4 8218   4.424   3.626  11.607  0.3629 -0.3190 -0.0838
  554TMC3    C5 8219   4.409   3.613  11.474 -0.1222 -1.0788  0.3837
  554TMC3    C6 8220   4.314   3.529  11.422  0.1338  0.3427 -0.1533
  554TMC3     C 8221   4.369   3.569  11.834 -0.5402 -0.1164  0.2599
  554TMC3     O 8222   4.425   3.665  11.888 -0.1362 -0.6466  0.2566
  554TMC3     H 8223   4.201   3.401  11.708  1.5448 -1.2115  1.8667
  554TMC3    H1 8224   4.495   3.699  11.643  1.9742 -1.0834 -1.6816
  554TMC3    H2 8225   4.299   3.536  11.315 -0.7329 -1.4376 -0.1522
  554TMC3    C7 8226   4.461   3.715  11.376  0.3835 -0.5163  0.0229
  554TMC3    C8 8227   4.143   3.358  11.458 -0.4912 -0.0436  0.3087
  554TMC3    O1 8228   4.467   3.672  11.263  0.4684 -0.3185  0.5388
  554TMC3    O2 8229   4.076   3.297  11.540  0.3172 -0.0669 -0.4919
  555TMC3    C1 8230   2.809   2.630  15.448  0.4159  0.0823 -0.6638
  555TMC3    C2 8231   2.801   2.725  15.544  0.1688  0.4349 -0.0722
  555TMC3    C3 8232   2.765   2.677  15.674 -0.0291 -0.1200  0.2890
  555TMC3    C4 8233   2.782   2.498  15.468 -0.8581  0.5339  0.2073
  555TMC3    C5 8234   2.754   2.460  15.595  0.5931  0.1751 -0.6253
  555TMC3    C6 8235   2.739   2.545  15.700 -0.9609  0.4281  0.3425
  555TMC3     C 8236   2.758   2.685  15.326 -0.4822  0.3948 -0.6498
  555TMC3     O 8237   2.660   2.629  15.275 -0.1542  0.4100  0.9691
  555TMC3     H 8238   2.835   2.825  15.521  0.6749  0.3069  0.1139
  555TMC3    H1 8239   2.799   2.437  15.380 -0.8020  1.5696 -0.5018
  555TMC3    H2 8240   2.715   2.500  15.796  0.2502  2.0578  1.3957
  555TMC3    C7 8241   2.703   2.330  15.612  0.1426  0.2999  0.5139
  555TMC3    C8 8242   2.793   2.770  15.778 -0.2715  0.8013 -0.1227
  555TMC3    O1 8243   2.615   2.312  15.694  0.4646  0.2719  0.4253
  555TMC3    O2 8244   2.775   2.891  15.758  0.3552  0.3457 -0.3951
  556MPD2     C 8245   1.619   0.262  10.847 -0.3688  0.2267 -0.0057
  556MPD2    C1 8246   1.611   0.125  10.867  0.1141  0.3552 -0.0663
  556MPD2    C2 8247   1.576   0.045  10.756  0.7748 -0.2417 -0.6206
  556MPD2    C3 8248   1.554   0.096  10.627 -0.2967  0.1835  0.6871
  556MPD2    C4 8249   1.549   0.233  10.617 -0.2790 -0.1560  0.3263
  556MPD2    C5 8250   1.584   0.313  10.718  0.0061  0.6064  0.2696
  556MPD2     H 8251   1.577   4.659  10.771  2.1867 -0.2570 -0.7710
  556MPD2    H1 8252   1.535   0.284  10.522  1.5319  0.0768  0.1828
  556MPD2    H2 8253   1.654   0.325  10.928  2.2748 -2.4403  0.9380
  556MPD2    H3 8254   1.576   0.420  10.711 -0.9695  0.4263 -1.3404
  556MPD2     N 8255   1.531   0.006  10.524 -0.4352 -0.7125  0.1876
  556MPD2    H5 8256   1.552   4.632  10.550  0.5896 -0.2521  1.0913
  556MPD2    N1 8257   1.634   0.062  10.991 -0.0913 -0.1368 -0.7572
  556MPD2    H7 8258   1.611   4.685  10.994  1.1930 -0.4742 -1.8412
  557TMC3    C1 8259   1.470   4.650  10.317 -0.6266  0.3630  0.4662
  557TMC3    C2 8260   1.490   4.656  10.185  0.2417  0.5279 -0.5420
  557TMC3    C3 8261   1.457   4.544  10.110  0.7702  0.0650  1.0768
  557TMC3    C4 8262   1.419   4.533  10.373  0.4629 -0.4835  0.7387
  557TMC3    C5 8263   1.399   4.417  10.296  0.3571  0.4043 -0.3813
  557TMC3    C6 8264   1.415   4.427  10.161 -0.3121  0.3160 -0.3337
  557TMC3     C 8265   1.513   0.042  10.393  0.5044 -0.3972  0.1022
  557TMC3     O 8266   1.536   0.142  10.328 -0.2405  0.7975  0.0545
  557TMC3     H 8267   1.556   0.007  10.138  1.0049  1.6602  2.2806
  557TMC3    H1 8268   1.384   4.525  10.475  0.7276 -2.1375  0.7095
  557TMC3    H2 8269   1.366   4.352  10.100  0.4663 -0.0145 -0.5521
  557TMC3    C7 8270   1.321   4.311  10.354 -0.2612 -0.8679 -0.4258
  557TMC3    C8 8271   1.438   4.580   9.966  0.0264 -0.8906 -0.5368
  557TMC3    O1 8272   1.250   4.355  10.448 -0.3615  0.3468 -0.3088
  557TMC3    O2 8273   1.482   4.689   9.923 -0.9341 -0.2030  0.3157
  558TMC3    C1 8274   3.872   2.570  10.315  0.0430 -0.2655 -0.7257
  558TMC3    C2 8275   3.781   2.471  10.349  0.6863  0.1308 -0.0134
  558TMC3    C3 8276   3.675   2.462  10.264 -0.4503  0.2398 -0.8387
  558TMC3    C4 8277   3.858   2.644  10.198 -0.3449  0.0891 -1.3221
  558TMC3    C5 8278   3.762   2.615  10.109 -0.9147 -0.1421 -0.1796
  558TMC3    C6 8279   3.658   2.531  10.153  0.4320  0.0814 -0.5081
  558TMC3     C 8280   3.971   2.613  10.411 -0.1414  0.0310 -0.3170
  558TMC3     O 8281   4.065   2.680  10.371 -0.7575 -0.2269 -0.7437
  558TMC3     H 8282   3.792   2.407  10.435  0.5866 -0.9166 -0.7743
  558TMC3    H1 8283   3.921   2.731  10.185 -0.6089  0.5478  0.4465
  558TMC3    H2 8284   3.576   2.503  10.088 -0.5200 -0.8662  1.0820
  558TMC3    C7 8285   3.757   2.699   9.991  0.4043 -1.1341  0.1661
  558TMC3    C8 8286   3.549   2.409  10.315 -0.2838 -0.2397 -1.0045
  558TMC3    O1 8287   3.834   2.795   9.988 -0.8076 -0.5233  0.0609
  558TMC3    O2 8288   3.466   2.374  10.233  0.1804  0.3234  0.2237
  559MPD2     C 8289   3.816   3.040  10.319  0.2141  0.5480  0.0679
  559MPD2    C1 8290   3.758   2.953  10.416 -0.0669 -1.0089 -0.5748
  559MPD2    C2 8291   3.839   2.933  10.527 -0.1708 -1.3960 -0.2029
  559MPD2    C3 8292   3.957   2.992  10.548 -0.3402  0.2437  0.0106
  559MPD2    C4 8293   4.011   3.066  10.439 -0.2854  0.6406 -0.5650
  559MPD2    C5 8294   3.936   3.091  10.333 -0.3242 -0.0893  0.1170
  559MPD2     H 8295   3.804   2.870  10.608 -0.9716  0.1388  0.6388
  559MPD2    H1 8296   4.107   3.116  10.447 -0.0044  0.1424 -0.8541
  559MPD2    H2 8297   3.762   3.070  10.230 -0.9354 -1.5357  0.0553
  559MPD2    H3 8298   3.985   3.140  10.250 -1.9172  1.2050 -0.0504
  559MPD2     N 8299   4.027   2.975  10.670 -0.1412  0.2379  0.4902
  559MPD2    H5 8300   3.973   2.914  10.731 -2.4843  1.3404 -0.4727
  559MPD2    N1 8301   3.629   2.900  10.401  0.0257 -0.6076  0.2120
  559MPD2    H7 8302   3.567   2.948  10.336 -0.3023  1.6096  2.1420
  560TMC3    C1 8303   4.170   3.033  10.858  0.1681  0.0032  1.1353
  560TMC3    C2 8304   4.071   2.985  10.934 -1.0419 -0.0763 -0.0764
  560TMC3    C3 8305   4.091   2.985  11.067  0.2486  0.2275  0.4064
  560TMC3    C4 8306   4.296   3.072  10.912 -0.4410 -0.0990 -0.6196
  560TMC3    C5 8307   4.308   3.067  11.047  0.9959 -0.5929  0.3563
  560TMC3    C6 8308   4.196   3.030  11.124 -0.1156 -0.3389 -0.1592
  560TMC3     C 8309   4.152   3.033  10.705 -0.3666 -0.8528  0.0041
  560TMC3     O 8310   4.241   3.079  10.635  0.0226  0.0807  0.3049
  560TMC3     H 8311   3.974   2.966  10.889 -1.9448 -0.5466  2.0607
  560TMC3    H1 8312   4.374   3.108  10.846  0.4016 -0.5373  0.1510
  560TMC3    H2 8313   4.206   2.994  11.226  0.8890 -1.3040 -0.5961
  560TMC3    C7 8314   4.438   3.028  11.110  0.4670 -0.4535  0.0474
  560TMC3    C8 8315   3.981   2.921  11.134  0.3701  0.6824  0.4704
  560TMC3    O1 8316   4.437   2.964  11.219 -0.0730  0.3381  0.1342
  560TMC3    O2 8317   3.905   2.851  11.070 -0.0787  0.4959 -0.7289
  561TMC3    C1 8318   1.514   1.928  10.888 -0.6194 -0.5867  0.1666
  561TMC3    C2 8319   1.420   1.855  10.965  0.0983 -0.2624  0.2043
  561TMC3    C3 8320   1.389   1.899  11.096  0.1095  0.0284 -0.1878
  561TMC3    C4 8321   1.577   2.037  10.946  0.9804 -0.3330 -0.5478
  561TMC3    C5 8322   1.555   2.063  11.081  0.1465  0.1615  0.0655
  561TMC3    C6 8323   1.454   2.002  11.155 -0.4350 -0.7380 -1.0157
  561TMC3     C 8324   1.547   1.869  10.763 -0.0362  0.1149  0.5841
  561TMC3     O 8325   1.505   1.759  10.745 -0.1053 -0.1904  0.1626
  561TMC3     H 8326   1.360   1.776  10.923 -1.0503  0.5731  0.2794
  561TMC3    H1 8327   1.653   2.078  10.880 -0.5122  0.9797 -1.4733
  561TMC3    H2 8328   1.443   2.020  11.261  2.8942 -1.5932 -0.5139
  561TMC3    C7 8329   1.612   2.183  11.146  0.4272 -0.2106  0.1820
  561TMC3    C8 8330   1.310   1.816  11.178  0.0404  0.4925 -0.2820
  561TMC3    O1 8331   1.576   2.214  11.258  0.2778  0.0058 -0.1675
  561TMC3    O2 8332   1.312   1.698  11.142 -0.2442 -0.6333  0.6595
  562TMC3    C1 8333   2.653   3.122  16.653  0.1567 -0.0707 -0.0277
  562TMC3    C2 8334   2.600   3.252  16.635 -0.4564 -0.3440  0.1667
  562TMC3    C3 8335   2.562   3.290  16.509 -0.1277 -0.0145 -0.0298
  562TMC3    C4 8336   2.674   3.037  16.544 -0.4191 -0.5958  0.5565
  562TMC3    C5 8337   2.647   3.080  16.419  0.7900  0.3344 -0.7859
  562TMC3    C6 8338   2.587   3.208  16.406  0.1434  0.7385 -1.1457
  562TMC3     C 8339   2.718   3.082  16.776 -0.0814  0.9330 -0.2011
  562TMC3     O 8340   2.808   2.997  16.769 -0.0482  0.5140  0.1535
  562TMC3     H 8341   2.570   3.321  16.713 -0.3727 -0.9497  0.7441
  562TMC3    H1 8342   2.726   2.944  16.560 -1.5052 -1.5247 -1.3484
  562TMC3    H2 8343   2.528   3.222  16.316  1.1299 -0.3117 -1.9496
  562TMC3    C7 8344   2.615   2.982  16.320 -0.1555  0.1819 -0.2203
  562TMC3    C8 8345   2.532   3.434  16.500  0.3111  0.3801 -0.1757
  562TMC3    O1 8346   2.550   3.025  16.225  0.3941  0.0506  0.2246
  562TMC3    O2 8347   2.518   3.499  16.605 -0.2150  0.2116 -0.7459
  563MPD2     C 8348   0.450   0.027  15.744 -0.2053 -0.5171  0.2141
  563MPD2    C1 8349   0.474   0.025  15.881 -0.3285 -0.0579 -0.4268
  563MPD2    C2 8350   0.593   4.691  15.933 -0.3622 -0.6540 -0.4689
  563MPD2    C3 8351   0.681   4.633  15.845  0.3844 -0.3003 -0.1868
  563MPD2    C4 8352   0.654   4.623  15.709  0.0667  0.4190 -0.0637
  563MPD2    C5 8353   0.540   4.688  15.657  0.5090 -0.3707  0.1222
  563MPD2     H 8354   0.621   4.690  16.038  0.5276 -1.6027 -0.7076
  563MPD2    H1 8355   0.721   4.581  15.635  0.0262 -0.2719  0.2956
  563MPD2    H2 8356   0.361   0.078  15.709  0.0212  1.1449  2.0173
  563MPD2    H3 8357   0.532   4.682  15.549 -1.2076  1.2568  0.1699
  563MPD2     N 8358   0.798   4.576  15.899 -0.0348  0.0795 -0.1246
  563MPD2    H5 8359   0.793   4.565  16.000  0.0416  1.1380 -0.0030
  563MPD2    N1 8360   0.378   0.082  15.964 -0.4432  0.0499  0.3149
  563MPD2    H7 8361   0.302   0.135  15.923 -0.3104  1.3932  1.7892
  564TMC3    C1 8362   0.242   0.085  16.164 -0.4543 -0.9470  0.0883
  564TMC3    C2 8363   0.133   0.036  16.104  0.6434  0.5004 -0.4999
  564TMC3    C3 8364   0.056   4.683  16.186  0.2260  0.9541 -0.2897
  564TMC3    C4 8365   0.273   0.080  16.297  0.5252  0.9257 -0.1133
  564TMC3    C5 8366   0.190   0.005  16.379  0.0762  0.0200  0.2988
  564TMC3    C6 8367   0.076   4.669  16.320 -0.6429 -0.7390  0.3059
  564TMC3     C 8368   0.367   0.054  16.100 -0.5711 -0.3497  0.0069
  564TMC3     O 8369   0.436   4.705  16.175  0.2054  0.1248 -0.5167
  564TMC3     H 8370   0.143   0.024  15.997 -2.9284  0.7594 -0.8486
  564TMC3    H1 8371   0.366   0.120  16.336 -0.0952  1.1064  1.1834
  564TMC3    H2 8372   0.007   4.607  16.377 -0.8278 -0.6691  0.1580
  564TMC3    C7 8373   0.265   4.622  16.453 -0.4884  1.0195  0.2806
  564TMC3    C8 8374   0.021   4.553  16.143 -0.1019  0.3415  0.3434
  564TMC3    O1 8375   0.371   4.667  16.493 -0.0374 -0.0265 -1.2784
  564TMC3    O2 8376   0.063   4.465  16.212 -0.0204  1.2407 -0.0005
  565TMC3    C1 8377   4.550   1.381   9.642 -0.1634 -0.1792 -0.3871
  565TMC3    C2 8378   4.628   1.269   9.683  0.2783  0.2972 -0.0966
  565TMC3    C3 8379   4.571   1.158   9.741 -0.7549  0.6210  0.4039
  565TMC3    C4 8380   4.414   1.371   9.643  0.1566 -0.0170 -0.2519
  565TMC3    C5 8381   4.357   1.267   9.710  0.0552  0.2357 -0.5199
  565TMC3    C6 8382   4.427   1.150   9.743 -0.1743 -0.7011  0.1215
  565TMC3     C 8383   4.622   1.496   9.602 -0.3589  0.0691 -0.2377
  565TMC3     O 8384   4.569   1.605   9.604  0.6767 -0.0813  0.1120
  565TMC3     H 8385   0.015   1.268   9.691  0.1283 -0.7531  1.7687
  565TMC3    H1 8386   4.353   1.453   9.609 -0.8486 -0.8705 -0.4885
  565TMC3    H2 8387   4.375   1.070   9.795 -1.4354  0.7398  1.0510
  565TMC3    C7 8388   4.208   1.261   9.712  0.1124  0.4500  0.0122
  565TMC3    C8 8389   4.654   1.047   9.793 -0.2072  0.4177  0.2207
  565TMC3    O1 8390   4.156   1.362   9.683  0.4193 -0.1158 -0.1017
  565TMC3    O2 8391   0.053   1.062   9.798  0.3795 -0.0714 -0.1200
  566MPD2     C 8392   2.101   2.312  14.356  0.0710 -0.3647 -0.4141
  566MPD2    C1 8393   2.140   2.364  14.234 -0.2285 -0.1302  0.6568
  566MPD2    C2 8394   2.083   2.315  14.116 -0.5443  0.7182  0.6806
  566MPD2    C3 8395   1.993   2.205  14.120  0.5981  0.7622 -0.3385
  566MPD2    C4 8396   1.948   2.164  14.246 -0.0701 -0.4739 -0.0065
  566MPD2    C5 8397   2.004   2.215  14.366  0.7796 -0.5043  0.6098
  566MPD2     H 8398   2.129   2.338  14.021  0.5740  2.1597  1.5723
  566MPD2    H1 8399   1.877   2.081  14.251  0.6297 -1.1262 -1.0754
  566MPD2    H2 8400   2.143   2.360  14.444  1.7646 -2.3905 -0.1164
  566MPD2    H3 8401   1.973   2.177  14.462  0.6205 -2.3957 -0.1901
  566MPD2     N 8402   1.935   2.129  14.006  0.1284  0.8295 -0.6423
  566MPD2    H5 8403   1.860   2.063  14.024  0.2076  0.8056 -0.4077
  566MPD2    N1 8404   2.247   2.459  14.236  0.2243 -0.1704 -0.8227
  566MPD2    H7 8405   2.267   2.497  14.328 -0.0286  0.7116 -1.1355
  567TMC3    C1 8406   2.401   2.627  14.158 -0.1083  0.2799  0.0241
  567TMC3    C2 8407   2.428   2.726  14.069 -0.1662  0.2888 -0.3186
  567TMC3    C3 8408   2.522   2.818  14.101 -0.2601  0.1951  0.8004
  567TMC3    C4 8409   2.479   2.612  14.271 -0.8516  0.0376 -0.0435
  567TMC3    C5 8410   2.568   2.714  14.296 -0.0575  0.2816 -1.0639
  567TMC3    C6 8411   2.592   2.819  14.214  0.1391  0.8596  0.4525
  567TMC3     C 8412   2.296   2.524  14.129 -0.7941 -0.0716 -0.0966
  567TMC3     O 8413   2.267   2.516  14.009 -0.0096  0.1830  0.2834
  567TMC3     H 8414   2.379   2.734  13.973 -0.5907  0.3184 -0.1042
  567TMC3    H1 8415   2.467   2.525  14.335 -3.0631 -0.1238 -0.7029
  567TMC3    H2 8416   2.626   2.914  14.254  1.9446  0.1485  0.5884
  567TMC3    C7 8417   2.648   2.715  14.418  0.7564 -0.4022  0.2141
  567TMC3    C8 8418   2.545   2.916  14.000 -0.0933 -0.5950 -0.7444
  567TMC3    O1 8419   2.740   2.794  14.426  0.4205  0.3081  0.2812
  567TMC3    O2 8420   2.450   2.943  13.930 -0.1804 -0.0256  0.2273
  568MPD2     C 8421   0.501   3.671  16.673 -0.3007  0.0116 -0.3921
  568MPD2    C1 8422   0.397   3.577  16.688 -0.7162  0.1326  0.0552
  568MPD2    C2 8423   0.286   3.585  16.605 -0.5790 -0.0099 -0.0304
  568MPD2    C3 8424   0.283   3.680  16.500 -0.1648  0.2043  0.5395
  568MPD2    C4 8425   0.394   3.765  16.479 -0.1539 -0.7304 -0.1992
  568MPD2    C5 8426   0.499   3.763  16.575 -0.3737 -0.8327  0.3251
  568MPD2     H 8427   0.201   3.517  16.605 -0.6087  0.0276  0.4732
  568MPD2    H1 8428   0.397   3.845  16.407  0.3213  0.6859  1.4030
  568MPD2    H2 8429   0.581   3.674  16.746 -1.9579  0.3426  1.3909
  568MPD2    H3 8430   0.583   3.830  16.568 -1.4173  0.5103  0.6938
  568MPD2     N 8431   0.172   3.676  16.418  0.1370  0.5541 -0.5723
  568MPD2    H5 8432   0.093   3.616  16.440  0.7468 -0.6547 -1.6412
  568MPD2    N1 8433   0.409   3.477  16.794 -0.0883  0.4853  0.6930
  568MPD2    H7 8434   0.501   3.467  16.836 -0.3461 -2.4692  0.6145
  569TMC3    C1 8435   0.022   3.748  16.256 -0.0168  0.2009 -0.3715
  569TMC3    C2 8436   4.650   3.799  16.348 -0.3507 -0.2425 -0.2998
  569TMC3    C3 8437   4.549   3.876  16.295  0.4315 -0.9274 -0.4073
  569TMC3    C4 8438   0.009   3.769  16.115 -0.7812  0.0539 -0.1503
  569TMC3    C5 8439   4.622   3.844  16.074 -0.0175  0.3285  0.6746
  569TMC3    C6 8440   4.533   3.894  16.163  0.2996 -0.1082  0.5235
  569TMC3     C 8441   0.160   3.747  16.302 -0.4206 -0.7578  0.2998
  569TMC3     O 8442   0.242   3.802  16.233 -0.3920  0.0613 -0.0167
  569TMC3     H 8443   4.664   3.778  16.453 -0.1200 -0.3368 -0.3487
  569TMC3    H1 8444   0.082   3.741  16.040 -0.0621  1.6482 -0.0609
  569TMC3    H2 8445   4.449   3.953  16.129  0.7073  0.4190  0.4297
  569TMC3    C7 8446   4.648   3.929  15.962  0.0176  0.6207  0.1385
  569TMC3    C8 8447   4.484   3.975  16.377  0.0886 -1.5266  0.0641
  569TMC3    O1 8448   4.663   3.882  15.850  0.8452 -0.6077 -0.0073
  569TMC3    O2 8449   4.393   4.036  16.324 -0.2259  0.0678 -0.3134
  570TMC3    C1 8450   3.964   2.030  16.205  0.6120 -0.6390 -0.2222
  570TMC3    C2 8451   4.052   2.051  16.104  1.2159 -0.3153 -0.3101
  570TMC3    C3 8452   4.136   2.160  16.110 -0.2447  0.1534 -0.9511
  570TMC3    C4 8453   3.964   2.116  16.313  0.0543  0.0545  0.1137
  570TMC3    C5 8454   4.045   2.227  16.318 -0.2316 -0.0017 -0.7190
  570TMC3    C6 8455   4.136   2.249  16.215  0.0486 -0.6777  0.4337
  570TMC3     C 8456   3.874   1.915  16.197  0.4311 -0.0795 -0.1782
  570TMC3     O 8457   3.865   1.840  16.100  0.0942 -0.1057  0.2633
  570TMC3     H 8458   4.063   1.978  16.024 -2.1041 -0.0640 -0.9805
  570TMC3    H1 8459   3.893   2.105  16.394 -0.9214 -4.5046 -1.3295
  570TMC3    H2 8460   4.213   2.324  16.230  0.8169 -1.0481 -1.6898
  570TMC3    C7 8461   3.999   2.339  16.403  0.3259  0.5533 -0.4156
  570TMC3    C8 8462   4.202   2.213  15.996 -0.1557  0.5067  1.3918
  570TMC3    O1 8463   3.918   2.324  16.490 -0.6860  0.3859  0.2013
  570TMC3    O2 8464   4.262   2.318  16.005  0.6402 -0.1629 -0.0102
  571MPD2     C 8465   2.308   3.408  17.511 -0.1429 -0.5755 -0.4613
  571MPD2    C1 8466   2.249   3.411  17.635 -0.3250 -0.1746  0.6007
  571MPD2    C2 8467   2.329   3.444   0.061  0.4810 -0.0590  0.6053
  571MPD2    C3 8468   2.466   3.465   0.039  0.0006  0.4222  0.5540
  571MPD2    C4 8469   2.523   3.450  17.608 -0.6582  0.6977  0.1578
  571MPD2    C5 8470   2.446   3.428  17.495 -0.4292  0.6654 -1.3200
  571MPD2     H 8471   2.290   3.446   0.162  2.0404 -2.1774  1.2624
  571MPD2    H1 8472   2.628   3.471  17.592 -0.3785 -1.3714 -0.6576
  571MPD2    H2 8473   2.244   3.365  17.434 -2.1938 -0.4706  1.1999
  571MPD2    H3 8474   2.495   3.410  17.399  0.4250  3.8413 -1.4858
  571MPD2     N 8475   2.562   3.508   0.133  0.6593  0.6001 -0.4125
  571MPD2    H5 8476   2.657   3.532   0.108  0.3418  1.2225 -1.0223
  571MPD2    N1 8477   2.113   3.406  17.653  0.0255 -0.2156 -0.5273
  571MPD2    H7 8478   2.062   3.385  17.567 -0.0224 -0.7787 -0.3662
  572TMC3    C1 8479   2.646   3.572   0.343 -0.0315  0.0389 -0.0163
  572TMC3    C2 8480   2.684   3.516   0.463  0.0684 -0.2489  0.2814
  572TMC3    C3 8481   2.777   3.582   0.538 -0.0273 -0.4912 -0.4213
  572TMC3    C4 8482   2.699   3.689   0.295 -0.0625 -0.4986 -0.3076
  572TMC3    C5 8483   2.764   3.768   0.387  0.2433 -0.6005  0.1952
  572TMC3    C6 8484   2.802   3.713   0.510  0.6538 -0.3956 -0.9903
  572TMC3     C 8485   2.538   3.515   0.271 -0.1540 -0.2326 -1.0843
  572TMC3     O 8486   2.446   3.465   0.331 -0.0987  0.0832  0.4200
  572TMC3     H 8487   2.640   3.420   0.489  1.2056 -0.4516  1.4712
  572TMC3    H1 8488   2.668   3.734   0.201 -1.3473 -0.1738  0.2648
  572TMC3    H2 8489   2.848   3.776   0.585 -0.3973 -0.9257  0.0812
  572TMC3    C7 8490   2.734   3.909   0.388 -0.0657  0.0482 -0.0777
  572TMC3    C8 8491   2.814   3.526   0.661  0.4617 -0.1943  0.5363
  572TMC3    O1 8492   2.698   3.951   0.492 -0.0681 -0.5841  0.5820
  572TMC3    O2 8493   2.918   3.572   0.707 -0.1476 -0.1676 -0.6074
  573MPD2     C 8494   3.810   3.980   1.171 -0.6769 -0.3607  0.0999
  573MPD2    C1 8495   3.725   4.057   1.246  0.3671  0.2429  0.0996
  573MPD2    C2 8496   3.652   4.162   1.186  0.8999  0.1089  0.2263
  573MPD2    C3 8497   3.661   4.191   1.051  0.5149  0.6185 -0.8008
  573MPD2    C4 8498   3.738   4.108   0.974 -0.6456 -0.1824  0.8237
  573MPD2    C5 8499   3.815   4.004   1.036  0.2094  0.8138  0.6117
  573MPD2     H 8500   3.585   4.231   1.237  0.1741  0.4655 -1.2156
  573MPD2    H1 8501   3.742   4.116   0.866  1.0155  1.2979  0.9974
  573MPD2    H2 8502   3.877   3.905   1.210 -0.0647  0.6234  0.9421
  573MPD2    H3 8503   3.872   3.942   0.968  0.6817  0.3751  1.4019
  573MPD2     N 8504   3.590   4.300   0.981 -0.3708  0.1842 -0.2932
  573MPD2    H5 8505   3.604   4.304   0.880  0.3703 -1.2443 -0.2529
  573MPD2    N1 8506   3.712   4.039   1.384 -0.2108  0.4910  0.6551
  573MPD2    H7 8507   3.772   3.969   1.428 -0.7213 -0.8385 -0.7616
  574TMC3    C1 8508   3.471   4.493   0.937  0.0863 -0.1947 -0.4446
  574TMC3    C2 8509   3.435   4.434   0.820 -0.1375  0.0729 -0.2167
  574TMC3    C3 8510   3.404   4.514   0.715 -0.2224  0.2619  0.1133
  574TMC3    C4 8511   3.476   4.629   0.958  0.5440 -0.5799 -0.0352
  574TMC3    C5 8512   3.454   4.705   0.842  0.2086  0.6515  0.1028
  574TMC3    C6 8513   3.413   4.651   0.726 -0.3059  0.2774 -0.1350
  574TMC3     C 8514   3.518   4.406   1.041  0.5946  0.6202  0.4956
  574TMC3     O 8515   3.538   4.449   1.154 -0.5453 -0.4484 -0.1462
  574TMC3     H 8516   3.419   4.327   0.809 -0.1418 -0.2011  2.4496
  574TMC3    H1 8517   3.529   4.676   1.040  0.2307 -1.3758  0.6145
  574TMC3    H2 8518   3.390   0.007   0.653  1.6084 -0.6616 -1.7369
  574TMC3    C7 8519   3.445   0.126   0.852  0.4960 -1.0328 -0.3061
  574TMC3    C8 8520   3.428   4.448   0.588  0.4093  0.1231  0.5974
  574TMC3    O1 8521   3.416   0.193   0.750  0.7322  0.3449 -0.2501
  574TMC3    O2 8522   3.505   4.352   0.583 -0.3816  0.1481 -0.4584
  575TMC3    C1 8523   0.745   0.762  10.053 -0.1417  0.4638  0.4266
  575TMC3    C2 8524   0.764   0.636  10.120  0.6672  0.4223 -0.1849
  575TMC3    C3 8525   0.651   0.563  10.148  0.3533 -0.1794  0.2483
  575TMC3    C4 8526   0.620   0.806  10.015  1.0352 -0.2771 -0.4048
  575TMC3    C5 8527   0.508   0.725  10.052 -0.3396 -0.0516  0.1591
  575TMC3    C6 8528   0.526   0.601  10.110 -0.5971  0.0857  0.2853
  575TMC3     C 8529   0.856   0.853  10.039 -0.7761 -0.3499 -0.2465
  575TMC3     O 8530   0.957   0.822  10.092 -0.0130 -0.1051 -0.3908
  575TMC3     H 8531   0.862   0.601  10.153 -0.2290 -0.9676  1.0164
  575TMC3    H1 8532   0.602   0.898   9.960  0.9202  1.4705  2.5575
  575TMC3    H2 8533   0.448   0.526  10.108 -0.6120  0.0438  2.1255
  575TMC3    C7 8534   0.377   0.770   9.999 -0.3702 -0.0008  0.1734
  575TMC3    C8 8535   0.648   0.450  10.240 -0.4530 -0.5247 -0.3253
  575TMC3    O1 8536   0.370   0.858   9.914 -0.0796 -0.3981 -0.5598
  575TMC3    O2 8537   0.544   0.432  10.299  0.1153 -0.0336 -0.1799
  576MPD2     C 8538   0.709   1.921  12.523  0.5777  0.0172  0.0056
  576MPD2    C1 8539   0.762   2.048  12.481 -0.4222 -0.3721  0.3267
  576MPD2    C2 8540   0.738   2.160  12.549 -0.0253  0.0318  0.3542
  576MPD2    C3 8541   0.667   2.159  12.667  0.3054 -0.0498 -0.1691
  576MPD2    C4 8542   0.611   2.038  12.700 -0.0503 -0.2891  0.1170
  576MPD2    C5 8543   0.645   1.921  12.635 -0.4341  0.8325  0.2648
  576MPD2     H 8544   0.789   2.253  12.525  0.7661 -1.0091 -2.0509
  576MPD2    H1 8545   0.548   2.034  12.788 -0.6614 -0.8263 -0.3442
  576MPD2    H2 8546   0.736   1.825  12.480  1.1595  0.1645  0.0398
  576MPD2    H3 8547   0.612   1.823  12.671  0.3203 -0.1607 -1.7726
  576MPD2     N 8548   0.647   2.279  12.744  0.0914  0.2654  0.8468
  576MPD2    H5 8549   0.698   2.355  12.702 -0.0592 -0.2073 -0.1914
  576MPD2    N1 8550   0.835   2.064  12.363 -0.0321 -0.0914 -0.2519
  576MPD2    H7 8551   0.868   2.159  12.350  0.9008 -0.3330  0.3839
  577TMC3    C1 8552   0.933   2.005  12.162 -0.0442  0.6113 -0.2773
  577TMC3    C2 8553   0.959   1.908  12.072  0.2005  0.1257  0.5208
  577TMC3    C3 8554   1.033   1.937  11.959 -0.0901 -0.2838  0.5675
  577TMC3    C4 8555   0.964   2.135  12.141 -0.7424 -0.3550 -0.1648
  577TMC3    C5 8556   1.038   2.165  12.031 -0.2722 -0.3333  0.4332
  577TMC3    C6 8557   1.079   2.066  11.945 -0.6897 -0.0634  0.2418
  577TMC3     C 8558   0.854   1.964  12.274 -0.0701  0.4229 -0.0759
  577TMC3     O 8559   0.808   1.852  12.263  0.0956 -0.3054 -0.1270
  577TMC3     H 8560   0.941   1.803  12.090  0.4435  0.4878  2.7949
  577TMC3    H1 8561   0.937   2.213  12.211  1.0798  0.1650 -0.0452
  577TMC3    H2 8562   1.145   2.098  11.865 -1.9866 -0.1320 -0.8623
  577TMC3    C7 8563   1.087   2.301  12.026 -0.3222  0.0785 -1.1633
  577TMC3    C8 8564   1.041   1.836  11.862  0.3186 -0.1650  0.5091
  577TMC3    O1 8565   1.132   2.341  12.137 -0.0106 -0.1890 -0.2012
  577TMC3    O2 8566   1.023   1.721  11.897 -0.8082 -0.0131 -0.2413
  578MPD2     C 8567   2.898   2.092   1.412  0.2171 -0.2765  0.1269
  578MPD2    C1 8568   2.984   2.073   1.304  0.0057  0.7399  0.3297
  578MPD2    C2 8569   3.097   1.986   1.327 -0.1902  0.1002 -0.2331
  578MPD2    C3 8570   3.125   1.922   1.442 -0.8725 -0.2047  0.2393
  578MPD2    C4 8571   3.035   1.942   1.545 -0.1162  0.2875  0.0209
  578MPD2    C5 8572   2.922   2.023   1.525 -0.1916  0.2651  0.3100
  578MPD2     H 8573   3.169   1.960   1.250 -1.3175  0.9363 -1.5635
  578MPD2    H1 8574   3.027   1.885   1.637  1.9375 -2.4511 -1.5245
  578MPD2    H2 8575   2.810   2.155   1.417  2.1245  2.4120 -0.0770
  578MPD2    H3 8576   2.847   2.022   1.603 -0.3125  2.3248  0.2045
  578MPD2     N 8577   3.250   1.855   1.458 -0.6161  0.1692  0.5366
  578MPD2    H5 8578   3.314   1.840   1.380 -1.7449 -0.1272 -0.3249
  578MPD2    N1 8579   2.964   2.139   1.181 -0.1100  0.1395 -0.0058
  578MPD2    H7 8580   2.884   2.200   1.180 -1.2937 -1.4137  0.4871
  579TMC3    C1 8581   3.424   1.747   1.559  0.3403 -0.4874 -0.9219
  579TMC3    C2 8582   3.517   1.797   1.641 -0.8889 -1.0927  0.5027
  579TMC3    C3 8583   3.645   1.775   1.616 -0.0553  0.2794 -0.2857
  579TMC3    C4 8584   3.456   1.684   1.441  0.2973  0.3881 -0.4883
  579TMC3    C5 8585   3.588   1.681   1.413  0.3703 -0.2254  0.2053
  579TMC3    C6 8586   3.689   1.716   1.498 -0.5153  0.0963 -0.1609
  579TMC3     C 8587   3.288   1.804   1.580 -0.5391  0.8078  0.2511
  579TMC3     O 8588   3.243   1.816   1.695  0.1121  0.2681 -0.1505
  579TMC3     H 8589   3.489   1.849   1.732  1.4439 -0.4327  0.8308
  579TMC3    H1 8590   3.378   1.648   1.375 -2.0848 -0.4729  2.7645
  579TMC3    H2 8591   3.791   1.706   1.461 -0.6746 -1.1792 -0.2435
  579TMC3    C7 8592   3.621   1.598   1.297 -0.2395  0.2858  0.1360
  579TMC3    C8 8593   3.735   1.825   1.720  0.2332  0.0216  0.8541
  579TMC3    O1 8594   3.726   1.540   1.301 -0.1808  0.0298  0.2480
  579TMC3    O2 8595   3.695   1.830   1.835 -0.1534  0.9897 -0.4968
  580TMC3    C1 8596   3.014   1.186  12.170 -0.0393  0.3849 -0.6936
  580TMC3    C2 8597   3.031   1.137  12.045 -0.1277 -0.3054 -0.1029
  580TMC3    C3 8598   3.120   1.040  12.018  0.9722  0.2647 -0.2847
  580TMC3    C4 8599   3.069   1.119  12.276  0.0435 -0.5194  0.9235
  580TMC3    C5 8600   3.161   1.028  12.245 -0.0474  0.2942 -0.2110
  580TMC3    C6 8601   3.195   0.983  12.121  0.1720 -0.1741  0.1916
  580TMC3     C 8602   3.060   1.321  12.171 -0.3429  0.5829  0.1039
  580TMC3     O 8603   3.016   1.387  12.077  0.0718 -0.0260 -0.2893
  580TMC3     H 8604   2.973   1.182  11.965  2.2095 -0.4640 -1.9313
  580TMC3    H1 8605   3.043   1.132  12.381  2.2282 -0.0676  1.4053
  580TMC3    H2 8606   3.267   0.906  12.099 -0.0799 -0.4036  0.1649
  580TMC3    C7 8607   3.238   0.976  12.355 -0.6808 -0.2100  0.3216
  580TMC3    C8 8608   3.196   1.089  11.912 -0.2020 -0.1567 -0.5378
  580TMC3    O1 8609   3.250   1.046  12.455 -0.5770  0.3115 -0.6776
  580TMC3    O2 8610   3.141   1.102  11.802  0.1909  0.0625  0.2171
  581MPD2     C 8611   1.197   1.151  15.157  0.1957 -0.0201  0.8191
  581MPD2    C1 8612   1.133   1.175  15.275 -0.1921 -0.0435 -1.0653
  581MPD2    C2 8613   0.997   1.169  15.272  0.4553  0.1863 -0.4006
  581MPD2    C3 8614   0.920   1.134  15.164  1.1636 -0.2568  0.0641
  581MPD2    C4 8615   0.990   1.097  15.050  0.4600  0.1526 -0.4539
  581MPD2    C5 8616   1.127   1.115  15.045  0.8235  0.0186  0.1267
  581MPD2     H 8617   0.948   1.196  15.365 -1.0102 -0.6401 -0.9413
  581MPD2    H1 8618   0.945   1.069  14.956 -3.1406  0.3375  1.2202
  581MPD2    H2 8619   1.305   1.150  15.153  0.1298 -3.7314  0.2351
  581MPD2    H3 8620   1.180   1.104  14.950  1.1240  1.4226  0.1314
  581MPD2     N 8621   0.781   1.150  15.167  0.1113  0.1881  0.5926
  581MPD2    H5 8622   0.744   1.196  15.249 -0.3859  2.3282 -0.8272
  581MPD2    N1 8623   1.199   1.203  15.395  0.5195 -0.7211 -0.1470
  581MPD2    H7 8624   1.299   1.218  15.387  0.3419 -0.3089 -1.6802
  582TMC3    C1 8625   1.267   1.133  15.600  0.4724  0.5451 -0.0616
  582TMC3    C2 8626   1.246   1.120  15.733 -0.2335 -0.2697  0.2010
  582TMC3    C3 8627   1.305   1.014  15.794  0.0983 -0.4463 -0.9350
  582TMC3    C4 8628   1.320   1.031  15.528  0.6834  0.7056  0.2412
  582TMC3    C5 8629   1.353   0.917  15.595 -0.6414 -0.1673 -0.3157
  582TMC3    C6 8630   1.362   0.906  15.728 -0.0464 -0.3136 -0.1908
  582TMC3     C 8631   1.156   1.183  15.522 -0.9355 -0.1178 -0.0194
  582TMC3     O 8632   1.044   1.170  15.567 -0.0006 -0.2015 -0.1560
  582TMC3     H 8633   1.212   1.206  15.791 -0.8107 -0.4168  0.0770
  582TMC3    H1 8634   1.339   1.041  15.422  1.2418 -1.1235  0.1677
  582TMC3    H2 8635   1.384   0.813  15.778  1.4799 -0.5793 -1.3790
  582TMC3    C7 8636   1.408   0.810  15.516  0.6626 -0.6146 -0.1740
  582TMC3    C8 8637   1.292   1.014  15.937  0.2024 -0.1138  0.3165
  582TMC3    O1 8638   1.509   0.759  15.570  0.3588  0.2069  0.2112
  582TMC3    O2 8639   1.254   1.118  15.984  0.1618 -0.0920 -0.9646
  583MPD2     C 8640   1.117   2.655  16.727 -0.8803  0.2155  0.3876
  583MPD2    C1 8641   1.094   2.786  16.696  0.5031  0.3091 -0.3696
  583MPD2    C2 8642   1.062   2.884  16.789 -0.6831 -0.2184  0.0508
  583MPD2    C3 8643   1.065   2.852  16.925  0.6761  0.7377  0.2454
  583MPD2    C4 8644   1.089   2.710  16.956 -0.7218 -0.2010  0.3865
  583MPD2    C5 8645   1.110   2.618  16.859  0.7825 -0.4354 -0.4054
  583MPD2     H 8646   1.052   2.983  16.746  1.9012  0.1628  0.3389
  583MPD2    H1 8647   1.085   2.668  17.056 -0.3627 -2.3454 -0.4938
  583MPD2    H2 8648   1.135   2.587  16.645 -1.0545 -0.4237  0.8880
  583MPD2    H3 8649   1.125   2.515  16.890 -1.1826 -0.6073 -0.0279
  583MPD2     N 8650   1.029   2.948  17.027 -0.8355  0.0465  0.0885
  583MPD2    H5 8651   1.010   3.043  16.998  0.5203  0.2878 -0.0146
  583MPD2    N1 8652   1.110   2.830  16.566 -0.1168  0.4216 -0.8617
  583MPD2    H7 8653   1.129   2.928  16.549  3.1769  0.0327  0.5365
  584TMC3    C1 8654   0.938   3.009  17.244  0.2089  0.7237 -0.5065
  584TMC3    C2 8655   0.908   3.132  17.189 -0.1659 -0.5154 -0.5065
  584TMC3    C3 8656   0.898   3.233  17.273 -0.6208 -0.3814 -0.5541
  584TMC3    C4 8657   0.940   2.990  17.379 -0.1539  0.3676 -0.0249
  584TMC3    C5 8658   0.937   3.100  17.456 -0.2799  0.4069  0.1540
  584TMC3    C6 8659   0.925   3.226  17.406  0.2772 -0.1763  0.4996
  584TMC3     C 8660   1.013   2.916  17.161 -0.4482 -0.2266 -0.8977
  584TMC3     O 8661   1.054   2.823  17.229 -0.7758  0.9129  0.3205
  584TMC3     H 8662   0.894   3.134  17.081  0.1565  1.1884 -0.5140
  584TMC3    H1 8663   0.962   2.894  17.424 -1.3798  0.1826  0.1824
  584TMC3    H2 8664   0.927   3.317  17.464 -0.7917  0.4308 -0.4355
  584TMC3    C7 8665   0.934   3.086  17.593 -0.8160  0.0974 -0.0520
  584TMC3    C8 8666   0.888   3.369  17.214  0.0820 -0.2064  0.7951
  584TMC3    O1 8667   0.987   2.984  17.634  0.0218  0.1758 -0.0397
  584TMC3    O2 8668   0.817   3.381  17.112  0.0257 -0.1746 -0.1561
  585MPD2     C 8669   1.014   1.881   0.551  0.2021  0.0539  0.4236
  585MPD2    C1 8670   0.881   1.890   0.567  0.4377 -0.0122 -0.6030
  585MPD2    C2 8671   0.796   1.800   0.505  0.5928 -0.1588 -0.1913
  585MPD2    C3 8672   0.844   1.713   0.412  0.2708  0.0414 -0.0282
  585MPD2    C4 8673   0.981   1.690   0.415 -0.2867  0.2247 -0.0187
  585MPD2    C5 8674   1.065   1.773   0.480 -0.2610  0.1315  0.1443
  585MPD2     H 8675   0.689   1.811   0.519  0.7130  0.3574  0.3460
  585MPD2    H1 8676   1.020   1.610   0.354 -3.8561 -0.7775 -1.0314
  585MPD2    H2 8677   1.082   1.947   0.603 -0.1859  0.3010  0.6196
  585MPD2    H3 8678   1.172   1.763   0.464 -0.7606 -0.3844 -2.8848
  585MPD2     N 8679   0.765   1.626   0.330  0.1545  0.0038  0.3333
  585MPD2    H5 8680   0.812   1.561   0.268  0.9839 -0.2849  1.2750
  585MPD2    N1 8681   0.833   1.998   0.642  0.0672 -0.4730  0.4290
  585MPD2    H7 8682   0.900   2.062   0.680  1.1987 -2.3195  1.5502
  586TMC3    C1 8683   0.574   1.544   0.221  0.0695  0.3527 -0.5788
  586TMC3    C2 8684   0.633   1.418   0.205 -0.5995 -0.1866  0.2714
  586TMC3    C3 8685   0.558   1.317   0.145 -0.1936 -0.2764 -0.4545
  586TMC3    C4 8686   0.449   1.569   0.168  0.3630  0.2016  0.0971
  586TMC3    C5 8687   0.380   1.465   0.109 -0.6304  0.2995 -0.4082
  586TMC3    C6 8688   0.430   1.342   0.103 -0.7652  0.4125 -0.3163
  586TMC3     C 8689   0.624   1.634   0.318  0.3128 -0.2070 -0.3714
  586TMC3     O 8690   0.545   1.708   0.369  0.0068  0.3116  0.2357
  586TMC3     H 8691   0.738   1.411   0.230 -0.2134  0.3554 -1.1897
  586TMC3    H1 8692   0.412   1.671   0.159  0.8682  0.1109 -3.3186
  586TMC3    H2 8693   0.384   1.275   0.031 -0.8614 -1.0208  1.0562
  586TMC3    C7 8694   0.240   1.479   0.075 -0.1185 -0.7302  0.7389
  586TMC3    C8 8695   0.615   1.189   0.127 -0.1541 -0.0088 -0.5223
  586TMC3    O1 8696   0.158   1.392   0.090 -0.0137  0.5400  0.5584
  586TMC3    O2 8697   0.558   1.121   0.044 -0.5534  0.2598 -0.1602
  587TMC3    C1 8698   2.805   0.066  16.777 -0.5115  0.1412  0.1064
  587TMC3    C2 8699   2.706   0.119  16.863  0.0951  0.2375 -0.1813
  587TMC3    C3 8700   2.738   0.103  16.992  0.2359 -0.2124  0.1414
  587TMC3    C4 8701   2.912   0.001  16.815 -0.4670  0.4358  0.5348
  587TMC3    C5 8702   2.954   0.019  16.946  0.4372  0.7319 -0.1799
  587TMC3    C6 8703   2.862   0.062  17.038  0.7266  0.6554 -0.3307
  587TMC3     C 8704   2.812   0.112  16.642  0.0388  0.2350  0.2247
  587TMC3     O 8705   2.921   0.120  16.585 -0.6700 -0.3293 -0.1750
  587TMC3     H 8706   2.609   0.154  16.832  0.6755 -0.0540 -2.3205
  587TMC3    H1 8707   2.990   4.686  16.749  0.3841  0.3755  1.5710
  587TMC3    H2 8708   2.892   0.056  17.142 -1.1261 -0.9062  0.1089
  587TMC3    C7 8709   3.060   4.653  17.002 -0.0652 -0.1208  0.2739
  587TMC3    C8 8710   2.656   0.121  17.108  0.3182  0.6573 -0.8221
  587TMC3    O1 8711   3.085   4.549  16.939 -0.1182  0.5344 -0.8263
  587TMC3    O2 8712   2.709   0.145  17.215  0.1484  0.2078 -0.0018
  588TMC3    C1 8713   0.534   3.203   9.686 -0.5538  0.1954 -0.1364
  588TMC3    C2 8714   0.445   3.133   9.765 -0.5438 -0.2407  0.0737
  588TMC3    C3 8715   0.503   3.073   9.876 -1.1115  0.0564 -0.1336
  588TMC3    C4 8716   0.658   3.231   9.732 -0.3496  0.0471 -0.4179
  588TMC3    C5 8717   0.720   3.159   9.836 -0.0358 -0.6463  0.3707
  588TMC3    C6 8718   0.644   3.068   9.908  0.3380 -0.8479  0.1270
  588TMC3     C 8719   0.467   3.304   9.607 -0.4978 -0.1942 -0.4448
  588TMC3     O 8720   0.400   3.272   9.510  0.0015  0.2769 -0.0021
  588TMC3     H 8721   0.346   3.113   9.725 -0.8340  0.3650  0.5125
  588TMC3    H1 8722   0.723   3.296   9.674  0.0111 -0.0096 -0.0768
  588TMC3    H2 8723   0.690   3.031   9.998  2.1490 -1.1031 -0.9101
  588TMC3    C7 8724   0.829   3.229   9.901 -0.4300 -0.1512 -0.0821
  588TMC3    C8 8725   0.410   2.995   9.956 -0.5026 -1.1447  0.5321
  588TMC3    O1 8726   0.929   3.163   9.931 -0.5420 -0.1048  0.5058
  588TMC3    O2 8727   0.292   3.021   9.921  0.7834 -0.2650 -0.4451
  589TMC3    C1 8728   3.754   0.788   1.538  0.1755  0.1599 -0.3825
  589TMC3    C2 8729   3.801   0.905   1.595  0.1898  0.2089  0.4810
  589TMC3    C3 8730   3.924   0.896   1.661 -0.5581 -0.3984  0.2037
  589TMC3    C4 8731   3.830   0.676   1.527  0.0998  0.3354  0.5331
  589TMC3    C5 8732   3.947   0.669   1.610 -0.9759 -0.1997 -0.1515
  589TMC3    C6 8733   3.998   0.781   1.671  0.0451 -0.1173  0.2228
  589TMC3     C 8734   3.628   0.791   1.463  0.0565 -0.0552  0.1255
  589TMC3     O 8735   3.607   0.701   1.386 -0.2706  0.0340 -0.1669
  589TMC3     H 8736   3.742   0.996   1.584 -2.7625 -1.8117 -0.3644
  589TMC3    H1 8737   3.787   0.587   1.482  0.5864  0.8356 -0.9305
  589TMC3    H2 8738   4.086   0.782   1.734  0.4324  1.0166 -0.3425
  589TMC3    C7 8739   4.019   0.541   1.619 -0.5484 -0.0552 -0.8561
  589TMC3    C8 8740   3.991   1.019   1.674  0.4528 -0.2002 -0.0746
  589TMC3    O1 8741   3.995   0.448   1.537 -0.0837  0.0454 -0.0041
  589TMC3    O2 8742   3.925   1.114   1.686 -0.3575  0.1122  0.2561
  590MPD2     C 8743   3.628   3.164  16.654 -0.0644  0.1151  0.7789
  590MPD2    C1 8744   3.543   3.274  16.635 -0.0407 -0.3823  0.1603
  590MPD2    C2 8745   3.597   3.389  16.579 -0.2744  0.5120 -0.2686
  590MPD2    C3 8746   3.733   3.400  16.544  0.7166  0.5119  0.1045
  590MPD2    C4 8747   3.812   3.288  16.564 -0.2495 -0.6189 -0.5535
  590MPD2    C5 8748   3.757   3.170  16.615 -0.0047  0.1465  0.3588
  590MPD2     H 8749   3.542   3.482  16.574 -1.8655 -0.4166 -0.3742
  590MPD2    H1 8750   3.912   3.280  16.524  0.2624 -1.1262  0.8043
  590MPD2    H2 8751   3.598   3.066  16.690  0.4058 -0.0814  0.6387
  590MPD2    H3 8752   3.825   3.085  16.623 -0.2218 -0.0604 -0.0142
  590MPD2     N 8753   3.774   3.531  16.505  0.4493 -0.1703 -0.6018
  590MPD2    H5 8754   3.700   3.600  16.515 -0.3185 -0.9853 -0.6903
  590MPD2    N1 8755   3.406   3.258  16.672  0.0106 -0.4995 -0.2536
  590MPD2    H7 8756   3.369   3.164  16.681 -2.4407  0.2929 -1.7065
  591TMC3    C1 8757   3.919   3.707  16.435 -0.0165  0.4894  0.3808
  591TMC3    C2 8758   4.020   3.745  16.353 -0.5944 -0.2746  0.3007
  591TMC3    C3 8759   4.009   3.857  16.272  0.0031  0.3895  0.3266
  591TMC3    C4 8760   3.820   3.793  16.446 -0.2682  0.3841 -0.3280
  591TMC3    C5 8761   3.807   3.909  16.371 -0.1193  0.4072  0.3508
  591TMC3    C6 8762   3.907   3.942  16.287 -0.1593 -0.1987 -0.9130
  591TMC3     C 8763   3.899   3.566  16.473 -0.1508 -0.7750 -0.5431
  591TMC3     O 8764   3.997   3.492  16.483  0.1874  0.4405 -0.1010
  591TMC3     H 8765   4.092   3.669  16.328 -1.0851 -0.5031 -0.4106
  591TMC3    H1 8766   3.740   3.769  16.515 -0.7617  3.4175  0.1472
  591TMC3    H2 8767   3.894   4.025  16.218 -0.4983 -0.8470 -1.6354
  591TMC3    C7 8768   3.674   3.975  16.375  0.3994  0.0670 -0.1624
  591TMC3    C8 8769   4.081   3.839  16.145  0.6802 -0.2724  0.0142
  591TMC3    O1 8770   3.581   3.907  16.417 -0.0231  0.7400  0.1204
  591TMC3    O2 8771   4.091   3.723  16.101  0.1132 -0.6128 -0.0085
  592MPD2     C 8772   4.428   0.965  11.339  0.0216  0.0230  0.2116
  592MPD2    C1 8773   4.387   1.014  11.462  0.1737 -0.8147  0.3137
  592MPD2    C2 8774   4.311   0.934  11.551 -0.1762  0.2517  0.3008
  592MPD2    C3 8775   4.265   0.820  11.506 -0.1222  0.0950 -0.7245
  592MPD2    C4 8776   4.288   0.773  11.377  0.1131  0.2277 -0.5080
  592MPD2    C5 8777   4.378   0.844  11.302 -0.1112  0.8231 -0.3058
  592MPD2     H 8778   4.303   0.958  11.656 -0.8643 -0.1830  0.3419
  592MPD2    H1 8779   4.237   0.690  11.331  0.2412  0.4680 -1.0822
  592MPD2    H2 8780   4.498   1.020  11.276 -0.0108  0.9452  0.9773
  592MPD2    H3 8781   4.405   0.805  11.204 -1.4675  0.9167 -0.7139
  592MPD2     N 8782   4.184   0.749  11.589  0.1831  0.1129 -0.3220
  592MPD2    H5 8783   4.150   0.805  11.666 -0.1192 -0.2158 -0.2183
  592MPD2    N1 8784   4.437   1.148  11.497 -0.5001  0.3900 -0.3561
  592MPD2    H7 8785   4.503   1.181  11.428 -2.2410  2.1819 -1.1642
  593TMC3    C1 8786   4.484   1.346  11.620  0.2414 -0.0389  0.1317
  593TMC3    C2 8787   4.468   1.408  11.741  0.0659 -0.3414 -0.8013
  593TMC3    C3 8788   4.521   1.532  11.746 -0.1378 -0.3907  0.5854
  593TMC3    C4 8789   4.545   1.408  11.518 -0.2865 -0.2858 -0.2638
  593TMC3    C5 8790   4.588   1.535  11.534 -0.4544  0.0653 -0.4007
  593TMC3    C6 8791   4.578   1.599  11.650  0.3240  0.7655 -0.7197
  593TMC3     C 8792   4.410   1.217  11.604  0.1269  0.7267 -0.2516
  593TMC3     O 8793   4.322   1.187  11.688  0.2228 -0.5152  0.4829
  593TMC3     H 8794   4.435   1.344  11.822 -1.8710 -0.8649 -2.0165
  593TMC3    H1 8795   4.552   1.363  11.419 -0.1215 -1.8525  0.4652
  593TMC3    H2 8796   4.590   1.707  11.652  1.6773  0.6088 -0.7267
  593TMC3    C7 8797   4.661   1.618  11.436 -0.8397 -0.7877 -0.1266
  593TMC3    C8 8798   4.545   1.571  11.888  0.2309  0.3857  0.1907
  593TMC3    O1 8799   4.715   1.717  11.478  0.4521  0.0360 -0.3648
  593TMC3    O2 8800   4.501   1.490  11.972 -0.3754 -0.4170 -0.4258
  594MPD2     C 8801   2.829   4.045  14.222 -0.4017 -0.1162 -0.4950
  594MPD2    C1 8802   2.777   4.106  14.341 -0.3803 -0.1464 -0.2005
  594MPD2    C2 8803   2.823   4.227  14.386 -0.4981 -0.2097  0.1135
  594MPD2    C3 8804   2.903   4.302  14.300 -0.2074  0.0079 -0.2404
  594MPD2    C4 8805   2.941   4.254  14.176  0.3200 -0.1120  0.7263
  594MPD2    C5 8806   2.907   4.124  14.133  0.2751  0.5673  0.4968
  594MPD2     H 8807   2.798   4.270  14.482  0.5432  0.8430 -0.0812
  594MPD2    H1 8808   3.006   4.310  14.109 -1.1056  1.9501  1.0908
  594MPD2    H2 8809   2.785   3.955  14.180 -1.7383  0.8155 -1.0945
  594MPD2    H3 8810   2.925   4.086  14.033  0.3693  2.1242 -0.0896
  594MPD2     N 8811   2.947   4.432  14.339  0.3049 -0.1120  0.9280
  594MPD2    H5 8812   2.914   4.456  14.432  0.7414  1.7891  0.5897
  594MPD2    N1 8813   2.669   4.032  14.404  0.2784  0.5145 -0.6384
  594MPD2    H7 8814   2.646   3.942  14.363 -0.5227  0.7748 -0.7566
  595TMC3    C1 8815   3.309   4.705  14.389 -0.0234  0.5029 -0.6741
  595TMC3    C2 8816   3.219   4.600  14.382 -0.0849  1.3072  1.2421
  595TMC3    C3 8817   3.086   4.618  14.355  0.4923 -0.0559 -0.4820
  595TMC3    C4 8818   3.263   0.111  14.359 -0.5573  0.5976 -0.1095
  595TMC3    C5 8819   3.132   0.122  14.321 -0.3888 -0.4076 -0.7692
  595TMC3    C6 8820   3.042   0.021  14.328 -0.4428  0.1779  0.2606
  595TMC3     C 8821   3.435   4.691  14.464 -0.4071  0.6767  0.1389
  595TMC3     O 8822   3.480   0.066  14.516 -0.1785 -0.4946 -0.4477
  595TMC3     H 8823   3.251   4.500  14.407  1.6087  1.2968 -0.9767
  595TMC3    H1 8824   3.322   0.196  14.389 -1.7710  0.5944  2.2802
  595TMC3    H2 8825   2.950   0.028  14.272 -1.0633 -1.1436  1.1249
  595TMC3    C7 8826   3.078   0.248  14.261  0.2179 -0.3674 -0.7446
  595TMC3    C8 8827   3.032   4.518  14.270  0.8472  0.2745 -0.2820
  595TMC3    O1 8828   2.955   0.257  14.235 -0.1913  0.1925  0.1426
  595TMC3    O2 8829   3.078   4.515  14.153  0.5819  0.5220 -0.0705
  596MPD2     C 8830   1.862   2.560  16.672 -0.4499  0.6337 -0.2804
  596MPD2    C1 8831   1.855   2.685  16.616 -0.1684 -0.0104 -0.9201
  596MPD2    C2 8832   1.834   2.697  16.483  0.8964 -0.4012 -0.7526
  596MPD2    C3 8833   1.814   2.581  16.402  0.3668  0.3269  0.1196
  596MPD2    C4 8834   1.821   2.463  16.463 -0.4716 -0.2166  0.3023
  596MPD2    C5 8835   1.841   2.451  16.594  0.0410 -0.5350 -0.3083
  596MPD2     H 8836   1.836   2.799  16.448 -0.2513 -0.3517 -0.6565
  596MPD2    H1 8837   1.812   2.370  16.407  1.2156  0.6289 -1.3385
  596MPD2    H2 8838   1.896   2.547  16.774 -1.1787 -1.5031 -0.3019
  596MPD2    H3 8839   1.870   2.355  16.636  4.5020  0.5324 -0.9154
  596MPD2     N 8840   1.790   2.589  16.261 -0.0490 -0.0067  0.6378
  596MPD2    H5 8841   1.753   2.507  16.215 -0.6411  0.6848 -0.1144
  596MPD2    N1 8842   1.862   2.808  16.686  0.3483  0.7048 -0.4282
  596MPD2    H7 8843   1.861   2.897  16.637  1.4300  0.6718 -0.5271
  597TMC3    C1 8844   1.864   2.946  16.870 -0.4990  0.0830  0.0092
  597TMC3    C2 8845   1.939   3.030  16.796 -0.5559  0.2423  0.0616
  597TMC3    C3 8846   1.945   3.161  16.829  0.0248  0.1406 -0.2448
  597TMC3    C4 8847   1.809   2.978  16.988 -0.1670 -0.4924  0.1723
  597TMC3    C5 8848   1.810   3.113  17.020 -0.0352 -0.6573 -0.2215
  597TMC3    C6 8849   1.865   3.208  16.933  0.6293 -0.0372 -0.3560
  597TMC3     C 8850   1.849   2.806  16.821 -0.1175  0.9973 -0.0160
  597TMC3     O 8851   1.813   2.724  16.903  0.1162 -0.2062 -0.2874
  597TMC3     H 8852   1.999   2.993  16.713  0.2315 -1.2779  1.2941
  597TMC3    H1 8853   1.743   2.913  17.044  1.9903 -2.9568 -0.1203
  597TMC3    H2 8854   1.871   3.315  16.949  1.2864 -0.3051  1.1709
  597TMC3    C7 8855   1.682   3.148  17.098 -0.7758 -0.4837  0.0951
  597TMC3    C8 8856   1.987   3.262  16.730 -0.3588 -0.1844 -0.4182
  597TMC3    O1 8857   1.612   3.057  17.141 -0.0031  0.1369  0.3307
  597TMC3    O2 8858   1.914   3.361  16.724  0.1616 -0.1381 -0.5172
  598TMC3    C1 8859   0.278   4.224  15.489  0.3192  0.0415  0.2138
  598TMC3    C2 8860   0.255   4.089  15.475  0.0071 -0.3165 -0.0891
  598TMC3    C3 8861   0.176   4.045  15.366 -0.5036 -0.4280  0.0647
  598TMC3    C4 8862   0.246   4.314  15.387  0.0293 -0.0705 -0.5113
  598TMC3    C5 8863   0.188   4.264  15.270  0.5630  0.1087 -0.0606
  598TMC3    C6 8864   0.142   4.132  15.264 -0.3066 -0.5939 -0.3999
  598TMC3     C 8865   0.319   4.289  15.613  0.0278 -0.0429 -0.8019
  598TMC3     O 8866   0.381   4.391  15.596  0.1828  0.2222  0.2430
  598TMC3     H 8867   0.301   4.023  15.547  1.8015  1.3915  0.3317
  598TMC3    H1 8868   0.258   4.421  15.398 -1.7255  0.3055 -2.2725
  598TMC3    H2 8869   0.079   4.093  15.185 -1.3166  0.7655 -0.2731
  598TMC3    C7 8870   0.183   4.342  15.154  0.2872 -0.5524 -0.2567
  598TMC3    C8 8871   0.132   3.904  15.344  0.3217  0.2531  0.2011
  598TMC3    O1 8872   0.089   4.314  15.078  0.6145 -0.3045 -0.1312
  598TMC3    O2 8873   0.099   3.869  15.232 -0.0698  0.0272  0.0731
  599MPD2     C 8874   0.209   1.641  16.173 -0.1132  0.3058  0.6796
  599MPD2    C1 8875   0.157   1.594  16.293 -0.0111  0.3824 -0.1244
  599MPD2    C2 8876   0.021   1.603  16.311  0.6472 -0.2787  0.0544
  599MPD2    C3 8877   4.665   1.661  16.211  0.3097 -0.4264 -0.0687
  599MPD2    C4 8878   4.720   1.726  16.101 -0.0367  0.4091 -0.6270
  599MPD2    C5 8879   0.134   1.705  16.079  0.5082  0.5292  0.2983
  599MPD2     H 8880   4.689   1.564  16.397 -0.9555  0.0586 -0.7767
  599MPD2    H1 8881   4.666   1.786  16.028 -0.1752 -0.2748 -1.0846
  599MPD2    H2 8882   0.314   1.628  16.147 -0.5059  0.7950 -1.1807
  599MPD2    H3 8883   0.185   1.726  15.986  0.0153 -4.4433 -1.0758
  599MPD2     N 8884   4.525   1.681  16.226  0.6711  0.0224  0.3134
  599MPD2    H5 8885   4.476   1.744  16.164 -1.3844  0.9161  2.8593
  599MPD2    N1 8886   0.235   1.521  16.382 -0.3610  0.1918  0.1343
  599MPD2    H7 8887   0.326   1.503  16.339  0.7817  2.3293  1.6906
  600TMC3    C1 8888   4.314   1.685  16.329 -0.3988 -0.0179 -0.0281
  600TMC3    C2 8889   4.206   1.610  16.367  0.4591  0.7914  0.8197
  600TMC3    C3 8890   4.110   1.679  16.432  0.6646  1.0689  0.1683
  600TMC3    C4 8891   4.333   1.819  16.365 -0.1144  0.3450 -0.2197
  600TMC3    C5 8892   4.236   1.882  16.446 -0.0208 -0.0287 -0.2785
  600TMC3    C6 8893   4.122   1.804  16.472 -0.2758 -0.5926 -0.1138
  600TMC3     C 8894   4.441   1.611  16.312 -0.2879  0.0616  0.2922
  600TMC3     O 8895   4.454   1.505  16.375  0.1223 -0.2411 -0.1777
  600TMC3     H 8896   4.208   1.502  16.368 -1.1289  0.7382 -3.1597
  600TMC3    H1 8897   4.419   1.876  16.330  0.1713 -1.3392 -2.2607
  600TMC3    H2 8898   4.040   1.855  16.522  0.1021  0.2734 -0.3807
  600TMC3    C7 8899   4.246   2.017  16.511  0.2267 -0.4636  0.1154
  600TMC3    C8 8900   4.029   1.595  16.512 -0.1815 -0.8552  0.0630
  600TMC3    O1 8901   4.145   2.056  16.568  0.4020 -0.2892  0.4392
  600TMC3    O2 8902   4.024   1.617  16.633 -0.1508  0.3610 -0.4230
  601MPD2     C 8903   2.663   4.363   0.181  0.5434  0.1036 -0.0736
  601MPD2    C1 8904   2.599   4.304   0.295 -0.2268  0.4267 -0.1456
  601MPD2    C2 8905   2.620   4.173   0.320  0.4814 -0.2313 -0.0755
  601MPD2    C3 8906   2.708   4.101   0.245 -0.7310  0.1380 -0.3546
  601MPD2    C4 8907   2.768   4.150   0.132 -0.2491 -0.0336  0.7538
  601MPD2    C5 8908   2.742   4.278   0.100 -0.6791 -0.9262 -1.1414
  601MPD2     H 8909   2.561   4.126   0.398 -0.5572  0.1899 -0.6112
  601MPD2    H1 8910   2.837   4.092   0.071 -1.7114 -2.3147  1.2982
  601MPD2    H2 8911   2.662   4.469   0.157 -1.3164  0.5070  1.8291
  601MPD2    H3 8912   2.802   4.318   0.018  2.1649  0.4786  1.6393
  601MPD2     N 8913   2.745   3.967   0.265 -0.3896 -0.3380 -0.7978
  601MPD2    H5 8914   2.797   3.919   0.193  2.3531 -1.2009  1.7836
  601MPD2    N1 8915   2.496   4.367   0.374  0.3638 -0.4322  0.0909
  601MPD2    H7 8916   2.451   4.314   0.447  1.1771 -1.8386 -0.4380
  602TMC3    C1 8917   2.326   4.517   0.422 -0.1787 -0.0890 -0.1897
  602TMC3    C2 8918   2.301   4.642   0.453 -0.7992  0.4039  0.1378
  602TMC3    C3 8919   2.175   4.677   0.470  0.0727  0.2940  0.3142
  602TMC3    C4 8920   2.232   4.428   0.379  0.0154  0.0620 -0.4387
  602TMC3    C5 8921   2.105   4.474   0.381 -0.4643  0.3633  0.8452
  602TMC3    C6 8922   2.072   4.599   0.431  0.2189 -0.0445 -0.1998
  602TMC3     C 8923   2.444   4.499   0.354 -0.2332 -0.5888  0.2016
  602TMC3     O 8924   2.492   4.587   0.287  0.2837  0.3106  0.2146
  602TMC3     H 8925   2.380   4.706   0.489  0.9457 -2.1788  0.8908
  602TMC3    H1 8926   2.261   4.343   0.318 -0.0170 -0.2073 -0.0794
  602TMC3    H2 8927   1.972   4.620   0.468 -0.6860  1.1007 -3.2179
  602TMC3    C7 8928   2.013   4.420   0.285  0.0308 -0.2171  0.0983
  602TMC3    C8 8929   2.152   0.101   0.473 -0.3315  0.5766  0.3703
  602TMC3    O1 8930   2.041   4.322   0.219 -0.5230 -0.1124  0.2654
  602TMC3    O2 8931   2.249   0.168   0.514  0.0993 -0.1045 -0.7219
  603TMC3    C1 8932   1.120   0.237  10.775  0.3626  0.0478  0.0397
  603TMC3    C2 8933   1.075   0.276  10.899  0.0273  0.0710 -0.2352
  603TMC3    C3 8934   1.003   0.393  10.897 -0.3056 -0.1835 -0.0574
  603TMC3    C4 8935   1.082   0.303  10.660  0.5598 -0.7329  0.0810
  603TMC3    C5 8936   0.989   0.407  10.671 -0.1702  0.0931  0.3134
  603TMC3    C6 8937   0.944   0.451  10.790  0.0222 -0.3223  0.3616
  603TMC3     C 8938   1.166   0.103  10.762  0.2444 -0.1011  0.2534
  603TMC3     O 8939   1.158   0.046  10.656 -0.0532 -0.5493  0.3133
  603TMC3     H 8940   1.114   0.229  10.989  0.9238  1.5127  0.1230
  603TMC3    H1 8941   1.115   0.277  10.560 -2.7040 -1.9983 -0.6632
  603TMC3    H2 8942   0.909   0.553  10.809  0.3493 -0.0844 -0.3219
  603TMC3    C7 8943   0.978   0.504  10.570  0.9834 -0.1223 -0.0348
  603TMC3    C8 8944   0.945   0.431  11.023 -0.3243 -0.5883 -0.0617
  603TMC3    O1 8945   1.076   0.529  10.505  0.1772 -0.2951  0.2103
  603TMC3    O2 8946   0.944   0.346  11.112 -0.0772  0.7687  0.0683
  604MPD2     C 8947   1.321   4.131  16.803 -0.9177  0.9137 -0.1441
  604MPD2    C1 8948   1.202   4.079  16.761 -0.2664  0.2893  0.5006
  604MPD2    C2 8949   1.188   4.024  16.638 -0.6017 -0.6715  0.0075
  604MPD2    C3 8950   1.296   4.018  16.550  0.1659 -0.3487  0.2910
  604MPD2    C4 8951   1.416   4.055  16.603  0.0487 -0.2445  0.7832
  604MPD2    C5 8952   1.424   4.109  16.726 -0.3801 -0.2420  0.8163
  604MPD2     H 8953   1.091   3.989  16.605 -0.6558 -1.2608  0.8031
  604MPD2    H1 8954   1.505   4.047  16.542  1.3483  0.8735  2.5248
  604MPD2    H2 8955   1.329   4.188  16.895  1.6181 -1.6060  1.1995
  604MPD2    H3 8956   1.520   4.139  16.767 -1.4840  2.0908  1.6603
  604MPD2     N 8957   1.274   3.957  16.427  0.0131  0.3224  0.0021
  604MPD2    H5 8958   1.180   3.919  16.422 -0.3146  1.3270 -1.3416
  604MPD2    N1 8959   1.091   4.099  16.846 -0.0599  0.5421 -0.5855
  604MPD2    H7 8960   1.100   4.172  16.915 -0.2075  0.0596 -0.0601
  605TMC3    C1 8961   0.868   4.120  16.899  0.4929  0.3093 -0.2548
  605TMC3    C2 8962   0.931   4.203  16.990 -0.0702  0.5225  0.3338
  605TMC3    C3 8963   0.902   4.341  16.992 -0.0605  0.5088 -0.2156
  605TMC3    C4 8964   0.769   4.166  16.822  0.2305 -0.5026  0.2371
  605TMC3    C5 8965   0.723   4.297  16.849 -0.8193 -0.0500 -0.3085
  605TMC3    C6 8966   0.791   4.390  16.921  0.1901  0.9124 -0.2914
  605TMC3     C 8967   0.966   4.034  16.837  0.4017  0.1928  0.1470
  605TMC3     O 8968   0.929   3.939  16.771 -0.1173 -0.4706  0.2002
  605TMC3     H 8969   0.991   4.155  17.067 -0.1037 -0.8424 -0.4995
  605TMC3    H1 8970   0.732   4.106  16.740 -0.7825  1.3526 -0.6627
  605TMC3    H2 8971   0.766   4.495  16.935 -0.1835  0.8951 -0.8607
  605TMC3    C7 8972   0.614   4.354  16.771  0.7233  0.1387 -0.3154
  605TMC3    C8 8973   1.032   4.405  16.990  0.6555  0.8962 -0.2834
  605TMC3    O1 8974   0.612   4.473  16.753  0.1096 -0.0276  0.5369
  605TMC3    O2 8975   1.127   4.334  16.990  0.1599  0.1319 -0.3456
  606TMC3    C1 8976   2.154   1.913  16.890  0.0563 -0.0547 -0.0288
  606TMC3    C2 8977   2.267   1.866  16.960 -0.9244  0.2909  0.3885
  606TMC3    C3 8978   2.281   1.734  16.962 -0.0957 -0.0126 -0.9223
  606TMC3    C4 8979   2.056   1.829  16.840 -0.7124  0.1924 -0.3314
  606TMC3    C5 8980   2.080   1.702  16.845  0.6633 -0.3163 -1.2142
  606TMC3    C6 8981   2.194   1.650  16.906 -0.6935 -0.4557  0.1718
  606TMC3     C 8982   2.125   2.050  16.874  0.1239 -0.3009 -0.7470
  606TMC3     O 8983   2.049   2.075  16.781 -0.2551  0.0183  0.7697
  606TMC3     H 8984   2.343   1.930  17.003  0.3782 -1.0576  0.1189
  606TMC3    H1 8985   1.972   1.857  16.778 -1.9614 -1.0198  0.8003
  606TMC3    H2 8986   2.215   1.544  16.910  1.1149 -0.0675  1.1880
  606TMC3    C7 8987   1.978   1.604  16.826  0.0265 -0.1663 -1.0696
  606TMC3    C8 8988   2.363   1.666  17.064  0.5487 -0.3769 -0.4380
  606TMC3    O1 8989   2.012   1.485  16.821  0.1784  0.4665 -0.1375
  606TMC3    O2 8990   2.394   1.550  17.048 -0.6785 -0.5869 -0.2258
  607MPD2     C 8991   4.434   0.560  11.756 -0.8842  0.0984 -0.0316
  607MPD2    C1 8992   4.429   0.626  11.877  0.2182 -0.2915  0.0224
  607MPD2    C2 8993   4.388   0.554  11.993 -0.6245 -0.1843 -0.6507
  607MPD2    C3 8994   4.389   0.416  11.992  0.3200 -0.0924  0.0400
  607MPD2    C4 8995   4.396   0.350  11.870  0.4215 -0.0613  0.5081
  607MPD2    C5 8996   4.416   0.423  11.757  0.2421 -0.8810  0.3070
  607MPD2     H 8997   4.389   0.607  12.087  0.0728 -0.9518 -0.2221
  607MPD2    H1 8998   4.385   0.242  11.872 -0.7175  0.0523  0.2443
  607MPD2    H2 8999   4.448   0.615  11.663  2.7205  1.4985  1.3553
  607MPD2    H3 9000   4.418   0.375  11.660  1.7554  0.4775 -0.3287
  607MPD2     N 9001   4.380   0.351  12.115  0.0300  0.2965  0.2772
  607MPD2    H5 9002   4.368   0.413  12.194 -0.6673  0.8520 -0.2759
  607MPD2    N1 9003   4.445   0.772  11.884 -0.6671 -0.2190  0.8939
  607MPD2    H7 9004   4.427   0.822  11.970  1.0362  1.1433  0.4588
  608TMC3    C1 9005   4.566   0.972  11.851 -1.0272  0.0049  0.5018
  608TMC3    C2 9006   4.544   1.001  11.985 -0.0018  0.3357  0.5803
  608TMC3    C3 9007   4.617   1.107  12.036 -0.6120 -0.1764  0.1540
  608TMC3    C4 9008   4.646   1.048  11.768  0.5349 -0.1831  0.3661
  608TMC3    C5 9009   4.720   1.147  11.825 -0.2513  0.5000 -0.0261
  608TMC3    C6 9010   4.697   1.185  11.961 -0.1270  0.3464  0.9064
  608TMC3     C 9011   4.524   0.844  11.798 -0.6714  0.2793 -0.2153
  608TMC3     O 9012   4.578   0.800  11.696 -0.7753  0.6698  0.4235
  608TMC3     H 9013   4.470   0.949  12.046  0.6801 -1.1286  0.1742
  608TMC3    H1 9014   4.664   1.017  11.666  2.5030 -1.9383  1.2488
  608TMC3    H2 9015   0.035   1.258  12.014  1.2355  0.3504 -0.6518
  608TMC3    C7 9016   0.088   1.219  11.738  0.2702 -0.3956  0.9311
  608TMC3    C8 9017   4.622   1.111  12.183  0.3502 -0.1566 -0.6997
  608TMC3    O1 9018   0.117   1.168  11.627 -0.3568  0.2425 -0.0689
  608TMC3    O2 9019   4.630   1.219  12.242  0.0216 -0.2982  0.1220
  609TMC3    C1 9020   3.136   4.214   9.111  0.0111 -0.3057  0.0179
  609TMC3    C2 9021   3.093   4.144   8.999 -0.3363  0.3396 -0.1493
  609TMC3    C3 9022   3.180   4.064   8.936  0.2764 -0.0753 -0.3324
  609TMC3    C4 9023   3.259   4.202   9.165  0.3088 -0.6599  0.6484
  609TMC3    C5 9024   3.347   4.123   9.095  0.2450 -0.1234  0.0287
  609TMC3    C6 9025   3.317   4.058   8.978  0.3986 -0.2943  0.2139
  609TMC3     C 9026   3.067   4.336   9.137  0.4992  0.3961  0.3560
  609TMC3     O 9027   2.983   4.367   9.050 -0.2692  0.2254 -0.6740
  609TMC3     H 9028   2.988   4.151   8.970 -0.8026  1.6795  1.8077
  609TMC3    H1 9029   3.291   4.256   9.254  0.4600  0.3020  0.0112
  609TMC3    H2 9030   3.396   4.001   8.928 -1.8447 -2.6217 -0.6875
  609TMC3    C7 9031   3.460   4.082   9.173  0.0576 -0.0082 -0.1771
  609TMC3    C8 9032   3.141   3.996   8.814 -0.2515 -1.0376 -0.0445
  609TMC3    O1 9033   3.492   4.155   9.267 -0.3232 -0.0918 -0.1577
  609TMC3    O2 9034   3.223   3.929   8.758 -0.1463 -0.6800 -0.8430
  610TMC3    C1 9035   0.160   0.869  12.666 -0.3762  0.0594  0.5791
  610TMC3    C2 9036   0.176   0.863  12.524 -0.0797  0.5765 -0.5465
  610TMC3    C3 9037   0.207   0.735  12.478 -0.0852 -0.8100  0.6935
  610TMC3    C4 9038   0.158   0.751  12.738 -0.0356  0.1962 -0.1656
  610TMC3    C5 9039   0.170   0.632  12.674 -0.2120 -0.7331 -0.0311
  610TMC3    C6 9040   0.205   0.619  12.546 -0.7274 -0.1011  0.0202
  610TMC3     C 9041   0.106   0.990  12.724  0.4928 -0.6664 -0.1805
  610TMC3     O 9042   0.043   0.990  12.827 -0.0597 -0.3131  0.0866
  610TMC3     H 9043   0.175   0.948  12.457 -0.1361 -0.4373 -1.8341
  610TMC3    H1 9044   0.139   0.759  12.845 -4.2285  2.2321 -1.0630
  610TMC3    H2 9045   0.197   0.530  12.484 -2.0342  0.6823 -0.9373
  610TMC3    C7 9046   0.107   0.520  12.729  0.7164 -0.1178  0.2754
  610TMC3    C8 9047   0.242   0.726  12.337  0.4731 -0.9946  0.3703
  610TMC3    O1 9048   0.136   0.413  12.677 -0.0910  0.1364 -0.1975
  610TMC3    O2 9049   0.198   0.811  12.260  0.2215 -0.0768  0.8108
  611MPD2     C 9050   4.476   0.321  10.580  0.4798 -0.3129  0.3925
  611MPD2    C1 9051   4.418   0.441  10.539  0.5989 -0.3012 -0.4924
  611MPD2    C2 9052   4.496   0.550  10.504 -0.6888 -0.0855 -0.5673
  611MPD2    C3 9053   4.637   0.545  10.505 -0.7298 -0.1654 -0.7072
  611MPD2    C4 9054   4.699   0.420  10.535  0.0346  0.0779 -0.4584
  611MPD2    C5 9055   4.618   0.311  10.577 -0.5968 -0.2100 -0.8022
  611MPD2     H 9056   4.442   0.639  10.474  1.6565  2.0665  1.5432
  611MPD2    H1 9057   0.084   0.399  10.531  0.5512  2.3680  0.7730
  611MPD2    H2 9058   4.417   0.232  10.603  1.3523 -0.9702  0.0994
  611MPD2    H3 9059   4.652   0.210  10.597 -0.0887  0.4612  1.7163
  611MPD2     N 9060   4.716   0.655  10.465  0.3213  0.3807 -0.1561
  611MPD2    H5 9061   0.093   0.657  10.487 -0.0366 -0.5007  1.5135
  611MPD2    N1 9062   4.281   0.444  10.536 -0.2088  0.1750  0.0272
  611MPD2    H7 9063   4.231   0.356  10.543 -1.3688  0.8075 -0.2721
  612TMC3    C1 9064   0.051   0.853  10.352  0.1769 -0.2668  0.0102
  612TMC3    C2 9065   0.177   0.845  10.400 -0.2909 -0.1951  0.1852
  612TMC3    C3 9066   0.267   0.937  10.354 -0.8490 -0.6969 -0.6438
  612TMC3    C4 9067   0.011   0.939  10.257  0.2936  0.1928 -0.3681
  612TMC3    C5 9068   0.104   1.036  10.220 -0.4921 -0.0336 -0.1451
  612TMC3    C6 9069   0.230   1.033  10.263 -0.8357  0.3159  0.1257
  612TMC3     C 9070   4.673   0.772  10.407  0.4217  0.6281  0.4328
  612TMC3     O 9071   4.559   0.800  10.378  0.0705 -0.9984  0.0862
  612TMC3     H 9072   0.209   0.781  10.482 -1.0958 -1.1203 -0.2188
  612TMC3    H1 9073   4.631   0.933  10.220  0.7353 -2.6217 -1.1468
  612TMC3    H2 9074   0.302   1.110  10.238 -0.2510  0.0948  1.1320
  612TMC3    C7 9075   0.061   1.152  10.151  0.7435 -0.6068 -0.5264
  612TMC3    C8 9076   0.406   0.929  10.390  0.3954  0.3872  0.3107
  612TMC3    O1 9077   4.662   1.182  10.166 -0.1035 -0.1889 -0.4952
  612TMC3    O2 9078   0.452   1.046  10.404 -0.0402 -0.0306  0.0649
  613MPD2     C 9079   3.305   2.107  16.932  0.1909 -0.2898  0.6049
  613MPD2    C1 9080   3.250   2.210  16.867 -0.4969 -0.0790  0.1321
  613MPD2    C2 9081   3.123   2.185  16.817  0.1471  0.1851  0.0963
  613MPD2    C3 9082   3.055   2.070  16.841 -0.6554 -0.1240 -0.9540
  613MPD2    C4 9083   3.119   1.970  16.903 -0.4615 -0.2696 -0.5706
  613MPD2    C5 9084   3.244   1.990  16.952  0.0739 -0.3837 -0.1181
  613MPD2     H 9085   3.085   2.265  16.754  1.0448  1.7359  1.5361
  613MPD2    H1 9086   3.066   1.881  16.934  2.0739 -0.7281  2.4657
  613MPD2    H2 9087   3.402   2.118  16.979 -1.0561 -2.4144  3.7250
  613MPD2    H3 9088   3.287   1.901  16.996 -0.9095 -0.4115  0.7704
  613MPD2     N 9089   2.931   2.053  16.783  0.2232  0.1897 -0.2285
  613MPD2    H5 9090   2.893   1.959  16.788  1.5728 -0.3404  0.2354
  613MPD2    N1 9091   3.325   2.318  16.827  0.1536 -0.6334 -0.4286
  613MPD2    H7 9092   3.426   2.309  16.827  0.2146  0.1403 -0.3234
  614TMC3    C1 9093   3.317   2.454  16.622  0.0033  0.3925  0.2888
  614TMC3    C2 9094   3.331   2.344  16.548 -0.0957 -0.3920 -0.2966
  614TMC3    C3 9095   3.292   2.344  16.415  0.1279 -0.0135 -0.0270
  614TMC3    C4 9096   3.278   2.568  16.575 -0.4412  0.2130 -0.3855
  614TMC3    C5 9097   3.246   2.570  16.442  0.3727 -0.3058 -0.1172
  614TMC3    C6 9098   3.261   2.463  16.361 -0.0559 -0.6352  0.2897
  614TMC3     C 9099   3.265   2.420  16.754 -0.0001  0.9905 -0.0122
  614TMC3     O 9100   3.164   2.471  16.788  0.0028  0.0622  0.2391
  614TMC3     H 9101   3.359   2.249  16.592  1.2694 -0.2068 -0.7727
  614TMC3    H1 9102   3.283   2.663  16.626 -1.5507  0.8125 -1.3742
  614TMC3    H2 9103   3.231   2.463  16.257 -3.2892  0.1691  1.2171
  614TMC3    C7 9104   3.173   2.686  16.388 -0.9796  0.0488  0.2482
  614TMC3    C8 9105   3.205   2.232  16.380  0.7940  0.2821 -0.2739
  614TMC3    O1 9106   3.181   2.790  16.451 -0.1145 -0.3548  0.1938
  614TMC3    O2 9107   3.165   2.163  16.472 -0.1840  0.3598  0.0477
  615MPD2     C 9108   2.684   3.716  15.807 -0.8047  0.9758 -0.2857
  615MPD2    C1 9109   2.674   3.840  15.859 -0.1843  0.3609 -0.1986
  615MPD2    C2 9110   2.643   3.939  15.769  0.4916 -0.6581  0.0044
  615MPD2    C3 9111   2.611   3.910  15.633  0.5087  0.0599  0.3157
  615MPD2    C4 9112   2.616   3.784  15.587  0.9556  0.3332  0.1586
  615MPD2    C5 9113   2.659   3.691  15.674 -0.9656  0.1819  0.4230
  615MPD2     H 9114   2.625   4.036  15.815 -0.7210 -1.4691  1.2509
  615MPD2    H1 9115   2.601   3.748  15.485  1.9607 -1.4983  0.6765
  615MPD2    H2 9116   2.711   3.630  15.866  2.0149  2.1765  0.1866
  615MPD2    H3 9117   2.682   3.590  15.642  0.6064  1.2451 -1.7632
  615MPD2     N 9118   2.571   4.011  15.544 -0.1633  0.2192  0.5335
  615MPD2    H5 9119   2.507   3.981  15.471  1.9830  0.2201 -1.3271
  615MPD2    N1 9120   2.692   3.864  15.998  0.3180  0.1476 -0.3003
  615MPD2    H7 9121   2.660   3.951  16.040  4.1325  0.6061  1.6226
  616TMC3    C1 9122   2.749   3.829  16.233 -0.4049  0.2619 -0.4742
  616TMC3    C2 9123   2.749   3.965  16.243 -0.3360 -0.1531 -0.1572
  616TMC3    C3 9124   2.756   4.014  16.366  0.1625 -0.0633  0.1286
  616TMC3    C4 9125   2.788   3.748  16.338 -0.0449 -0.2853  0.3416
  616TMC3    C5 9126   2.797   3.810  16.461 -0.0865  0.7992  0.0667
  616TMC3    C6 9127   2.781   3.943  16.479  0.4648 -0.0550  0.1252
  616TMC3     C 9128   2.750   3.778  16.097  0.0798 -0.1337  0.2615
  616TMC3     O 9129   2.783   3.664  16.083  0.9365  0.3248 -0.2150
  616TMC3     H 9130   2.728   4.026  16.155  4.3920 -1.2802 -2.0932
  616TMC3    H1 9131   2.802   3.641  16.331 -0.5251 -0.3230 -0.0635
  616TMC3    H2 9132   2.805   3.981  16.578  2.5835  0.1776 -0.4972
  616TMC3    C7 9133   2.879   3.739  16.562  0.1457  0.1346  0.4295
  616TMC3    C8 9134   2.768   4.161  16.377 -0.2270  0.2925 -0.3057
  616TMC3    O1 9135   2.970   3.669  16.526  0.2857 -0.0174  0.1770
  616TMC3    O2 9136   2.709   4.228  16.289 -0.6373  0.2138  0.2373
  617MPD2     C 9137   0.906   2.141  13.930  0.3889 -0.0472  0.3788
  617MPD2    C1 9138   0.910   2.068  14.049  0.0138  0.3939  0.4831
  617MPD2    C2 9139   0.784   2.055  14.113 -0.0812  0.0060 -0.2350
  617MPD2    C3 9140   0.672   2.108  14.051  0.0164 -0.0718 -0.0780
  617MPD2    C4 9141   0.678   2.170  13.925  0.4365  0.1689  0.3744
  617MPD2    C5 9142   0.798   2.197  13.872 -0.1680 -0.8487 -0.4649
  617MPD2     H 9143   0.782   2.000  14.207  1.9255  1.1404  0.4660
  617MPD2    H1 9144   0.590   2.205  13.871  0.7858 -1.0765 -1.0040
  617MPD2    H2 9145   0.998   2.150  13.873 -0.6323  0.3297 -1.2058
  617MPD2    H3 9146   0.811   2.249  13.778  0.7537  1.8068  1.1282
  617MPD2     N 9147   0.540   2.095  14.105  0.4632 -0.3704  0.5538
  617MPD2    H5 9148   0.456   2.125  14.056  0.8886 -0.2992 -0.1294
  617MPD2    N1 9149   1.035   2.019  14.095  0.0856 -0.1009  0.2578
  617MPD2    H7 9150   1.114   2.037  14.034  1.1083 -3.8645  0.4581
  618TMC3    C1 9151   1.200   1.899  14.223 -0.3130  0.4791 -0.2621
  618TMC3    C2 9152   1.211   1.766  14.216 -0.2147  0.1928  0.3601
  618TMC3    C3 9153   1.299   1.711  14.125  0.6469 -0.4079 -0.4639
  618TMC3    C4 9154   1.282   1.978  14.154 -0.0326 -0.7167  0.4167
  618TMC3    C5 9155   1.387   1.920  14.086  0.2133 -0.0906 -0.1155
  618TMC3    C6 9156   1.402   1.786  14.078  0.0058 -0.2784 -0.2875
  618TMC3     C 9157   1.061   1.931  14.203  0.2204  0.0668 -0.6006
  618TMC3     O 9158   0.972   1.871  14.262  0.0823 -0.0842  0.1263
  618TMC3     H 9159   1.134   1.702  14.256  0.2268 -0.1734  0.6159
  618TMC3    H1 9160   1.291   2.085  14.162 -0.3778 -0.6838  0.3893
  618TMC3    H2 9161   1.485   1.752  14.016 -0.8816 -1.5957 -0.7557
  618TMC3    C7 9162   1.371   1.968  13.953  0.1953 -0.0062  0.2449
  618TMC3    C8 9163   1.242   1.605  14.045 -0.0768 -0.0129  0.1430
  618TMC3    O1 9164   1.252   1.979  13.916 -0.1160  0.4200 -0.2418
  618TMC3    O2 9165   1.154   1.536  14.086  0.6597 -0.4739  0.0311
  619MPD2     C 9166   2.550   3.441  14.021 -0.8399 -0.0737  0.1943
  619MPD2    C1 9167   2.493   3.506  13.911 -0.0337  0.0269  0.0221
  619MPD2    C2 9168   2.373   3.455  13.857  0.1807  0.6628 -0.5868
  619MPD2    C3 9169   2.306   3.338  13.911 -0.0452  0.4034  0.3198
  619MPD2    C4 9170   2.371   3.280  14.017 -0.5810  0.4219  0.7991
  619MPD2    C5 9171   2.493   3.325  14.062  0.4833 -0.2930  0.1939
  619MPD2     H 9172   2.347   3.493  13.758  0.4886 -1.4398 -1.4804
  619MPD2    H1 9173   2.341   3.185  14.059  0.5565 -0.0649  0.5284
  619MPD2    H2 9174   2.651   3.468  14.049 -0.1279 -1.8671 -0.6330
  619MPD2    H3 9175   2.548   3.270  14.138  0.0803 -1.7734 -0.6048
  619MPD2     N 9176   2.189   3.281  13.864  0.3283 -0.3414 -0.2952
  619MPD2    H5 9177   2.160   3.189  13.896 -1.7920  0.4045 -0.0813
  619MPD2    N1 9178   2.547   3.622  13.843  0.1549 -0.2965  0.4362
  619MPD2    H7 9179   2.495   3.661  13.765  0.3737 -3.5071 -1.3222
  620TMC3    C1 9180   2.685   3.802  13.794 -0.1248 -0.4285  0.0954
  620TMC3    C2 9181   2.643   3.778  13.662 -0.3639 -0.2076  0.4680
  620TMC3    C3 9182   2.552   3.868  13.611 -0.3342  0.4317  0.8126
  620TMC3    C4 9183   2.672   3.923  13.855 -0.2960 -0.6640 -0.3563
  620TMC3    C5 9184   2.584   4.010  13.793 -0.1358 -0.4248 -0.8441
  620TMC3    C6 9185   2.525   3.983  13.672 -0.4006  0.5472  0.1021
  620TMC3     C 9186   2.662   3.684  13.877 -0.6323 -0.6665  0.8610
  620TMC3     O 9187   2.721   3.668  13.980 -0.8898 -0.0915  0.2848
  620TMC3     H 9188   2.670   3.688  13.607  0.6359  0.9410 -0.9515
  620TMC3    H1 9189   2.696   3.944  13.959  1.9788 -0.4029 -0.9237
  620TMC3    H2 9190   2.472   4.056  13.613 -1.8652  0.0320  0.7852
  620TMC3    C7 9191   2.551   4.137  13.855  0.1885  0.2170 -0.0220
  620TMC3    C8 9192   2.439   3.805  13.566 -0.1506  0.0359 -0.7061
  620TMC3    O1 9193   2.621   4.179  13.947 -0.3291  0.1080  0.0173
  620TMC3    O2 9194   2.415   3.693  13.610 -0.3377 -0.0549  0.0890
  621MPD2     C 9195   2.870   3.529  10.010 -0.3734  0.0509 -0.1076
  621MPD2    C1 9196   2.892   3.634   9.925  0.0534 -0.4397  0.7073
  621MPD2    C2 9197   2.991   3.722   9.958 -0.3133 -0.2427  0.2641
  621MPD2    C3 9198   3.057   3.707  10.072  0.3798  0.2329  0.2124
  621MPD2    C4 9199   3.046   3.596  10.147  0.1826 -0.1287  0.0717
  621MPD2    C5 9200   2.944   3.505  10.121 -0.1107 -0.4985 -0.1533
  621MPD2     H 9201   3.012   3.806   9.893 -2.8122  0.1856  0.0166
  621MPD2    H1 9202   3.109   3.584  10.235 -3.2439  0.8995  2.6988
  621MPD2    H2 9203   2.804   3.445   9.991 -3.6694  2.1838  1.7726
  621MPD2    H3 9204   2.932   3.417  10.184 -2.3567  0.2732  0.4862
  621MPD2     N 9205   3.161   3.798  10.113  0.6563 -0.8193 -0.3579
  621MPD2    H5 9206   3.209   3.774  10.200 -1.8367  0.7660  1.4651
  621MPD2    N1 9207   2.814   3.665   9.812  0.0420  0.0897  0.2888
  621MPD2    H7 9208   2.839   3.749   9.763 -0.6877  0.5955  0.7737
  622TMC3    C1 9209   2.620   3.661   9.674 -0.0950  0.2348 -0.0154
  622TMC3    C2 9210   2.489   3.634   9.686 -0.3500  0.3132  0.9154
  622TMC3    C3 9211   2.414   3.631   9.578 -0.2005  0.0435  0.0236
  622TMC3    C4 9212   2.679   3.691   9.561  0.2968  0.7262  0.3360
  622TMC3    C5 9213   2.601   3.669   9.444  0.7372 -0.0550  0.5693
  622TMC3    C6 9214   2.465   3.641   9.456 -0.2967  0.2820 -0.8523
  622TMC3     C 9215   2.706   3.591   9.776  0.2478  0.0204 -0.3378
  622TMC3     O 9216   2.666   3.487   9.821 -0.1456  0.3299  0.1372
  622TMC3     H 9217   2.457   3.621   9.788 -0.2380  1.0203  1.0405
  622TMC3    H1 9218   2.782   3.724   9.551 -0.3570  2.5301 -0.5485
  622TMC3    H2 9219   2.400   3.630   9.370 -1.2699  0.1840 -0.0997
  622TMC3    C7 9220   2.649   3.720   9.320  0.6923 -0.2256 -0.2830
  622TMC3    C8 9221   2.272   3.626   9.596  0.2184 -0.5956 -0.1352
  622TMC3    O1 9222   2.769   3.730   9.298  0.3237  0.2281 -0.1569
  622TMC3    O2 9223   2.209   3.545   9.534 -0.1929  0.3740  0.3012
  623MPD2     C 9224   1.570   4.233  15.984  0.5384 -0.7673  0.3533
  623MPD2    C1 9225   1.462   4.234  16.075 -0.2611  0.0118  0.0845
  623MPD2    C2 9226   1.490   4.249  16.207  0.0169 -0.3340  0.4754
  623MPD2    C3 9227   1.616   4.286  16.258 -0.6440 -0.1783  0.5327
  623MPD2    C4 9228   1.725   4.274  16.173 -0.6340 -0.1097  0.1847
  623MPD2    C5 9229   1.700   4.246  16.036 -1.2293 -0.4073 -0.2258
  623MPD2     H 9230   1.415   4.252  16.284 -0.3490 -0.4693  0.1260
  623MPD2    H1 9231   1.823   4.313  16.195 -0.2349  0.4113 -2.4471
  623MPD2    H2 9232   1.561   4.206  15.879 -0.6395 -0.6710  0.4373
  623MPD2    H3 9233   1.788   4.245  15.973  1.1883 -0.3750  3.1035
  623MPD2     N 9234   1.636   4.311  16.393  0.5227  0.2176  0.2415
  623MPD2    H5 9235   1.552   4.316  16.449  0.0413 -0.0826 -0.4618
  623MPD2    N1 9236   1.324   4.237  16.036 -0.5604 -0.0064  0.3672
  623MPD2    H7 9237   1.259   4.241  16.114  0.4349 -1.2540  1.2422
  624TMC3    C1 9238   1.848   4.441  16.801  0.4958  0.0944  0.5174
  624TMC3    C2 9239   1.738   4.508  16.837 -0.5969  0.1726  0.4590
  624TMC3    C3 9240   1.640   4.531  16.739  0.0033  0.1488 -0.1190
  624TMC3    C4 9241   1.853   4.384  16.676 -0.4269  0.0247  0.1780
  624TMC3    C5 9242   1.751   4.406  16.584  0.0661  0.1681 -0.5404
  624TMC3    C6 9243   1.647   4.484  16.616  0.3757  0.6173 -0.2428
  624TMC3     C 9244   1.943   4.395  16.897 -0.3376 -0.2598 -0.2599
  624TMC3     O 9245   1.981   4.281  16.877  0.5919  0.2109  0.3670
  624TMC3     H 9246   1.726   4.544  16.938 -1.5593  1.4065 -0.0948
  624TMC3    H1 9247   1.921   4.306  16.646 -0.8393 -0.5729  0.8139
  624TMC3    H2 9248   1.580   4.511  16.535 -1.7668 -1.6186  0.7779
  624TMC3    C7 9249   1.760   4.346  16.446  0.8201 -0.3154  0.1021
  624TMC3    C8 9250   1.502   4.556  16.778 -0.3935  0.2489  0.0380
  624TMC3    O1 9251   1.874   4.326  16.408  0.1375  0.1498 -0.2066
  624TMC3    O2 9252   1.410   4.520  16.704  0.5641  0.3891  0.6751
  625MPD2     C 9253   1.472   0.254   0.877 -1.0390  0.5454 -1.0622
  625MPD2    C1 9254   1.575   0.344   0.906 -0.6362  0.0448  0.1261
  625MPD2    C2 9255   1.701   0.306   0.956 -0.1975  0.2172  0.0095
  625MPD2    C3 9256   1.719   0.164   0.983  0.3911  0.9780  0.7674
  625MPD2    C4 9257   1.618   0.081   0.948 -0.1218 -0.3301 -0.5925
  625MPD2    C5 9258   1.499   0.123   0.892  0.5981 -0.5913 -0.3044
  625MPD2     H 9259   1.779   0.371   0.995 -0.0828 -0.3012  0.6476
  625MPD2    H1 9260   1.626   4.695   0.960  0.5018 -0.4332 -1.9441
  625MPD2    H2 9261   1.376   0.278   0.832 -1.4841 -0.4856 -0.6716
  625MPD2    H3 9262   1.424   0.053   0.858  0.7668 -0.3381 -1.1989
  625MPD2     N 9263   1.843   0.134   1.035  0.1257  0.1423 -0.2387
  625MPD2    H5 9264   1.913   0.206   1.048 -1.0742  1.4381 -0.9237
  625MPD2    N1 9265   1.554   0.481   0.880  0.2669  0.2003  0.3231
  625MPD2    H7 9266   1.633   0.542   0.898  1.1565 -2.1627  4.2316
  626TMC3    C1 9267   1.443   0.680   0.859 -0.4048 -0.3150 -0.5444
  626TMC3    C2 9268   1.369   0.761   0.770  0.3348  0.0253  0.6253
  626TMC3    C3 9269   1.394   0.892   0.762 -0.2247 -0.5062  0.1294
  626TMC3    C4 9270   1.522   0.731   0.960 -0.7812  0.2716  0.3546
  626TMC3    C5 9271   1.537   0.871   0.946  0.4978  0.1464  0.4723
  626TMC3    C6 9272   1.481   0.952   0.851  0.7722  0.6212  0.4777
  626TMC3     C 9273   1.439   0.538   0.828  0.2605 -0.7279  0.5313
  626TMC3     O 9274   1.343   0.494   0.759  0.4230 -0.3880 -0.1789
  626TMC3     H 9275   1.314   0.711   0.690 -0.9878  0.4715  1.2574
  626TMC3    H1 9276   1.563   0.668   1.038  0.3396 -0.5004 -0.8518
  626TMC3    H2 9277   1.527   1.046   0.823  0.5840  0.1621 -1.3817
  626TMC3    C7 9278   1.652   0.930   1.020  0.4471  0.3121 -0.6539
  626TMC3    C8 9279   1.327   0.974   0.662  0.0379 -0.2375 -0.2930
  626TMC3    O1 9280   1.732   0.841   1.058  0.0502 -0.0554 -0.3173
  626TMC3    O2 9281   1.261   0.915   0.575  0.2935 -0.3517  0.5500
  627MPD2     C 9282   0.081   1.001  14.694  0.3607 -0.1469 -0.8607
  627MPD2    C1 9283   0.161   0.940  14.790  0.5908  0.4828 -0.2736
  627MPD2    C2 9284   0.132   0.806  14.825 -0.9637 -0.1217  0.0507
  627MPD2    C3 9285   0.024   0.743  14.777  0.3560  0.6990 -0.0511
  627MPD2    C4 9286   4.670   0.809  14.679 -0.0997  0.1800 -1.1030
  627MPD2    C5 9287   4.707   0.936  14.634 -0.3862 -0.2803  0.3791
  627MPD2     H 9288   0.185   0.766  14.911 -0.4416 -1.2458 -0.7901
  627MPD2    H1 9289   4.579   0.765  14.638 -1.0645  0.3738  0.8467
  627MPD2    H2 9290   0.120   1.088  14.642  0.4314 -0.2504 -0.9799
  627MPD2    H3 9291   4.652   0.973  14.548  1.9269  2.0818 -0.0701
  627MPD2     N 9292   4.705   0.621  14.825  0.0404 -0.2849 -0.3788
  627MPD2    H5 9293   0.036   0.589  14.906 -0.6759 -0.7529 -0.1005
  627MPD2    N1 9294   0.251   1.008  14.871  0.2246 -0.5490  0.7128
  627MPD2    H7 9295   0.290   0.957  14.950  0.0232 -1.0788  0.4700
  628TMC3    C1 9296   0.385   1.194  14.950  0.2257  0.4712 -0.2303
  628TMC3    C2 9297   0.476   1.105  15.005 -0.1466  0.2672  0.3422
  628TMC3    C3 9298   0.564   1.161  15.095 -0.3095 -0.3701 -0.0316
  628TMC3    C4 9299   0.377   1.334  14.976 -0.1061 -0.3142  0.3054
  628TMC3    C5 9300   0.472   1.381  15.064 -0.0726  0.2547 -0.1466
  628TMC3    C6 9301   0.565   1.297  15.120  0.5168 -0.4686 -0.6505
  628TMC3     C 9302   0.279   1.142  14.868  0.2512 -0.2049  0.7180
  628TMC3     O 9303   0.228   1.220  14.790 -0.4872 -0.4654 -0.0494
  628TMC3     H 9304   0.490   1.001  14.978  0.6903  0.6641 -0.7579
  628TMC3    H1 9305   0.284   1.381  14.948 -0.0379  0.2880  1.0775
  628TMC3    H2 9306   0.644   1.351  15.172 -1.0869  3.1482 -1.9504
  628TMC3    C7 9307   0.489   1.523  15.073 -0.2041  0.0216  0.7381
  628TMC3    C8 9308   0.696   1.113  15.071  0.4645  0.3022  0.3554
  628TMC3    O1 9309   0.550   1.569  15.171  0.5037 -0.1043  0.1588
  628TMC3    O2 9310   0.716   1.048  14.969  0.1063  0.0171  0.2896
  629MPD2     C 9311   3.037   4.579  16.496 -0.1181  0.3182 -0.0142
  629MPD2    C1 9312   3.104   4.474  16.547  0.8354  0.9866 -0.4440
  629MPD2    C2 9313   3.047   4.349  16.531 -0.1148 -0.0560  0.2511
  629MPD2    C3 9314   2.929   4.326  16.462  0.0355 -0.1493 -0.2142
  629MPD2    C4 9315   2.863   4.438  16.414 -0.2918  1.3142 -0.1276
  629MPD2    C5 9316   2.920   4.564  16.425  0.4037  0.3145 -0.0492
  629MPD2     H 9317   3.090   4.271  16.594 -3.2960  0.0714  2.6153
  629MPD2    H1 9318   2.764   4.426  16.372  0.3567 -1.3409 -0.9155
  629MPD2    H2 9319   3.077   4.679  16.507 -0.6989  0.4119  1.2491
  629MPD2    H3 9320   2.863   4.651  16.395 -1.2016 -0.9393 -0.6711
  629MPD2     N 9321   2.870   4.198  16.461 -0.4746  0.2748 -0.5244
  629MPD2    H5 9322   2.922   4.128  16.512 -1.0641  2.0416  2.5336
  629MPD2    N1 9323   3.215   4.504  16.625 -0.4836 -0.1943 -0.5093
  629MPD2    H7 9324   3.243   4.601  16.619  0.8054 -0.5310 -0.0001
  630TMC3    C1 9325   3.384   4.500  16.784 -0.5773  0.1741 -0.0293
  630TMC3    C2 9326   3.421   4.620  16.731  0.0450  0.6015 -0.2923
  630TMC3    C3 9327   3.513   4.696  16.801  0.2561  0.1789  0.0090
  630TMC3    C4 9328   3.437   4.453  16.906 -0.7871  0.5140 -0.5069
  630TMC3    C5 9329   3.536   4.528  16.969 -0.8637  0.1791  0.2633
  630TMC3    C6 9330   3.568   4.659  16.925 -0.2354 -0.7310  0.4323
  630TMC3     C 9331   3.282   4.424  16.707  0.2728 -0.3919  0.3913
  630TMC3     O 9332   3.275   4.304  16.726  0.7568  0.3903  0.2328
  630TMC3     H 9333   3.408   4.637  16.625 -0.3057  1.0040 -0.1882
  630TMC3    H1 9334   3.379   4.384  16.966  1.7355  0.0652  1.3921
  630TMC3    H2 9335   3.651   4.710  16.972 -1.9152  3.3619 -1.0336
  630TMC3    C7 9336   3.591   4.486  17.097 -0.1589  1.2381  0.4356
  630TMC3    C8 9337   3.580   0.088  16.737  0.0237 -0.0241  0.2393
  630TMC3    O1 9338   3.670   4.562  17.152  0.4419 -0.0166 -0.1624
  630TMC3    O2 9339   3.688   0.112  16.792  0.2474  0.1067  0.0889
  631MPD2     C 9340   1.678   4.183  15.154 -0.1179  0.1188  0.3790
  631MPD2    C1 9341   1.695   4.236  15.281  0.0311  0.4243 -0.5740
  631MPD2    C2 9342   1.818   4.241  15.336  0.1885  0.0388  0.1479
  631MPD2    C3 9343   1.925   4.185  15.271 -0.1116  0.6063 -0.5395
  631MPD2    C4 9344   1.908   4.120  15.152 -0.1556  0.2350  0.0617
  631MPD2    C5 9345   1.779   4.124  15.091  0.5940 -0.4900 -0.7704
  631MPD2     H 9346   1.829   4.288  15.433  1.0402  0.9012 -0.3667
  631MPD2    H1 9347   1.978   4.053  15.104  0.8330  1.9474 -0.8872
  631MPD2    H2 9348   1.581   4.185  15.105 -0.4988 -1.7406  1.0816
  631MPD2    H3 9349   1.762   4.096  14.988 -0.2826 -0.4382 -0.6371
  631MPD2     N 9350   2.048   4.211  15.336 -0.1634 -0.8542  0.1482
  631MPD2    H5 9351   2.030   4.249  15.429  1.9365 -2.7025  1.2943
  631MPD2    N1 9352   1.585   4.313  15.325  0.0516 -0.1693  0.1155
  631MPD2    H7 9353   1.513   4.337  15.257 -0.2615 -1.6503 -0.0765
  632TMC3    C1 9354   1.481   4.485  15.452 -0.0541  0.2656 -0.6096
  632TMC3    C2 9355   1.441   4.516  15.575 -0.3295  0.5920 -0.2607
  632TMC3    C3 9356   1.431   4.652  15.599  0.0945  0.0342  0.6968
  632TMC3    C4 9357   1.500   4.581  15.357  0.3711  0.0927 -0.3940
  632TMC3    C5 9358   1.495   4.713  15.381 -1.1104  1.0216  0.3372
  632TMC3    C6 9359   1.448   0.029  15.505  0.2955  0.5071 -0.2601
  632TMC3     C 9360   1.578   4.373  15.449 -0.4102  0.1996  0.0670
  632TMC3     O 9361   1.635   4.345  15.553 -0.0621 -0.4371  0.0476
  632TMC3     H 9362   1.430   4.440  15.652  0.6010  0.8844  0.1684
  632TMC3    H1 9363   1.555   4.551  15.269  0.2371  1.3271 -0.8962
  632TMC3    H2 9364   1.439   0.134  15.532 -1.3205  0.8211 -1.9958
  632TMC3    C7 9365   1.571   0.082  15.289  0.7020  0.2709  0.3418
  632TMC3    C8 9366   1.377   4.703  15.719 -0.3847 -0.0418 -0.1142
  632TMC3    O1 9367   1.555   0.053  15.169 -0.0524 -0.1019  0.1016
  632TMC3    O2 9368   1.329   0.094  15.733  0.1923 -0.0704 -0.1242
  633MPD2     C 9369   1.424   2.354  17.245  0.0271  0.4421 -0.1552
  633MPD2    C1 9370   1.364   2.345  17.125  0.1150 -0.5266  0.9224
  633MPD2    C2 9371   1.284   2.229  17.102 -0.4394  0.2438 -0.1965
  633MPD2    C3 9372   1.266   2.124  17.189  0.8708  0.5385  0.1065
  633MPD2    C4 9373   1.334   2.138  17.311  0.0430 -0.0978 -0.0939
  633MPD2    C5 9374   1.410   2.252  17.340  0.5641  0.2345 -0.4452
  633MPD2     H 9375   1.233   2.221  17.006  2.0633 -1.9207 -1.3551
  633MPD2    H1 9376   1.337   2.066  17.392 -0.6177 -0.7580 -0.6612
  633MPD2    H2 9377   1.482   2.436  17.285  0.2530  0.1535  0.1155
  633MPD2    H3 9378   1.462   2.263  17.435  0.3053  1.8047 -0.4778
  633MPD2     N 9379   1.201   2.003  17.161  0.8480 -0.1583  0.0503
  633MPD2    H5 9380   1.210   1.927  17.228 -1.8248  1.9771  2.8441
  633MPD2    N1 9381   1.381   2.439  17.018 -0.1432 -0.0937  0.2383
  633MPD2    H7 9382   1.346   2.414  16.926  0.9625 -0.0429 -0.2028
  634TMC3    C1 9383   1.491   2.611  16.903 -0.7329 -0.2275  0.3532
  634TMC3    C2 9384   1.510   2.529  16.799 -0.6739 -0.3492 -0.2827
  634TMC3    C3 9385   1.512   2.590  16.672  0.4713 -0.6532 -0.7257
  634TMC3    C4 9386   1.456   2.739  16.877  0.1432  0.3962 -0.5195
  634TMC3    C5 9387   1.453   2.792  16.753  0.1322 -0.0589  0.3038
  634TMC3    C6 9388   1.502   2.722  16.653  0.2630  0.5807 -0.1317
  634TMC3     C 9389   1.455   2.553  17.030  0.1106  0.4113  0.1944
  634TMC3     O 9390   1.472   2.612  17.138  0.7833  0.0187  0.5309
  634TMC3     H 9391   1.537   2.426  16.818  0.4387 -0.3464 -1.8644
  634TMC3    H1 9392   1.419   2.790  16.964  2.7265  1.0851  0.1885
  634TMC3    H2 9393   1.507   2.770  16.556  2.8503 -1.4276 -0.9885
  634TMC3    C7 9394   1.432   2.933  16.737  0.0825  0.7279  0.6666
  634TMC3    C8 9395   1.499   2.494  16.564  0.2450  0.2799 -0.1005
  634TMC3    O1 9396   1.446   2.981  16.624  0.0068 -0.5243 -0.0269
  634TMC3    O2 9397   1.485   2.374  16.584 -0.0336 -0.3929 -0.5175
  635TMC3    C1 9398   1.898   3.440   0.034 -0.4185  0.3575 -0.0272
  635TMC3    C2 9399   1.860   3.321  17.669 -0.2004  0.1389  0.4829
  635TMC3    C3 9400   1.728   3.290  17.672  0.4619 -0.3639  0.2173
  635TMC3    C4 9401   1.805   3.517   0.094 -0.0108  0.4375  0.0552
  635TMC3    C5 9402   1.672   3.479   0.098  0.1128 -0.4069 -0.0745
  635TMC3    C6 9403   1.628   3.369   0.032  0.2806  0.1889 -1.0868
  635TMC3     C 9404   2.037   3.452   0.068 -0.2572 -0.5777 -0.4706
  635TMC3     O 9405   2.068   3.506   0.172  0.1111  0.0897 -0.3085
  635TMC3     H 9406   1.944   3.257  17.644  1.2567  2.4282 -0.4787
  635TMC3    H1 9407   1.838   3.607   0.143 -0.9014  0.9753 -0.3419
  635TMC3    H2 9408   1.524   3.342   0.021  0.5603 -1.4542  0.3843
  635TMC3    C7 9409   1.569   3.578   0.124  0.4844  0.1200  0.2071
  635TMC3    C8 9410   1.685   3.167  17.607  0.2514  0.1258  0.0160
  635TMC3    O1 9411   1.461   3.554   0.076  0.0544 -0.7406 -0.8448
  635TMC3    O2 9412   1.568   3.136  17.619  0.3815  0.6041  0.4426
  636MPD2     C 9413   2.520   2.731  16.169 -0.2463  0.1131 -0.8330
  636MPD2    C1 9414   2.611   2.738  16.277  0.0417  0.0917  0.1110
  636MPD2    C2 9415   2.660   2.615  16.322  0.2410  0.5454  0.2745
  636MPD2    C3 9416   2.617   2.492  16.272  0.6075  0.0984  0.4516
  636MPD2    C4 9417   2.519   2.491  16.181 -0.5970  0.4417  0.5393
  636MPD2    C5 9418   2.468   2.607  16.131 -0.4969 -0.5151  1.0244
  636MPD2     H 9419   2.724   2.614  16.410  1.5227 -0.5341 -0.6742
  636MPD2    H1 9420   2.465   2.401  16.152 -0.8724  0.9853 -0.6218
  636MPD2    H2 9421   2.485   2.828  16.135  0.4819  0.5131 -0.4402
  636MPD2    H3 9422   2.385   2.599  16.061  1.1695 -0.1595 -1.0112
  636MPD2     N 9423   2.670   2.383  16.339 -0.1305 -0.4808  0.6223
  636MPD2    H5 9424   2.717   2.409  16.425  2.1742  1.6318 -1.2614
  636MPD2    N1 9425   2.650   2.854  16.342 -0.4161 -1.0714  0.0841
  636MPD2    H7 9426   2.727   2.843  16.408 -0.5630 -1.6239  0.1648
  637TMC3    C1 9427   2.722   2.157  16.392  0.0771  0.1575 -0.1859
  637TMC3    C2 9428   2.717   2.182  16.523 -0.9279  0.1223 -0.5379
  637TMC3    C3 9429   2.778   2.084  16.604 -0.0449 -0.2687 -0.4035
  637TMC3    C4 9430   2.778   2.041  16.339  0.2076  0.3416  0.5594
  637TMC3    C5 9431   2.847   1.958  16.424 -0.0959 -0.0531  0.6255
  637TMC3    C6 9432   2.835   1.967  16.559 -0.3178 -0.3120 -0.4793
  637TMC3     C 9433   2.654   2.248  16.309 -0.2964 -0.7402 -0.0674
  637TMC3     O 9434   2.614   2.212  16.200  0.0267  0.3387  0.2281
  637TMC3     H 9435   2.669   2.273  16.558 -1.8020  0.2840 -2.1647
  637TMC3    H1 9436   2.776   2.025  16.232 -0.3676  0.1034  0.6046
  637TMC3    H2 9437   2.872   1.884  16.618  1.3885  0.8504  0.0659
  637TMC3    C7 9438   2.879   1.820  16.378  0.3935  0.1936 -0.0435
  637TMC3    C8 9439   2.853   2.143  16.715 -0.0091  0.0830 -0.2319
  637TMC3    O1 9440   2.816   1.735  16.441  0.2953  0.0485 -0.2509
  637TMC3    O2 9441   2.842   2.263  16.713  0.5341 -0.2629 -0.0940
  638MPD2     C 9442   2.637   2.166  14.686  0.1552 -0.1730 -0.1498
  638MPD2    C1 9443   2.609   2.037  14.646  0.1147 -0.3227  0.6683
  638MPD2    C2 9444   2.557   1.938  14.731 -0.2129 -0.0791 -0.0089
  638MPD2    C3 9445   2.529   1.969  14.857 -0.3228 -0.6298 -0.8762
  638MPD2    C4 9446   2.537   2.100  14.894  0.2546 -0.2189  0.3557
  638MPD2    C5 9447   2.587   2.200  14.808 -0.5440 -0.6430  0.1546
  638MPD2     H 9448   2.557   1.832  14.709  0.3882  0.4332 -2.4714
  638MPD2    H1 9449   2.509   2.132  14.994  0.3168  0.3083  0.2040
  638MPD2    H2 9450   2.701   2.240  14.640 -0.2779 -1.2730 -2.5175
  638MPD2    H3 9451   2.584   2.305  14.834 -0.5341 -0.6133  0.0339
  638MPD2     N 9452   2.474   1.866  14.939 -0.4581  0.0520 -0.2137
  638MPD2    H5 9453   2.465   1.777  14.893  1.1746  0.4390 -1.3030
  638MPD2    N1 9454   2.673   2.006  14.523  0.6883 -0.6057  0.2187
  638MPD2    H7 9455   2.728   2.079  14.478 -2.0537  0.3595 -1.5558
  639TMC3    C1 9456   2.376   1.754  15.121 -0.2510  0.5498  0.1168
  639TMC3    C2 9457   2.328   1.645  15.044 -0.2635  0.2757  0.2177
  639TMC3    C3 9458   2.298   1.533  15.119  0.0673  0.1537  0.8559
  639TMC3    C4 9459   2.391   1.752  15.259 -1.0323  1.0309  0.4299
  639TMC3    C5 9460   2.357   1.636  15.317 -0.4505 -0.7201 -0.1600
  639TMC3    C6 9461   2.321   1.524  15.249  0.8601 -0.8515 -1.0100
  639TMC3     C 9462   2.440   1.873  15.070 -0.9840  0.5035 -1.6660
  639TMC3     O 9463   2.448   1.971  15.140 -0.5408 -0.2621  0.2356
  639TMC3     H 9464   2.290   1.654  14.943 -3.2706  0.8117  1.4041
  639TMC3    H1 9465   2.434   1.837  15.311 -2.2234  2.6845 -1.2663
  639TMC3    H2 9466   2.307   1.432  15.304  1.2347 -0.5848 -0.4643
  639TMC3    C7 9467   2.455   1.609  15.415 -1.0760 -1.0535 -0.5392
  639TMC3    C8 9468   2.270   1.402  15.053 -0.1375 -0.2598 -0.3350
  639TMC3    O1 9469   2.426   1.629  15.533  0.1214 -0.6202  0.6333
  639TMC3    O2 9470   2.287   1.396  14.931 -0.2678 -0.4509 -0.0476
  640MPD2     C 9471   3.419   0.314  10.455  1.3894  0.4865 -0.0941
  640MPD2    C1 9472   3.413   0.413  10.353 -0.0299 -0.6345 -0.0235
  640MPD2    C2 9473   3.371   0.543  10.389 -0.2403  0.1429  0.2255
  640MPD2    C3 9474   3.333   0.574  10.520 -0.1122  0.5434  0.3677
  640MPD2    C4 9475   3.345   0.473  10.616  0.9243 -0.5132 -0.3882
  640MPD2    C5 9476   3.382   0.344  10.584  0.3996 -0.0369  0.3021
  640MPD2     H 9477   3.362   0.619  10.312  2.9970  0.4582  0.1520
  640MPD2    H1 9478   3.311   0.489  10.717 -0.1822  0.0255 -0.8408
  640MPD2    H2 9479   3.447   0.212  10.429 -0.4970  0.0849 -0.6327
  640MPD2    H3 9480   3.380   0.272  10.665 -0.0796  0.3307  0.6139
  640MPD2     N 9481   3.282   0.705  10.560 -0.6894 -0.0106 -0.2041
  640MPD2    H5 9482   3.238   0.710  10.651 -0.6264  0.4203 -0.1976
  640MPD2    N1 9483   3.441   0.368  10.222  0.0832 -0.0603 -0.0146
  640MPD2    H7 9484   3.467   0.270  10.225  0.3581  0.0016 -0.3733
  641TMC3    C1 9485   3.444   0.342   9.994  0.9220  0.9512 -0.4978
  641TMC3    C2 9486   3.545   0.249  10.010  0.0027  0.3667 -0.3933
  641TMC3    C3 9487   3.565   0.172   9.903  0.1161  0.6565 -0.3827
  641TMC3    C4 9488   3.360   0.344   9.890 -0.1435  0.0837  0.5667
  641TMC3    C5 9489   3.379   0.259   9.793 -0.2771  0.2451  0.0025
  641TMC3    C6 9490   3.488   0.178   9.788  0.9070  0.2446 -0.3440
  641TMC3     C 9491   3.419   0.436  10.108 -1.1181 -0.0985 -0.2097
  641TMC3     O 9492   3.378   0.551  10.089  0.0264  0.1147 -0.5981
  641TMC3     H 9493   3.620   0.242  10.088  0.8006  0.5437 -1.1453
  641TMC3    H1 9494   3.280   0.417   9.897 -1.7113 -1.5568 -0.1395
  641TMC3    H2 9495   3.503   0.104   9.711  0.1836 -0.1600 -0.0923
  641TMC3    C7 9496   3.272   0.234   9.693  0.4177 -0.6986  0.3236
  641TMC3    C8 9497   3.676   0.080   9.892 -0.0423 -0.0931  0.3533
  641TMC3    O1 9498   3.292   0.154   9.604 -0.7145  0.0134 -0.2851
  641TMC3    O2 9499   3.712   0.053   9.782 -0.4209  0.4330  0.4878
  642TMC3    C1 9500   4.271   1.593  12.289 -0.4437 -0.0256  0.2663
  642TMC3    C2 9501   4.287   1.614  12.426 -0.5907 -0.9773 -0.5913
  642TMC3    C3 9502   4.336   1.511  12.500  0.7959 -0.0448  0.6176
  642TMC3    C4 9503   4.288   1.473  12.229 -0.4043  0.1250  0.0755
  642TMC3    C5 9504   4.321   1.366  12.304 -0.0731 -0.2707  0.2374
  642TMC3    C6 9505   4.343   1.383  12.443  0.5110 -1.4612 -0.3096
  642TMC3     C 9506   4.206   1.687  12.210  0.5592 -0.1436 -0.1919
  642TMC3     O 9507   4.216   1.678  12.089 -0.3449 -0.3896 -0.2016
  642TMC3     H 9508   4.285   1.717  12.459 -0.8993 -0.9549 -0.6766
  642TMC3    H1 9509   4.262   1.460  12.125  0.4389  0.7973 -0.2211
  642TMC3    H2 9510   4.374   1.298  12.502  0.0346 -1.9239 -0.7212
  642TMC3    C7 9511   4.279   1.236  12.248  0.7474  0.7233  0.0656
  642TMC3    C8 9512   4.309   1.505  12.639 -0.0300 -0.1273 -0.5086
  642TMC3    O1 9513   4.262   1.223  12.129  0.2787  0.1075 -0.5389
  642TMC3    O2 9514   4.265   1.401  12.686  0.3324 -0.3946  0.3541
  643TMC3    C1 9515   3.369   0.871   0.216 -0.3072  0.2779  0.0210
  643TMC3    C2 9516   3.241   0.920   0.184  0.0107  0.0942 -0.0090
  643TMC3    C3 9517   3.161   0.824   0.130  0.3925  0.5980 -0.0636
  643TMC3    C4 9518   3.416   0.743   0.179  0.1318 -0.5995 -0.3568
  643TMC3    C5 9519   3.345   0.675   0.089 -0.0742  0.2005 -0.2331
  643TMC3    C6 9520   3.215   0.703   0.083 -0.4024 -0.0319  0.5224
  643TMC3     C 9521   3.422   0.936   0.332  0.5422  0.5836 -0.5961
  643TMC3     O 9522   3.406   1.056   0.350 -0.4543  0.0157  0.0439
  643TMC3     H 9523   3.206   1.019   0.211  1.4620 -0.0502  2.4312
  643TMC3    H1 9524   3.521   0.720   0.169  0.0332 -1.3711  0.3895
  643TMC3    H2 9525   3.151   0.628   0.038  0.1698  0.4040 -1.0445
  643TMC3    C7 9526   3.408   0.637  17.647 -0.4688  0.0037 -0.2730
  643TMC3    C8 9527   3.049   0.865   0.053 -0.2620 -0.2097  0.3255
  643TMC3    O1 9528   3.335   0.652  17.551  0.1856 -0.0948 -0.3074
  643TMC3    O2 9529   2.957   0.788   0.035  0.2867  0.1829 -0.7225
  644MPD2     C 9530   3.824   1.449  10.012 -0.3187  0.2579  0.0150
  644MPD2    C1 9531   3.731   1.370   9.942 -0.4086  1.0001  0.2330
  644MPD2    C2 9532   3.636   1.432   9.867  0.3080  0.4287  0.8286
  644MPD2    C3 9533   3.634   1.570   9.843  0.0349  0.3105  0.2119
  644MPD2    C4 9534   3.728   1.640   9.917 -0.0357 -0.5137  0.5812
  644MPD2    C5 9535   3.815   1.585  10.002 -0.7423  0.6768  0.3400
  644MPD2     H 9536   3.565   1.379   9.804  2.4840 -0.4999 -0.8372
  644MPD2    H1 9537   3.732   1.748   9.914 -1.1586 -0.5134 -0.9057
  644MPD2    H2 9538   3.908   1.408  10.066 -0.1331  1.3875  0.5936
  644MPD2    H3 9539   3.881   1.650  10.059  2.1847 -3.6143  1.8945
  644MPD2     N 9540   3.537   1.625   9.758 -0.3851  0.0213  0.0521
  644MPD2    H5 9541   3.487   1.556   9.702  0.7796 -1.6111  1.0243
  644MPD2    N1 9542   3.740   1.226   9.964  0.0932  0.2145 -0.4282
  644MPD2    H7 9543   3.820   1.197  10.019  1.0465  0.5018 -1.6587
  645TMC3    C1 9544   3.397   1.781   9.655 -0.1529  0.1725  0.0403
  645TMC3    C2 9545   3.409   1.889   9.562  0.6298  0.8408 -0.1612
  645TMC3    C3 9546   3.301   1.904   9.476  0.6325 -0.8397  0.8001
  645TMC3    C4 9547   3.303   1.685   9.656 -0.9046 -0.3655  0.6310
  645TMC3    C5 9548   3.207   1.705   9.566 -0.5225 -0.5857 -0.7813
  645TMC3    C6 9549   3.201   1.812   9.481  0.0177 -0.7183 -0.0624
  645TMC3     C 9550   3.527   1.757   9.725  0.4024 -0.0884 -0.8293
  645TMC3     O 9551   3.605   1.848   9.750  0.1574  0.1108  0.6017
  645TMC3     H 9552   3.496   1.953   9.572  1.6943 -0.1377 -3.2259
  645TMC3    H1 9553   3.302   1.601   9.725 -0.9688 -1.1003 -0.2779
  645TMC3    H2 9554   3.119   1.826   9.412  0.0171 -0.9637 -0.1125
  645TMC3    C7 9555   3.091   1.611   9.570 -0.1099  0.2294  0.2298
  645TMC3    C8 9556   3.319   1.975   9.350  0.3660 -0.2676  0.1767
  645TMC3    O1 9557   3.078   1.545   9.671  0.2313 -0.2752  0.0989
  645TMC3    O2 9558   3.259   1.941   9.251 -0.3934 -0.5545 -0.2020
  646MPD2     C 9559   2.775   0.121  14.574 -0.4263 -0.0470 -0.6921
  646MPD2    C1 9560   2.713   0.152  14.697 -0.3644 -0.0036  0.2763
  646MPD2    C2 9561   2.606   0.242  14.696  0.3626 -0.4722  0.1197
  646MPD2    C3 9562   2.571   0.319  14.584  0.0158  0.6742  0.1810
  646MPD2    C4 9563   2.653   0.305  14.472  0.1229  0.3927 -0.1501
  646MPD2    C5 9564   2.747   0.207  14.472 -0.7610 -0.2513  0.1611
  646MPD2     H 9565   2.549   0.253  14.788 -0.9393 -1.5010 -0.5800
  646MPD2    H1 9566   2.635   0.369  14.386  1.2907  0.8408 -0.0598
  646MPD2    H2 9567   2.841   0.037  14.556  0.2840  0.3800 -0.0628
  646MPD2    H3 9568   2.817   0.194  14.390  0.5514  0.9406  1.0967
  646MPD2     N 9569   2.473   0.412  14.594  0.3652  0.5535  0.0861
  646MPD2    H5 9570   2.437   0.438  14.686  0.7295  2.1194 -0.2073
  646MPD2    N1 9571   2.753   0.064  14.802  0.3322  0.2040 -0.9771
  646MPD2    H7 9572   2.837   0.009  14.784  0.3306 -0.6592  1.6220
  647TMC3    C1 9573   2.753   4.682  15.009  0.6460  0.1478 -0.4016
  647TMC3    C2 9574   2.671   4.630  15.107 -0.0791  0.1286  0.0583
  647TMC3    C3 9575   2.722   4.597  15.228 -0.1676 -0.0241  0.2276
  647TMC3    C4 9576   2.885   4.709  15.032 -0.3876  0.3150  0.0009
  647TMC3    C5 9577   2.930   4.684  15.160  0.1583  0.4287  0.2065
  647TMC3    C6 9578   2.848   4.629  15.261  0.2998 -0.3713  0.0786
  647TMC3     C 9579   2.683   0.046  14.919  0.2799 -0.0494  0.1542
  647TMC3     O 9580   2.587   0.102  14.960  0.0884  0.0413 -0.3418
  647TMC3     H 9581   2.568   4.606  15.083  0.4149  0.6323 -2.5712
  647TMC3    H1 9582   2.950   0.043  14.965 -4.0486  2.4626 -1.7972
  647TMC3    H2 9583   2.881   4.587  15.355  0.4073  0.6511  0.4907
  647TMC3    C7 9584   3.067   4.635  15.173 -0.1839 -0.3788  0.5620
  647TMC3    C8 9585   2.687   4.464  15.273  0.3553 -0.0331 -0.1160
  647TMC3    O1 9586   3.084   4.569  15.279 -0.5200  0.5369  0.8048
  647TMC3    O2 9587   2.706   4.444  15.394  0.0269 -0.2315  0.1558
  648TMC3    C1 9588   1.763   2.688  16.046  0.0763  0.1021 -0.3058
  648TMC3    C2 9589   1.688   2.586  16.009 -0.1588 -0.1680  0.4348
  648TMC3    C3 9590   1.635   2.594  15.878  0.4000 -0.4206 -0.3991
  648TMC3    C4 9591   1.774   2.804  15.967  0.0468 -0.6188  0.5427
  648TMC3    C5 9592   1.713   2.809  15.846  0.1284  0.6307 -0.2162
  648TMC3    C6 9593   1.648   2.701  15.795  0.4179  0.0911  0.6150
  648TMC3     C 9594   1.801   2.705  16.185  1.1209  0.5183  0.1402
  648TMC3     O 9595   1.857   2.812  16.215  0.0932  0.1168 -0.3617
  648TMC3     H 9596   1.693   2.496  16.069 -0.0883 -0.0164  0.6556
  648TMC3    H1 9597   1.825   2.890  16.008 -0.0030  0.6091 -1.9461
  648TMC3    H2 9598   1.614   2.701  15.692 -0.2871  1.0268  0.8443
  648TMC3    C7 9599   1.683   2.941  15.788 -0.2553  0.6634  0.4332
  648TMC3    C8 9600   1.610   2.468  15.813  0.5248 -0.7060 -0.4567
  648TMC3    O1 9601   1.666   2.946  15.667  0.2494 -0.0413 -0.1404
  648TMC3    O2 9602   1.507   2.450  15.747  0.8675 -0.3976  0.4708
  649TMC3    C1 9603   1.150   3.412  13.030 -0.1344  0.0683 -0.0783
  649TMC3    C2 9604   1.221   3.330  12.951 -0.1808  0.1395  0.6205
  649TMC3    C3 9605   1.239   3.200  12.998  0.8196 -0.4869  0.3532
  649TMC3    C4 9606   1.105   3.379  13.148 -0.0270  0.1088 -0.3676
  649TMC3    C5 9607   1.125   3.251  13.187 -0.1037  0.3601  0.0596
  649TMC3    C6 9608   1.191   3.158  13.117 -0.5925 -0.2132 -0.8838
  649TMC3     C 9609   1.109   3.534  12.986  0.4018  0.7064  0.1258
  649TMC3     O 9610   0.997   3.571  13.021  1.0852 -0.3901  0.0876
  649TMC3     H 9611   1.256   3.368  12.855 -0.8507 -2.0669 -0.4925
  649TMC3    H1 9612   1.050   3.453  13.204 -2.1529 -1.5672 -0.2345
  649TMC3    H2 9613   1.197   3.053  13.142  3.1371  0.1631 -0.3400
  649TMC3    C7 9614   1.041   3.219  13.300 -0.0774 -0.6791  0.1158
  649TMC3    C8 9615   1.350   3.122  12.938  0.4169  0.1405 -0.8857
  649TMC3    O1 9616   0.975   3.303  13.363 -0.1245  0.1949 -0.3229
  649TMC3    O2 9617   1.360   3.001  12.966  0.3470 -0.2516 -0.0962
  650TMC3    C1 9618   3.628   0.797  13.087  0.2083 -0.3754 -0.3822
  650TMC3    C2 9619   3.608   0.927  13.068  0.1552  0.3113 -0.0150
  650TMC3    C3 9620   3.656   0.984  12.954  0.7688 -0.0546  0.2754
  650TMC3    C4 9621   3.676   0.716  12.992 -0.1029  0.5449 -0.4826
  650TMC3    C5 9622   3.730   0.776  12.877 -0.4287 -0.2054 -0.5632
  650TMC3    C6 9623   3.721   0.911  12.861 -0.1838 -0.1715  0.3294
  650TMC3     C 9624   3.629   0.758  13.226 -0.3124  1.1099 -0.3598
  650TMC3     O 9625   3.637   0.847  13.309  0.3209 -0.6429 -0.3014
  650TMC3     H 9626   3.563   0.984  13.148  2.6228  2.1356  0.0806
  650TMC3    H1 9627   3.676   0.608  12.999 -1.9152  0.7534  2.6024
  650TMC3    H2 9628   3.770   0.952  12.774 -0.6695 -2.8156 -1.1880
  650TMC3    C7 9629   3.699   0.702  12.761 -0.4115  0.2756  0.1009
  650TMC3    C8 9630   3.576   1.085  12.883  0.1085  0.6058  0.4408
  650TMC3    O1 9631   3.727   0.584  12.764 -0.2217  0.0581 -0.6248
  650TMC3    O2 9632   3.614   1.101  12.765  0.0267 -0.4614 -0.4818
  651MPD2     C 9633   2.722   2.379  10.375  0.0627  0.2781  0.7884
  651MPD2    C1 9634   2.699   2.505  10.437 -1.1115 -0.2324 -0.3945
  651MPD2    C2 9635   2.798   2.594  10.442  0.2174 -0.3841  0.4044
  651MPD2    C3 9636   2.918   2.573  10.376 -0.7371 -0.1136  0.0226
  651MPD2    C4 9637   2.948   2.449  10.317 -0.0407 -0.0692  0.2796
  651MPD2    C5 9638   2.845   2.355  10.312 -1.0830  0.2194 -0.4754
  651MPD2     H 9639   2.781   2.689  10.491 -1.6261 -1.0566  1.0769
  651MPD2    H1 9640   3.045   2.426  10.272 -0.0290 -0.4770  0.5150
  651MPD2    H2 9641   2.655   2.293  10.372 -0.1928  0.4635  1.1609
  651MPD2    H3 9642   2.860   2.256  10.272  0.2949  0.1127  0.3044
  651MPD2     N 9643   3.020   2.672  10.396 -0.0475  0.7374  0.5756
  651MPD2    H5 9644   2.994   2.752  10.454 -0.0864  0.9331  0.2905
  651MPD2    N1 9645   2.575   2.537  10.485 -0.0846  0.4369 -1.1314
  651MPD2    H7 9646   2.574   2.635  10.513  1.9750  0.1115  0.0455
  652TMC3    C1 9647   3.440   2.813  10.503 -0.0301 -0.4713  0.3242
  652TMC3    C2 9648   3.340   2.776  10.413  0.2835  0.1658  0.5087
  652TMC3    C3 9649   3.223   2.731  10.464 -0.4072 -0.0501 -0.5305
  652TMC3    C4 9650   3.419   2.789  10.637  0.3855 -0.5335 -0.5340
  652TMC3    C5 9651   3.293   2.762  10.673 -0.0136  0.8420 -0.0875
  652TMC3    C6 9652   3.188   2.725  10.591 -0.8539 -0.0222  0.1824
  652TMC3     C 9653   3.578   2.789  10.471  0.5406  0.2549 -0.0788
  652TMC3     O 9654   3.648   2.707  10.526 -0.0087 -0.3357  1.1054
  652TMC3     H 9655   3.353   2.774  10.305  1.6145  0.6389  0.6575
  652TMC3    H1 9656   3.506   2.806  10.700 -0.2100 -0.4529  0.2657
  652TMC3    H2 9657   3.099   2.687  10.639  0.4340 -1.8095  1.1386
  652TMC3    C7 9658   3.258   2.803  10.815  0.0887  0.3631 -0.5487
  652TMC3    C8 9659   3.148   2.654  10.368 -0.9653  0.6780 -0.3104
  652TMC3    O1 9660   3.158   2.756  10.868 -0.5265  0.5523  0.1694
  652TMC3    O2 9661   3.203   2.588  10.279  0.1542  1.1803  0.0665
  653MPD2     C 9662   1.424   2.611   0.053  0.0765 -0.4524 -0.7336
  653MPD2    C1 9663   1.329   2.679  17.672  0.1861 -0.8831  0.0120
  653MPD2    C2 9664   1.246   2.612  17.586  0.2406 -0.5704  0.0002
  653MPD2    C3 9665   1.244   2.474  17.584  0.1885  0.1901 -0.4079
  653MPD2    C4 9666   1.330   2.406  17.665 -0.2479  0.5303 -0.4620
  653MPD2    C5 9667   1.430   2.471   0.038  0.1988 -0.4812  0.0557
  653MPD2     H 9668   1.165   2.666  17.538  0.4668  0.5744  0.8972
  653MPD2    H1 9669   1.324   2.299  17.677  0.1064  0.4949 -0.5913
  653MPD2    H2 9670   1.500   2.658   0.116  0.7049 -2.8719  0.2902
  653MPD2    H3 9671   1.510   2.412   0.081  1.5186  1.8715  0.8367
  653MPD2     N 9672   1.140   2.411  17.508  0.5543  0.0173  0.2480
  653MPD2    H5 9673   1.100   2.462  17.430  2.8792  0.1945 -0.8382
  653MPD2    N1 9674   1.314   2.820   0.001 -0.0540 -0.0836  0.0193
  653MPD2    H7 9675   1.265   2.874  17.619  0.8891 -1.4070 -1.6455
  654TMC3    C1 9676   0.981   2.275  17.419 -0.1716  0.8937  0.0575
  654TMC3    C2 9677   0.924   2.387  17.357 -0.1217  1.1074 -0.1166
  654TMC3    C3 9678   0.843   2.377  17.248  0.1222 -0.3480  0.7576
  654TMC3    C4 9679   0.951   2.150  17.368 -0.4617 -0.0892  0.5626
  654TMC3    C5 9680   0.860   2.145  17.261  0.2688 -0.0109  0.0806
  654TMC3    C6 9681   0.807   2.258  17.196 -0.1185 -0.0402 -0.9145
  654TMC3     C 9682   1.094   2.285  17.510 -0.6567 -0.3119 -0.2191
  654TMC3     O 9683   1.114   2.195  17.589  0.2562 -0.0457  0.6118
  654TMC3     H 9684   0.953   2.486  17.391  0.8546 -0.1485  2.7183
  654TMC3    H1 9685   0.985   2.062  17.420 -0.4529 -0.7106 -0.4926
  654TMC3    H2 9686   0.748   2.247  17.105 -2.4534 -0.6565  0.6688
  654TMC3    C7 9687   0.787   2.022  17.229  0.2542  0.3246  0.2829
  654TMC3    C8 9688   0.791   2.494  17.197 -0.1886 -0.2285  0.3251
  654TMC3    O1 9689   0.701   2.024  17.146 -0.0428 -0.1686 -0.1975
  654TMC3    O2 9690   0.758   2.578  17.276 -0.1485 -0.5075 -0.2284
  655MPD2     C 9691   2.394   2.801  15.808 -0.3497 -0.2475  0.9660
  655MPD2    C1 9692   2.326   2.885  15.728  0.6801  0.4002 -0.3529
  655MPD2    C2 9693   2.298   2.841  15.600 -0.4499 -0.0123  0.6682
  655MPD2    C3 9694   2.340   2.718  15.557 -0.6203 -0.0507 -0.5238
  655MPD2    C4 9695   2.404   2.636  15.644  0.5210  0.3099 -0.0539
  655MPD2    C5 9696   2.419   2.676  15.773 -0.1634  0.6076  0.0423
  655MPD2     H 9697   2.254   2.916  15.534 -1.9331  0.7047  2.4837
  655MPD2    H1 9698   2.440   2.540  15.609  0.9024  0.1269  0.8518
  655MPD2    H2 9699   2.423   2.831  15.908 -0.7808 -0.4309  1.1466
  655MPD2    H3 9700   2.470   2.613  15.845 -0.7776 -0.5356 -0.5199
  655MPD2     N 9701   2.313   2.666  15.425 -0.0719 -0.5418 -0.8180
  655MPD2    H5 9702   2.336   2.570  15.401  3.1067 -0.4312  1.7121
  655MPD2    N1 9703   2.282   3.016  15.775 -0.6592  0.3104  0.0429
  655MPD2    H7 9704   2.312   3.047  15.867 -1.5836 -2.6443  1.3654
  656TMC3    C1 9705   2.167   3.222  15.771 -0.2135  0.0328  0.7264
  656TMC3    C2 9706   2.119   3.201  15.895  0.7807  0.0576 -0.2241
  656TMC3    C3 9707   2.024   3.286  15.952  0.5419 -0.3489  0.1918
  656TMC3    C4 9708   2.127   3.331  15.706  0.5060 -0.2658 -0.6327
  656TMC3    C5 9709   2.033   3.415  15.763 -0.5522  0.1669  0.7239
  656TMC3    C6 9710   1.977   3.394  15.889  0.4882 -0.5930 -0.3541
  656TMC3     C 9711   2.215   3.105  15.696  0.1041 -0.7353  0.1475
  656TMC3     O 9712   2.172   3.104  15.583  0.1787  0.7426 -0.2108
  656TMC3     H 9713   2.130   3.106  15.947 -0.9754 -0.8136 -1.4376
  656TMC3    H1 9714   2.172   3.349  15.609 -0.3287 -1.1642 -1.2004
  656TMC3    H2 9715   1.890   3.442  15.933  0.0836 -2.2828  0.6856
  656TMC3    C7 9716   2.015   3.545  15.691  0.1504 -0.9023 -0.1296
  656TMC3    C8 9717   1.935   3.217  16.049 -0.0496 -0.1458  0.0406
  656TMC3    O1 9718   2.034   3.553  15.570  0.0542  0.4769 -0.7241
  656TMC3    O2 9719   1.940   3.095  16.054 -0.3471 -0.3897 -0.6648
  657TMC3    C1 9720   1.152   2.324  14.919  0.5741  1.6343 -0.9198
  657TMC3    C2 9721   1.176   2.392  15.031  0.3597  0.3774  0.0619
  657TMC3    C3 9722   1.107   2.507  15.038  0.4976  0.4725 -0.2549
  657TMC3    C4 9723   1.057   2.354  14.830  0.1899 -0.4114 -0.3361
  657TMC3    C5 9724   0.977   2.468  14.850 -0.3200  0.4745 -0.7158
  657TMC3    C6 9725   1.012   2.550  14.951  0.1320 -0.5704  0.2006
  657TMC3     C 9726   1.263   2.237  14.860  0.3353 -0.2524 -1.1522
  657TMC3     O 9727   1.244   2.197  14.748  0.2749  0.3062  0.8274
  657TMC3     H 9728   1.242   2.364  15.113 -1.8172 -2.0779  0.9577
  657TMC3    H1 9729   1.039   2.289  14.746  1.4724 -3.0239  1.4263
  657TMC3    H2 9730   0.947   2.635  14.970  0.4365 -0.5083  0.9630
  657TMC3    C7 9731   0.922   2.534  14.728  0.5910  0.1585  0.1291
  657TMC3    C8 9732   1.080   2.550  15.178  0.4724  0.4566 -0.1119
  657TMC3    O1 9733   0.872   2.645  14.745  0.4226  0.1196  0.3713
  657TMC3    O2 9734   1.074   2.461  15.260 -0.5065  0.4610 -0.0649
  658MPD2     C 9735   2.707   2.619  14.920 -0.3716  0.5417  1.3343
  658MPD2    C1 9736   2.574   2.582  14.877  0.1464 -0.2132  0.2338
  658MPD2    C2 9737   2.537   2.587  14.743 -0.4072  0.5894  0.1309
  658MPD2    C3 9738   2.622   2.640  14.653 -0.3349  0.2984  0.5150
  658MPD2    C4 9739   2.753   2.684  14.695  0.8986  0.6123 -0.0213
  658MPD2    C5 9740   2.793   2.678  14.827 -0.3305 -0.3533  0.5067
  658MPD2     H 9741   2.438   2.556  14.710 -0.7100  1.1263  0.5223
  658MPD2    H1 9742   2.831   2.724  14.631 -1.1860  2.0992 -1.6235
  658MPD2    H2 9743   2.736   2.610  15.024  0.1987 -2.3233  0.9024
  658MPD2    H3 9744   2.890   2.709  14.864 -0.3761 -0.3616  0.6340
  658MPD2     N 9745   2.583   2.642  14.516  0.2628 -0.0578  0.3916
  658MPD2    H5 9746   2.491   2.603  14.500  0.1802  1.0452 -1.7928
  658MPD2    N1 9747   2.485   2.549  14.979  0.2114 -0.2552 -0.2680
  658MPD2    H7 9748   2.511   2.581  15.071  1.7879  1.9634 -1.4800
  659TMC3    C1 9749   2.282   2.486  15.079 -0.1756  0.5510 -0.6446
  659TMC3    C2 9750   2.312   2.585  15.171 -0.5597 -0.0237  0.1004
  659TMC3    C3 9751   2.210   2.655  15.221  0.4734  0.7671  0.4432
  659TMC3    C4 9752   2.153   2.460  15.044  1.2267 -0.9058 -0.1684
  659TMC3    C5 9753   2.054   2.539  15.097  0.0170 -0.6266 -0.4537
  659TMC3    C6 9754   2.079   2.640  15.178 -0.1016 -0.2890  0.3921
  659TMC3     C 9755   2.366   2.475  14.961  0.3025  0.0114  0.2829
  659TMC3     O 9756   2.333   2.406  14.868  0.1256 -0.5400  0.1545
  659TMC3     H 9757   2.413   2.604  15.206 -0.4525 -0.9415  0.2859
  659TMC3    H1 9758   2.137   2.375  14.978  1.0759 -0.5445 -0.6028
  659TMC3    H2 9759   1.999   2.694  15.228 -0.9863 -0.3154 -1.0065
  659TMC3    C7 9760   1.946   2.558  14.996  0.1797 -0.2870  0.6317
  659TMC3    C8 9761   2.236   2.739  15.331  0.1581 -0.4233  0.4085
  659TMC3    O1 9762   1.879   2.659  15.014 -0.4903  0.1291 -0.4043
  659TMC3    O2 9763   2.210   2.859  15.323 -0.2833  0.8354 -0.3769
  660MPD2     C 9764   0.667   1.393  12.490  0.7066  0.6717  0.3963
  660MPD2    C1 9765   0.557   1.464  12.510 -0.2972  0.1815 -0.7066
  660MPD2    C2 9766   0.464   1.432  12.604 -0.0969  0.3861 -0.8974
  660MPD2    C3 9767   0.496   1.333  12.693 -0.0460  0.8623  0.0589
  660MPD2    C4 9768   0.607   1.248  12.665  0.2834 -0.9924  1.0277
  660MPD2    C5 9769   0.687   1.282  12.559 -0.0392 -0.1060  0.0371
  660MPD2     H 9770   0.373   1.488  12.621 -0.1540 -0.3261  1.1027
  660MPD2    H1 9771   0.640   1.165  12.727  1.5365 -1.6290 -0.4829
  660MPD2    H2 9772   0.745   1.415  12.419  2.5002 -1.6894  1.6425
  660MPD2    H3 9773   0.785   1.239  12.543 -1.0201 -2.8534  1.4847
  660MPD2     N 9774   0.416   1.296  12.803 -0.1381  0.0353  0.8080
  660MPD2    H5 9775   0.452   1.212  12.847  2.2321 -0.1030 -1.4191
  660MPD2    N1 9776   0.536   1.580  12.431  0.1267  0.1623  0.4827
  660MPD2    H7 9777   0.594   1.585  12.348 -2.2030  1.6968 -1.0585
  661TMC3    C1 9778   0.464   1.784  12.351  1.1534  0.2619  0.5335
  661TMC3    C2 9779   0.508   1.763  12.225  0.0035 -0.0886 -0.3740
  661TMC3    C3 9780   0.503   1.867  12.140  0.1622  0.3499  0.2405
  661TMC3    C4 9781   0.415   1.910  12.385 -0.0104 -0.1587  0.0687
  661TMC3    C5 9782   0.388   2.006  12.292 -0.0038  0.2018 -0.2089
  661TMC3    C6 9783   0.432   1.981  12.169 -0.5316 -0.3575 -0.8410
  661TMC3     C 9784   0.446   1.680  12.451  0.3191  0.2940 -0.5538
  661TMC3     O 9785   0.341   1.683  12.520 -0.2139 -0.1038 -0.1532
  661TMC3     H 9786   0.561   1.671  12.203 -0.1330  0.2282 -1.9723
  661TMC3    H1 9787   0.395   1.925  12.490 -0.8378 -0.6242 -0.0272
  661TMC3    H2 9788   0.406   2.057  12.096 -0.3958  0.8977  0.4327
  661TMC3    C7 9789   0.247   2.027  12.278 -0.0275  0.1732  0.1648
  661TMC3    C8 9790   0.566   1.850  12.004 -0.3843  0.0634  0.1930
  661TMC3    O1 9791   0.194   2.043  12.389  0.1984 -0.3975  0.1912
  661TMC3    O2 9792   0.597   1.737  11.967 -0.0847 -0.2698 -0.2027
  662MPD2     C 9793   1.029   0.892   0.152 -0.2525  0.1865  0.0436
  662MPD2    C1 9794   0.947   0.916   0.039  0.4182  0.0031  0.6331
  662MPD2    C2 9795   0.842   1.001   0.069 -0.1419  1.1407 -0.0270
  662MPD2    C3 9796   0.823   1.066   0.193 -0.1102  0.2574 -0.4997
  662MPD2    C4 9797   0.898   1.028   0.303 -0.6905 -0.1754 -0.3790
  662MPD2    C5 9798   0.995   0.937   0.282  0.2783  0.9891  1.2037
  662MPD2     H 9799   0.768   1.005  17.679  0.1341  4.9726 -0.1087
  662MPD2    H1 9800   0.886   1.073   0.401  2.3178  0.2064 -0.1678
  662MPD2    H2 9801   1.114   0.826   0.151  0.5103  1.1524  0.7214
  662MPD2    H3 9802   1.056   0.902   0.365  0.5311 -0.7505  0.2960
  662MPD2     N 9803   0.723   1.163   0.211 -0.7809 -0.4402  0.1883
  662MPD2    H5 9804   0.718   1.216   0.297 -1.3894  0.1168 -0.1934
  662MPD2    N1 9805   0.964   0.861  17.600  0.1210  0.1231 -0.3347
  662MPD2    H7 9806   0.891   0.884  17.533  0.3015 -3.6260 -1.8409
  663TMC3    C1 9807   1.056   0.727  17.431  0.6611 -0.2807 -0.1771
  663TMC3    C2 9808   0.933   0.747  17.372 -0.4412 -0.2927  0.1173
  663TMC3    C3 9809   0.881   0.656  17.288 -0.2295 -0.4628  1.1236
  663TMC3    C4 9810   1.127   0.611  17.420 -0.6757 -0.9804 -0.2049
  663TMC3    C5 9811   1.081   0.522  17.328 -0.6728 -1.0533 -1.1086
  663TMC3    C6 9812   0.951   0.538  17.276 -0.3867 -0.3305  0.0158
  663TMC3     C 9813   1.067   0.776  17.567  0.4845 -0.1834  0.1238
  663TMC3     O 9814   1.176   0.763  17.623 -0.0541 -0.2335  0.6027
  663TMC3     H 9815   0.903   0.850  17.357  1.3741  0.1162 -0.6780
  663TMC3    H1 9816   1.209   0.593  17.488  1.6486  2.9232 -1.9784
  663TMC3    H2 9817   0.927   0.472  17.194  1.6264 -0.3881 -0.5301
  663TMC3    C7 9818   1.103   0.386  17.370  0.3751 -0.1055 -0.2031
  663TMC3    C8 9819   0.755   0.613  17.342 -0.4546 -0.1491 -0.3143
  663TMC3    O1 9820   1.213   0.338  17.397  0.2859 -0.3219 -0.2255
  663TMC3    O2 9821   0.743   0.494  17.353  0.6294 -0.2082 -0.1252
  664MPD2     C 9822   3.744   0.195   0.590 -0.3686 -0.2619  0.3671
  664MPD2    C1 9823   3.753   0.060   0.545  0.0642  0.1030  0.1185
  664MPD2    C2 9824   3.779   4.681   0.634 -0.7359 -0.1807  0.0061
  664MPD2    C3 9825   3.796   4.703   0.772  0.4558  0.3960  0.2803
  664MPD2    C4 9826   3.787   0.116   0.810  0.3287 -0.2822  0.0031
  664MPD2    C5 9827   3.756   0.219   0.725 -0.0259  0.4796 -0.4753
  664MPD2     H 9828   3.792   4.579   0.598 -0.5561  0.3054 -1.2661
  664MPD2    H1 9829   3.804   0.142   0.914 -1.6792  0.0982  0.2369
  664MPD2    H2 9830   3.730   0.281   0.525 -0.2316  1.1577  2.2110
  664MPD2    H3 9831   3.757   0.322   0.761 -3.1706  1.0904 -2.1302
  664MPD2     N 9832   3.834   4.595   0.857  0.1953  0.1371 -0.4234
  664MPD2    H5 9833   3.825   4.507   0.808 -1.6984 -0.0007  0.1617
  664MPD2    N1 9834   3.746   0.022   0.405 -0.2143 -0.4635  0.0403
  664MPD2    H7 9835   3.753   4.644   0.383 -2.1476 -0.1860 -1.7838
  665TMC3    C1 9836   3.890   4.479   1.064 -0.1049 -0.0693 -0.5899
  665TMC3    C2 9837   3.975   4.389   1.009 -0.3429 -0.0059 -0.1498
  665TMC3    C3 9838   4.024   4.289   1.085 -0.1299  0.3375 -0.6953
  665TMC3    C4 9839   3.862   4.474   1.200 -0.7046  0.0376 -0.7516
  665TMC3    C5 9840   3.911   4.372   1.275  0.5838 -0.6281 -0.1460
  665TMC3    C6 9841   3.995   4.278   1.217 -1.0659 -0.2398 -0.0372
  665TMC3     C 9842   3.833   4.598   0.996 -0.1312 -0.3862 -0.3808
  665TMC3     O 9843   3.799   4.684   1.073 -0.1645 -0.0548  0.1398
  665TMC3     H 9844   4.017   4.408   0.911  0.0198 -0.5613 -0.1055
  665TMC3    H1 9845   3.800   4.552   1.242 -0.9379 -0.3932 -0.3066
  665TMC3    H2 9846   4.056   4.217   1.283 -1.7347 -0.9900 -0.1055
  665TMC3    C7 9847   3.913   4.381   1.424 -0.1254  0.5578 -1.0508
  665TMC3    C8 9848   4.094   4.170   1.038  0.3345  0.7287  0.3908
  665TMC3    O1 9849   3.968   4.292   1.484 -0.4193 -0.4932  0.2784
  665TMC3    O2 9850   4.107   4.084   1.124 -0.2076 -0.0510 -0.4686
  666TMC3    C1 9851   3.341   3.960  10.087  0.0639  0.1029  0.1747
  666TMC3    C2 9852   3.408   3.893  10.183 -0.3052  0.3731 -0.1869
  666TMC3    C3 9853   3.504   3.959  10.252  0.7158 -0.2033 -0.0835
  666TMC3    C4 9854   3.376   4.085  10.042  0.8722 -0.8535 -0.1919
  666TMC3    C5 9855   3.473   4.149  10.120 -0.3299  0.6809  0.2359
  666TMC3    C6 9856   3.534   4.087  10.226  0.7571 -0.2295 -0.7268
  666TMC3     C 9857   3.206   3.907  10.041  0.2575 -0.7727  0.3419
  666TMC3     O 9858   3.153   3.956   9.942  0.8428 -0.2071 -0.1663
  666TMC3     H 9859   3.382   3.797  10.227  3.0936 -0.2326  0.5251
  666TMC3    H1 9860   3.314   4.134   9.968  1.0304 -0.6474 -0.1895
  666TMC3    H2 9861   3.603   4.147  10.284 -0.7531  2.2311 -1.4831
  666TMC3    C7 9862   3.452   4.285  10.132  0.7320  0.2080 -0.2710
  666TMC3    C8 9863   3.576   3.882  10.352 -0.3632 -0.4880  0.5047
  666TMC3    O1 9864   3.433   4.319  10.247 -0.0881 -0.4869  0.6766
  666TMC3    O2 9865   3.514   3.794  10.406  0.4221  0.3750  0.5335
  667MPD2     C 9866   4.257   3.799  15.079 -0.4039 -0.5174 -0.7274
  667MPD2    C1 9867   4.141   3.867  15.103 -0.0584 -0.1277 -0.2566
  667MPD2    C2 9868   4.023   3.827  15.038  0.8518 -0.2333 -0.4378
  667MPD2    C3 9869   4.025   3.720  14.946 -0.2370  0.8911 -0.5684
  667MPD2    C4 9870   4.143   3.656  14.923 -0.4655 -0.0043 -0.9039
  667MPD2    C5 9871   4.260   3.697  14.986  0.3095  0.4587 -0.1860
  667MPD2     H 9872   3.924   3.871  15.049  0.2066 -2.0197  0.9068
  667MPD2    H1 9873   4.156   3.577  14.850  1.6400 -0.9361  0.4833
  667MPD2    H2 9874   4.347   3.823  15.134 -0.9769 -0.4439  0.1910
  667MPD2    H3 9875   4.347   3.636  14.968  0.5643  0.6138  0.5627
  667MPD2     N 9876   3.913   3.676  14.874 -0.2875 -0.2535 -0.4002
  667MPD2    H5 9877   3.927   3.599  14.810  0.3575  0.2962 -0.9203
  667MPD2    N1 9878   4.137   3.979  15.184  0.2813 -0.1211 -0.3734
  667MPD2    H7 9879   4.043   4.005  15.210 -0.1864 -1.7206 -0.4839
  668TMC3    C1 9880   4.183   4.151  15.327 -0.4495  0.2893 -1.1123
  668TMC3    C2 9881   4.268   4.260  15.336 -0.0956 -0.5489  0.0212
  668TMC3    C3 9882   4.262   4.338  15.445 -1.0293  0.3708  0.1011
  668TMC3    C4 9883   4.098   4.110  15.429  0.5209 -0.8374 -0.7617
  668TMC3    C5 9884   4.104   4.189  15.538  0.4303 -0.4226 -0.6691
  668TMC3    C6 9885   4.183   4.303  15.547 -0.1032 -0.1414 -0.3695
  668TMC3     C 9886   4.238   4.049  15.240  0.1483  0.3470  0.3687
  668TMC3     O 9887   4.362   4.049  15.228  0.4291 -0.2106  0.7303
  668TMC3     H 9888   4.337   4.281  15.255 -0.8123 -0.0543 -0.4599
  668TMC3    H1 9889   4.046   4.017  15.412  0.2007 -1.1377  1.8913
  668TMC3    H2 9890   4.190   4.360  15.638 -0.4031 -0.7399  0.0326
  668TMC3    C7 9891   4.031   4.142  15.660 -1.2634  0.4504  0.2708
  668TMC3    C8 9892   4.371   4.432  15.471 -0.5323 -0.7586  0.0453
  668TMC3    O1 9893   4.047   4.218  15.757 -0.2933 -0.7992  0.1321
  668TMC3    O2 9894   4.389   4.447  15.590 -0.3603 -0.4847  0.0996
  669TMC3    C1 9895   2.373   3.906  14.744 -1.1174 -0.5983 -0.4786
  669TMC3    C2 9896   2.262   3.901  14.667 -1.3269 -0.2594  0.4478
  669TMC3    C3 9897   2.275   3.952  14.542 -0.1522 -0.5378  0.3293
  669TMC3    C4 9898   2.500   3.939  14.701 -0.3443  0.5121  1.0594
  669TMC3    C5 9899   2.511   3.967  14.565 -0.0887  0.2846  0.2530
  669TMC3    C6 9900   2.397   3.980  14.490 -0.5282 -0.1373 -0.2266
  669TMC3     C 9901   2.363   3.865  14.886 -0.2747 -0.1696  0.4769
  669TMC3     O 9902   2.403   3.943  14.968 -0.5331 -0.0574  0.6033
  669TMC3     H 9903   2.164   3.885  14.710 -0.2718 -0.6716  2.7025
  669TMC3    H1 9904   2.574   3.959  14.779  0.4124 -3.7533  1.4340
  669TMC3    H2 9905   2.414   4.012  14.387  1.1094  1.8422  0.6537
  669TMC3    C7 9906   2.617   4.060  14.525 -0.7992  0.2984  0.0071
  669TMC3    C8 9907   2.155   3.948  14.456  0.2809  0.1229  0.5947
  669TMC3    O1 9908   2.669   4.125  14.612  0.4065  0.0251 -0.1863
  669TMC3    O2 9909   2.063   3.876  14.489 -0.5069  0.1334  0.3074
  670MPD2     C 9910   0.542   1.859  13.615 -0.7905 -0.0143 -0.1047
  670MPD2    C1 9911   0.676   1.860  13.665  0.2341 -0.5821  1.1858
  670MPD2    C2 9912   0.696   1.833  13.798  0.2546 -0.3527  0.2300
  670MPD2    C3 9913   0.585   1.801  13.872  0.3703  0.4476  0.1498
  670MPD2    C4 9914   0.458   1.793  13.820 -0.3079 -0.3932  0.2360
  670MPD2    C5 9915   0.433   1.829  13.691 -0.8958 -0.5684  0.3868
  670MPD2     H 9916   0.792   1.828  13.847  1.7418  0.2845 -2.6607
  670MPD2    H1 9917   0.374   1.750  13.872  0.5085 -2.7404 -0.3882
  670MPD2    H2 9918   0.523   1.887  13.512  0.2879  0.6289 -0.1380
  670MPD2    H3 9919   0.341   1.802  13.641  0.0404  0.7000 -2.0265
  670MPD2     N 9920   0.607   1.782  14.010  0.4088 -0.2973  0.4384
  670MPD2    H5 9921   0.698   1.807  14.048  0.5909 -0.0289 -0.1754
  670MPD2    N1 9922   0.785   1.905  13.579 -0.2673 -0.1180 -0.3942
  670MPD2    H7 9923   0.873   1.924  13.625 -0.0932 -1.0634 -0.3272
  671TMC3    C1 9924   0.563   1.724  14.239 -0.5433  0.5075 -0.0050
  671TMC3    C2 9925   0.687   1.728  14.281 -0.2962 -0.1291  0.1115
  671TMC3    C3 9926   0.712   1.692  14.411  0.6622 -0.7165  0.0496
  671TMC3    C4 9927   0.454   1.699  14.322  0.6371 -0.0516  0.0514
  671TMC3    C5 9928   0.484   1.651  14.445 -0.3020 -0.2889 -0.3876
  671TMC3    C6 9929   0.611   1.664  14.499 -0.5247  0.1484 -0.0661
  671TMC3     C 9930   0.522   1.712  14.092  0.2124  0.0328  0.0781
  671TMC3     O 9931   0.416   1.646  14.072 -0.1171 -0.4425 -1.1077
  671TMC3     H 9932   0.770   1.711  14.214 -0.5503  1.0173 -0.4832
  671TMC3    H1 9933   0.353   1.703  14.284  1.3938 -0.0731 -1.9440
  671TMC3    H2 9934   0.633   1.634  14.600  0.5887  2.0406  0.2517
  671TMC3    C7 9935   0.404   1.549  14.491 -0.8056 -0.4941 -1.0402
  671TMC3    C8 9936   0.837   1.610  14.435 -0.3553 -0.2854 -0.3024
  671TMC3    O1 9937   0.297   1.549  14.433 -0.2805 -0.1376  0.1656
  671TMC3    O2 9938   0.889   1.546  14.347 -0.0008  0.8057 -0.0310
  672MPD2     C 9939   2.133   2.454   1.371 -0.5701 -0.9108 -0.2520
  672MPD2    C1 9940   2.031   2.439   1.273  0.1732  0.5685 -0.2045
  672MPD2    C2 9941   1.907   2.395   1.312  0.2853 -0.2223  0.1654
  672MPD2    C3 9942   1.865   2.376   1.438  0.4823 -0.0384 -0.0364
  672MPD2    C4 9943   1.966   2.394   1.535  0.0228  0.3786 -0.1670
  672MPD2    C5 9944   2.095   2.430   1.502  0.2911 -0.0649  0.2788
  672MPD2     H 9945   1.832   2.383   1.234 -3.1537  2.8195  3.0071
  672MPD2    H1 9946   1.943   2.376   1.640 -1.5223  0.4145 -0.5065
  672MPD2    H2 9947   2.233   2.487   1.346 -0.3627 -1.2833  0.0914
  672MPD2    H3 9948   2.163   2.456   1.583  2.5354 -1.4250 -1.1677
  672MPD2     N 9949   1.737   2.327   1.482  0.0581 -0.6337  0.2416
  672MPD2    H5 9950   1.734   2.288   1.576  1.9837 -1.8758 -0.2120
  672MPD2    N1 9951   2.054   2.449   1.132  0.4325 -0.1861 -0.4854
  672MPD2    H7 9952   1.975   2.416   1.078 -1.2892  3.2621  0.0144
  673TMC3    C1 9953   2.151   2.454   0.927  0.2617  0.5423  0.1579
  673TMC3    C2 9954   2.240   2.370   0.863  0.5638 -0.4018 -0.1844
  673TMC3    C3 9955   2.209   2.336   0.737  0.1481  0.0243 -0.0959
  673TMC3    C4 9956   2.041   2.507   0.868  0.4163 -0.4681  0.1382
  673TMC3    C5 9957   2.014   2.471   0.738  0.6437 -0.5417 -0.3194
  673TMC3    C6 9958   2.093   2.382   0.674 -0.0478 -1.0834  0.5785
  673TMC3     C 9959   2.178   2.476   1.070  0.2850  0.2242  0.4767
  673TMC3     O 9960   2.293   2.475   1.123 -0.7938 -0.1428  0.4743
  673TMC3     H 9961   2.328   2.332   0.913  0.6208  1.1978  0.9282
  673TMC3    H1 9962   1.983   2.586   0.916 -1.0485 -1.5305  0.1332
  673TMC3    H2 9963   2.083   2.364   0.568  0.4713  1.0099  0.1832
  673TMC3    C7 9964   1.962   2.582   0.668  0.2461 -0.0787 -0.1098
  673TMC3    C8 9965   2.239   2.193   0.697 -0.0833 -0.0711  0.4039
  673TMC3    O1 9966   2.027   2.613   0.569 -0.4125  0.0432  0.9194
  673TMC3    O2 9967   2.270   2.157   0.586  0.4680 -0.2214  0.4361
  674MPD2     C 9968   1.124   2.672   0.289  0.6247  0.2715  0.1314
  674MPD2    C1 9969   1.187   2.584   0.381 -0.3640 -0.5573 -0.9318
  674MPD2    C2 9970   1.101   2.516   0.461  0.7463  0.2736 -0.5324
  674MPD2    C3 9971   0.966   2.521   0.455 -0.5560  0.2058  0.3517
  674MPD2    C4 9972   0.911   2.604   0.361  0.3085  0.5514 -0.6184
  674MPD2    C5 9973   0.985   2.683   0.282 -0.4836  0.8578  0.3087
  674MPD2     H 9974   1.148   2.462   0.542  0.9566 -2.6346 -2.6004
  674MPD2    H1 9975   0.806   2.592   0.336  0.3974  0.7252 -1.0773
  674MPD2    H2 9976   1.188   2.742   0.236 -0.0499  0.1470 -0.8507
  674MPD2    H3 9977   0.939   2.746   0.207 -1.2504  0.0483  0.1026
  674MPD2     N 9978   0.883   2.455   0.547  0.2274  0.6693  0.0917
  674MPD2    H5 9979   0.928   2.397   0.617 -1.0321  0.6022  0.8428
  674MPD2    N1 9980   1.329   2.567   0.385 -0.4721 -0.0164  0.7623
  674MPD2    H7 9981   1.376   2.635   0.326 -0.9237 -0.5990 -0.2631
  675TMC3    C1 9982   1.542   2.474   0.420  0.3308  0.3217 -0.1714
  675TMC3    C2 9983   1.615   2.369   0.466  0.2382  0.0105 -0.8970
  675TMC3    C3 9984   1.746   2.368   0.434  0.5116 -0.2484 -0.1594
  675TMC3    C4 9985   1.601   2.585   0.350  0.0263  0.0521  0.5506
  675TMC3    C5 9986   1.739   2.587   0.338 -0.4710  0.3752  0.5348
  675TMC3    C6 9987   1.813   2.470   0.366 -0.1529 -0.3437 -0.5694
  675TMC3     C 9988   1.399   2.456   0.427 -0.4550  0.1749  0.7359
  675TMC3     O 9989   1.354   2.360   0.481  0.1412 -0.4840  0.1648
  675TMC3     H 9990   1.570   2.291   0.527 -0.1052  1.6176  0.9121
  675TMC3    H1 9991   1.548   2.670   0.308 -0.0611  0.0889  0.7374
  675TMC3    H2 9992   1.917   2.455   0.340  0.7898 -0.6692  3.4636
  675TMC3    C7 9993   1.801   2.695   0.267 -0.4920  0.4977 -0.1778
  675TMC3    C8 9994   1.829   2.248   0.467  0.5531 -0.2718 -0.1974
  675TMC3    O1 9995   1.730   2.760   0.190 -0.0951 -0.2635 -0.0489
  675TMC3    O2 9996   1.937   2.230   0.415 -0.8892  0.4376  0.1000
  676MPD2     C 9997   3.759   0.757  11.296  0.0824  0.1712 -1.5799
  676MPD2    C1 9998   3.705   0.650  11.364  0.0444  0.1252  0.6818
  676MPD2    C2 9999   3.756   0.522  11.338 -0.2306  0.8866 -0.2293
  676MPD2    C310000   3.861   0.503  11.250 -0.6123  1.2605 -0.9428
  676MPD2    C410001   3.916   0.616  11.193 -1.0194 -0.3657  0.5213
  676MPD2    C510002   3.872   0.740  11.219 -0.5642  0.0326 -0.1655
  676MPD2     H10003   3.717   0.432  11.385  0.2158  0.7318 -0.1571
  676MPD2    H110004   3.996   0.602  11.122 -1.2255  1.9472 -0.1779
  676MPD2    H210005   3.731   0.861  11.310 -0.9803 -0.4377  0.8218
  676MPD2    H310006   3.929   0.821  11.176 -1.4512  0.8901  0.2457
  676MPD2     N10007   3.913   0.380  11.201 -0.2492  0.0222 -0.3918
  676MPD2    H510008   3.991   0.388  11.137  1.2347 -2.6673  1.0926
  676MPD2    N110009   3.590   0.671  11.448 -0.2153  0.6027  0.8320
  676MPD2    H710010   3.559   0.585  11.493  0.7414 -0.0687  0.1995
  677TMC3    C110011   3.435   0.773  11.582  0.1563  0.6872 -0.5463
  677TMC3    C210012   3.358   0.660  11.580  0.2932  0.4112 -0.6065
  677TMC3    C310013   3.291   0.624  11.689 -0.2026 -0.2140  0.5812
  677TMC3    C410014   3.462   0.834  11.694  0.4487 -0.1202  0.5524
  677TMC3    C510015   3.413   0.777  11.812 -0.3521 -0.4686  0.0492
  677TMC3    C610016   3.307   0.689  11.807 -0.2047  0.3892  0.8090
  677TMC3     C10017   3.531   0.791  11.480  0.0374 -0.9838 -0.0727
  677TMC3     O10018   3.568   0.905  11.457  0.5413 -0.1677 -0.9430
  677TMC3     H10019   3.336   0.608  11.487 -0.0704  1.5017 -1.1381
  677TMC3    H110020   3.542   0.907  11.682 -0.9764  1.0523 -1.6893
  677TMC3    H210021   3.286   0.642  11.902 -0.7397 -1.5100 -0.2492
  677TMC3    C710022   3.485   0.790  11.940 -0.5225  0.6403 -0.0485
  677TMC3    C810023   3.197   0.504  11.674  0.8430 -0.5136 -0.5298
  677TMC3    O110024   3.440   0.735  12.044  0.3848  0.2885  0.7211
  677TMC3    O210025   3.144   0.498  11.568  0.4809  0.1323 -0.1171
  678MPD2     C10026   4.437   1.268   1.618 -0.2449 -0.1047 -0.2667
  678MPD2    C110027   4.458   1.132   1.583  0.0422 -0.2756 -0.0157
  678MPD2    C210028   4.353   1.039   1.601 -0.3345  0.3873 -0.0737
  678MPD2    C310029   4.230   1.092   1.639  0.1392 -0.3690  0.1002
  678MPD2    C410030   4.204   1.227   1.661  0.2997  0.8137 -0.2768
  678MPD2    C510031   4.312   1.313   1.656  1.4655 -0.1332  0.0833
  678MPD2     H10032   4.369   0.937   1.567  0.3647  0.1630  0.9328
  678MPD2    H110033   4.107   1.274   1.670  0.3995  0.7496  1.1119
  678MPD2    H210034   4.522   1.336   1.619 -0.1344 -0.2427 -0.1252
  678MPD2    H310035   4.290   1.417   1.675  1.2529 -0.5156  1.9459
  678MPD2     N10036   4.119   0.999   1.647  0.4989  0.0375  0.1062
  678MPD2    H510037   4.144   0.905   1.618  0.4089 -0.3457  1.2672
  678MPD2    N110038   4.589   1.076   1.536  0.5844  0.1542 -0.1836
  678MPD2    H710039   4.615   0.978   1.527  0.5584  0.1555 -0.2776
  679TMC3    C110040   0.182   0.866   1.420  0.5348 -0.1472  0.6314
  679TMC3    C210041   0.099   0.951   1.492  0.2690 -0.5707  0.1633
  679TMC3    C310042   0.078   1.075   1.435  0.6567 -0.9934 -0.3612
  679TMC3    C410043   0.235   0.901   1.294 -0.4088 -0.2054  0.0301
  679TMC3    C510044   0.200   1.020   1.243  0.5791  0.3025  0.6709
  679TMC3    C610045   0.130   1.112   1.313 -0.2397 -0.0533  0.1039
  679TMC3     C10046   0.196   0.732   1.458 -0.8790  0.4781  0.3848
  679TMC3     O10047   0.230   0.651   1.373  0.1110  0.2011 -0.1333
  679TMC3     H10048   0.027   0.916   1.565  0.6107  2.3831  1.8947
  679TMC3    H110049   0.268   0.823   1.228  1.0214  0.6519 -0.2728
  679TMC3    H210050   0.118   1.214   1.278 -1.1454 -0.1233  0.2055
  679TMC3    C710051   0.253   1.067   1.118  0.2670 -0.1766  0.1028
  679TMC3    C810052   4.679   1.151   1.469 -0.0511  0.0518  0.1681
  679TMC3    O110053   0.188   1.148   1.056 -0.3470 -0.7219 -0.8961
  679TMC3    O210054   4.680   1.271   1.440 -0.1239  0.3206  0.0550
  680MPD2     C10055   0.315   3.592  13.815 -0.5866 -0.2768  1.1247
  680MPD2    C110056   0.415   3.611  13.907  0.6199 -0.0408  0.2099
  680MPD2    C210057   0.440   3.741  13.953  0.4530  0.1239  0.2933
  680MPD2    C310058   0.366   3.853  13.905 -0.4145 -0.3316  0.0464
  680MPD2    C410059   0.266   3.830  13.815  0.8837 -0.6109  0.0534
  680MPD2    C510060   0.238   3.701  13.775  0.0120 -1.3227 -0.2375
  680MPD2     H10061   0.518   3.774  14.020  0.4691 -0.7810  0.7194
  680MPD2    H110062   0.197   3.913  13.797 -0.0201 -2.1413 -3.5804
  680MPD2    H210063   0.290   3.496  13.770  2.8743 -0.2509 -0.8642
  680MPD2    H310064   0.152   3.687  13.712  1.2746  0.8573 -2.4234
  680MPD2     N10065   0.384   3.991  13.946 -0.2652 -0.3537 -0.7192
  680MPD2    H510066   0.326   4.057  13.895  0.4234 -0.5968 -1.8297
  680MPD2    N110067   0.503   3.508  13.949  0.3748 -0.0246 -0.0693
  680MPD2    H710068   0.583   3.538  14.005 -0.2736 -0.2867  0.9881
  681TMC3    C110069   0.611   3.297  13.974 -0.2830  0.3341  0.0637
  681TMC3    C210070   0.643   3.320  14.108 -0.5905  0.0859  0.0595
  681TMC3    C310071   0.716   3.221  14.161 -0.4216 -0.1611 -0.4395
  681TMC3    C410072   0.654   3.193  13.902  0.4490  0.2053 -0.3512
  681TMC3    C510073   0.730   3.098  13.961  0.2935  0.0994  0.4351
  681TMC3    C610074   0.772   3.116  14.089  0.6807 -0.7616 -0.0363
  681TMC3     C10075   0.509   3.378  13.906 -0.0321 -0.5857  0.3619
  681TMC3     O10076   0.426   3.313  13.843  0.1840 -0.3048  0.4812
  681TMC3     H10077   0.610   3.411  14.158  1.0023  2.0560 -2.5140
  681TMC3    H110078   0.612   3.171  13.805 -0.9132 -1.2498  0.5652
  681TMC3    H210079   0.831   3.037  14.135 -2.0590 -0.7377  3.4909
  681TMC3    C710080   0.797   3.004  13.878 -0.4967 -0.1908  0.0711
  681TMC3    C810081   0.778   3.237  14.290 -0.0743  0.4529  0.6430
  681TMC3    O110082   0.842   2.897  13.921 -0.4132 -0.1840 -0.0126
  681TMC3    O210083   0.809   3.140  14.354  0.0875  0.1181 -0.4224
  682MPD2     C10084   2.768   0.615  10.684  0.3156 -0.4779 -0.2576
  682MPD2    C110085   2.755   0.476  10.682  0.6814 -0.3900  0.2789
  682MPD2    C210086   2.670   0.412  10.765  0.6600  0.5257 -0.0743
  682MPD2    C310087   2.592   0.479  10.854 -0.6349  0.2605  0.1241
  682MPD2    C410088   2.603   0.621  10.857 -0.5627  0.0821  0.2859
  682MPD2    C510089   2.683   0.685  10.765 -0.5521  0.3662  0.0338
  682MPD2     H10090   2.652   0.307  10.744 -2.8264  0.7634  1.7274
  682MPD2    H110091   2.526   0.678  10.906  0.3942  2.0481 -0.5000
  682MPD2    H210092   2.838   0.670  10.622  1.1266  0.3171  1.3785
  682MPD2    H310093   2.677   0.793  10.760 -0.5573  0.3250 -0.7950
  682MPD2     N10094   2.502   0.410  10.936  0.3764  1.0850 -0.0917
  682MPD2    H510095   2.436   0.461  10.994 -0.9913 -0.9253  0.1465
  682MPD2    N110096   2.836   0.381  10.609 -0.0443  0.2743  0.1656
  682MPD2    H710097   2.813   0.283  10.610  0.1044  0.2324 -0.4663
  683TMC3    C110098   2.250   0.286  11.247  0.2588 -0.3325 -0.2403
  683TMC3    C210099   2.171   0.178  11.216 -0.2033 -0.4383 -0.1751
  683TMC3    C310100   2.217   0.100  11.115 -0.1193  0.0845  0.0559
  683TMC3    C410101   2.357   0.314  11.164 -0.2374 -0.3720 -0.7352
  683TMC3    C510102   2.373   0.247  11.045 -0.5078 -0.3406 -0.0736
  683TMC3    C610103   2.308   0.133  11.021  0.0471  0.7192 -0.2722
  683TMC3     C10104   2.278   0.295  11.389 -0.4059  0.6802 -0.1093
  683TMC3     O10105   2.379   0.357  11.419  0.5439 -0.1844 -0.2097
  683TMC3     H10106   2.091   0.143  11.280  1.5467  0.7183  2.6353
  683TMC3    H110107   2.408   0.408  11.182  2.2733 -1.7602 -0.6319
  683TMC3    H210108   2.331   0.073  10.934 -0.7841 -0.3269  0.2310
  683TMC3    C710109   2.484   0.271  10.956  0.1597  0.0711 -0.5920
  683TMC3    C810110   2.169   4.685  11.110 -0.4104 -0.0144 -0.1046
  683TMC3    O110111   2.542   0.176  10.908 -0.2155 -1.0431  0.7338
  683TMC3    O210112   2.061   4.659  11.165  0.0231  0.5060  0.4520
  684MPD2     C10113   1.049   4.339  16.482 -0.3777 -0.0827  0.6103
  684MPD2    C110114   1.027   4.437  16.390 -1.1521  0.9722  0.5928
  684MPD2    C210115   1.012   4.575  16.422  0.2232 -0.0044 -0.5711
  684MPD2    C310116   1.027   4.609  16.552  0.5145 -0.1735 -0.4003
  684MPD2    C410117   1.043   4.511  16.652 -0.0486  0.1580  0.1769
  684MPD2    C510118   1.057   4.380  16.613  0.3361  0.0618  0.4483
  684MPD2     H10119   1.004   4.646  16.341  0.7169  2.8196  1.8841
  684MPD2    H110120   1.068   4.545  16.751  0.7091 -1.5703  0.5866
  684MPD2    H210121   1.064   4.234  16.459  2.3681  0.0053  2.0195
  684MPD2    H310122   1.072   4.300  16.685  2.3831 -0.5082 -0.5865
  684MPD2     N10123   1.016   0.022  16.598  0.1979 -0.3282  0.4490
  684MPD2    H510124   1.004   0.040  16.697  3.0496 -2.0801  1.1075
  684MPD2    N110125   0.993   4.402  16.260 -0.1979  0.2456  0.2218
  684MPD2    H710126   0.959   4.480  16.205 -0.0879  0.0273 -0.1516
  685TMC3    C110127   0.978   4.264  16.071 -1.0691 -0.1832  0.1857
  685TMC3    C210128   0.927   4.378  16.021  0.3058 -0.2055  0.2839
  685TMC3    C310129   0.985   4.444  15.914  0.3564  0.5951  0.0229
  685TMC3    C410130   1.086   4.206  16.017  0.0960 -0.5152 -0.4486
  685TMC3    C510131   1.137   4.269  15.908 -0.5347 -0.3965  0.4993
  685TMC3    C610132   1.089   4.386  15.853  0.0036  0.4975  0.7103
  685TMC3     C10133   0.995   4.269  16.207 -0.1166  0.9097 -0.1211
  685TMC3     O10134   1.039   4.166  16.259  0.0607  0.4373  0.0439
  685TMC3     H10135   0.832   4.414  16.060  0.2376 -1.2716  1.0932
  685TMC3    H110136   1.125   4.112  16.055  1.5932 -0.4554 -1.8267
  685TMC3    H210137   1.147   4.438  15.778  0.5944  0.1835  0.9434
  685TMC3    C710138   1.279   4.251  15.902 -0.2129  0.1318 -0.0250
  685TMC3    C810139   0.907   4.523  15.825 -0.0025 -0.0843 -0.8374
  685TMC3    O110140   1.341   4.273  15.797 -0.2636  0.0356  0.0352
  685TMC3    O210141   0.939   4.526  15.706  0.0745 -0.0226  0.0705
  686MPD2     C10142   2.319   0.123  15.988  0.4786  0.6453 -0.3800
  686MPD2    C110143   2.281   4.713  16.003  0.0507  0.3780  0.6168
  686MPD2    C210144   2.294   4.630  15.895  0.8636 -0.0352 -0.0633
  686MPD2    C310145   2.348   4.674  15.773  0.2683  0.1094  0.2421
  686MPD2    C410146   2.390   0.084  15.773 -0.0376  0.3971  0.2297
  686MPD2    C510147   2.371   0.170  15.876  0.2906  0.3173 -0.2517
  686MPD2     H10148   2.260   4.528  15.907  2.1687 -0.7014 -1.9685
  686MPD2    H110149   2.456   0.120  15.694 -0.4750  1.3999  0.3257
  686MPD2    H210150   2.310   0.194  16.069  1.5325  1.1014 -0.6586
  686MPD2    H310151   2.399   0.272  15.852 -0.6379  0.7961  0.7535
  686MPD2     N10152   2.382   4.581  15.672  0.2371 -0.4050 -0.6306
  686MPD2    H510153   2.441   4.614  15.597  0.6916 -1.0482 -0.5586
  686MPD2    N110154   2.243   4.669  16.131  0.1656  0.2913 -0.1948
  686MPD2    H710155   2.258   0.013  16.207 -2.5832  0.2830  0.3555
  687TMC3    C110156   2.338   4.414  15.521 -0.1096 -0.0655 -0.0993
  687TMC3    C210157   2.237   4.359  15.446  0.4886 -0.2256 -0.5982
  687TMC3    C310158   2.266   4.237  15.385 -0.0948  0.2321  0.4316
  687TMC3    C410159   2.458   4.352  15.536  0.4069  0.0657  0.0455
  687TMC3    C510160   2.474   4.223  15.492  0.1531 -0.1844 -0.3708
  687TMC3    C610161   2.383   4.165  15.405 -0.8596 -0.2213  0.6016
  687TMC3     C10162   2.290   4.495  15.630  1.1683 -0.0662  0.3128
  687TMC3     O10163   2.176   4.488  15.674 -0.0316 -0.1324  0.0338
  687TMC3     H10164   2.141   4.410  15.452  0.7976  0.3845 -0.9044
  687TMC3    H110165   2.532   4.383  15.609 -0.3986 -1.8000  1.6618
  687TMC3    H210166   2.389   4.067  15.360 -1.0192  0.7141 -1.4890
  687TMC3    C710167   2.573   4.149  15.570  0.2085  0.1986  0.1382
  687TMC3    C810168   2.167   4.167  15.301 -0.5203  0.6297  0.0079
  687TMC3    O110169   2.659   4.207  15.637  0.1031  0.3206  0.7181
  687TMC3    O210170   2.208   4.089  15.214 -0.0906  0.7794  0.3102
  688MPD2     C10171   1.350   3.466  17.333 -0.5087 -0.3037 -0.2121
  688MPD2    C110172   1.393   3.338  17.366 -0.3603  0.6386 -0.1221
  688MPD2    C210173   1.488   3.269  17.289 -0.2235 -0.1534  0.6376
  688MPD2    C310174   1.545   3.333  17.172 -0.9696  1.2086  0.3402
  688MPD2    C410175   1.499   3.461  17.141 -0.1799 -0.3434  0.1298
  688MPD2    C510176   1.404   3.525  17.221  0.3652 -0.3477  0.0266
  688MPD2     H10177   1.524   3.176  17.332  0.5287 -0.0550  0.2238
  688MPD2    H110178   1.541   3.520  17.060  1.5550  0.3412  1.5126
  688MPD2    H210179   1.275   3.520  17.390  2.8112  2.9215  1.1253
  688MPD2    H310180   1.370   3.625  17.200  0.4060 -0.2610  0.3677
  688MPD2     N10181   1.652   3.281  17.095  0.0926  0.0298 -0.2855
  688MPD2    H510182   1.689   3.329  17.014 -0.5675  1.2808  0.1629
  688MPD2    N110183   1.340   3.272  17.478 -0.1179  0.0384 -0.0920
  688MPD2    H710184   1.405   3.199  17.504 -0.6046 -0.3413  0.0519
  689TMC3    C110185   1.248   3.227  17.675  0.2978 -0.0499 -0.4002
  689TMC3    C210186   1.242   3.294   0.102 -0.8857 -0.3395  0.1198
  689TMC3    C310187   1.280   3.237   0.212  0.2007 -0.1179  0.2437
  689TMC3    C410188   1.300   3.102  17.668  0.4838 -0.5312  0.4445
  689TMC3    C510189   1.331   3.038   0.093  0.3951  0.0757 -0.0276
  689TMC3    C610190   1.336   3.110   0.209  0.6390  0.7133  0.2523
  689TMC3     C10191   1.245   3.309  17.560 -0.1844 -0.2305 -0.0503
  689TMC3     O10192   1.173   3.408  17.555  0.1968 -0.0919  0.3688
  689TMC3     H10193   1.192   3.390   0.102 -1.4738 -0.6439 -0.3656
  689TMC3    H110194   1.318   3.048  17.576 -1.2650  0.6451 -0.6015
  689TMC3    H210195   1.384   3.066   0.295  2.2036  1.5946 -0.1579
  689TMC3    C710196   1.371   2.899   0.100 -0.2677 -0.1120 -0.1438
  689TMC3    C810197   1.223   3.265   0.343 -0.1253 -0.3680  0.4476
  689TMC3    O110198   1.412   2.861   0.206 -0.1949 -0.1007  0.1351
  689TMC3    O210199   1.107   3.304   0.363  0.1745  0.2544  0.3174
  690MPD2     C10200   3.703   0.405  15.761 -0.0082  0.3169  0.1286
  690MPD2    C110201   3.613   0.415  15.651  0.2896 -0.8758 -0.2179
  690MPD2    C210202   3.668   0.411  15.520 -0.0634 -0.0458  0.0450
  690MPD2    C310203   3.810   0.385  15.511 -0.1048  0.0401  0.3077
  690MPD2    C410204   3.894   0.376  15.621  0.6301 -0.2189 -0.1473
  690MPD2    C510205   3.838   0.381  15.747 -0.1114 -0.3305 -0.5187
  690MPD2     H10206   3.600   0.402  15.436  1.8290 -1.0199 -1.3671
  690MPD2    H110207   4.001   0.362  15.614  0.3659 -0.9825 -2.3903
  690MPD2    H210208   3.665   0.406  15.862  1.0860 -0.1423  0.5434
  690MPD2    H310209   3.899   0.373  15.836 -0.0166 -1.3431 -0.6785
  690MPD2     N10210   3.858   0.390  15.379  0.3856 -0.0748 -0.6462
  690MPD2    H510211   3.791   0.401  15.304  0.0591  2.7067  0.0485
  690MPD2    N110212   3.471   0.408  15.667 -0.6433 -0.5403 -0.0026
  690MPD2    H710213   3.417   0.392  15.582 -0.3221  0.8539 -0.4687
  691TMC3    C110214   3.262   0.336  15.780  0.0105 -0.1637  0.7314
  691TMC3    C210215   3.187   0.337  15.664  0.2890  0.1790  0.3203
  691TMC3    C310216   3.083   0.245  15.648 -1.0359  0.0768 -0.0168
  691TMC3    C410217   3.238   0.240  15.879  0.3455  0.1851 -0.3116
  691TMC3    C510218   3.143   0.146  15.862  0.1957 -0.0157  0.1084
  691TMC3    C610219   3.070   0.147  15.746 -0.3927 -0.0926 -0.2105
  691TMC3     C10220   3.400   0.400  15.791  0.2375  0.4877 -0.3928
  691TMC3     O10221   3.433   0.427  15.908  0.0836  0.2204  0.4022
  691TMC3     H10222   3.198   0.413  15.587 -0.2346 -0.6130 -0.5302
  691TMC3    H110223   3.303   0.236  15.966  0.3619  2.3358 -0.2312
  691TMC3    H210224   3.003   0.067  15.715 -2.0017  1.1058  0.1765
  691TMC3    C710225   3.156   0.024  15.945 -0.8149 -0.4354 -0.1826
  691TMC3    C810226   2.986   0.244  15.540 -0.0528  0.3652 -0.3026
  691TMC3    O110227   3.186   0.042  16.062  0.6892  0.0278  0.0433
  691TMC3    O210228   2.911   0.147  15.532  0.4116 -0.2909 -0.7585
  692TMC3    C110229   0.304   1.391  16.562 -0.6373 -0.2999  1.1330
  692TMC3    C210230   0.334   1.396  16.697  0.0267 -0.2436  0.1407
  692TMC3    C310231   0.430   1.308  16.754 -0.2718  0.5606 -0.5205
  692TMC3    C410232   0.370   1.301  16.484 -0.1061 -0.5148  0.1903
  692TMC3    C510233   0.462   1.214  16.528  0.3242 -0.0990 -0.6423
  692TMC3    C610234   0.491   1.220  16.661  0.4588 -0.0251  0.4273
  692TMC3     C10235   0.206   1.477  16.510 -0.1267  0.6051  0.1689
  692TMC3     O10236   0.118   1.509  16.586  0.1686 -0.0725 -0.0900
  692TMC3     H10237   0.305   1.481  16.758 -0.4630  0.0218 -0.4747
  692TMC3    H110238   0.355   1.315  16.377  2.7505  0.8157 -0.0390
  692TMC3    H210239   0.576   1.161  16.692  1.1200 -0.0431 -1.3895
  692TMC3    C710240   0.555   1.148  16.429  0.6338 -0.7689  0.0171
  692TMC3    C810241   0.381   1.230  16.872  0.6123 -0.2752 -0.4012
  692TMC3    O110242   0.542   1.178  16.311 -0.2530 -0.2397  0.7610
  692TMC3    O210243   0.450   1.130  16.888  0.1750  0.2808 -0.4361
  693MPD2     C10244   0.337   4.420  10.540  0.3308  0.5622 -0.2047
  693MPD2    C110245   0.288   4.300  10.577  0.0782  0.0792 -0.5099
  693MPD2    C210246   0.372   4.201  10.617  0.4608  0.2166 -0.7035
  693MPD2    C310247   0.505   4.217  10.617  0.3462 -0.3932  0.2983
  693MPD2    C410248   0.560   4.336  10.578  0.3118 -0.3624  0.6366
  693MPD2    C510249   0.473   4.429  10.536 -0.3078 -0.6334 -0.4605
  693MPD2     H10250   0.327   4.114  10.662  0.7853  1.3263  1.7775
  693MPD2    H110251   0.666   4.350  10.561  0.8226 -2.5306  2.0435
  693MPD2    H210252   0.281   4.505  10.503 -1.9228 -0.3573  1.1678
  693MPD2    H310253   0.518   4.515  10.488 -3.2784  1.3347  0.3102
  693MPD2     N10254   0.594   4.123  10.671 -0.2391  0.3382  0.2880
  693MPD2    H510255   0.692   4.139  10.651 -0.0037 -2.8105 -1.1455
  693MPD2    N110256   0.151   4.282  10.585 -0.1716 -0.2389  0.3236
  693MPD2    H710257   0.082   4.356  10.601 -0.0063 -0.4949  2.3004
  694TMC3    C110258   4.667   4.163  10.601 -0.0865 -0.4778 -0.2283
  694TMC3    C210259   4.595   4.053  10.556  0.0274 -0.1690 -0.4485
  694TMC3    C310260   4.500   4.000  10.639  0.4875 -0.6432  0.0741
  694TMC3    C410261   4.633   4.228  10.720  0.5828 -0.2732 -0.1787
  694TMC3    C510262   4.542   4.168  10.798  0.0258 -0.0758  0.1459
  694TMC3    C610263   4.474   4.054  10.763  0.6448  0.3113  0.5113
  694TMC3     C10264   0.091   4.162  10.568 -0.2876  0.8081  0.3997
  694TMC3     O10265   0.126   4.064  10.506  0.0653 -0.2587 -0.3914
  694TMC3     H10266   4.617   4.025  10.453 -0.4438 -0.2063 -0.5408
  694TMC3    H110267   4.687   4.313  10.759  1.5299 -0.4407 -1.1044
  694TMC3    H210268   4.394   4.009  10.821 -0.1220 -0.1602 -0.8855
  694TMC3    C710269   4.553   4.194  10.942 -1.2739  0.2258 -0.8736
  694TMC3    C810270   4.412   3.899  10.593 -0.2855 -0.4251  0.1858
  694TMC3    O110271   4.583   4.309  10.974  0.6123  0.1491  0.0125
  694TMC3    O210272   4.382   3.811  10.674  0.4610  0.1497  0.0769
  695MPD2     C10273   0.812   0.724  13.901 -0.0077 -0.0921 -0.2056
  695MPD2    C110274   0.797   0.820  14.000  0.5636 -0.4859  0.2911
  695MPD2    C210275   0.678   0.888  14.017 -1.0421  0.0045  0.2521
  695MPD2    C310276   0.567   0.861  13.935  0.7309  0.2988  0.6200
  695MPD2    C410277   0.587   0.777  13.829  0.7236 -0.2414 -0.6658
  695MPD2    C510278   0.704   0.711  13.813  0.4271  0.6150  0.3128
  695MPD2     H10279   0.675   0.965  14.093 -2.1030 -2.5721  2.7919
  695MPD2    H110280   0.508   0.758  13.758 -1.2116 -0.4041  1.5317
  695MPD2    H210281   0.902   0.669  13.877  0.9885  0.8826  1.3125
  695MPD2    H310282   0.709   0.651  13.722  1.7739 -0.2918  0.9829
  695MPD2     N10283   0.439   0.912  13.963 -0.0588 -0.1907  0.0887
  695MPD2    H510284   0.430   0.965  14.049 -0.3849  0.9402 -0.6303
  695MPD2    N110285   0.900   0.871  14.079  0.7997 -0.1422 -0.3830
  695MPD2    H710286   0.872   0.951  14.136 -0.1750  1.3042 -2.9096
  696TMC3    C110287   0.219   0.985  13.932  0.4610 -0.1907  0.7298
  696TMC3    C210288   0.201   0.988  14.072  1.0230  0.5032  0.4916
  696TMC3    C310289   0.103   1.069  14.124  0.2482  0.7114 -0.4822
  696TMC3    C410290   0.121   1.031  13.853  1.0561 -0.6223 -0.0477
  696TMC3    C510291   0.023   1.112  13.908 -0.1597  0.2061 -0.5127
  696TMC3    C610292   0.011   1.136  14.046  0.7116  0.0181 -0.5518
  696TMC3     C10293   0.333   0.916  13.875  0.2287 -0.2024 -0.0536
  696TMC3     O10294   0.331   0.905  13.751 -0.4781  0.3553 -0.5033
  696TMC3     H10295   0.277   0.950  14.139  0.2452 -0.7735  0.6305
  696TMC3    H110296   0.133   1.014  13.746 -0.6786  0.5824 -0.4297
  696TMC3    H210297   4.646   1.185  14.087 -0.5152 -2.5271 -0.1622
  696TMC3    C710298   0.028   1.227  13.826 -0.0368  0.0139  0.4711
  696TMC3    C810299   0.153   1.149  14.234  0.4308 -0.2466  0.2451
  696TMC3    O110300   0.012   1.225  13.704  0.0828 -0.3727  0.1213
  696TMC3    O210301   0.126   1.270  14.231 -0.0264  0.0882 -0.2410
  697MPD2     C10302   0.170   3.063  15.916 -0.1019 -0.4591 -0.1994
  697MPD2    C110303   0.209   3.019  15.787  0.2493 -0.5242  0.2229
  697MPD2    C210304   0.275   3.115  15.708 -0.1852 -0.8616 -0.4049
  697MPD2    C310305   0.297   3.244  15.752 -0.3767 -0.1036 -0.3375
  697MPD2    C410306   0.254   3.282  15.880  0.4041 -0.0579 -0.3162
  697MPD2    C510307   0.187   3.191  15.953  0.1597 -0.7372  0.4218
  697MPD2     H10308   0.322   3.072  15.621  1.1336  0.2494 -0.2519
  697MPD2    H110309   0.261   3.382  15.921  0.4150  0.6151 -1.9980
  697MPD2    H210310   0.116   3.002  15.987  0.8591 -0.2317  0.7262
  697MPD2    H310311   0.139   3.216  16.047 -2.3253 -0.4277 -0.9339
  697MPD2     N10312   0.360   3.343  15.670  0.1147  0.2352  0.0747
  697MPD2    H510313   0.378   3.307  15.577  2.0061 -0.0748  0.5717
  697MPD2    N110314   0.178   2.889  15.740  0.6618 -0.1006 -0.4568
  697MPD2    H710315   0.216   2.866  15.648  1.2101 -1.5715  0.1281
  698TMC3    C110316   0.435   3.552  15.582 -0.1266 -0.6915  0.3833
  698TMC3    C210317   0.496   3.676  15.608  0.5150 -0.1033  0.4318
  698TMC3    C310318   0.527   3.756  15.500  0.4025 -0.3601  0.2956
  698TMC3    C410319   0.399   3.516  15.458 -0.1952 -0.0468  0.4828
  698TMC3    C510320   0.427   3.604  15.352  0.0402  0.3152 -0.7252
  698TMC3    C610321   0.503   3.723  15.369 -0.1812 -0.5478  0.0849
  698TMC3     C10322   0.404   3.468  15.698 -0.4939 -0.2103 -0.2828
  698TMC3     O10323   0.401   3.530  15.806 -0.0094 -0.1550  0.6357
  698TMC3     H10324   0.518   3.701  15.711 -1.9096  0.4602  0.8043
  698TMC3    H110325   0.363   3.414  15.444 -1.5940  0.7220 -1.6189
  698TMC3    H210326   0.519   3.788  15.284 -0.8938  0.9054  1.0620
  698TMC3    C710327   0.429   3.542  15.219  0.5510  0.4905 -0.0812
  698TMC3    C810328   0.551   3.897  15.529 -0.3956 -0.1701 -0.2404
  698TMC3    O110329   0.353   3.444  15.206 -0.3181  0.2678 -0.2665
  698TMC3    O210330   0.507   3.953  15.630 -0.3072  0.5403 -0.4344
  699TMC3    C110331   0.278   1.313  12.985  0.2343  0.5664 -0.6765
  699TMC3    C210332   0.297   1.179  13.012 -0.0621 -0.4984  0.4211
  699TMC3    C310333   0.285   1.141  13.144 -0.6462  0.6984 -0.2745
  699TMC3    C410334   0.229   1.401  13.080  0.1354 -0.1864  0.2603
  699TMC3    C510335   0.200   1.352  13.206 -0.5030 -0.0526  0.3583
  699TMC3    C610336   0.237   1.225  13.237 -0.2138  0.2695  0.2436
  699TMC3     C10337   0.325   1.379  12.865  0.3544  0.3765  0.0646
  699TMC3     O10338   0.292   1.494  12.839  0.1682 -0.3553  0.4554
  699TMC3     H10339   0.315   1.109  12.931  0.9882  0.7308 -0.4114
  699TMC3    H110340   0.209   1.502  13.045 -1.7227 -0.9361 -0.8566
  699TMC3    H210341   0.226   1.192  13.340 -0.0256  0.7586  0.4170
  699TMC3    C710342   0.135   1.434  13.308  0.2679 -0.3043  0.5037
  699TMC3    C810343   0.255   1.004  13.168  0.4546  0.6650 -0.4555
  699TMC3    O110344   0.072   1.370  13.392  0.2887 -0.7003  0.7170
  699TMC3    O210345   0.163   0.981  13.245 -0.1084 -0.3394  0.3635
  700TMC3    C110346   3.994   3.341  17.376 -1.0330 -0.0128  0.4828
  700TMC3    C210347   4.115   3.314  17.332  0.0137 -0.6067 -0.6069
  700TMC3    C310348   4.221   3.298  17.413 -0.0764  0.7378 -0.2759
  700TMC3    C410349   3.979   3.364  17.512 -0.0854 -0.1026 -0.0512
  700TMC3    C510350   4.092   3.379  17.586  0.4398  0.2631 -0.5033
  700TMC3    C610351   4.214   3.344  17.540  0.2370  0.4263 -0.5319
  700TMC3     C10352   3.921   3.445  17.306  0.0267  0.3314  0.9198
  700TMC3     O10353   3.801   3.443  17.324 -0.6962 -0.3567  0.1660
  700TMC3     H10354   4.131   3.271  17.234 -0.9077  1.6884 -1.7716
  700TMC3    H110355   3.888   3.411  17.547  0.2165  0.4035  0.0618
  700TMC3    H210356   4.305   3.357  17.598  0.2776 -0.0249 -0.4929
  700TMC3    C710357   4.087   3.440   0.032  0.8730 -1.3362 -0.2303
  700TMC3    C810358   4.340   3.239  17.372 -0.2768  0.5123 -0.2328
  700TMC3    O110359   4.198   3.474   0.078 -0.3678  0.2444 -0.7266
  700TMC3    O210360   4.443   3.288  17.423 -0.2828 -0.3689  0.0658
  701TMC3    C110361   3.976   2.423  15.544  0.2571  0.3118  0.2265
  701TMC3    C210362   4.027   2.376  15.425 -0.4805 -0.0912  0.1552
  701TMC3    C310363   4.111   2.454  15.354 -0.3626  0.0846  0.6865
  701TMC3    C410364   3.996   2.554  15.586 -0.3365  0.6867  0.1009
  701TMC3    C510365   4.086   2.630  15.506  0.5820 -1.1319 -0.1559
  701TMC3    C610366   4.144   2.587  15.391  0.3083  0.0211  0.4479
  701TMC3     C10367   3.884   2.345  15.627 -0.8083  0.1517 -0.4899
  701TMC3     O10368   3.813   2.258  15.577  0.0261 -0.3290  0.2132
  701TMC3     H10369   4.001   2.278  15.386 -1.0972  0.2086 -0.1874
  701TMC3    H110370   3.939   2.599  15.667  0.8308  1.3463  0.5578
  701TMC3    H210371   4.201   2.656  15.331 -2.0769  1.9304  0.3738
  701TMC3    C710372   4.076   2.776  15.508 -0.1765 -0.3618  0.4875
  701TMC3    C810373   4.173   2.409  15.233 -0.4065  0.4508  0.6577
  701TMC3    O110374   4.171   2.846  15.475 -0.1761 -0.1798 -0.0214
  701TMC3    O210375   4.266   2.480  15.196  0.2828  0.2947  0.1318
  702MPD2     C10376   4.116   4.667  10.478  0.4978 -0.7081  0.3458
  702MPD2    C110377   4.029   0.023  10.556  1.0635 -0.3550  0.2800
  702MPD2    C210378   3.959   0.120  10.486 -0.0234  0.8514  0.6018
  702MPD2    C310379   3.968   0.137  10.351  0.2359 -0.1985  0.3255
  702MPD2    C410380   4.050   0.047  10.283  0.3970  0.1288  0.9605
  702MPD2    C510381   4.111   4.666  10.346 -0.9471  0.7779 -0.5624
  702MPD2     H10382   3.884   0.182  10.534 -0.6399  1.2421 -0.8724
  702MPD2    H110383   4.052   0.056  10.175  0.2863 -3.5672  0.6535
  702MPD2    H210384   4.190   4.600  10.521  0.4884 -0.7363  0.3186
  702MPD2    H310385   4.176   4.607  10.283  0.8845  0.4386  1.6811
  702MPD2     N10386   3.891   0.232  10.276  0.1630 -0.2834  0.9400
  702MPD2    H510387   3.881   0.215  10.176  1.2095  0.3191  0.7352
  702MPD2    N110388   4.027   0.010  10.694  0.0166  0.3197 -0.3074
  702MPD2    H710389   4.088   4.661  10.735  0.5907  2.6493  2.8881
  703TMC3    C110390   3.890   0.409  10.453  0.4114  1.0048  0.1068
  703TMC3    C210391   3.806   0.450  10.554 -0.3515 -0.9193  0.2695
  703TMC3    C310392   3.861   0.525  10.656  0.3144  0.3646  0.4939
  703TMC3    C410393   4.026   0.444  10.444  0.6331  0.2761 -0.8541
  703TMC3    C510394   4.069   0.518  10.552  0.7222 -0.0320 -0.4283
  703TMC3    C610395   3.992   0.552  10.655  0.0997 -0.4445 -0.2636
  703TMC3     C10396   3.834   0.350  10.325  0.4448 -0.2161 -0.2378
  703TMC3     O10397   3.756   0.422  10.268  0.1811 -0.1288  0.0233
  703TMC3     H10398   3.704   0.412  10.553 -1.3301  1.7962 -0.8037
  703TMC3    H110399   4.089   0.423  10.359  3.0806  2.9377  0.3438
  703TMC3    H210400   4.030   0.631  10.719 -1.7036 -0.1110  0.3881
  703TMC3    C710401   4.205   0.554  10.561  0.8796  0.4461 -0.2254
  703TMC3    C810402   3.803   0.534  10.787  0.0561 -0.3808 -0.3225
  703TMC3    O110403   4.244   0.653  10.624 -0.2621 -0.1544 -0.2057
  703TMC3    O210404   3.856   0.611  10.867 -1.1458 -0.3700  0.0171
  704TMC3    C110405   1.453   2.423  12.390 -0.5603 -0.3810  0.7597
  704TMC3    C210406   1.585   2.462  12.395  0.4571 -0.0442 -0.1882
  704TMC3    C310407   1.678   2.366  12.431  0.3655 -0.1948 -0.1324
  704TMC3    C410408   1.419   2.294  12.421  0.0416 -0.3347 -0.2302
  704TMC3    C510409   1.518   2.199  12.422 -0.0238  0.3099 -0.2028
  704TMC3    C610410   1.649   2.233  12.435 -0.3925 -0.6427 -0.8461
  704TMC3     C10411   1.354   2.527  12.363 -0.9012  0.6246  0.3678
  704TMC3     O10412   1.248   2.519  12.424  0.0883  0.5833 -0.3080
  704TMC3     H10413   1.621   2.563  12.375  0.1030  0.1861  0.3182
  704TMC3    H110414   1.312   2.277  12.409 -0.2363  0.3929  1.2174
  704TMC3    H210415   1.728   2.159  12.442  1.2201  0.9784 -1.8727
  704TMC3    C710416   1.504   2.079  12.337  0.0108 -0.1493  0.0906
  704TMC3    C810417   1.796   2.389  12.352 -0.1200 -0.7937 -0.3308
  704TMC3    O110418   1.610   2.038  12.284 -0.6932  0.1568 -0.1815
  704TMC3    O210419   1.764   2.411  12.238  0.5161 -0.5239  0.4880
  705MPD2     C10420   0.614   0.737  17.066  0.6144 -0.5401  0.0739
  705MPD2    C110421   0.636   0.869  17.085  0.3957 -0.6613  0.5999
  705MPD2    C210422   0.560   0.934  17.174  0.0026  0.1784 -0.5337
  705MPD2    C310423   0.466   0.876  17.250 -0.5437 -0.8715 -0.2573
  705MPD2    C410424   0.440   0.746  17.222  0.4592 -0.1779  0.5560
  705MPD2    C510425   0.523   0.672  17.140  0.5412  0.3162 -0.7578
  705MPD2     H10426   0.579   1.038  17.198 -2.8065  0.2570  1.3206
  705MPD2    H110427   0.362   0.697  17.280  0.6217 -3.3443 -1.8883
  705MPD2    H210428   0.665   0.682  16.988 -0.9826 -1.4067 -0.3632
  705MPD2    H310429   0.500   0.567  17.133  1.4464  0.0878 -0.3685
  705MPD2     N10430   0.383   0.939  17.344 -0.1514 -0.1135  0.1040
  705MPD2    H510431   0.298   0.889  17.366 -0.4869  0.1477 -0.6084
  705MPD2    N110432   0.744   0.940  17.019 -0.4194  0.3560 -0.4268
  705MPD2    H710433   0.738   1.042  17.016  0.9518  0.4388 -0.4958
  706TMC3    C110434   1.020   0.950  16.631 -0.2574  0.0182 -0.0464
  706TMC3    C210435   0.974   1.079  16.608  0.7331 -0.2629 -0.2737
  706TMC3    C310436   0.882   1.135  16.691 -0.0646 -0.2998 -0.7259
  706TMC3    C410437   0.973   0.881  16.734 -0.2994  0.5161  0.1745
  706TMC3    C510438   0.879   0.942  16.815  0.0730 -0.2002  0.0048
  706TMC3    C610439   0.828   1.065  16.798  0.3974  0.0049 -0.3364
  706TMC3     C10440   1.115   0.872  16.551  0.1837 -0.2321 -0.1587
  706TMC3     O10441   1.167   0.770  16.599  0.2884 -0.3759  0.3019
  706TMC3     H10442   1.020   1.145  16.535 -1.5567  2.2694  0.5672
  706TMC3    H110443   0.991   0.775  16.747 -0.1182  0.1911 -2.8555
  706TMC3    H210444   0.740   1.101  16.851  0.5549  1.3549 -1.0109
  706TMC3    C710445   0.828   0.869  16.929 -0.4454 -0.1130  0.0251
  706TMC3    C810446   0.846   1.274  16.672 -0.2381 -0.0500 -0.9112
  706TMC3    O110447   0.876   0.758  16.950  0.6784 -0.2289  0.4707
  706TMC3    O210448   0.846   1.296  16.551 -0.1563  0.8810 -0.1212
  707TMC3    C110449   3.694   3.061   1.575 -0.3489 -0.3736 -0.8445
  707TMC3    C210450   3.807   3.015   1.514  0.5653 -0.7897 -0.3850
  707TMC3    C310451   3.782   2.902   1.439 -1.0229 -0.0978 -0.0440
  707TMC3    C410452   3.572   2.995   1.578  0.0284 -0.1062  0.1078
  707TMC3    C510453   3.559   2.878   1.516  0.8961 -0.6270 -0.5158
  707TMC3    C610454   3.665   2.831   1.437  0.5615 -0.4658  0.1299
  707TMC3     C10455   3.698   3.189   1.637  0.4335  0.0888 -0.8769
  707TMC3     O10456   3.756   3.274   1.568  0.2994  0.3390 -0.1608
  707TMC3     H10457   3.895   3.078   1.509  1.1291 -1.5348  0.2216
  707TMC3    H110458   3.482   3.048   1.609 -0.0488 -0.4598  0.5007
  707TMC3    H210459   3.660   2.745   1.371 -3.0554 -0.0613 -0.1440
  707TMC3    C710460   3.427   2.813   1.507 -0.1847  0.6716  0.4215
  707TMC3    C810461   3.883   2.848   1.356  0.3354  0.5541  0.8674
  707TMC3    O110462   3.332   2.886   1.531 -0.2704  0.1451 -0.3623
  707TMC3    O210463   3.892   2.727   1.339  0.0759  0.0173 -0.1596
  708MPD2     C10464   4.629   3.829  14.250  0.2806 -0.0493 -0.4272
  708MPD2    C110465   4.537   3.931  14.227 -0.3362 -0.9455  0.1332
  708MPD2    C210466   4.407   3.896  14.252 -0.1052  0.1539 -0.4593
  708MPD2    C310467   4.364   3.771  14.303  0.2158  0.6065  0.3862
  708MPD2    C410468   4.455   3.676  14.324 -1.4370  0.0718  0.9417
  708MPD2    C510469   4.583   3.705  14.292  0.1362  0.5810  0.5971
  708MPD2     H10470   4.337   3.975  14.277 -0.3094 -0.1865  0.0381
  708MPD2    H110471   4.425   3.579  14.361  0.1860 -2.0145 -3.2965
  708MPD2    H210472   0.012   3.844  14.225  0.0116  1.1610 -0.7978
  708MPD2    H310473   4.659   3.632  14.315 -0.3740 -0.2133 -0.2471
  708MPD2     N10474   4.235   3.742  14.339 -0.0004 -0.0855 -0.1066
  708MPD2    H510475   4.212   3.660  14.394 -1.6029  0.4906  0.0691
  708MPD2    N110476   4.578   4.065  14.206  0.0317 -0.0825 -0.4014
  708MPD2    H710477   4.677   4.090  14.204  0.0789 -0.2043  0.4796
  709TMC3    C110478   4.550   4.296  14.158  0.0783  0.7786  0.2340
  709TMC3    C210479   4.611   4.302  14.035  0.4242 -0.0360  0.3115
  709TMC3    C310480   4.572   4.398  13.951  0.6991 -0.4004 -0.2984
  709TMC3    C410481   4.468   4.394  14.200 -0.2316  0.1057 -0.3869
  709TMC3    C510482   4.432   4.492  14.108 -0.0701 -0.0828  0.5195
  709TMC3    C610483   4.492   4.499  13.980 -0.4007 -0.1005  0.2572
  709TMC3     C10484   4.490   4.169  14.188  0.0570 -0.0312 -0.0197
  709TMC3     O10485   4.369   4.167  14.175  0.2911 -0.0384 -0.4317
  709TMC3     H10486   4.670   4.215  14.010 -0.1959 -0.2910 -0.2913
  709TMC3    H110487   4.408   4.388  14.290 -0.7440  0.7785 -0.6820
  709TMC3    H210488   4.452   4.569  13.908 -0.0920  1.4612  1.5956
  709TMC3    C710489   4.289   4.509  14.097 -0.1271 -0.1502  0.2714
  709TMC3    C810490   4.589   4.377  13.809 -0.1174 -0.3028 -0.0398
  709TMC3    O110491   4.247   4.599  14.031  0.6198 -0.2498  0.2317
  709TMC3    O210492   4.676   4.303  13.777 -0.1013  0.0544  0.3424
  710TMC3    C110493   0.085   1.139   0.329 -0.7925  0.1218 -0.5092
  710TMC3    C210494   0.109   1.073   0.213  0.1556  0.6015  0.0570
  710TMC3    C310495   0.236   1.037   0.175 -0.4348 -0.1408 -0.3462
  710TMC3    C410496   0.184   1.163   0.418 -0.1290 -0.0307  0.3622
  710TMC3    C510497   0.310   1.122   0.389  0.4818  0.4123  0.5412
  710TMC3    C610498   0.330   1.055   0.270  0.4440  0.5191  0.5108
  710TMC3     C10499   4.681   1.210   0.341 -0.2138  0.2750 -0.3541
  710TMC3     O10500   4.611   1.204   0.244  0.4828 -0.1622  0.2055
  710TMC3     H10501   0.021   1.036   0.162 -1.1013  1.8774  1.3209
  710TMC3    H110502   0.160   1.213   0.511 -0.1537  1.3823 -0.4071
  710TMC3    H210503   0.424   1.004   0.251 -0.0149 -1.3932  3.3332
  710TMC3    C710504   0.413   1.116   0.487  0.4964  0.6950 -0.1210
  710TMC3    C810505   0.257   0.935   0.070 -0.0432  0.3199  0.0815
  710TMC3    O110506   0.528   1.102   0.449  0.0271  0.3501  0.2954
  710TMC3    O210507   0.153   0.883   0.030  0.3811 -0.1365 -0.0813
  711TMC3    C110508   0.060   1.972  15.112 -0.1235  0.3945  0.4369
  711TMC3    C210509   0.053   2.066  15.207 -0.2967 -0.2646  0.3910
  711TMC3    C310510   0.108   2.040  15.330 -0.3325  0.2305  1.3105
  711TMC3    C410511   0.137   1.862  15.128  0.4327 -0.6673  0.2125
  711TMC3    C510512   0.194   1.837  15.248 -0.2124 -0.4627 -0.2748
  711TMC3    C610513   0.190   1.931  15.351  0.6105  0.3314 -0.4803
  711TMC3     C10514   4.667   1.951  15.031 -0.0342 -0.2115 -0.6251
  711TMC3     O10515   4.683   1.898  14.920  0.7064 -0.3926  0.0501
  711TMC3     H10516   4.713   2.153  15.187 -0.3144 -0.2447  0.5359
  711TMC3    H110517   0.137   1.787  15.049  2.5141 -2.2855  1.7390
  711TMC3    H210518   0.223   1.904  15.451  0.8692  0.3713 -0.5548
  711TMC3    C710519   0.229   1.703  15.294  0.5301  0.1511 -0.2975
  711TMC3    C810520   0.061   2.115  15.443 -0.0056  0.4456 -0.7798
  711TMC3    O110521   0.284   1.692  15.404 -0.0816  0.1232  0.2278
  711TMC3    O210522   4.667   2.159  15.433  0.5004  0.4566 -0.0529
  712MPD2     C10523   1.802   2.527  14.023  0.3112  1.1249 -0.0467
  712MPD2    C110524   1.701   2.588  13.962 -0.2541 -0.7524  0.3027
  712MPD2    C210525   1.710   2.713  13.910  0.0080  0.1048  0.0334
  712MPD2    C310526   1.829   2.784  13.916 -0.1029 -0.3046  0.5586
  712MPD2    C410527   1.936   2.720  13.974  0.2708  0.2604  0.3417
  712MPD2    C510528   1.920   2.597  14.025  0.0711 -0.0786  0.2667
  712MPD2     H10529   1.624   2.765  13.868  0.3013  1.3700  1.0063
  712MPD2    H110530   2.036   2.756  13.993  0.8105 -0.4225 -1.2347
  712MPD2    H210531   1.787   2.425  14.056  1.2300  1.7891  2.4291
  712MPD2    H310532   1.999   2.551  14.083  0.8888  0.8385 -0.1102
  712MPD2     N10533   1.851   2.915  13.872  0.2972 -0.1482 -0.4832
  712MPD2    H510534   1.948   2.946  13.874  0.1351  0.3388 -0.3676
  712MPD2    N110535   1.585   2.517  13.928 -0.7946  0.2815  0.3377
  712MPD2    H710536   1.521   2.561  13.863  1.6053  1.5415 -1.1662
  713TMC3    C110537   1.800   3.132  13.796 -0.2545 -0.2239  0.1459
  713TMC3    C210538   1.928   3.165  13.830  0.0630  0.0646  0.7783
  713TMC3    C310539   1.983   3.265  13.753 -0.4338  0.1666 -0.4470
  713TMC3    C410540   1.722   3.191  13.701  0.3050 -0.3217 -0.1938
  713TMC3    C510541   1.788   3.275  13.619  0.2207  0.0411 -0.7485
  713TMC3    C610542   1.917   3.307  13.633 -0.0634  0.1046  0.0146
  713TMC3     C10543   1.753   3.010  13.852  0.2784  0.2924 -0.6349
  713TMC3     O10544   1.632   2.989  13.838  0.7579  0.4463 -0.3367
  713TMC3     H10545   1.966   3.133  13.926 -0.3170  1.6098  1.4458
  713TMC3    H110546   1.621   3.158  13.682 -0.6388  1.3194  2.0249
  713TMC3    H210547   1.967   3.370  13.561  0.0622 -1.6152 -1.4068
  713TMC3    C710548   1.724   3.362  13.513 -0.5980 -0.0846  0.0487
  713TMC3    C810549   2.107   3.341  13.780 -0.2184 -0.7251 -0.8637
  713TMC3    O110550   1.800   3.415  13.431 -0.6105 -0.2324  0.1315
  713TMC3    O210551   2.121   3.454  13.725  0.5555 -0.2490 -0.1729
  714MPD2     C10552   3.128   1.473   1.702  0.2097 -0.0161 -0.9567
  714MPD2    C110553   3.189   1.452   1.583  0.7436 -0.4094 -0.1305
  714MPD2    C210554   3.129   1.496   1.467  0.1244  0.1510 -0.1254
  714MPD2    C310555   3.017   1.572   1.471 -0.2779 -0.3756  1.0800
  714MPD2    C410556   2.954   1.589   1.590  0.3848  0.6009  0.1833
  714MPD2    C510557   3.005   1.538   1.704 -0.0288 -0.8037 -0.3808
  714MPD2     H10558   3.181   1.483   1.372  2.0178  0.6290  0.8427
  714MPD2    H110559   2.859   1.641   1.596 -0.0175 -0.0041 -0.9252
  714MPD2    H210560   3.172   1.442   1.797  0.1267  2.7641 -0.0130
  714MPD2    H310561   2.947   1.560   1.793  0.0394  0.9434 -0.7729
  714MPD2     N10562   2.966   1.625   1.351 -0.6062  0.9260 -0.4446
  714MPD2    H510563   3.027   1.620   1.270  1.7592  0.2650  1.3828
  714MPD2    N110564   3.318   1.396   1.586  0.0297 -0.9518 -0.2276
  714MPD2    H710565   3.362   1.386   1.677 -2.1999 -1.1422  0.8381
  715TMC3    C110566   3.527   1.311   1.506 -0.7972  0.2628 -0.1604
  715TMC3    C210567   3.593   1.246   1.405  0.0174 -0.4972 -0.3211
  715TMC3    C310568   3.732   1.239   1.410 -0.0766 -0.2679  0.7930
  715TMC3    C410569   3.589   1.380   1.603 -0.3469  0.4961 -0.5175
  715TMC3    C510570   3.727   1.382   1.599 -0.5079  0.1535 -0.1250
  715TMC3    C610571   3.797   1.306   1.513 -0.2724 -0.2010 -0.0356
  715TMC3     C10572   3.388   1.349   1.475 -0.2687  0.3570  0.0293
  715TMC3     O10573   3.359   1.339   1.353 -0.2231  0.0710 -0.0432
  715TMC3     H10574   3.536   1.190   1.331 -1.0764 -0.1500  0.2640
  715TMC3    H110575   3.537   1.447   1.670  0.4444 -1.7674  2.3638
  715TMC3    H210576   3.905   1.310   1.517 -0.4667  4.3107  0.5575
  715TMC3    C710577   3.804   1.447   1.699  0.4488 -0.7801  0.2697
  715TMC3    C810578   3.801   1.141   1.332  0.0025  0.1086 -0.3092
  715TMC3    O110579   3.913   1.493   1.674  0.4794 -0.6043  0.4802
  715TMC3    O210580   3.729   1.053   1.289  0.6029 -0.5817 -0.0811
  716MPD2     C10581   3.785   4.569  10.162  0.5474  0.2439  0.0821
  716MPD2    C110582   3.776   4.619  10.031  0.4647  0.0068 -0.0849
  716MPD2    C210583   3.835   4.547   9.933  1.3906  0.7185 -0.5330
  716MPD2    C310584   3.909   4.435   9.951  0.2035 -0.3507  0.1460
  716MPD2    C410585   3.916   4.385  10.083  0.2100  0.0297  0.7964
  716MPD2    C510586   3.852   4.452  10.179  0.8655 -0.5393 -0.3762
  716MPD2     H10587   3.828   4.587   9.832 -0.6961  1.4624 -0.0933
  716MPD2    H110588   3.960   4.291  10.113  0.8032 -1.0312 -3.3379
  716MPD2    H210589   3.749   4.622  10.249  1.9001  0.3648  0.5718
  716MPD2    H310590   3.861   4.422  10.283 -0.7577  2.0079  0.4992
  716MPD2     N10591   3.968   4.374   9.836 -0.0875 -0.1704 -0.5784
  716MPD2    H510592   3.942   4.410   9.745 -0.9083  1.1008  0.1423
  716MPD2    N110593   3.697   0.014  10.008 -0.0382 -0.3630 -0.5990
  716MPD2    H710594   3.646   0.052  10.086  0.5468 -2.3748  0.7475
  717TMC3    C110595   4.089   4.228   9.712 -0.0288 -0.4511 -0.5759
  717TMC3    C210596   3.994   4.214   9.618 -0.3269 -0.4206  0.0395
  717TMC3    C310597   4.026   4.148   9.503 -0.6777  0.2668  0.8309
  717TMC3    C410598   4.217   4.176   9.700 -0.1096  0.1627  0.1388
  717TMC3    C510599   4.239   4.101   9.589  0.4774  0.1976  0.4731
  717TMC3    C610600   4.151   4.094   9.489  0.2616  0.1444 -0.2465
  717TMC3     C10601   4.051   4.267   9.837 -0.3705 -0.0377  0.3757
  717TMC3     O10602   4.108   4.218   9.937  0.2739 -0.0690 -0.4122
  717TMC3     H10603   3.891   4.224   9.650 -0.5263 -0.4822 -0.5792
  717TMC3    H110604   4.274   4.179   9.792 -0.3575  0.0267  0.2939
  717TMC3    H210605   4.181   4.051   9.394  0.8108 -0.0853  0.0299
  717TMC3    C710606   4.371   4.052   9.554 -0.0802 -1.0947  0.1630
  717TMC3    C810607   3.915   4.110   9.424  0.0007  0.1607 -0.7264
  717TMC3    O110608   4.371   3.977   9.459  0.2110 -0.3021 -0.2334
  717TMC3    O210609   3.815   4.184   9.439 -0.6431  0.0927  0.9865
  718MPD2     C10610   3.093   3.219  12.989 -0.4254 -0.4548 -0.2459
  718MPD2    C110611   3.036   3.269  12.875  0.1335 -0.5122 -0.0134
  718MPD2    C210612   2.925   3.202  12.825  0.2853  0.1545  0.3146
  718MPD2    C310613   2.871   3.092  12.887  0.1038 -0.0171 -0.1567
  718MPD2    C410614   2.931   3.037  13.004  1.0296 -0.1691 -0.2585
  718MPD2    C510615   3.042   3.108  13.049  1.1194  0.3252 -0.3097
  718MPD2     H10616   2.878   3.240  12.735  1.2811 -0.9115 -0.6444
  718MPD2    H110617   2.899   2.947  13.053 -2.7161  1.4311  0.2102
  718MPD2    H210618   3.190   3.247  13.028 -0.6336 -0.7369  0.4641
  718MPD2    H310619   3.105   3.061  13.123 -2.0725 -1.3497  1.3764
  718MPD2     N10620   2.762   3.030  12.823  0.4203  0.2224  0.3101
  718MPD2    H510621   2.726   3.077  12.740 -0.0539  1.3832  1.1781
  718MPD2    N110622   3.091   3.368  12.798  0.0880 -0.3138  0.3527
  718MPD2    H710623   3.189   3.380  12.821  0.3611 -1.0959 -0.4396
  719TMC3    C110624   3.129   3.495  12.596  0.0861  0.1556 -0.5801
  719TMC3    C210625   3.071   3.509  12.473 -0.2452  0.4107  0.4927
  719TMC3    C310626   3.145   3.480  12.362 -0.0881 -1.2775 -0.1304
  719TMC3    C410627   3.265   3.484  12.621  0.4788  0.0616 -0.0930
  719TMC3    C510628   3.341   3.476  12.501 -0.0801  0.6063 -0.0883
  719TMC3    C610629   3.281   3.460  12.375  0.3522  0.0166  0.1719
  719TMC3     C10630   3.037   3.440  12.696 -0.5689  0.5297  0.1046
  719TMC3     O10631   2.921   3.471  12.686 -0.5064  0.5365  0.1788
  719TMC3     H10632   2.965   3.527  12.458 -0.6900 -0.5721  2.4758
  719TMC3    H110633   3.308   3.507  12.717 -1.3758 -1.8765  1.1907
  719TMC3    H210634   3.353   3.440  12.297 -0.1434 -0.9597 -0.0315
  719TMC3    C710635   3.479   3.526  12.510 -0.0528  0.3396 -0.4252
  719TMC3    C810636   3.085   3.367  12.295 -0.2138 -0.1920  0.3746
  719TMC3    O110637   3.516   3.584  12.408  0.2005  0.1054  0.1109
  719TMC3    O210638   3.135   3.257  12.302  0.4602 -0.6661 -0.0503
  720MPD2     C10639   1.404   0.233  14.222  0.1118 -0.0611  0.2460
  720MPD2    C110640   1.523   0.221  14.155 -0.2877 -0.0460  0.3427
  720MPD2    C210641   1.636   0.235  14.233 -0.7343  0.1557 -0.8808
  720MPD2    C310642   1.637   0.238  14.371 -0.0617  0.0240 -0.4681
  720MPD2    C410643   1.509   0.251  14.434  0.6320  0.4250  0.3990
  720MPD2    C510644   1.395   0.245  14.359 -0.2503 -0.0846  0.4858
  720MPD2     H10645   1.734   0.233  14.186  0.2180 -1.2880  1.1897
  720MPD2    H110646   1.501   0.262  14.542  2.4144 -0.1967  0.5850
  720MPD2    H210647   1.312   0.236  14.165  0.6372 -0.6910 -0.6411
  720MPD2    H310648   1.304   0.249  14.417 -0.3335 -1.5047  0.4575
  720MPD2     N10649   1.764   0.250  14.433  0.1043  0.1189 -0.3891
  720MPD2    H510650   1.848   0.254  14.376  1.5120  2.2879  1.8369
  720MPD2    N110651   1.518   0.219  14.009 -0.5987  0.3329 -0.4631
  720MPD2    H710652   1.431   0.228  13.957 -1.8754 -1.9335  1.2738
  721TMC3    C110653   1.929   0.260  14.603 -0.1633  0.1022  0.7614
  721TMC3    C210654   1.948   0.270  14.739  0.6897  0.1893 -0.4335
  721TMC3    C310655   2.078   0.243  14.775 -0.5287  0.1710  0.3174
  721TMC3    C410656   2.019   0.245  14.504  0.5340  0.1000  0.2631
  721TMC3    C510657   2.144   0.223  14.551 -0.5336 -0.0654  0.9726
  721TMC3    C610658   2.175   0.226  14.685  0.7480  0.9977  0.2791
  721TMC3     C10659   1.783   0.260  14.566  0.1461  1.1371 -0.4654
  721TMC3     O10660   1.702   0.259  14.660 -0.5676 -0.3264 -0.4735
  721TMC3     H10661   1.869   0.289  14.810  0.0705 -0.6548 -0.9050
  721TMC3    H110662   1.999   0.234  14.398  0.1500 -0.4529  0.3892
  721TMC3    H210663   2.271   0.210  14.733  0.9879 -0.7179 -0.7819
  721TMC3    C710664   2.238   0.160  14.460 -0.3965 -0.2091 -0.1014
  721TMC3    C810665   2.105   0.221  14.915  0.2194  0.5179 -0.4204
  721TMC3    O110666   2.220   0.194  14.344  0.3494  0.4087 -0.2066
  721TMC3    O210667   2.222   0.215  14.959  0.7280  0.0333 -0.0237
  722MPD2     C10668   0.501   3.335  13.545 -0.1121 -1.2372  0.1211
  722MPD2    C110669   0.510   3.473  13.542  0.1925 -0.3876 -0.0778
  722MPD2    C210670   0.414   3.544  13.476  0.2979  0.4167  0.3192
  722MPD2    C310671   0.303   3.474  13.427 -0.1027 -0.7010  0.4445
  722MPD2    C410672   0.297   3.336  13.425  0.1424 -0.4516 -0.4179
  722MPD2    C510673   0.402   3.271  13.486 -0.0410  0.2875  0.6558
  722MPD2     H10674   0.414   3.652  13.482  1.9239  0.3754  1.0909
  722MPD2    H110675   0.216   3.274  13.387 -0.1606  1.2094 -2.4839
  722MPD2    H210676   0.577   3.268  13.583  1.9194  0.8427 -0.2833
  722MPD2    H310677   0.392   3.163  13.495  1.7214  0.1859  1.4057
  722MPD2     N10678   0.193   3.547  13.379 -0.6608 -0.8154 -0.0913
  722MPD2    H510679   0.111   3.488  13.367 -0.0991 -1.4084 -1.0193
  722MPD2    N110680   0.610   3.547  13.606  0.1802  0.5123  0.1132
  722MPD2    H710681   0.603   3.645  13.581  0.1354  0.2289 -0.9619
  723TMC3    C110682   0.064   3.716  13.279 -0.1988 -0.3186 -0.0640
  723TMC3    C210683   4.675   3.640  13.308 -0.6450  0.1863 -0.3329
  723TMC3    C310684   4.570   3.652  13.222 -0.1850 -0.2434  0.5601
  723TMC3    C410685   0.072   3.796  13.168 -0.1941 -0.3930 -0.6506
  723TMC3    C510686   4.685   3.803  13.092  0.0916 -0.6146  0.3115
  723TMC3    C610687   4.572   3.731  13.109 -0.3970 -0.3454  0.4230
  723TMC3     C10688   0.192   3.680  13.343 -0.2486  0.0193 -0.2720
  723TMC3     O10689   0.284   3.751  13.309 -0.4026 -0.0806  0.3678
  723TMC3     H10690   4.677   3.571  13.391 -1.6722  2.2364  1.3698
  723TMC3    H110691   0.159   3.850  13.133 -0.4491 -0.6392 -1.6857
  723TMC3    H210692   4.489   3.732  13.038 -0.1996 -0.8084  0.1825
  723TMC3    C710693   4.702   3.856  12.958 -0.2982  0.4836  0.4565
  723TMC3    C810694   4.481   3.533  13.214 -0.0445 -0.0823 -0.2436
  723TMC3    O110695   0.093   3.846  12.919  0.3233  0.2081 -0.5548
  723TMC3    O210696   4.459   3.500  13.099 -0.0065 -0.2485  0.0509
  724TMC3    C110697   0.547   1.712   9.992  0.5097 -0.2826  0.2630
  724TMC3    C210698   0.426   1.754   9.942 -0.5122  0.4953  0.1439
  724TMC3    C310699   0.433   1.827   9.827 -0.1501 -0.5899  0.1521
  724TMC3    C410700   0.660   1.719   9.918  0.2692  0.2521  0.2817
  724TMC3    C510701   0.664   1.780   9.791  0.1693 -0.8658 -0.5850
  724TMC3    C610702   0.542   1.837   9.747  0.6256 -0.0871 -0.2857
  724TMC3     C10703   0.557   1.629  10.106  0.0320 -0.5278 -0.8823
  724TMC3     O10704   0.668   1.609  10.158 -0.1470  0.2016  0.6246
  724TMC3     H10705   0.347   1.769  10.015 -1.3761 -0.4764 -0.5928
  724TMC3    H110706   0.747   1.661   9.947 -1.2335 -0.5191  3.2348
  724TMC3    H210707   0.541   1.902   9.660 -0.9666 -1.8168 -1.5560
  724TMC3    C710708   0.775   1.861   9.756  0.3338  0.0781  0.1812
  724TMC3    C810709   0.362   1.955   9.831  0.4447  0.2137  0.1990
  724TMC3    O110710   0.749   1.980   9.731  0.2660 -0.2118  0.4790
  724TMC3    O210711   0.256   1.954   9.890 -0.2261  0.1329  0.3881
  725TMC3    C110712   2.149   0.346  12.751  0.3126  0.0316  0.5209
  725TMC3    C210713   2.111   0.359  12.623  0.5443  0.0603  0.5524
  725TMC3    C310714   2.074   0.247  12.552 -0.3999  0.2750  0.1785
  725TMC3    C410715   2.178   0.222  12.804 -0.4340 -0.2862  0.3763
  725TMC3    C510716   2.159   0.115  12.723 -0.2470 -0.7784  0.2184
  725TMC3    C610717   2.099   0.121  12.605 -0.3845  0.4711 -0.2687
  725TMC3     C10718   2.155   0.469  12.837  0.8292 -0.1180  0.1184
  725TMC3     O10719   2.114   0.569  12.784  0.8642  0.0458 -0.4502
  725TMC3     H10720   2.074   0.453  12.584 -0.7072 -0.5915  0.1695
  725TMC3    H110721   2.224   0.207  12.901  1.3357 -1.4173 -0.6441
  725TMC3    H210722   2.066   0.035  12.548 -3.9381  1.6084  0.0517
  725TMC3    C710723   2.223   4.706  12.739  0.8334  0.1110  0.1533
  725TMC3    C810724   1.991   0.257  12.438  0.4556  0.1507  0.2221
  725TMC3    O110725   2.186   4.623  12.658  0.0767  0.6246  0.5323
  725TMC3    O210726   1.920   0.163  12.408  0.1318 -0.4011 -0.3895
  726MPD2     C10727   4.565   2.509  10.603  0.5605 -0.0441 -0.4955
  726MPD2    C110728   4.666   2.471  10.687 -0.2267  0.1317 -0.2903
  726MPD2    C210729   4.632   2.373  10.779  0.7539 -0.9164  0.7247
  726MPD2    C310730   4.505   2.318  10.787 -0.5461 -0.5781  0.1499
  726MPD2    C410731   4.409   2.366  10.703  0.0463  0.5613 -0.6903
  726MPD2    C510732   4.437   2.462  10.615  0.4644  0.3960  0.2228
  726MPD2     H10733   4.720   2.329  10.824  0.2999 -0.6907  1.8428
  726MPD2    H110734   4.307   2.331  10.709  0.3696 -0.1822  0.4371
  726MPD2    H210735   4.580   2.573  10.517  0.1957  1.1407  0.3111
  726MPD2    H310736   4.364   2.510  10.550 -0.8252 -1.9733 -0.0675
  726MPD2     N10737   4.463   2.215  10.869  0.6103 -0.2623  0.0788
  726MPD2    H510738   4.365   2.191  10.856 -0.1757  3.1091 -0.3292
  726MPD2    N110739   0.076   2.511  10.661 -0.7955  0.1535 -0.6995
  726MPD2    H710740   0.151   2.473  10.717 -1.2456 -0.5333 -0.5615
  727TMC3    C110741   0.259   2.611  10.528  0.3328 -0.0483 -0.4058
  727TMC3    C210742   0.337   2.507  10.559 -0.4142 -0.1604 -0.3373
  727TMC3    C310743   0.472   2.519  10.524 -0.3193 -0.7683  0.7067
  727TMC3    C410744   0.317   2.729  10.494  0.7072  0.2104  0.5289
  727TMC3    C510745   0.448   2.748  10.477 -0.0311 -0.1860 -0.6403
  727TMC3    C610746   0.532   2.642  10.493 -0.1673 -0.9898  0.3508
  727TMC3     C10747   0.117   2.612  10.574  0.0421 -0.7332 -0.3173
  727TMC3     O10748   0.050   2.698  10.519 -0.1381 -0.1915  0.0534
  727TMC3     H10749   0.297   2.407  10.573 -0.1218 -0.3819 -1.0640
  727TMC3    H110750   0.246   2.807  10.468 -0.1488  0.2598  2.9897
  727TMC3    H210751   0.635   2.643  10.457 -0.2473  2.4506  0.2239
  727TMC3    C710752   0.478   2.867  10.402  0.5152 -0.5653  0.5068
  727TMC3    C810753   0.573   2.417  10.567  0.0682 -0.4235 -0.5524
  727TMC3    O110754   0.386   2.951  10.388  0.0136 -0.3157 -0.4581
  727TMC3    O210755   0.688   2.429  10.521 -0.0888 -0.0100 -0.6828
  728TMC3    C110756   3.997   0.417  15.194  0.5259 -0.0370  0.3577
  728TMC3    C210757   4.119   0.424  15.141  0.4133  0.2729 -0.9593
  728TMC3    C310758   4.134   0.475  15.012  0.5973 -0.3141  0.2963
  728TMC3    C410759   3.887   0.453  15.123  0.3348  0.5634  0.4862
  728TMC3    C510760   3.899   0.502  14.998 -0.1721  0.4233 -0.5185
  728TMC3    C610761   4.022   0.512  14.935 -0.0446  0.1676 -0.0574
  728TMC3     C10762   3.988   0.376  15.336  0.3007  0.2955 -0.0964
  728TMC3     O10763   4.092   0.364  15.394 -0.3032 -0.5824 -0.3177
  728TMC3     H10764   4.209   0.419  15.201 -1.2424  1.4396  1.6120
  728TMC3    H110765   3.785   0.454  15.162  0.3942  0.4587  0.6466
  728TMC3    H210766   4.024   0.539  14.830  1.9365 -0.7598 -0.2576
  728TMC3    C710767   3.787   0.585  14.950 -0.3561  0.6413  0.4052
  728TMC3    C810768   4.232   0.584  15.002  0.0719  0.1016 -0.0956
  728TMC3    O110769   3.676   0.559  14.995 -0.1487  0.1042 -0.1657
  728TMC3    O210770   4.250   0.646  15.101  0.1174  0.3215  0.2358
  729MPD2     C10771   0.925   1.967  16.356 -0.3350  0.3549 -0.5764
  729MPD2    C110772   1.011   1.864  16.393  0.3387  0.2793  0.1345
  729MPD2    C210773   0.989   1.800  16.511  0.4738  0.7803  0.1210
  729MPD2    C310774   0.899   1.845  16.604  0.1566  0.1153  0.3505
  729MPD2    C410775   0.814   1.950  16.567 -0.3353 -0.4732 -0.0860
  729MPD2    C510776   0.825   2.010  16.441  0.1755 -0.5903 -0.1472
  729MPD2     H10777   1.068   1.732  16.539 -0.0159 -0.3038 -1.1432
  729MPD2    H110778   0.727   1.979  16.624 -0.5432 -0.5277 -0.3783
  729MPD2    H210779   0.919   2.018  16.261  1.0589 -0.2737 -1.0000
  729MPD2    H310780   0.761   2.091  16.407 -2.3111 -1.0118  3.5397
  729MPD2     N10781   0.886   1.797  16.740 -0.1004  0.5931  0.6440
  729MPD2    H510782   0.820   1.844  16.802 -3.6603 -1.0581 -1.9308
  729MPD2    N110783   1.123   1.829  16.310  0.1007 -0.2905 -0.5435
  729MPD2    H710784   1.134   1.885  16.226  0.4130  0.7711  0.1979
  730TMC3    C110785   0.971   1.684  16.926 -0.4251 -0.1080  0.4619
  730TMC3    C210786   1.058   1.585  16.965  0.3400 -0.5123 -0.2372
  730TMC3    C310787   1.155   1.623  17.053 -0.0876 -0.2939 -0.4226
  730TMC3    C410788   0.966   1.814  16.981 -0.4226 -0.5427 -0.4710
  730TMC3    C510789   1.069   1.840  17.072  0.1087 -0.1745 -0.1185
  730TMC3    C610790   1.161   1.746  17.111 -0.0327  0.5403 -0.1033
  730TMC3     C10791   0.949   1.686  16.781  0.2810 -0.3016  0.3093
  730TMC3     O10792   1.005   1.599  16.719 -0.6065 -0.0841 -0.6393
  730TMC3     H10793   1.069   1.495  16.906  0.9036 -0.8875  0.4497
  730TMC3    H110794   0.889   1.888  16.966 -0.0612  0.2315  1.4977
  730TMC3    H210795   1.257   1.763  17.158  0.8954  0.9471 -2.1402
  730TMC3    C710796   1.104   1.982  17.064 -0.0539 -0.0839 -0.1812
  730TMC3    C810797   1.275   1.544  17.033 -0.8410 -0.1389  0.3240
  730TMC3    O110798   1.032   2.061  17.005 -0.3004 -0.6164 -0.1583
  730TMC3    O210799   1.253   1.423  17.020 -0.2805 -0.0844  0.5524
  731MPD2     C10800   1.127   4.253  12.298 -0.4056 -0.3587  0.3487
  731MPD2    C110801   1.244   4.179  12.288 -0.7693  0.2659 -0.1430
  731MPD2    C210802   1.313   4.144  12.403  0.3099 -0.2002  1.4647
  731MPD2    C310803   1.257   4.158  12.526 -0.6990  0.8033  0.2758
  731MPD2    C410804   1.129   4.213  12.527  0.5073 -0.1439  0.4141
  731MPD2    C510805   1.072   4.264  12.417 -0.1188  0.4025 -0.5986
  731MPD2     H10806   1.417   4.114  12.394  0.3317  0.5661 -0.8786
  731MPD2    H110807   1.072   4.222  12.619 -1.1638 -2.7452 -0.3799
  731MPD2    H210808   1.064   4.283  12.215 -2.3917 -0.3305  1.8759
  731MPD2    H310809   0.969   4.296  12.425 -0.0098  0.1926  1.6726
  731MPD2     N10810   1.311   4.110  12.648  0.1681  0.5167  0.4587
  731MPD2    H510811   1.249   4.123  12.727 -0.0175 -2.6963  0.8423
  731MPD2    N110812   1.305   4.179  12.158  0.2638 -0.2497 -0.0669
  731MPD2    H710813   1.252   4.237  12.094 -1.1193 -1.0650  0.3437
  732TMC3    C110814   1.449   4.142  11.985 -1.0012  0.0628  0.3437
  732TMC3    C210815   1.348   4.129  11.892  0.2418 -0.5292 -0.1293
  732TMC3    C310816   1.390   4.142  11.760  0.2427  0.5315 -0.0963
  732TMC3    C410817   1.583   4.165  11.957 -0.8301 -0.4334 -0.4346
  732TMC3    C510818   1.618   4.172  11.820 -0.6452 -0.6306  0.4703
  732TMC3    C610819   1.517   4.172  11.724  0.0127  0.0474 -0.7702
  732TMC3     C10820   1.418   4.116  12.124 -0.8766 -0.1929  0.3804
  732TMC3     O10821   1.493   4.049  12.187  0.3779  0.1461 -0.2344
  732TMC3     H10822   1.252   4.085  11.916 -0.8866  2.6538  1.2770
  732TMC3    H110823   1.649   4.187  12.040  0.3908  1.6202 -1.9501
  732TMC3    H210824   1.538   4.177  11.617  1.7171 -0.8041 -0.4582
  732TMC3    C710825   1.757   4.180  11.777  0.5968 -0.4761  0.4571
  732TMC3    C810826   1.287   4.161  11.658  0.7500  0.5693  0.4561
  732TMC3    O110827   1.776   4.156  11.660 -0.5251 -0.2663  0.0776
  732TMC3    O210828   1.309   4.116  11.549 -0.1847 -0.3077  0.4444
  733TMC3    C110829   2.440   2.753  12.671  0.4760 -0.1972  0.1427
  733TMC3    C210830   2.539   2.764  12.762  0.0260  0.8406  0.8976
  733TMC3    C310831   2.645   2.844  12.732  0.0205  0.9786  0.0902
  733TMC3    C410832   2.446   2.808  12.547 -0.0618  0.5064  0.2895
  733TMC3    C510833   2.555   2.889  12.527 -0.3603 -0.7043  0.2518
  733TMC3    C610834   2.658   2.907  12.613 -0.0403 -0.7636  0.2331
  733TMC3     C10835   2.306   2.728  12.720 -0.4805  0.2499  0.6201
  733TMC3     O10836   2.224   2.815  12.698 -0.1659 -0.0012 -0.2391
  733TMC3     H10837   2.523   2.727  12.862 -1.8246 -1.8047 -0.3738
  733TMC3    H110838   2.361   2.795  12.480 -2.1102 -0.6870  3.1009
  733TMC3    H210839   2.730   2.987  12.600 -0.3430 -1.0417 -3.3082
  733TMC3    C710840   2.558   2.975  12.408 -0.2853 -0.4853 -0.0736
  733TMC3    C810841   2.717   2.903  12.847 -0.4482  0.6364 -0.4855
  733TMC3    O110842   2.451   2.991  12.349  0.1878 -0.1726 -0.4021
  733TMC3    O210843   2.737   2.827  12.939 -0.1003 -0.6169 -0.2911
  734MPD2     C10844   4.529   0.838  12.596  0.4101  0.0650 -0.2426
  734MPD2    C110845   4.529   0.749  12.494 -0.1078  0.2414 -0.1516
  734MPD2    C210846   4.556   0.795  12.366  1.0100  0.4014  0.4307
  734MPD2    C310847   4.577   0.930  12.351 -0.5464 -0.4487  0.5105
  734MPD2    C410848   4.572   1.011  12.460  0.1539 -0.1209  0.2068
  734MPD2    C510849   4.551   0.965  12.583 -0.1454  0.2426 -0.4674
  734MPD2     H10850   4.556   0.725  12.284 -1.1414 -1.4344  1.9803
  734MPD2    H110851   4.599   1.115  12.450 -1.0748  0.4042  2.3367
  734MPD2    H210852   4.508   0.808  12.699  0.4175 -0.0120 -0.2638
  734MPD2    H310853   4.549   1.027  12.672  0.9962 -1.3611  0.6509
  734MPD2     N10854   4.606   0.978  12.223 -0.2640 -0.0475  0.2962
  734MPD2    H510855   4.618   0.905  12.154  3.1115  1.6018 -0.8495
  734MPD2    N110856   4.519   0.608  12.515 -0.0808  0.1891 -0.3191
  734MPD2    H710857   4.524   0.569  12.608  0.5295 -0.2059 -0.5202
  735TMC3    C110858   4.476   0.380  12.443 -0.4237  0.4555 -0.1501
  735TMC3    C210859   4.391   0.316  12.357 -0.1553  0.0488 -0.0321
  735TMC3    C310860   4.429   0.205  12.288  0.5686  0.4685  0.6095
  735TMC3    C410861   4.598   0.339  12.461 -0.0983 -0.5065 -0.4888
  735TMC3    C510862   4.643   0.227  12.397  0.0597 -0.0073  0.0799
  735TMC3    C610863   4.552   0.154  12.332 -0.1311 -0.1325 -0.7769
  735TMC3     C10864   4.481   0.518  12.416 -0.0368  0.0510  0.5340
  735TMC3     O10865   4.428   0.541  12.311 -0.4641 -0.4730  0.1764
  735TMC3     H10866   4.287   0.346  12.351  0.1850  0.5195 -3.5176
  735TMC3    H110867   4.677   0.403  12.497  0.3472 -1.9222  1.1002
  735TMC3    H210868   4.586   0.063  12.285  1.9999 -0.5602  1.6238
  735TMC3    C710869   0.059   0.220  12.346 -0.0389 -0.0220 -0.3513
  735TMC3    C810870   4.418   0.224  12.146 -0.0443  0.1019 -0.0686
  735TMC3    O110871   0.064   0.188  12.230  0.0283 -0.3524  0.0160
  735TMC3    O210872   4.487   0.148  12.079  0.0780  0.0273 -0.0674
  736MPD2     C10873   0.382   0.294  12.499 -0.4128 -0.1776  0.5908
  736MPD2    C110874   0.292   0.278  12.397 -0.7357  0.0542  0.2710
  736MPD2    C210875   0.343   0.268  12.274 -0.0641 -0.3172  0.2296
  736MPD2    C310876   0.478   0.284  12.244  0.2528 -0.4378 -0.2756
  736MPD2    C410877   0.562   0.303  12.355  0.1810 -0.3278  0.0308
  736MPD2    C510878   0.513   0.306  12.480  0.1174 -0.3716 -0.2216
  736MPD2     H10879   0.272   0.242  12.197 -2.0727  1.6902  1.3963
  736MPD2    H110880   0.669   0.312  12.340  0.2761 -0.5108  0.6270
  736MPD2    H210881   0.350   0.319  12.599 -0.7973 -2.2640  0.9824
  736MPD2    H310882   0.584   0.320  12.561  0.1417  1.1036 -0.4993
  736MPD2     N10883   0.530   0.282  12.112  0.7151  1.3598 -0.3368
  736MPD2    H510884   0.631   0.280  12.112  0.6792 -1.1493  0.3096
  736MPD2    N110885   0.154   0.269  12.431 -0.1216 -0.7384  0.1873
  736MPD2    H710886   0.132   0.292  12.527 -1.2149  1.0824 -0.4980
  737TMC3    C110887   0.560   0.309  11.891 -0.7907  0.3474 -0.0121
  737TMC3    C210888   0.563   0.416  11.803 -0.0906 -0.6764 -0.4755
  737TMC3    C310889   0.675   0.436  11.727  0.3332 -0.1545 -0.3542
  737TMC3    C410890   0.656   0.212  11.887  0.1248 -0.6434 -0.3194
  737TMC3    C510891   0.760   0.225  11.804  0.9699  0.2938 -0.2709
  737TMC3    C610892   0.772   0.340  11.733  0.0391 -0.7976 -0.0236
  737TMC3     C10893   0.462   0.307  11.996 -0.8780  0.5532 -0.2842
  737TMC3     O10894   0.343   0.317  11.977 -0.4864  0.1067 -0.0623
  737TMC3     H10895   0.486   0.492  11.811 -1.9993 -2.5987 -0.6782
  737TMC3    H110896   0.645   0.127  11.953  1.7805  0.3946  1.2818
  737TMC3    H210897   0.848   0.341  11.655 -0.4659  1.6697 -0.4850
  737TMC3    C710898   0.824   0.104  11.759  0.2770  0.5082  0.0566
  737TMC3    C810899   0.671   0.527  11.609  0.6739 -0.4197  0.6523
  737TMC3    O110900   0.780   4.721  11.803 -0.3621 -0.0781  0.0061
  737TMC3    O210901   0.566   0.587  11.616  0.1480  0.0880 -0.0752
  738MPD2     C10902   0.656   4.187  15.547 -0.0225 -0.1256 -0.3967
  738MPD2    C110903   0.684   4.089  15.448  0.6983 -0.6831 -0.0968
  738MPD2    C210904   0.774   4.129  15.353 -0.1154  0.3079  0.0780
  738MPD2    C310905   0.836   4.254  15.349  0.2892  0.1392 -0.2357
  738MPD2    C410906   0.823   4.338  15.456  0.4220  0.1962  0.0466
  738MPD2    C510907   0.731   4.300  15.548  0.8029 -0.2444 -0.0119
  738MPD2     H10908   0.818   4.059  15.282  0.5183  0.3600  0.4201
  738MPD2    H110909   0.867   4.437  15.466  0.7683  0.1110 -0.6629
  738MPD2    H210910   0.585   4.160  15.624 -0.7295  2.1995 -0.2219
  738MPD2    H310911   0.709   4.380  15.618 -0.8426  0.6459 -1.5439
  738MPD2     N10912   0.931   4.291  15.253  0.5036  0.4146  0.2075
  738MPD2    H510913   0.973   4.382  15.264  0.9360  0.0972  1.2154
  738MPD2    N110914   0.644   3.953  15.449 -0.3764  0.3694 -0.4544
  738MPD2    H710915   0.674   3.890  15.375  1.2665 -0.4176  0.8682
  739TMC3    C110916   1.040   4.293  15.037 -0.1235  0.4010 -0.0136
  739TMC3    C210917   0.999   4.290  14.902  0.6371 -0.3711 -0.0186
  739TMC3    C310918   1.070   4.370  14.818  0.3136  0.8426  0.0568
  739TMC3    C410919   1.141   4.367  15.077  0.3166  0.0841  0.3336
  739TMC3    C510920   1.220   4.427  14.981 -0.3577 -0.3715  0.0579
  739TMC3    C610921   1.181   4.433  14.849 -0.3714 -0.3034 -0.3843
  739TMC3     C10922   0.949   4.233  15.127  0.2267 -0.0896  0.0915
  739TMC3     O10923   0.864   4.159  15.076  0.3689 -0.5283  0.4527
  739TMC3     H10924   0.903   4.246  14.877  0.4126  0.7670 -1.1698
  739TMC3    H110925   1.181   4.353  15.177 -1.1499  0.8073  1.0368
  739TMC3    H210926   1.252   4.449  14.769  1.7834 -0.4075  1.4876
  739TMC3    C710927   1.370   4.430  15.010 -0.0849 -0.1212  0.8914
  739TMC3    C810928   1.016   4.393  14.684 -0.4787  0.0229 -0.0217
  739TMC3    O110929   1.409   4.380  15.115 -0.3285  0.6393  0.3850
  739TMC3    O210930   0.922   4.319  14.652  0.0121 -0.0281  0.2869
  740TMC3    C110931   1.521   0.573  14.371  0.2446  0.6754  0.3965
  740TMC3    C210932   1.576   0.582  14.496  0.7145  0.2009 -0.0954
  740TMC3    C310933   1.714   0.591  14.503 -0.9528  0.4430  0.4242
  740TMC3    C410934   1.603   0.569  14.253 -0.0034 -0.3710 -0.3553
  740TMC3    C510935   1.741   0.579  14.269  0.4124  0.5323  0.3248
  740TMC3    C610936   1.792   0.585  14.397 -0.2679 -0.1612  0.7331
  740TMC3     C10937   1.376   0.580  14.348  1.6176 -0.2336 -0.0039
  740TMC3     O10938   1.337   0.587  14.231  0.0970  0.1921 -0.9215
  740TMC3     H10939   1.518   0.595  14.586  0.0536  1.0205 -0.6437
  740TMC3    H110940   1.551   0.559  14.159 -0.6322  0.7958 -0.1425
  740TMC3    H210941   1.899   0.578  14.414 -0.3016 -3.8419 -0.5695
  740TMC3    C710942   1.828   0.503  14.179  0.3490  0.7405  1.0533
  740TMC3    C810943   1.785   0.612  14.625  0.2315  0.1295 -0.0712
  740TMC3    O110944   1.901   0.422  14.229  0.3378  0.3375 -0.1475
  740TMC3    O210945   1.882   0.692  14.623  0.5337  0.0823  0.7406
  741TMC3    C110946   0.755   4.638  14.754 -0.0598  0.4182 -0.5326
  741TMC3    C210947   0.680   4.520  14.734  0.1914  0.2379 -0.2025
  741TMC3    C310948   0.664   4.432  14.838  0.6310  0.6459  0.0938
  741TMC3    C410949   0.806   4.660  14.876 -0.1751  0.7687 -0.2285
  741TMC3    C510950   0.780   4.574  14.984  0.1027 -0.4361  0.2582
  741TMC3    C610951   0.709   4.463  14.963 -0.7820  0.4568 -0.3308
  741TMC3     C10952   0.757   0.025  14.652 -0.1506 -0.4771 -0.4959
  741TMC3     O10953   0.843   0.106  14.674  0.3323 -0.7856 -0.1100
  741TMC3     H10954   0.637   4.505  14.636 -1.5661 -1.1450  0.7738
  741TMC3    H110955   0.846   0.037  14.893 -0.8134  1.0604 -0.4175
  741TMC3    H210956   0.684   4.408  15.053 -0.8745  0.8092 -0.1410
  741TMC3    C710957   0.806   4.618  15.116 -0.0273  0.1948 -0.6899
  741TMC3    C810958   0.550   4.340  14.824  0.5040  0.0708 -0.3528
  741TMC3    O110959   0.781   4.541  15.208  0.2994  0.2064  0.0635
  741TMC3    O210960   0.477   4.360  14.726  0.0730  0.0340  0.0660
  742TMC3    C110961   0.693   3.290  15.292  0.1307 -0.2836 -0.5817
  742TMC3    C210962   0.595   3.240  15.214  0.0354 -0.2763 -0.1402
  742TMC3    C310963   0.624   3.213  15.086 -0.6870  0.6199  0.5992
  742TMC3    C410964   0.814   3.327  15.247  0.0085 -0.1708  0.1921
  742TMC3    C510965   0.841   3.292  15.117 -0.2122 -1.0527 -0.1896
  742TMC3    C610966   0.746   3.235  15.034  0.0551 -0.0251  0.3918
  742TMC3     C10967   0.672   3.265  15.435  0.4427  0.0972 -0.1598
  742TMC3     O10968   0.557   3.241  15.475  0.0525  0.4777  0.2893
  742TMC3     H10969   0.521   3.185  15.271  1.2965 -2.0424 -0.1944
  742TMC3    H110970   0.880   3.372  15.320  0.7905 -0.8744 -0.0880
  742TMC3    H210971   0.765   3.217  14.929 -1.4214  2.2261 -0.2594
  742TMC3    C710972   0.975   3.248  15.088 -0.4045  0.6173  0.1283
  742TMC3    C810973   0.560   3.112  15.016 -0.1709  0.0370  0.5768
  742TMC3    O110974   0.997   3.169  14.996  0.4878  0.3600 -0.1476
  742TMC3    O210975   0.622   3.054  14.925 -0.1921  0.5449 -0.3100
  743MPD2     C10976   4.303   3.065   1.397  0.5769  0.5057  0.0342
  743MPD2    C110977   4.321   3.206   1.391 -0.4384  0.8747  0.3465
  743MPD2    C210978   4.251   3.294   1.478  1.3130 -0.3745  0.0401
  743MPD2    C310979   4.164   3.246   1.570  0.4189 -0.1161 -0.6276
  743MPD2    C410980   4.142   3.105   1.573  0.0147 -0.0486 -0.2339
  743MPD2    C510981   4.210   3.019   1.485  0.1931 -0.3926  0.6319
  743MPD2     H10982   4.272   3.400   1.471 -2.7466  0.5265  1.3234
  743MPD2    H110983   4.073   3.067   1.648 -0.4755  1.1709 -0.0527
  743MPD2    H210984   4.361   3.001   1.332  0.0907  0.7960 -0.6979
  743MPD2    H310985   4.197   2.911   1.482  0.8704 -0.5200  2.3152
  743MPD2     N10986   4.094   3.339   1.662  0.2528 -0.4510  0.4257
  743MPD2    H510987   4.107   3.437   1.640  0.1627 -1.0535 -2.3811
  743MPD2    N110988   4.404   3.250   1.283 -0.0703 -0.1227 -0.0924
  743MPD2    H710989   4.453   3.176   1.234  1.2597  0.2282  0.7081
  744TMC3    C110990   4.494   3.398   1.117  0.1256 -0.2674  0.7561
  744TMC3    C210991   4.450   3.297   1.032  0.4429  0.5100  0.2322
  744TMC3    C310992   4.351   3.323   0.936 -0.3463  0.2609  0.0487
  744TMC3    C410993   4.451   3.524   1.087  0.4537  0.6686  0.2738
  744TMC3    C510994   4.355   3.550   0.995 -0.0906  0.3114 -0.3650
  744TMC3    C610995   4.306   3.451   0.914  0.2916  0.3098  0.2702
  744TMC3     C10996   4.436   3.378   1.249 -0.2191 -0.3668 -0.4308
  744TMC3     O10997   4.414   3.480   1.310  0.2411  0.0723  0.0958
  744TMC3     H10998   4.482   3.194   1.045  2.0708  0.9562 -0.2782
  744TMC3    H110999   4.498   3.604   1.142 -1.3149  0.8175  1.5810
  744TMC3    H211000   4.230   3.474   0.841  1.3429  0.7465 -0.6883
  744TMC3    C711001   4.293   3.680   0.985 -0.5791 -0.2531  0.0424
  744TMC3    C811002   4.232   3.243   0.950 -0.0118 -0.2783  0.2384
  744TMC3    O111003   4.208   3.714   1.066 -0.0456  0.0507  0.4960
  744TMC3    O211004   4.123   3.298   0.956  0.1277 -0.0472 -0.0584
  745TMC3    C111005   1.418   2.364  13.905 -0.0808  0.0574  0.0217
  745TMC3    C211006   1.326   2.319  14.002 -0.3399 -0.1178 -0.1931
  745TMC3    C311007   1.202   2.364  13.996 -0.3513 -0.6234  0.2536
  745TMC3    C411008   1.368   2.438  13.805  0.1138 -0.1037  0.0199
  745TMC3    C511009   1.237   2.479  13.802  0.3498 -0.7230 -0.6461
  745TMC3    C611010   1.148   2.436  13.891  0.3014 -0.1488 -0.6601
  745TMC3     C11011   1.548   2.391  13.958 -0.4493  0.2069  0.0716
  745TMC3     O11012   1.594   2.311  14.036  0.1598  0.0294 -0.5262
  745TMC3     H11013   1.357   2.257  14.086  0.6332  1.1051  0.3337
  745TMC3    H111014   1.437   2.447  13.722  0.0738  2.8433  0.3185
  745TMC3    H211015   1.044   2.467  13.890 -0.1236 -1.4643  2.0538
  745TMC3    C711016   1.177   2.518  13.677  0.1379  0.1704  0.0838
  745TMC3    C811017   1.161   2.412  14.123 -0.8120 -0.1861  0.2544
  745TMC3    O111018   1.060   2.490  13.655 -0.3958  0.1434 -0.3559
  745TMC3    O211019   1.179   2.338  14.217  1.2458 -0.1120 -0.0704
  746TMC3    C111020   3.914   0.159  11.135 -0.3944  0.2863 -0.0529
  746TMC3    C211021   3.961   0.192  11.010 -0.3859  0.4737 -0.0487
  746TMC3    C311022   3.986   0.082  10.924 -0.2664 -0.0052  0.3518
  746TMC3    C411023   3.892   0.029  11.179 -0.3892 -0.2212  0.3145
  746TMC3    C511024   3.924   4.650  11.094  0.9457 -0.8001 -0.1386
  746TMC3    C611025   3.969   4.677  10.970  0.1578  0.1142  0.3779
  746TMC3     C11026   3.854   0.257  11.223 -0.1118 -0.3682 -0.0565
  746TMC3     O11027   3.765   0.220  11.296  0.0448 -0.0308 -0.1436
  746TMC3     H11028   3.958   0.295  10.977  4.1763  0.6188  0.0784
  746TMC3    H111029   3.850   0.008  11.277  0.6883  0.1050  0.8361
  746TMC3    H211030   3.974   4.588  10.907  0.6199 -0.4090  1.1549
  746TMC3    C711031   3.839   4.535  11.099  0.1854  0.5061  0.2125
  746TMC3    C811032   3.965   0.104  10.783 -0.4663 -0.6064 -0.0022
  746TMC3    O111033   3.767   4.525  10.995 -0.2910  0.0554 -0.2486
  746TMC3    O211034   3.908   0.212  10.767 -0.0897 -0.2648  0.3378
  747TMC3    C111035   1.693   0.042  11.218 -0.2062 -0.9715 -0.6801
  747TMC3    C211036   1.564   0.003  11.255 -0.2592 -0.7291  0.3469
  747TMC3    C311037   1.537   4.690  11.382 -1.1906  0.8464  0.0590
  747TMC3    C411038   1.797   0.039  11.311 -0.3878 -0.2992 -0.4602
  747TMC3    C511039   1.764   4.713  11.435  0.2176 -0.1560 -0.2696
  747TMC3    C611040   1.637   4.681  11.470 -0.2770  0.2668 -0.0127
  747TMC3     C11041   1.712   0.111  11.092  0.1068  0.3712  0.3135
  747TMC3     O11042   1.778   0.212  11.106  0.5200 -0.1823  0.0511
  747TMC3     H11043   1.482   0.013  11.184  2.0104  3.5609 -1.6987
  747TMC3    H111044   1.891   0.085  11.285 -0.5017  0.0570 -0.2430
  747TMC3    H211045   1.610   4.634  11.564  0.1627  1.9097  0.9381
  747TMC3    C711046   1.866   4.676  11.535 -0.2218  0.8637 -0.3464
  747TMC3    C811047   1.422   4.619  11.410  0.7095 -0.5587 -0.4918
  747TMC3    O111048   1.825   4.657  11.651 -0.0763  0.1333  0.1149
  747TMC3    O211049   1.410   4.502  11.376  0.2575  0.0058  0.1432
  748MPD2     C11050   3.177   4.508   1.191 -0.0345  0.1186 -0.3124
  748MPD2    C111051   3.194   4.576   1.305  0.1014  0.0799 -0.4709
  748MPD2    C211052   3.190   4.715   1.305 -0.1027 -0.0110 -0.1781
  748MPD2    C311053   3.168   0.054   1.181  0.1454  0.1143  0.7986
  748MPD2    C411054   3.163   4.705   1.062  0.2110  1.5674  0.1009
  748MPD2    C511055   3.181   4.569   1.070 -0.3058  0.6082 -0.3823
  748MPD2     H11056   3.205   0.047   1.399  1.7263  1.8754 -1.5426
  748MPD2    H111057   3.153   0.030   0.965 -0.1860 -0.1909 -0.7018
  748MPD2    H211058   3.191   4.401   1.198 -0.8516  0.0662  0.5123
  748MPD2    H311059   3.172   4.513   0.978 -1.9676 -0.7620  0.6118
  748MPD2     N11060   3.143   0.196   1.188 -0.4996  0.2076  0.3337
  748MPD2    H511061   3.151   0.232   1.282 -1.7662  1.7044 -0.1291
  748MPD2    N111062   3.212   4.499   1.422  0.0916 -0.2218 -0.0311
  748MPD2    H711063   3.241   4.402   1.418  1.2117  0.0624  1.1447
  749TMC3    C111064   3.074   0.419   1.118 -0.3033  0.1604 -0.6274
  749TMC3    C211065   3.058   0.471   1.248 -0.5457 -0.2596  0.1342
  749TMC3    C311066   3.031   0.609   1.261  0.7527  0.3978  0.3813
  749TMC3    C411067   3.070   0.500   1.008 -0.3913 -0.1377  0.0015
  749TMC3    C511068   3.043   0.635   1.029  0.7681 -0.3189 -0.0786
  749TMC3    C611069   3.019   0.685   1.151  0.5118  0.1958  0.7844
  749TMC3     C11070   3.102   0.276   1.081  0.2379 -0.4895 -0.3570
  749TMC3     O11071   3.073   0.244   0.966 -0.0346 -0.6106  0.3810
  749TMC3     H11072   3.063   0.400   1.329  2.2019  0.9224  1.0029
  749TMC3    H111073   3.083   0.463   0.907 -1.9014 -1.7324  0.3833
  749TMC3    H211074   2.988   0.789   1.158  2.4132  0.8294 -0.0690
  749TMC3    C711075   3.060   0.737   0.929  0.4802 -0.1114 -0.7816
  749TMC3    C811076   3.039   0.671   1.390  0.6863 -0.4544  0.6905
  749TMC3    O111077   3.097   0.846   0.966  0.1901 -0.2659 -0.0043
  749TMC3    O211078   2.965   0.763   1.413  0.6134  0.2393  0.3788
  750MPD2     C11079   3.833   1.624  11.507  0.1447 -0.0572  0.7975
  750MPD2    C111080   3.692   1.603  11.506  0.3579  0.0720 -0.5592
  750MPD2    C211081   3.654   1.499  11.423  0.3400 -0.9509  0.7050
  750MPD2    C311082   3.743   1.433  11.342  0.2104  0.1189 -0.2837
  750MPD2    C411083   3.878   1.459  11.344  0.3609  1.0018  0.1548
  750MPD2    C511084   3.920   1.552  11.435  0.3293  1.3000 -0.9570
  750MPD2     H11085   3.546   1.487  11.424  0.1336  0.8539  0.0458
  750MPD2    H111086   3.954   1.406  11.287  1.4710  1.8623  0.8286
  750MPD2    H211087   3.873   1.691  11.583  1.4386  1.3236 -1.1238
  750MPD2    H311088   4.026   1.570  11.443  0.2189  1.3375  0.4562
  750MPD2     N11089   3.697   1.328  11.258 -0.3796  0.4021 -0.4379
  750MPD2    H511090   3.768   1.271  11.213  1.3559  0.2638  2.5118
  750MPD2    N111091   3.608   1.687  11.583  0.4887 -0.5437 -0.4954
  750MPD2    H711092   3.647   1.725  11.669 -1.4390  0.1745  0.0463
  751TMC3    C111093   3.544   1.185  11.156 -1.1336 -0.6794  0.2961
  751TMC3    C211094   3.425   1.124  11.174 -0.3987  0.6979 -0.4017
  751TMC3    C311095   3.422   0.990  11.126 -0.7985  0.0820 -0.0229
  751TMC3    C411096   3.653   1.128  11.090 -0.4655  0.1708  0.1198
  751TMC3    C511097   3.645   1.003  11.038 -0.6057  0.3773  0.3546
  751TMC3    C611098   3.524   0.937  11.048  0.5573 -0.0628 -0.7361
  751TMC3     C11099   3.565   1.305  11.227 -0.0089 -0.0563 -0.1294
  751TMC3     O11100   3.459   1.358  11.255 -0.2196  0.0038  0.6075
  751TMC3     H11101   3.335   1.166  11.216 -0.9358  0.2520 -1.0985
  751TMC3    H111102   3.743   1.184  11.067  0.0456 -0.9878 -0.7037
  751TMC3    H211103   3.521   0.837  11.006  1.4570  0.1025 -1.2061
  751TMC3    C711104   3.732   0.964  10.926  0.5729 -0.5345  0.3667
  751TMC3    C811105   3.294   0.921  11.125  0.1302 -0.5728  0.7648
  751TMC3    O111106   3.843   1.011  10.926  0.5020  0.0969  0.3499
  751TMC3    O211107   3.278   0.851  11.026  0.0078 -0.0635 -0.1300
  752TMC3    C111108   2.041   1.100  16.769  0.3538  0.1850  0.3516
  752TMC3    C211109   2.141   1.020  16.804  0.9870  0.5927 -0.8918
  752TMC3    C311110   2.121   0.935  16.910 -0.2304  0.1203  0.2912
  752TMC3    C411111   1.913   1.105  16.828 -1.3303 -0.2548  0.3063
  752TMC3    C511112   1.905   1.018  16.933 -0.3375 -0.5448 -0.4765
  752TMC3    C611113   2.001   0.933  16.969 -0.2600 -0.5066  0.0593
  752TMC3     C11114   2.058   1.149  16.634  0.1973 -0.3127 -0.0169
  752TMC3     O11115   2.159   1.113  16.572 -0.9626 -0.2335 -0.4939
  752TMC3     H11116   2.241   1.020  16.764  1.0154 -0.6020 -0.8404
  752TMC3    H111117   1.817   1.141  16.794 -1.9667 -1.2825  1.0289
  752TMC3    H211118   1.972   0.865  17.048 -0.3730 -0.2375  0.2496
  752TMC3    C711119   1.818   1.058  17.033  0.6032 -0.1882 -0.1943
  752TMC3    C811120   2.233   0.859  16.951  0.4937 -0.8820  0.1471
  752TMC3    O111121   1.748   0.989  17.102 -0.3546 -0.3005 -0.1136
  752TMC3    O211122   2.325   0.849  16.869  0.7245  0.7036 -0.3654
  753TMC3    C111123   4.704   3.151  13.567  0.0832  0.1878 -0.0780
  753TMC3    C211124   4.717   3.062  13.670  0.2886  0.3974  0.4952
  753TMC3    C311125   4.715   2.928  13.630  0.3892 -0.3353 -0.3841
  753TMC3    C411126   4.676   3.123  13.438 -0.6099  0.1834 -0.0587
  753TMC3    C511127   4.661   2.992  13.412 -0.1532 -0.0100  1.0151
  753TMC3    C611128   4.681   2.893  13.502  0.5641 -0.8047 -0.1738
  753TMC3     C11129   4.712   3.295  13.596  0.7922 -0.9563 -0.7044
  753TMC3     O11130   4.703   3.367  13.503  0.3769  0.2768 -0.4016
  753TMC3     H11131   4.714   3.087  13.775 -1.2579 -1.0201  0.7817
  753TMC3    H111132   4.658   3.204  13.368  0.3877  0.3409 -0.1356
  753TMC3    H211133   4.687   2.788  13.477  0.1139 -0.8591 -0.0571
  753TMC3    C711134   4.648   2.947  13.269  1.2957 -0.0766 -0.3925
  753TMC3    C811135   0.010   2.813  13.725  0.7713 -0.2567 -0.1094
  753TMC3    O111136   4.624   2.830  13.261 -0.3594 -0.1177  0.3996
  753TMC3    O211137   4.682   2.707  13.695 -0.3168  0.1241  0.1919
  754MPD2     C11138   2.814   1.607  13.267  0.6299  0.2542 -0.1759
  754MPD2    C111139   2.807   1.475  13.238  0.4322 -0.2971 -0.5066
  754MPD2    C211140   2.691   1.434  13.180  0.2917 -0.1570  0.5875
  754MPD2    C311141   2.595   1.522  13.128 -0.1423  0.4184 -0.3044
  754MPD2    C411142   2.614   1.653  13.153  0.8047 -0.0163  0.5597
  754MPD2    C511143   2.714   1.693  13.240 -0.1095 -0.1664  0.1584
  754MPD2     H11144   2.668   1.328  13.187 -0.2795 -0.0140  0.8262
  754MPD2    H111145   2.538   1.720  13.114  1.3673 -0.5566 -1.4814
  754MPD2    H211146   2.890   1.650  13.331  0.0086  2.0336 -0.6357
  754MPD2    H311147   2.717   1.798  13.267 -2.0649 -0.0618 -0.0770
  754MPD2     N11148   2.486   1.474  13.052 -0.2815  0.6112 -0.2801
  754MPD2    H511149   2.414   1.542  13.028  1.3200  1.1111 -3.7953
  754MPD2    N111150   2.919   1.386  13.262  0.0352  0.0268  0.0323
  754MPD2    H711151   3.004   1.418  13.308  1.0371 -0.8515 -1.1926
  755MPD2     C11152   1.519   1.394  12.794 -0.0974 -0.1057  0.2388
  755MPD2    C111153   1.598   1.484  12.864 -0.6871 -0.1068 -0.0221
  755MPD2    C211154   1.736   1.458  12.862 -0.6206 -0.9210  0.4262
  755MPD2    C311155   1.799   1.363  12.792  0.0877  0.0251  0.0126
  755MPD2    C411156   1.712   1.275  12.730  0.2278  0.0675 -0.1075
  755MPD2    C511157   1.573   1.283  12.740  0.6378  0.2018  0.4943
  755MPD2     H11158   1.799   1.536  12.904 -0.2393 -1.6366  1.1826
  755MPD2    H111159   1.745   1.185  12.679 -0.3746 -0.2015 -0.0257
  755MPD2    H211160   1.412   1.405  12.784  0.1681  1.4025 -0.8842
  755MPD2    H311161   1.514   1.200  12.702  0.1557  1.0990 -0.7155
  755MPD2     N11162   1.937   1.326  12.779 -0.2365  0.4418  0.3877
  755MPD2    H511163   1.958   1.232  12.745 -2.0323  0.0112  0.4558
  755MPD2    N111164   1.544   1.599  12.922 -0.3734 -0.4489 -0.2887
  755MPD2    H711165   1.612   1.669  12.951 -1.2287 -0.6277  2.1272
  756MPD2     C11166   3.682   2.821   9.726 -0.5774 -0.6721 -0.4376
  756MPD2    C111167   3.647   2.698   9.772  0.5880  0.2487  0.2717
  756MPD2    C211168   3.558   2.627   9.697 -0.3155 -0.2708 -0.3456
  756MPD2    C311169   3.516   2.667   9.572  0.4632  0.8260 -0.0810
  756MPD2    C411170   3.561   2.788   9.524  0.3452  0.3354 -0.1969
  756MPD2    C511171   3.645   2.859   9.600  0.0480 -0.1767 -0.1431
  756MPD2     H11172   3.520   2.536   9.742  1.5643 -0.9137 -0.0301
  756MPD2    H111173   3.526   2.833   9.432  1.4610  0.3123 -0.6256
  756MPD2    H211174   3.730   2.892   9.793 -0.3620  0.1062 -1.4279
  756MPD2    H311175   3.686   2.952   9.563 -1.7870  0.6934  0.0074
  756MPD2     N11176   3.420   2.590   9.499 -0.4059  0.1775  0.3408
  756MPD2    H511177   3.393   2.628   9.409  3.1370  2.2004  0.1462
  756MPD2    N111178   3.673   2.647   9.896 -0.1414 -0.7540 -0.2459
  756MPD2    H711179   3.623   2.562   9.922 -0.1498 -0.7312 -0.1896
  757MPD2     C11180   2.776   1.815   9.705  0.6621  0.1126  0.0217
  757MPD2    C111181   2.897   1.845   9.759 -0.0386 -0.1734 -0.2152
  757MPD2    C211182   2.974   1.939   9.700 -0.4784  0.8007 -0.5461
  757MPD2    C311183   2.937   2.005   9.588  0.0783 -0.0894 -0.0104
  757MPD2    C411184   2.812   1.970   9.534 -0.0432  0.5935 -0.1956
  757MPD2    C511185   2.730   1.878   9.597  0.0375  0.3079  0.5203
  757MPD2     H11186   3.070   1.961   9.745 -1.1554 -1.7043  2.0899
  757MPD2    H111187   2.777   2.000   9.436 -1.3092  0.3277  0.1727
  757MPD2    H211188   2.710   1.749   9.760  0.1114 -1.2896 -2.3768
  757MPD2    H311189   2.637   1.844   9.552 -0.7842 -2.5364  4.3321
  757MPD2     N11190   3.033   2.092   9.523  0.7617  0.4725  0.4299
  757MPD2    H511191   3.116   2.116   9.576  0.1700  0.7611  1.2193
  757MPD2    N111192   2.946   1.755   9.859  0.4365  0.2206  0.0980
  757MPD2    H711193   2.886   1.676   9.880  0.0830  0.7880  1.2435
  758MPD2     C11194   2.703   1.122  15.905  0.1580  0.0484 -0.0146
  758MPD2    C111195   2.752   1.042  16.008 -0.3694  0.5750  0.2985
  758MPD2    C211196   2.698   1.064  16.136 -0.8556  0.1235 -0.0871
  758MPD2    C311197   2.611   1.168  16.164 -0.2006  0.1086 -1.1662
  758MPD2    C411198   2.569   1.246  16.053  0.1924  0.3089 -0.5739
  758MPD2    C511199   2.610   1.218  15.923 -0.2574 -0.5772 -0.9108
  758MPD2     H11200   2.737   1.015  16.224  0.3169  2.3261  0.6226
  758MPD2    H111201   2.491   1.322  16.051 -1.7012 -1.6295 -0.9768
  758MPD2    H211202   2.742   1.117  15.803 -1.2067 -1.9200 -0.4420
  758MPD2    H311203   2.570   1.276  15.840  0.3453 -0.0122 -0.8040
  758MPD2     N11204   2.576   1.182  16.301 -0.4137  0.3166  0.2701
  758MPD2    H511205   2.623   1.121  16.367 -0.3318 -1.9775 -1.9182
  758MPD2    N111206   2.857   0.943  15.980 -0.0132 -0.1091 -0.3299
  758MPD2    H711207   2.888   0.953  15.884  0.8479 -1.8071 -0.2287
  759MPD2     C11208   1.788   4.499   9.644 -0.0892  0.1568  1.0822
  759MPD2    C111209   1.917   4.493   9.697  0.3518 -0.2504  0.3301
  759MPD2    C211210   2.016   4.553   9.623 -0.3434 -0.8238  0.3903
  759MPD2    C311211   2.001   4.593   9.494 -0.1686 -1.1435 -0.5877
  759MPD2    C411212   1.871   4.581   9.442 -0.0880 -1.0434  0.4986
  759MPD2    C511213   1.762   4.546   9.517 -0.3008  0.1212 -0.0084
  759MPD2     H11214   2.111   4.571   9.672 -0.9672 -1.5751  1.8756
  759MPD2    H111215   1.841   4.618   9.345  0.0244  1.0881  1.2626
  759MPD2    H211216   1.704   4.452   9.694 -0.4365  0.7589  1.0644
  759MPD2    H311217   1.661   4.542   9.476  0.5665 -2.5529 -1.8404
  759MPD2     N11218   2.116   4.642   9.426  0.1914 -0.6115 -0.1614
  759MPD2    H511219   2.210   4.625   9.462  0.1191  0.1343  0.3694
  759MPD2    N111220   1.940   4.425   9.823 -0.0170 -0.5052  0.5395
  759MPD2    H711221   2.037   4.405   9.845 -0.0525 -0.7682  0.4473
  760MPD2     C11222   1.585   1.336  11.325 -0.8255  0.4586  0.1156
  760MPD2    C111223   1.707   1.378  11.375  0.0459 -0.4378 -0.0195
  760MPD2    C211224   1.774   1.299  11.464 -0.8159  0.3331  0.2735
  760MPD2    C311225   1.724   1.179  11.509 -0.1089 -0.3956 -0.2272
  760MPD2    C411226   1.596   1.148  11.472  0.3484  0.3003  1.0970
  760MPD2    C511227   1.529   1.227  11.378 -0.5153 -0.0135  0.2160
  760MPD2     H11228   1.874   1.335  11.486 -0.7541  1.0434 -1.1270
  760MPD2    H111229   1.556   1.055  11.511  1.8799 -0.7459  0.1672
  760MPD2    H211230   1.520   1.389  11.257 -1.7343  1.2805  1.6254
  760MPD2    H311231   1.428   1.200  11.352 -0.5524 -0.3348  0.6738
  760MPD2     N11232   1.802   1.087  11.581  0.0335  0.1756 -0.2218
  760MPD2    H511233   1.759   0.996  11.597 -3.2519  1.5824 -1.0312
  760MPD2    N111234   1.770   1.496  11.326 -0.4413  0.2204 -0.3671
  760MPD2    H711235   1.865   1.513  11.357  0.6630 -0.5018 -3.3807
  761MPD2     C11236   2.915   0.702  11.386 -0.4312  0.4266 -0.4512
  761MPD2    C111237   2.957   0.676  11.260 -0.0105 -0.3718  0.1317
  761MPD2    C211238   3.067   0.749  11.215 -0.0051  0.0417 -0.5815
  761MPD2    C311239   3.126   0.845  11.294 -0.2710 -0.2734  0.2371
  761MPD2    C411240   3.081   0.870  11.429 -0.0548 -0.3668 -0.3251
  761MPD2    C511241   2.980   0.787  11.468  0.1743 -0.1698 -0.3669
  761MPD2     H11242   3.097   0.741  11.112 -0.4712  1.5529 -0.8427
  761MPD2    H111243   3.140   0.938  11.489  0.3554  1.0753 -2.3555
  761MPD2    H211244   2.835   0.642  11.428  1.4073  0.0913  2.5453
  761MPD2    H311245   2.956   0.794  11.573  0.4881  0.4614 -0.3354
  761MPD2     N11246   3.233   0.931  11.248  0.1645  0.0926 -0.2543
  761MPD2    H511247   3.271   1.003  11.309  1.9791 -1.0964  0.0250
  761MPD2    N111248   2.893   0.567  11.185  0.4955 -0.3819  0.3450
  761MPD2    H711249   2.831   0.503  11.234 -1.4549  0.2704 -1.2420
  762MPD2     C11250   3.414   0.516  11.120 -0.6861 -0.4108 -0.3485
  762MPD2    C111251   3.395   0.410  11.034  0.3320  1.1854  0.1095
  762MPD2    C211252   3.491   0.395  10.930  0.5736  0.1586  0.6798
  762MPD2    C311253   3.600   0.481  10.915  0.1216 -0.5189  0.0784
  762MPD2    C411254   3.610   0.589  11.008  0.3401 -0.0048 -0.0381
  762MPD2    C511255   3.520   0.598  11.112 -0.4997  0.0981  0.5845
  762MPD2     H11256   3.479   0.318  10.855  2.4241  0.7205 -0.1924
  762MPD2    H111257   3.682   0.670  11.000  2.9290 -2.2269  0.3822
  762MPD2    H211258   3.340   0.531  11.199  1.2248 -0.0462  1.3649
  762MPD2    H311259   3.529   0.680  11.181 -1.2129 -0.3434  1.2034
  762MPD2     N11260   3.687   0.465  10.804  0.3785  0.1957  0.2663
  762MPD2    H511261   3.658   0.388  10.745  2.1084 -2.1924  2.5048
  762MPD2    N111262   3.278   0.328  11.054  0.1792  0.2864 -0.0087
  762MPD2    H711263   3.223   0.352  11.136  0.7412  2.6369 -0.3156
  763MPD2     C11264   0.241   0.857  16.556 -0.0074 -0.5153  0.2135
  763MPD2    C111265   0.199   0.954  16.469  0.1180 -0.1021 -0.4183
  763MPD2    C211266   0.111   1.045  16.527 -0.2477  0.2812  0.2306
  763MPD2    C311267   0.066   1.030  16.658 -0.8155  0.1562  0.6357
  763MPD2    C411268   0.101   0.928  16.737 -0.3735 -0.8140  0.4067
  763MPD2    C511269   0.198   0.846  16.686 -0.3391 -0.4444 -0.0339
  763MPD2     H11270   0.088   1.137  16.475 -4.5144 -1.0488 -0.2761
  763MPD2    H111271   0.068   0.928  16.841 -0.1705  2.6886  0.4628
  763MPD2    H211272   0.312   0.780  16.530 -0.6005 -0.7427 -0.7154
  763MPD2    H311273   0.223   0.773  16.762 -0.1548  0.2512  0.5692
  763MPD2     N11274   4.710   1.129  16.728  0.0398 -0.4166 -0.4759
  763MPD2    H511275   4.705   1.125  16.830 -1.0196 -0.2399 -0.5207
  763MPD2    N111276   0.244   0.960  16.331 -0.0558  0.1445  0.1720
  763MPD2    H711277   0.208   1.036  16.274  0.3552 -0.8280 -1.3857
  764MPD2     C11278   2.870   2.576  17.209 -0.2649  0.2338 -0.0212
  764MPD2    C111279   2.735   2.573  17.209  0.1548  0.0037  0.2420
  764MPD2    C211280   2.669   2.542  17.330 -0.2835 -0.1973 -0.4721
  764MPD2    C311281   2.732   2.507  17.447  0.4234  0.0802 -0.7045
  764MPD2    C411282   2.871   2.519  17.439 -0.9535  1.1456 -0.5519
  764MPD2    C511283   2.939   2.549  17.323 -0.3476 -0.0473 -0.1794
  764MPD2     H11284   2.562   2.528  17.322 -0.5063  0.9094  0.6982
  764MPD2    H111285   2.932   2.487  17.523 -0.5721 -0.8771 -1.5849
  764MPD2    H211286   2.925   2.601  17.119 -0.0659  0.3402  0.1293
  764MPD2    H311287   3.046   2.545  17.337 -0.0481  0.3339 -2.3872
  764MPD2     N11288   2.663   2.438  17.549  0.2899  0.5384 -0.1791
  764MPD2    H511289   2.567   2.415  17.524  1.4356 -1.9969 -2.2897
  764MPD2    N111290   2.652   2.604  17.097 -0.3417 -0.0090  0.5696
  764MPD2    H711291   2.551   2.601  17.109 -0.6100  1.3027 -1.4733
  765MPD2     C11292   2.761   0.448  15.125 -0.1907  0.3362  0.1254
  765MPD2    C111293   2.805   0.556  15.197 -0.4456  0.3831 -0.5939
  765MPD2    C211294   2.868   0.521  15.319  0.2945 -0.0204  0.8924
  765MPD2    C311295   2.884   0.391  15.362  0.1427  0.4052  0.1107
  765MPD2    C411296   2.828   0.293  15.287 -0.5038  0.3096  0.1018
  765MPD2    C511297   2.781   0.323  15.164 -0.2141  0.7690 -0.5299
  765MPD2     H11298   2.907   0.608  15.370 -0.9735  1.1704 -0.1561
  765MPD2    H111299   2.833   0.186  15.307  1.3349  0.2957 -0.3622
  765MPD2    H211300   2.723   0.454  15.024  0.1047 -0.7653 -0.0533
  765MPD2    H311301   2.750   0.248  15.092 -0.0770  0.5265 -0.3333
  765MPD2     N11302   2.971   0.363  15.477  0.2244  0.1248  0.1173
  765MPD2    H511303   3.019   0.443  15.519  1.8846  0.2112 -1.9273
  765MPD2    N111304   2.768   0.686  15.154 -0.0183 -0.3428 -0.4153
  765MPD2    H711305   2.701   0.700  15.079 -2.1139  1.2113  1.7420
  766MPD2     C11306   2.413   1.272  14.683 -0.0275 -0.2664  0.0691
  766MPD2    C111307   2.449   1.143  14.703 -0.2744  0.0629  0.1230
  766MPD2    C211308   2.428   1.055  14.603 -0.1672 -0.1189  0.2288
  766MPD2    C311309   2.372   1.085  14.479 -0.3536 -0.0493 -0.0570
  766MPD2    C411310   2.330   1.216  14.469 -0.1162  0.4403  0.0877
  766MPD2    C511311   2.358   1.312  14.566  0.1859  0.0123  0.6969
  766MPD2     H11312   2.461   0.954  14.622 -2.2240 -0.5063  1.6910
  766MPD2    H111313   2.292   1.254  14.375 -1.7341  0.1067  0.6148
  766MPD2    H211314   2.440   1.343  14.760 -2.3516 -1.8527  2.3575
  766MPD2    H311315   2.314   1.410  14.551 -3.0451 -1.3031  1.4909
  766MPD2     N11316   2.377   0.998  14.365 -0.0899  0.1671  0.0277
  766MPD2    H511317   2.340   1.038  14.279  0.6313  0.4519 -0.1443
  766MPD2    N111318   2.520   1.116  14.824 -0.4425  0.1750 -0.5505
  766MPD2    H711319   2.531   1.197  14.884 -1.0242 -0.4705  0.4268
  767MPD2     C11320   2.157   1.090  15.193  0.8280  0.5528 -0.4623
  767MPD2    C111321   2.191   1.174  15.092  0.1864 -0.3999 -0.6230
  767MPD2    C211322   2.197   1.117  14.965  0.2234  0.2064  0.0350
  767MPD2    C311323   2.178   0.982  14.946  0.6168  0.1410  0.0030
  767MPD2    C411324   2.147   0.903  15.049  0.0302  0.2056 -0.5371
  767MPD2    C511325   2.145   0.956  15.173  0.5464  0.3025 -0.1534
  767MPD2     H11326   2.222   1.178  14.879 -0.9187  0.8437  0.1584
  767MPD2    H111327   2.128   0.797  15.033 -0.8437  0.3677 -0.5912
  767MPD2    H211328   2.152   1.125  15.295  0.9390 -0.4011 -0.1336
  767MPD2    H311329   2.128   0.888  15.256  0.4376 -0.2639 -0.6418
  767MPD2     N11330   2.183   0.925  14.815 -0.3131 -0.2847 -0.0483
  767MPD2    H511331   2.177   0.985  14.734 -0.1275 -1.9528 -1.3165
  767MPD2    N111332   2.209   1.314  15.133  0.4263 -0.5099  0.0044
  767MPD2    H711333   2.168   1.346  15.220  0.1728 -0.4920 -0.1225
  768MPD2     C11334   3.729   4.172  10.683  0.7074  0.0532 -0.4665
  768MPD2    C111335   3.723   4.070  10.771 -0.0150 -0.4420 -0.5281
  768MPD2    C211336   3.821   4.047  10.864 -0.1510 -0.0735 -0.4036
  768MPD2    C311337   3.925   4.132  10.890 -0.8142  0.6160 -0.1148
  768MPD2    C411338   3.934   4.243  10.807 -0.0641  0.4569 -0.5055
  768MPD2    C511339   3.836   4.259  10.700  0.0333  0.2979 -0.3954
  768MPD2     H11340   3.807   3.955  10.920 -0.7435 -1.1283 -2.2872
  768MPD2    H111341   4.009   4.320  10.822  0.7423 -0.4662  0.1626
  768MPD2    H211342   3.651   4.203  10.615  0.7902 -0.2826 -0.7123
  768MPD2    H311343   3.839   4.354  10.648  2.1645  0.4315 -0.0282
  768MPD2     N11344   4.026   4.110  10.989 -0.3400 -0.1151 -0.2164
  768MPD2    H511345   4.078   4.190  11.024  1.0816  0.1054 -2.8161
  768MPD2    N111346   3.613   3.981  10.768  0.4690 -0.0974  0.6610
  768MPD2    H711347   3.614   3.910  10.840 -1.0779 -1.1306 -0.3274
  769MPD2     C11348   4.236   2.155  14.809 -0.2711 -0.8091 -0.3349
  769MPD2    C111349   4.119   2.114  14.863 -0.1935  0.0973  0.1957
  769MPD2    C211350   4.078   2.162  14.984  1.0163 -0.5439  0.2577
  769MPD2    C311351   4.165   2.241  15.058 -0.0894  0.0663  1.1837
  769MPD2    C411352   4.300   2.261  15.013 -0.1085 -0.1624  0.4533
  769MPD2    C511353   4.333   2.222  14.882  1.0654 -0.3645  0.0826
  769MPD2     H11354   3.980   2.144  15.025  0.3879 -0.2786 -1.1188
  769MPD2    H111355   4.378   2.301  15.077 -1.0847  1.2835  0.7435
  769MPD2    H211356   4.266   2.136  14.706 -0.3776  0.8213 -0.6760
  769MPD2    H311357   4.425   2.252  14.834 -0.0683  1.4639 -0.9876
  769MPD2     N11358   4.117   2.298  15.178 -0.2469 -0.7163 -0.4546
  769MPD2    H511359   4.024   2.269  15.206  0.7595 -2.3824  1.1783
  769MPD2    N111360   4.047   2.025  14.784 -0.5270  0.3883  0.2036
  769MPD2    H711361   4.088   1.997  14.696 -1.9531  1.1299 -0.6946
  770MPD2     C11362   3.529   1.105  14.596 -0.2180  0.4597  0.7132
  770MPD2    C111363   3.461   1.192  14.687 -0.7149 -0.4781 -0.0281
  770MPD2    C211364   3.513   1.320  14.703 -0.1464  0.2872 -0.5193
  770MPD2    C311365   3.621   1.357  14.620 -0.0406  0.2796 -0.8488
  770MPD2    C411366   3.684   1.263  14.535 -0.0966 -0.6426  0.0314
  770MPD2    C511367   3.638   1.135  14.528  0.1869  0.4991 -0.8996
  770MPD2     H11368   3.473   1.396  14.769  0.7176  1.1537 -1.0071
  770MPD2    H111369   3.758   1.297  14.464 -1.5788  2.5287 -0.0058
  770MPD2    H211370   3.506   0.999  14.587 -0.8728  0.7242 -0.7670
  770MPD2    H311371   3.686   1.061  14.466 -1.0899 -0.8320 -0.2793
  770MPD2     N11372   3.668   1.490  14.619  0.9239 -0.0252  0.6119
  770MPD2    H511373   3.725   1.512  14.538 -0.6704  0.5352 -0.3650
  770MPD2    N111374   3.337   1.159  14.735  0.3182 -0.1193  0.0869
  770MPD2    H711375   3.305   1.065  14.715  0.3800 -0.0708 -0.2440
  771MPD2     C11376   4.132   0.168  13.310 -0.3830  0.8069  0.0146
  771MPD2    C111377   4.254   0.110  13.288 -0.0234 -0.0389  0.0615
  771MPD2    C211378   4.272   0.033  13.174 -0.2315  0.2938 -0.3131
  771MPD2    C311379   4.166   0.007  13.089  1.1544  0.6707 -1.0265
  771MPD2    C411380   4.037   0.055  13.128 -0.2915  0.0591  0.2629
  771MPD2    C511381   4.027   0.138  13.238  0.3874  0.7749  0.3130
  771MPD2     H11382   4.371   4.720  13.145 -0.3079  0.7915 -1.1665
  771MPD2    H111383   3.950   0.014  13.078 -1.1076  1.9043  0.1820
  771MPD2    H211384   4.112   0.237  13.391 -2.2133  0.6317 -0.2878
  771MPD2    H311385   3.934   0.188  13.263 -0.2169  0.2555 -0.8917
  771MPD2     N11386   4.195   4.665  12.965  0.0129 -0.0515  0.3076
  771MPD2    H511387   4.292   4.646  12.947 -0.2222  0.1092 -1.1049
  771MPD2    N111388   4.362   0.154  13.371  0.1025  0.2497  0.5701
  771MPD2    H711389   4.333   0.225  13.438 -1.2803  0.5781 -0.3551
  772MPD2     C11390   4.492   0.669  13.892 -0.5126  0.6480 -0.5545
  772MPD2    C111391   4.409   0.579  13.823 -0.2769 -0.9192 -0.3650
  772MPD2    C211392   4.278   0.557  13.873 -0.6301 -0.3454 -0.2536
  772MPD2    C311393   4.241   0.617  13.990  0.3466 -0.3266  0.7014
  772MPD2    C411394   4.335   0.685  14.065 -0.2585  0.3628  0.1649
  772MPD2    C511395   4.459   0.708  14.013  0.0653 -0.1578  0.2124
  772MPD2     H11396   4.208   0.501  13.812 -0.5179 -1.8389  0.9814
  772MPD2    H111397   4.305   0.725  14.161 -0.1602 -1.5472  0.9878
  772MPD2    H211398   4.594   0.685  13.861 -0.1260 -1.7746 -0.5617
  772MPD2    H311399   4.530   0.760  14.077 -0.3935 -0.8732  1.2862
  772MPD2     N11400   4.110   0.609  14.037 -0.2946 -0.0340 -0.4320
  772MPD2    H511401   4.088   0.664  14.120  1.6528 -1.2145  0.8703
  772MPD2    N111402   4.446   0.504  13.712  0.2366  0.2912 -0.1954
  772MPD2    H711403   4.375   0.444  13.670 -0.9500 -0.7843  3.3298
  773MPD2     C11404   3.507   1.830  17.559  0.8644 -0.2219  0.3491
  773MPD2    C111405   3.402   1.757  17.610  0.1187 -0.2594  0.1779
  773MPD2    C211406   3.420   1.696   0.043 -0.5720  1.0458 -0.3138
  773MPD2    C311407   3.532   1.722   0.117  0.3829 -0.1474 -0.0308
  773MPD2    C411408   3.632   1.801   0.067 -0.0502  0.0090 -0.1527
  773MPD2    C511409   3.617   1.851  17.634  0.1834 -0.2259  0.5252
  773MPD2     H11410   3.350   1.624   0.085 -0.5064  0.7105 -0.7837
  773MPD2    H111411   3.728   1.798   0.117 -0.4753  2.2667  0.7892
  773MPD2    H211412   3.506   1.873  17.460  0.5186  0.8108  0.8000
  773MPD2    H311413   3.693   1.917  17.592 -1.4539  1.4240  0.1670
  773MPD2     N11414   3.542   1.650   0.234 -0.5655  0.5182  0.2024
  773MPD2    H511415   3.461   1.595   0.263 -0.3267 -0.1460 -0.3871
  773MPD2    N111416   3.295   1.699  17.530  1.2923  0.0041  0.3136
  773MPD2    H711417   3.223   1.646  17.577  2.5075 -0.1747  1.9746
  774MPD2     C11418   2.619   0.435  13.450  0.5056  0.1959 -0.2028
  774MPD2    C111419   2.745   0.439  13.510  0.4312  0.6157 -0.2782
  774MPD2    C211420   2.837   0.534  13.478 -0.1104  0.2087  0.0008
  774MPD2    C311421   2.811   0.628  13.380  0.4582 -0.7389 -0.3235
  774MPD2    C411422   2.696   0.621  13.310 -0.7997 -0.1457 -0.5028
  774MPD2    C511423   2.596   0.529  13.349  0.3096 -0.4714  0.4406
  774MPD2     H11424   2.928   0.543  13.536 -0.5700  1.9158  0.4695
  774MPD2    H111425   2.664   0.695  13.237  0.1403  2.0972  1.3381
  774MPD2    H211426   2.545   0.363  13.483 -0.1162  1.0490  0.2535
  774MPD2    H311427   2.493   0.533  13.316  0.6801  1.9977 -0.4293
  774MPD2     N11428   2.907   0.728  13.350  0.3419  0.2605 -0.2500
  774MPD2    H511429   2.996   0.719  13.398  0.1355  1.0334  0.2749
  774MPD2    N111430   2.768   0.368  13.632 -0.5691 -0.6339 -0.1544
  774MPD2    H711431   2.858   0.382  13.677 -1.3531 -1.7314  1.7374
  775MPD2     C11432   4.202   2.080  15.649  0.2720 -0.9095  0.7351
  775MPD2    C111433   4.239   2.162  15.754  0.6429 -0.2488 -0.6604
  775MPD2    C211434   4.327   2.262  15.723  0.2041 -0.4698  0.1986
  775MPD2    C311435   4.384   2.274  15.599 -0.6192 -0.2826 -0.0237
  775MPD2    C411436   4.348   2.196  15.498  0.0902  0.6903  0.0326
  775MPD2    C511437   4.256   2.096  15.523  0.2555 -0.5691  0.1127
  775MPD2     H11438   4.379   2.316  15.801 -0.0991 -0.6058  0.4933
  775MPD2    H111439   4.400   2.202  15.403  0.1857 -0.5814 -0.0016
  775MPD2    H211440   4.135   1.998  15.670  0.2587 -0.7714  1.2366
  775MPD2    H311441   4.231   2.022  15.448  0.3885  0.1072 -0.6036
  775MPD2     N11442   4.480   2.367  15.573  0.2246  0.1290 -0.1356
  775MPD2    H511443   4.514   2.363  15.477 -0.1080 -1.2706 -0.2042
  775MPD2    N111444   4.186   2.139  15.884 -0.8773  0.0059  0.3075
  775MPD2    H711445   4.130   2.055  15.897 -2.8256  1.6818  2.8332
  776MPD2     C11446   3.014   2.142  11.362 -0.2382  0.0073  0.7654
  776MPD2    C111447   3.090   2.188  11.469  0.0265 -0.2357 -0.6099
  776MPD2    C211448   3.118   2.323  11.488  0.8772 -0.9428 -0.6229
  776MPD2    C311449   3.050   2.422  11.408 -0.4593  0.6258  0.1237
  776MPD2    C411450   2.970   2.371  11.305 -0.1760  1.1084 -0.0496
  776MPD2    C511451   2.951   2.236  11.280  0.0811  0.1304  0.0398
  776MPD2     H11452   3.166   2.360  11.578 -2.1685 -1.0126  1.0597
  776MPD2    H111453   2.925   2.444  11.238 -1.8955  0.6043  0.5572
  776MPD2    H211454   3.002   2.037  11.335 -0.3362  0.1863  0.1251
  776MPD2    H311455   2.896   2.193  11.197  0.1186  0.5307 -0.1937
  776MPD2     N11456   3.044   2.562  11.442  0.1564  0.5176  0.0233
  776MPD2    H511457   2.992   2.631  11.389 -0.7891 -0.5934 -0.4975
  776MPD2    N111458   3.138   2.084  11.554  1.1307  0.7232 -0.4953
  776MPD2    H711459   3.121   1.992  11.514 -3.1330  1.2747  0.0897
  777MPD2     C11460   3.899   4.634   1.864 -0.3789  0.6183  0.1463
  777MPD2    C111461   3.873   0.005   1.760 -0.1336 -0.4596 -0.0253
  777MPD2    C211462   3.869   4.678   1.635  0.3569  0.0752 -0.0456
  777MPD2    C311463   3.877   4.545   1.606  1.1198  0.1692  0.0214
  777MPD2    C411464   3.901   4.456   1.711 -0.5542 -0.0365 -0.1921
  777MPD2    C511465   3.910   4.498   1.842 -0.0128  0.1633 -0.1187
  777MPD2     H11466   3.856   0.032   1.559 -3.1127 -2.5731 -2.1004
  777MPD2    H111467   3.896   4.349   1.694 -4.5358  0.1979 -0.6352
  777MPD2    H211468   3.924   4.668   1.964 -1.7168 -1.4436  1.1902
  777MPD2    H311469   3.928   4.436   1.929  1.5064  2.0227  0.8767
  777MPD2     N11470   3.871   4.501   1.474 -0.4056 -0.5002 -1.0100
  777MPD2    H511471   3.846   4.575   1.409  1.5681 -0.3779 -1.6305
  777MPD2    N111472   3.866   0.147   1.771  0.8963 -0.1918  0.2909
  777MPD2    H711473   3.844   0.210   1.695  1.4732  2.6008  2.4582
  778MPD2     C11474   4.632   4.548  15.471  0.0122  0.6127  0.1549
  778MPD2    C111475   4.556   4.554  15.361 -0.1531  1.0984 -0.0383
  778MPD2    C211476   4.592   4.622  15.250 -0.5638  0.1885  0.3349
  778MPD2    C311477   4.714   4.694  15.249  0.2500  0.4325 -1.1630
  778MPD2    C411478   0.079   4.677  15.359 -0.5141 -0.1971  0.1755
  778MPD2    C511479   0.032   4.611  15.467 -0.5104  0.2951  0.1167
  778MPD2     H11480   4.532   4.635  15.160  0.6980  3.5167 -0.0621
  778MPD2    H111481   0.179   4.719  15.366 -1.5538  1.6637  4.4675
  778MPD2    H211482   4.600   4.507  15.566 -0.5664  4.3784  1.6067
  778MPD2    H311483   0.103   4.621  15.549 -0.2277  2.1572 -0.3642
  778MPD2     N11484   0.028   0.049  15.139  0.0265  0.2623  0.0338
  778MPD2    H511485   4.688   0.042  15.059 -1.4943 -0.5743  1.2583
  778MPD2    N111486   4.428   4.486  15.361  0.3564 -0.4140  0.2585
  778MPD2    H711487   4.383   4.482  15.270 -0.3940  0.1650  0.6110
  779MPD2     C11488   4.460   3.323  14.714 -0.2045 -0.1020 -0.4775
  779MPD2    C111489   4.589   3.369  14.676  0.2767  0.1649  0.4097
  779MPD2    C211490   4.609   3.504  14.653 -0.3081  0.9032  0.9694
  779MPD2    C311491   4.504   3.590  14.670  0.4202 -0.1332 -0.5670
  779MPD2    C411492   4.378   3.545  14.699 -0.3049  0.2902  0.0642
  779MPD2    C511493   4.357   3.412  14.716  0.4929 -0.1723 -0.1622
  779MPD2     H11494   4.708   3.543  14.629 -0.2821  0.6194  0.6151
  779MPD2    H111495   4.296   3.615  14.706  0.1347  0.6785  1.3028
  779MPD2    H211496   4.443   3.219  14.741  0.4778 -0.2900 -0.7875
  779MPD2    H311497   4.257   3.379  14.740 -0.3033  2.3714  0.0127
  779MPD2     N11498   4.532   3.726  14.650 -0.5132  0.4918 -0.4080
  779MPD2    H511499   4.629   3.754  14.646 -0.3107 -0.1541 -0.0645
  779MPD2    N111500   4.693   3.280  14.679  0.1713 -0.4857  0.1755
  779MPD2    H711501   0.066   3.317  14.673  0.2775 -0.9417 -0.8952
  780MPD2     C11502   3.526   3.734   1.163 -0.3447 -0.4424 -0.2234
  780MPD2    C111503   3.591   3.625   1.104  0.2599 -0.0821  0.3334
  780MPD2    C211504   3.649   3.637   0.975  0.1823  0.3163  0.0265
  780MPD2    C311505   3.620   3.751   0.907  0.4370  0.1781 -0.5951
  780MPD2    C411506   3.547   3.852   0.960  0.5532  0.4659 -0.2290
  780MPD2    C511507   3.504   3.844   1.089  0.1789  0.0245 -0.3505
  780MPD2     H11508   3.719   3.564   0.935 -0.0136  0.4866 -0.6313
  780MPD2    H111509   3.526   3.938   0.898  2.4680  0.1369 -1.3260
  780MPD2    H211510   3.480   3.720   1.260  0.3150  0.5679  0.2332
  780MPD2    H311511   3.445   3.920   1.139 -0.7520 -1.3698  0.7005
  780MPD2     N11512   3.668   3.759   0.774  0.2924 -0.1225  0.3570
  780MPD2    H511513   3.739   3.692   0.746  1.5616  1.5285 -0.4364
  780MPD2    N111514   3.590   3.498   1.170 -0.0990  0.0541  0.5056
  780MPD2    H711515   3.518   3.485   1.241 -0.1106 -2.5031  0.0330
  781MPD2     C11516   1.444   4.490  12.238  0.1504  0.0958  1.6507
  781MPD2    C111517   1.516   4.507  12.352 -1.1290 -0.5430 -0.2104
  781MPD2    C211518   1.648   4.485  12.353  0.6175  0.1156  0.4565
  781MPD2    C311519   1.716   4.473  12.236 -0.2139 -0.3371 -0.2569
  781MPD2    C411520   1.646   4.483  12.117 -0.4623 -0.5657  0.0795
  781MPD2    C511521   1.506   4.491  12.119  0.7191 -0.1136  0.4038
  781MPD2     H11522   1.695   4.461  12.447  0.7473 -2.7742 -0.3487
  781MPD2    H111523   1.690   4.479  12.018 -0.7470 -1.3564 -0.0153
  781MPD2    H211524   1.337   4.511  12.240  0.6039  2.5308  0.4999
  781MPD2    H311525   1.448   4.501  12.029  1.0103 -1.1855  0.0941
  781MPD2     N11526   1.850   4.453  12.228  0.3601 -0.9292 -0.2203
  781MPD2    H511527   1.881   4.466  12.132  0.2377 -0.3426 -0.1792
  781MPD2    N111528   1.449   4.515  12.478  0.1371 -0.5682 -0.2413
  781MPD2    H711529   1.511   4.496  12.556 -2.5832  0.7384  2.2319
  782MPD2     C11530   4.123   1.627  10.373  0.7487 -0.1434  0.2856
  782MPD2    C111531   4.185   1.550  10.471 -0.4114  0.1032 -0.8097
  782MPD2    C211532   4.221   1.605  10.587 -0.1513  0.0842 -0.0218
  782MPD2    C311533   4.214   1.741  10.610  0.1214  0.1851 -0.0371
  782MPD2    C411534   4.158   1.823  10.516  0.6153 -0.5112  0.1993
  782MPD2    C511535   4.115   1.761  10.403  0.5526  0.1104 -0.2535
  782MPD2     H11536   4.259   1.538  10.664  1.6385  0.3430 -0.6792
  782MPD2    H111537   4.128   1.927  10.524  2.0358  0.0108 -1.2780
  782MPD2    H211538   4.100   1.589  10.274  0.9331  1.0813 -0.2326
  782MPD2    H311539   4.073   1.821  10.323  0.6488  0.8608  0.2655
  782MPD2     N11540   4.261   1.808  10.722 -0.7433 -0.0556 -0.2602
  782MPD2    H511541   4.255   1.909  10.723  0.8227  0.0465 -2.3285
  782MPD2    N111542   4.212   1.412  10.456 -0.1916 -0.0644 -0.0058
  782MPD2    H711543   4.265   1.364  10.528  0.2304 -0.3777 -0.5290
  783MPD2     C11544   3.638   0.771  10.635 -0.6607 -1.5474 -0.3646
  783MPD2    C111545   3.718   0.853  10.710  0.3718  0.6827  0.3887
  783MPD2    C211546   3.835   0.899  10.654 -0.0670 -0.6969  0.1202
  783MPD2    C311547   3.872   0.873  10.526 -0.5873  0.6338  0.5244
  783MPD2    C411548   3.782   0.802  10.449 -0.3653  0.3919 -0.2125
  783MPD2    C511549   3.663   0.754  10.503  0.0920  0.4266 -0.2355
  783MPD2     H11550   3.917   0.941  10.711 -1.2781 -0.3301  1.5953
  783MPD2    H111551   3.799   0.786  10.344 -0.1889  2.0330 -0.4372
  783MPD2    H211552   3.542   0.749  10.681  0.1051 -3.6350  0.1993
  783MPD2    H311553   3.606   0.692  10.435 -1.2189 -1.0807  2.2509
  783MPD2     N11554   3.995   0.910  10.467  0.7971  0.4569  0.2608
  783MPD2    H511555   3.998   0.908  10.366  0.7690  1.9330  0.2254
  783MPD2    N111556   3.666   0.877  10.837 -0.4836 -0.3282  0.0156
  783MPD2    H711557   3.577   0.837  10.864 -0.8193 -0.6213 -1.5224
  784MPD2     C11558   2.384   1.739   0.912 -0.5816 -0.1820  0.3782
  784MPD2    C111559   2.348   1.830   1.014 -0.7204  0.1837 -0.4887
  784MPD2    C211560   2.313   1.957   0.977 -0.3339  0.0232  0.6738
  784MPD2    C311561   2.323   2.001   0.847 -0.0756 -0.4058 -0.1364
  784MPD2    C411562   2.369   1.912   0.749 -0.2280  1.0570 -0.1723
  784MPD2    C511563   2.399   1.782   0.787  0.2668 -0.3188  0.0131
  784MPD2     H11564   2.291   2.027   1.057  0.3068  2.4522 -1.3200
  784MPD2    H111565   2.375   1.934   0.643 -1.4448  0.4306 -0.3720
  784MPD2    H211566   2.404   1.636   0.937 -1.2014 -0.9023 -2.0876
  784MPD2    H311567   2.431   1.710   0.713 -2.6073 -1.6046  0.0176
  784MPD2     N11568   2.264   2.129   0.819  0.2316 -0.1957  0.1983
  784MPD2    H511569   2.216   2.180   0.892  1.2857  0.4546  0.4408
  784MPD2    N111570   2.317   1.780   1.146 -0.4983 -0.3941 -0.1552
  784MPD2    H711571   2.264   1.842   1.207  0.3451 -1.7675  1.9524
  785MPD2     C11572   2.128   0.036   9.902  0.3838 -0.4246 -0.7178
  785MPD2    C111573   2.227   4.693   9.965 -0.5741  0.1565 -0.0255
  785MPD2    C211574   2.194   4.627  10.084  0.0765  0.1723  1.0045
  785MPD2    C311575   2.067   4.633  10.139  0.4364 -0.6926  0.2553
  785MPD2    C411576   1.971   4.703  10.078 -0.4264  0.1053  0.3924
  785MPD2    C511577   2.000   0.041   9.954 -0.7703 -0.5858 -0.6353
  785MPD2     H11578   2.268   4.571  10.140  0.6451 -0.4952 -0.4237
  785MPD2    H111579   1.875   4.719  10.124  0.6078 -1.2780  3.0925
  785MPD2    H211580   2.156   0.083   9.808 -2.0800 -0.7103 -1.6011
  785MPD2    H311581   1.923   0.107   9.915  0.7979  1.5433 -0.1106
  785MPD2     N11582   2.036   4.546  10.247  0.3043 -0.0315 -0.0622
  785MPD2    H511583   2.120   4.492  10.265  0.6458 -0.3182 -2.4954
  785MPD2    N111584   2.354   4.689   9.903 -0.5358 -0.1924 -0.3387
  785MPD2    H711585   2.366   0.022   9.819 -0.5167 -0.7468 -0.6921
  786MPD2     C11586   0.157   2.854  14.845  0.3178  0.5387  0.0521
  786MPD2    C111587   0.288   2.851  14.806 -0.0696 -0.8484  0.5412
  786MPD2    C211588   0.376   2.929  14.878 -0.0124  0.4904 -0.0202
  786MPD2    C311589   0.338   3.012  14.983 -0.2738 -0.1236 -0.4377
  786MPD2    C411590   0.215   3.002  15.021 -0.1926 -0.3813 -0.3415
  786MPD2    C511591   0.123   2.915  14.957 -0.4534  0.3422 -0.2854
  786MPD2     H11592   0.477   2.925  14.840  0.3003 -1.4834  1.0309
  786MPD2    H111593   0.182   3.057  15.108 -1.2193  0.7586 -1.4553
  786MPD2    H211594   0.084   2.801  14.786 -0.8805 -0.7401  2.7012
  786MPD2    H311595   0.023   2.903  14.997 -0.1386 -0.5327  0.2549
  786MPD2     N11596   0.425   3.102  15.046 -0.0185 -0.0612 -0.2747
  786MPD2    H511597   0.385   3.164  15.115 -0.6051  0.8617 -1.4339
  786MPD2    N111598   0.341   2.756  14.716 -0.7933 -0.0334 -0.5072
  786MPD2    H711599   0.442   2.748  14.708 -0.3751  2.7841  2.1457
  787MPD2     C11600   0.695   2.366  15.006 -0.7413 -0.3906  0.2411
  787MPD2    C111601   0.683   2.305  14.880 -0.0309 -0.5007  0.7441
  787MPD2    C211602   0.764   2.196  14.856 -0.8600 -0.4482  0.8731
  787MPD2    C311603   0.860   2.152  14.946 -0.4920 -0.4319 -0.3447
  787MPD2    C411604   0.860   2.212  15.074 -0.4737 -0.0603 -0.4430
  787MPD2    C511605   0.783   2.318  15.097  0.8709 -0.6868  0.0519
  787MPD2     H11606   0.765   2.148  14.759 -1.6994  0.7906  0.2621
  787MPD2    H111607   0.931   2.190  15.152 -0.6658  0.0217 -0.2437
  787MPD2    H211608   0.637   2.452  15.037  1.0162  1.0349 -0.3845
  787MPD2    H311609   0.781   2.356  15.199 -0.5022  0.4813 -0.4084
  787MPD2     N11610   0.950   2.046  14.913  0.0996 -0.1818  0.3310
  787MPD2    H511611   0.945   2.019  14.816 -1.2998  0.3390  0.2576
  787MPD2    N111612   0.599   2.366  14.784 -0.3412 -0.1021  0.4636
  787MPD2    H711613   0.566   2.459  14.808  0.6814  0.7683 -1.5497
  788MPD2     C11614   2.268   0.473   1.386 -0.7060 -0.2507  0.2531
  788MPD2    C111615   2.291   0.452   1.246  1.0843  0.5841 -0.6530
  788MPD2    C211616   2.288   0.554   1.158 -0.7931 -0.0437 -0.2127
  788MPD2    C311617   2.278   0.684   1.195  0.3953 -0.3789  0.4588
  788MPD2    C411618   2.240   0.704   1.328 -0.4047  0.3217 -0.2930
  788MPD2    C511619   2.238   0.600   1.417  0.6465 -0.6327 -0.1830
  788MPD2     H11620   2.299   0.528   1.053  1.4211  1.2439 -0.2865
  788MPD2    H111621   2.236   0.805   1.369 -0.4328 -0.0123  0.5110
  788MPD2    H211622   2.282   0.403   1.467 -0.9364 -1.2088 -0.5320
  788MPD2    H311623   2.212   0.618   1.521 -2.8839 -3.7759 -0.5087
  788MPD2     N11624   2.288   0.798   1.112  0.4575 -0.0308 -0.5283
  788MPD2    H511625   2.276   0.889   1.155  0.7776 -0.0042 -0.5007
  788MPD2    N111626   2.294   0.326   1.186 -0.0452  0.4761 -0.2060
  788MPD2    H711627   2.308   0.316   1.086  1.4186 -2.2459  0.2543
  789MPD2     C11628   2.446   0.118  17.298  0.4699  0.1454 -0.3214
  789MPD2    C111629   2.428   0.165  17.171 -0.0295 -0.4267  0.4355
  789MPD2    C211630   2.309   0.217  17.124 -0.1352 -0.5775  0.9379
  789MPD2    C311631   2.206   0.235  17.210  0.1214  0.3010  0.0310
  789MPD2    C411632   2.219   0.178  17.337  0.5305  0.2470  0.2401
  789MPD2    C511633   2.340   0.125  17.383 -0.5750 -0.0779 -0.2810
  789MPD2     H11634   2.317   0.266  17.028  0.2199 -0.1509  1.1832
  789MPD2    H111635   2.138   0.188  17.409  0.7226  0.6205  0.4081
  789MPD2    H211636   2.534   0.066  17.335  0.9585 -0.4679 -2.3533
  789MPD2    H311637   2.346   0.087  17.484 -1.5378  2.2635  0.6607
  789MPD2     N11638   2.085   0.305  17.176 -1.0276  0.2281  0.1457
  789MPD2    H511639   2.017   0.302  17.251 -0.0339  0.2377  1.0446
  789MPD2    N111640   2.528   0.142  17.076 -0.1468  0.2981 -0.7226
  789MPD2    H711641   2.507   0.155  16.977  0.5740 -1.3596 -1.0890
  790MPD2     C11642   3.603   2.654  13.433 -0.2608 -0.2226 -0.5233
  790MPD2    C111643   3.665   2.529  13.447  0.0510 -0.0945 -0.3479
  790MPD2    C211644   3.640   2.432  13.359 -0.5405  0.7741  0.1398
  790MPD2    C311645   3.557   2.449  13.255  0.0143 -1.0264  0.2215
  790MPD2    C411646   3.511   2.579  13.232  0.2957  0.7231  0.1564
  790MPD2    C511647   3.533   2.679  13.320 -0.4251 -0.5298 -0.4156
  790MPD2     H11648   3.668   2.327  13.359  1.6729  1.3728 -1.6517
  790MPD2    H111649   3.464   2.601  13.138 -1.0680  0.9124  0.8803
  790MPD2    H211650   3.629   2.738  13.497 -0.9231  0.5884 -1.3103
  790MPD2    H311651   3.489   2.777  13.305  0.9723  0.0478 -0.7000
  790MPD2     N11652   3.539   2.348  13.161 -0.5176 -0.5081  0.2189
  790MPD2    H511653   3.600   2.269  13.180 -0.5652 -0.1615  1.8286
  790MPD2    N111654   3.734   2.511  13.570 -0.0531 -0.1549  0.2672
  790MPD2    H711655   3.722   2.577  13.646  1.7081 -0.3107  0.6839
  791MPD2     C11656   3.015   2.145  12.616  0.4448 -0.6688 -0.3920
  791MPD2    C111657   3.073   2.044  12.686 -0.1916 -0.5051  0.0049
  791MPD2    C211658   3.039   1.915  12.642  0.1139  0.0399  0.8740
  791MPD2    C311659   2.944   1.882  12.549 -0.4893 -0.7180 -0.2131
  791MPD2    C411660   2.880   1.994  12.493  0.1332  1.4139  0.0767
  791MPD2    C511661   2.923   2.117  12.528  0.4656 -0.3455 -0.0289
  791MPD2     H11662   3.068   1.832  12.705  0.1866 -0.0508  0.7205
  791MPD2    H111663   2.805   1.987  12.415 -0.7640 -1.1415  1.1822
  791MPD2    H211664   3.050   2.246  12.634  3.0804 -1.5401 -0.7374
  791MPD2    H311665   2.875   2.199  12.475  0.8630 -0.5070 -0.6371
  791MPD2     N11666   2.909   1.748  12.520  0.8515  0.2689  0.4336
  791MPD2    H511667   2.958   1.673  12.567  1.5572 -0.3017 -1.2108
  791MPD2    N111668   3.181   2.073  12.764  0.2845 -0.2710  0.0060
  791MPD2    H711669   3.207   2.166  12.795 -1.5177 -0.3361  1.6702
  792MPD2     C11670   3.887   2.955  11.489 -0.4949 -0.0926 -0.0245
  792MPD2    C111671   3.871   2.915  11.358 -0.2985  0.6014 -0.1138
  792MPD2    C211672   3.766   2.839  11.316 -0.5135  0.9495  0.6020
  792MPD2    C311673   3.671   2.800  11.416  0.1795  0.2499  0.3818
  792MPD2    C411674   3.695   2.830  11.548  0.5805 -0.0963 -0.0286
  792MPD2    C511675   3.805   2.902  11.580  0.4374  0.4990  0.0784
  792MPD2     H11676   3.740   2.813  11.214  1.9301  1.5116 -0.1674
  792MPD2    H111677   3.630   2.794  11.627  0.9387  0.7787  0.6764
  792MPD2    H211678   3.961   3.022  11.532 -1.5297 -0.1159  1.7840
  792MPD2    H311679   3.805   2.927  11.686  0.4103  1.5160 -0.1654
  792MPD2     N11680   3.559   2.720  11.380  0.1249 -0.2585 -0.4164
  792MPD2    H511681   3.518   2.666  11.455 -2.7928 -2.8402 -3.8688
  792MPD2    N111682   3.971   2.950  11.267  0.1746  0.0584 -0.0110
  792MPD2    H711683   4.042   3.015  11.300 -1.0305  2.1892 -1.5978
  793MPD2     C11684   3.303   2.334  10.474  0.2183 -0.8494  0.6245
  793MPD2    C111685   3.416   2.401  10.518  0.5569  0.5024  0.4792
  793MPD2    C211686   3.416   2.438  10.652 -0.1236 -0.0037  0.5945
  793MPD2    C311687   3.308   2.410  10.734  0.3493 -0.9005 -0.0899
  793MPD2    C411688   3.203   2.329  10.684 -0.4379 -0.0574 -0.0960
  793MPD2    C511689   3.200   2.298  10.553 -0.3713 -0.4090  0.6745
  793MPD2     H11690   3.490   2.505  10.692 -0.4914 -0.3534  1.8578
  793MPD2    H111691   3.132   2.283  10.751 -0.4234  0.9944  0.6607
  793MPD2    H211692   3.303   2.289  10.375 -3.0170 -0.4150  0.4272
  793MPD2    H311693   3.131   2.221  10.522  0.4003 -1.0419  0.5522
  793MPD2     N11694   3.317   2.458  10.864  1.0263 -0.5259  0.3253
  793MPD2    H511695   3.400   2.507  10.894  1.1081 -0.9002  0.7126
  793MPD2    N111696   3.529   2.435  10.443 -0.1576  0.7464 -0.1947
  793MPD2    H711697   3.616   2.462  10.488  1.0704 -0.6856 -1.6947
  794MPD2     C11698   2.666   2.048  17.042 -0.9630 -0.1463 -0.1434
  794MPD2    C111699   2.701   1.928  16.988  0.3742  0.1971  1.0523
  794MPD2    C211700   2.637   1.883  16.879  0.3615  0.5526  0.3985
  794MPD2    C311701   2.543   1.953  16.808 -0.4634 -0.1931 -0.0278
  794MPD2    C411702   2.524   2.080  16.852  0.6452 -0.6958 -0.0258
  794MPD2    C511703   2.578   2.125  16.970 -0.3777 -0.2452 -0.3994
  794MPD2     H11704   2.666   1.784  16.847 -1.3914  0.0119  0.4753
  794MPD2    H111705   2.458   2.146  16.798 -1.2385 -1.0369  1.8888
  794MPD2    H211706   2.708   2.102  17.127  1.3329 -2.8815  0.4328
  794MPD2    H311707   2.560   2.227  17.001 -0.2072 -0.5363  0.6405
  794MPD2     N11708   2.478   1.908  16.692  0.5990  0.0298  0.2494
  794MPD2    H511709   2.411   1.967  16.643  0.9457  0.8474  0.7567
  794MPD2    N111710   2.798   1.842  17.057 -0.3695  0.2101  0.2151
  794MPD2    H711711   2.805   1.745  17.026  1.6495  1.0869 -2.0955
  795MPD2     C11712   1.342   3.625  13.334  0.0682  0.0716  0.8239
  795MPD2    C111713   1.303   3.567  13.456  0.1193  0.2770  0.0430
  795MPD2    C211714   1.386   3.475  13.516  0.9368  0.0104  0.6314
  795MPD2    C311715   1.508   3.451  13.464  0.3110  0.1612 -0.0356
  795MPD2    C411716   1.545   3.511  13.343  0.1017 -0.4239  0.1484
  795MPD2    C511717   1.461   3.595  13.272 -0.4646 -0.2405 -0.9814
  795MPD2     H11718   1.360   3.426  13.610 -1.5454 -0.1602 -0.1543
  795MPD2    H111719   1.644   3.508  13.300 -0.4717  1.2278 -1.3201
  795MPD2    H211720   1.271   3.687  13.280 -1.0228 -0.5219  1.5682
  795MPD2    H311721   1.505   3.645  13.187 -0.7813  0.5122 -0.6954
  795MPD2     N11722   1.591   3.370  13.546 -0.2743 -0.0701  0.5403
  795MPD2    H511723   1.557   3.337  13.636  1.1487 -0.6764  0.8592
  795MPD2    N111724   1.180   3.596  13.522  0.0243  0.4818 -0.6148
  795MPD2    H711725   1.160   3.541  13.604 -0.5074  0.5170 -0.7200
  796MPD2     C11726   0.891   0.784  16.325 -0.4783 -0.3131  0.0402
  796MPD2    C111727   0.818   0.742  16.436 -0.4332 -0.0850 -0.5103
  796MPD2    C211728   0.730   0.830  16.490 -1.0842 -0.4559 -0.5550
  796MPD2    C311729   0.697   0.950  16.424 -0.1052 -0.3898  0.0062
  796MPD2    C411730   0.776   0.993  16.320 -1.0957  0.2261  0.2547
  796MPD2    C511731   0.864   0.902  16.265 -0.1229  0.3491 -0.5337
  796MPD2     H11732   0.677   0.805  16.581  1.0852  0.2249  0.8959
  796MPD2    H111733   0.761   1.084  16.262 -1.8588  0.3289  0.6036
  796MPD2    H211734   0.970   0.727  16.280  1.4428  0.4846  2.4236
  796MPD2    H311735   0.921   0.938  16.180  2.0165  1.1855  1.2687
  796MPD2     N11736   0.606   1.036  16.489  0.2046  0.3639 -0.2359
  796MPD2    H511737   0.573   1.006  16.580  0.8796  0.1405 -0.0634
  796MPD2    N111738   0.865   0.625  16.499 -0.7381  0.6195 -1.0875
  796MPD2    H711739   0.929   0.572  16.441 -0.5594 -0.3631  0.0047
  797MPD2     C11740   1.775   4.366   0.101 -0.1238  0.8557 -0.8090
  797MPD2    C111741   1.800   4.482   0.169 -0.1620 -0.7301 -0.0476
  797MPD2    C211742   1.721   4.589   0.149 -0.3700 -0.1678  0.1200
  797MPD2    C311743   1.619   4.591   0.055  0.4555 -0.5006 -0.1361
  797MPD2    C411744   1.596   4.474  17.671 -0.0921 -0.5971  0.4999
  797MPD2    C511745   1.675   4.367   0.007  0.4883 -0.5090 -0.2037
  797MPD2     H11746   1.746   4.685   0.190 -0.2188  0.5360 -1.6002
  797MPD2    H111747   1.522   4.460  17.594  2.4642  3.2556 -2.6564
  797MPD2    H211748   1.828   4.274   0.123 -0.4716  0.4521 -1.6306
  797MPD2    H311749   1.672   4.276  17.637  0.1452  0.7073 -2.1063
  797MPD2     N11750   1.531   4.700   0.055  0.3827  0.5747 -0.4811
  797MPD2    H511751   1.545   0.055   0.121 -1.3734 -0.3068  0.9304
  797MPD2    N111752   1.902   4.503   0.269  0.0743 -0.2158 -0.2046
  797MPD2    H711753   1.895   4.582   0.332 -1.9310 -0.3090 -0.2862
  798MPD2     C11754   1.906   0.501   0.268  0.5846 -0.0648 -0.1143
  798MPD2    C111755   1.826   0.389   0.254 -0.1880 -0.0840 -0.3422
  798MPD2    C211756   1.872   0.270   0.308 -0.9653  0.7160 -0.1855
  798MPD2    C311757   2.002   0.261   0.365 -0.5710 -0.6740 -0.8529
  798MPD2    C411758   2.080   0.368   0.362 -0.6909  0.3958 -0.0411
  798MPD2    C511759   2.030   0.484   0.324  0.2229 -0.5925 -0.8835
  798MPD2     H11760   1.806   0.184   0.314  1.0710 -0.9249 -1.1261
  798MPD2    H111761   2.180   0.370   0.404 -0.9107  0.9960  0.4410
  798MPD2    H211762   1.890   0.599   0.224 -0.7921 -0.7873 -1.2519
  798MPD2    H311763   2.100   0.567   0.331  0.6128 -0.9758 -0.2946
  798MPD2     N11764   2.038   0.134   0.414  0.0199 -0.1422  0.1694
  798MPD2    H511765   1.986   0.050   0.389  0.8226 -1.1417  1.8588
  798MPD2    N111766   1.698   0.406   0.195  0.0822 -0.2615  0.0917
  798MPD2    H711767   1.677   0.496   0.154  1.3174 -0.0191 -0.0050
  799MPD2     C11768   0.543   1.797  14.988 -0.0765 -0.8425  0.2622
  799MPD2    C111769   0.452   1.726  14.925  0.2098 -0.0595 -0.6059
  799MPD2    C211770   0.387   1.780  14.811  0.6110 -0.2623  0.4932
  799MPD2    C311771   0.406   1.913  14.770  0.2255  0.0222  0.1048
  799MPD2    C411772   0.483   1.983  14.849  0.5257 -0.2148  0.2393
  799MPD2    C511773   0.551   1.934  14.957  0.0078  0.3036  0.1844
  799MPD2     H11774   0.320   1.713  14.758  1.3088  0.9547 -1.9229
  799MPD2    H111775   0.490   2.090  14.832 -0.2126 -0.4635 -1.6556
  799MPD2    H211776   0.599   1.759  15.072 -0.1075 -2.0169 -0.2431
  799MPD2    H311777   0.623   1.996  15.011 -0.6693  0.3003  1.0907
  799MPD2     N11778   0.342   1.980  14.657  0.4426  0.6567  0.0376
  799MPD2    H511779   0.369   2.075  14.633 -0.0940  0.9989  0.7727
  799MPD2    N111780   0.432   1.595  14.962  0.4411 -0.4142 -0.1858
  799MPD2    H711781   0.372   1.540  14.900  0.2831  0.3917 -0.7504
  800MPD2     C11782   1.187   2.802  14.445  0.9323 -0.4487 -0.1339
  800MPD2    C111783   1.206   2.856  14.319  0.1787 -0.6067  0.3152
  800MPD2    C211784   1.195   2.766  14.210 -0.2109  0.5427 -0.0223
  800MPD2    C311785   1.169   2.629  14.231 -1.0419 -0.2182  0.0290
  800MPD2    C411786   1.167   2.582  14.362 -0.0268 -0.5730  0.4092
  800MPD2    C511787   1.192   2.668  14.466 -0.4791 -0.1777 -0.4550
  800MPD2     H11788   1.228   2.798  14.112  1.1652  0.6546  0.4823
  800MPD2    H111789   1.152   2.480  14.393  0.0268 -0.7485 -0.1395
  800MPD2    H211790   1.177   2.866  14.532 -1.3176 -3.3051  1.7087
  800MPD2    H311791   1.174   2.627  14.565  0.4395  1.6031  0.4524
  800MPD2     N11792   1.162   2.550  14.115  0.0133  0.0359 -0.3264
  800MPD2    H511793   1.157   2.600  14.027 -0.3758  0.2832 -0.1590
  800MPD2    N111794   1.238   2.993  14.310 -0.4706 -0.1269  0.3723
  800MPD2    H711795   1.268   3.032  14.399  2.1609 -2.0738  0.3378
  801MPD2     C11796   1.354   3.673  13.832 -0.3241 -0.0922 -0.2250
  801MPD2    C111797   1.320   3.627  13.956  0.8550 -1.1526 -0.5333
  801MPD2    C211798   1.249   3.705  14.040 -0.0533  0.5250 -0.1849
  801MPD2    C311799   1.226   3.838  14.002 -0.2971 -0.1384  0.0961
  801MPD2    C411800   1.260   3.882  13.877 -0.3114  0.4850 -0.2030
  801MPD2    C511801   1.313   3.799  13.788 -0.9104 -0.2479  0.3040
  801MPD2     H11802   1.233   3.674  14.142  1.9585 -1.4999 -0.4703
  801MPD2    H111803   1.215   3.974  13.842  0.1618  0.5694 -0.5718
  801MPD2    H211804   1.404   3.612  13.758 -0.1413 -4.0358  3.1701
  801MPD2    H311805   1.344   3.825  13.688 -2.4358 -1.9101 -0.5827
  801MPD2     N11806   1.167   3.919  14.101  0.0422 -0.1985 -0.0277
  801MPD2    H511807   1.132   3.874  14.185 -2.4409  2.6752  0.5227
  801MPD2    N111808   1.357   3.505  14.001 -0.3711  1.1242  0.2381
  801MPD2    H711809   1.317   3.469  14.087 -2.7172 -0.4110 -1.4834
  802MPD2     C11810   4.467   3.772  17.332  0.3906 -0.0402 -0.2424
  802MPD2    C111811   4.584   3.832  17.370 -0.2660 -0.3294  0.1245
  802MPD2    C211812   4.700   3.758  17.380 -0.4058  0.4130 -0.5128
  802MPD2    C311813   4.690   3.629  17.331  0.4337 -0.7376 -0.4735
  802MPD2    C411814   4.574   3.567  17.298 -0.4027  0.0622  0.0638
  802MPD2    C511815   4.466   3.644  17.290 -0.3450 -0.6450  0.1384
  802MPD2     H11816   0.076   3.797  17.406 -0.5069  1.5235 -1.7832
  802MPD2    H111817   4.574   3.466  17.258  0.7947 -0.0968  0.4444
  802MPD2    H211818   4.371   3.819  17.316  0.4745  0.0026 -0.6108
  802MPD2    H311819   4.381   3.592  17.248  0.2121 -2.3936  1.1774
  802MPD2     N11820   0.093   3.561  17.322 -1.0002 -0.3512 -0.0377
  802MPD2    H511821   0.174   3.612  17.357  1.0527 -3.4015 -0.2698
  802MPD2    N111822   4.590   3.965  17.420  0.0403 -0.2773 -0.5786
  802MPD2    H711823   4.667   3.977  17.485 -0.4332  0.9413 -0.2385
  803MPD2     C11824   1.800   2.087  11.499  0.2463 -0.3462 -0.5132
  803MPD2    C111825   1.906   2.028  11.574 -0.3323  0.0290  0.3275
  803MPD2    C211826   1.903   1.899  11.621 -0.3007 -0.2976 -0.0908
  803MPD2    C311827   1.791   1.823  11.593  0.7583  0.4905  0.1405
  803MPD2    C411828   1.682   1.874  11.523 -0.2422  0.5300 -0.5768
  803MPD2    C511829   1.686   2.005  11.483  0.4683  0.0932 -0.7753
  803MPD2     H11830   1.992   1.855  11.664 -0.0481 -1.3383 -1.6971
  803MPD2    H111831   1.596   1.809  11.512 -0.2992  0.0235  2.9646
  803MPD2    H211832   1.804   2.191  11.469  0.9869  0.0985  1.0841
  803MPD2    H311833   1.607   2.047  11.422 -0.0406  2.5909  1.6521
  803MPD2     N11834   1.770   1.698  11.654  0.0655  0.5845 -0.7004
  803MPD2    H511835   1.676   1.661  11.644 -0.0043  0.7450 -0.6367
  803MPD2    N111836   2.019   2.091  11.615  0.1308  0.1884 -0.0748
  803MPD2    H711837   2.088   2.030  11.658  0.0909 -1.8746 -2.9845
  804MPD2     C11838   0.905   3.656  17.154 -0.1092  0.4555 -0.0804
  804MPD2    C111839   0.961   3.595  17.264 -0.4092 -0.0999  0.4649
  804MPD2    C211840   1.046   3.663  17.344 -0.5294 -0.3877  0.3925
  804MPD2    C311841   1.067   3.798  17.325  0.0783  0.7236 -0.2977
  804MPD2    C411842   1.001   3.857  17.220 -0.7084  0.2640  0.2534
  804MPD2    C511843   0.927   3.788  17.133 -0.2508  0.3117  0.0002
  804MPD2     H11844   1.076   3.619  17.439  3.4095  2.2434  0.3551
  804MPD2    H111845   1.003   3.964  17.201  0.9675 -0.1265 -1.9288
  804MPD2    H211846   0.847   3.604  17.079  0.1934  0.7838 -0.5499
  804MPD2    H311847   0.887   3.845  17.050  0.2580  0.6840  0.0147
  804MPD2     N11848   1.146   3.872  17.419  0.1581  0.0290 -0.1555
  804MPD2    H511849   1.216   3.829  17.479 -1.3359  2.2811  3.1829
  804MPD2    N111850   0.961   3.463  17.289  0.4341  0.0209  0.5247
  804MPD2    H711851   1.021   3.433  17.365  0.5844 -1.5828 -0.2328
  805MPD2     C11852   4.720   2.191  15.734  0.2049  1.0778 -0.0218
  805MPD2    C111853   0.116   2.139  15.690  0.0231 -0.1352  0.2186
  805MPD2    C211854   0.200   2.088  15.781  0.0812 -0.0877  0.2443
  805MPD2    C311855   0.170   2.095  15.917 -0.2248  0.0905  0.7807
  805MPD2    C411856   0.051   2.155  15.962  0.5622  0.1775 -0.0808
  805MPD2    C511857   4.685   2.194  15.864 -0.2779 -0.0448 -0.1252
  805MPD2     H11858   0.288   2.030  15.754  0.1107 -0.0385  0.2354
  805MPD2    H111859   0.041   2.164  16.070  0.7616  2.8449 -0.2857
  805MPD2    H211860   4.648   2.226  15.661 -2.4383 -2.6346  0.8324
  805MPD2    H311861   4.589   2.234  15.895 -0.9594 -1.1685 -0.7740
  805MPD2     N11862   0.260   2.034  16.003  0.2703 -0.3402 -0.0733
  805MPD2    H511863   0.339   1.981  15.967  1.1763  0.3136  0.9649
  805MPD2    N111864   0.143   2.105  15.556 -0.0237  0.4000  0.0827
  805MPD2    H711865   0.232   2.064  15.532 -0.3284 -1.0009  1.3975
  806MPD2     C11866   1.955   1.867   0.791 -0.0757  0.2168  0.0606
  806MPD2    C111867   1.849   1.936   0.841 -0.1065 -0.3983  0.2329
  806MPD2    C211868   1.787   2.031   0.762 -0.2881  0.0058 -0.2186
  806MPD2    C311869   1.836   2.071   0.642 -0.2914  0.3503 -0.3973
  806MPD2    C411870   1.948   1.998   0.592  0.2703  0.4655  0.6514
  806MPD2    C511871   2.005   1.895   0.667 -0.2881 -0.2825  0.1209
  806MPD2     H11872   1.691   2.070   0.795 -0.8222 -2.0929  0.6704
  806MPD2    H111873   1.993   2.017   0.495 -0.9470  0.4403  0.0943
  806MPD2    H211874   2.008   1.787   0.841 -1.2674 -1.2659 -1.0777
  806MPD2    H311875   2.073   1.829   0.614 -0.8379  1.1725 -2.4067
  806MPD2     N11876   1.777   2.184   0.579  0.5473 -0.6417 -0.0111
  806MPD2    H511877   1.704   2.225   0.636 -0.8619 -1.6401 -1.0804
  806MPD2    N111878   1.808   1.902   0.974  0.1098  0.1331  0.0838
  806MPD2    H711879   1.839   1.819   1.022 -2.0472 -2.5870 -3.2357
  807MPD2     C11880   1.043   1.855   1.407 -0.4104 -0.1968  0.4306
  807MPD2    C111881   1.123   1.750   1.373 -0.2985 -0.2368  0.4312
  807MPD2    C211882   1.062   1.629   1.349 -0.6470 -0.4923 -0.1206
  807MPD2    C311883   0.932   1.612   1.368 -0.2718 -0.1872 -0.3879
  807MPD2    C411884   0.853   1.711   1.416 -0.4148  0.4388  0.5188
  807MPD2    C511885   0.909   1.834   1.438  0.2916  0.2016 -0.1429
  807MPD2     H11886   1.123   1.543   1.322  1.1143  0.6797  0.1715
  807MPD2    H111887   0.748   1.706   1.440 -0.0634  0.0924  1.9607
  807MPD2    H211888   1.082   1.956   1.418 -0.8821  0.2202 -1.7296
  807MPD2    H311889   0.847   1.914   1.477 -0.5497 -0.4524 -0.1403
  807MPD2     N11890   0.885   1.479   1.352  0.2298 -0.2783 -0.3655
  807MPD2    H511891   0.944   1.410   1.308  1.3991 -0.1015  0.9287
  807MPD2    N111892   1.260   1.760   1.339  0.1340 -0.4630  0.5235
  807MPD2    H711893   1.308   1.673   1.319  2.0336  1.0338 -1.3735
  808MPD2     C11894   0.972   3.077   9.421  0.1429  0.5098  0.0446
  808MPD2    C111895   1.025   3.089   9.547  0.2019 -1.1660  0.1371
  808MPD2    C211896   1.113   3.188   9.574  0.4054  0.0780  0.5324
  808MPD2    C311897   1.148   3.277   9.473 -0.1694 -0.1353 -0.4209
  808MPD2    C411898   1.111   3.257   9.341 -1.5424 -0.8401  0.8850
  808MPD2    C511899   1.021   3.160   9.320 -0.0681  0.2530 -0.2147
  808MPD2     H11900   1.148   3.193   9.677  1.6870 -0.6676  0.1363
  808MPD2    H111901   1.139   3.318   9.256 -0.9467 -0.9279  1.0183
  808MPD2    H211902   0.891   3.011   9.394 -1.4240  1.4624  2.4167
  808MPD2    H311903   0.987   3.138   9.219  3.4898  0.3146 -1.4330
  808MPD2     N11904   1.222   3.393   9.505  0.2338 -0.0593  0.1164
  808MPD2    H511905   1.226   3.477   9.448 -1.1457 -0.2811 -0.3077
  808MPD2    N111906   0.995   2.996   9.653  0.5522  1.1551 -0.4314
  808MPD2    H711907   1.061   2.997   9.730  1.4232 -0.3962 -1.1670
  809MPD2     C11908   1.503   3.935   8.893  0.1823 -0.0423  0.1161
  809MPD2    C111909   1.600   3.956   8.983  0.4108  0.4049 -0.3014
  809MPD2    C211910   1.576   3.905   9.111  0.2587 -0.3053 -0.0953
  809MPD2    C311911   1.460   3.839   9.156  0.2744  0.4390  0.0799
  809MPD2    C411912   1.358   3.828   9.065  0.6368 -0.0615 -0.7895
  809MPD2    C511913   1.384   3.871   8.937  0.0558 -0.6486 -0.5141
  809MPD2     H11914   1.663   3.905   9.175  0.4569  0.7925 -0.3759
  809MPD2    H111915   1.263   3.780   9.085  0.8720  0.4337  1.4918
  809MPD2    H211916   1.509   3.949   8.786  1.4239 -1.8954 -0.0701
  809MPD2    H311917   1.305   3.872   8.862 -0.0987 -3.0249 -0.3830
  809MPD2     N11918   1.444   3.777   9.287 -0.4410 -0.7104  0.3472
  809MPD2    H511919   1.355   3.732   9.306 -1.5029  0.6913 -1.2871
  809MPD2    N111920   1.730   4.004   8.946  0.1051  0.0164 -0.2843
  809MPD2    H711921   1.805   3.987   9.012  0.1069 -0.6564 -0.4598
  810MPD2     C11922   1.163   2.354   9.990  0.8805 -0.4556  0.2064
  810MPD2    C111923   1.118   2.230  10.044  0.8299 -0.0543 -0.4971
  810MPD2    C211924   1.191   2.164  10.137 -0.0862 -0.5060 -0.2109
  810MPD2    C311925   1.294   2.227  10.199  0.5025 -0.0568 -0.5020
  810MPD2    C411926   1.339   2.351  10.152 -0.0196  0.3962  0.1829
  810MPD2    C511927   1.270   2.416  10.050  0.1045 -0.2823 -0.4887
  810MPD2     H11928   1.158   2.076  10.191  1.1058 -0.4335  0.6254
  810MPD2    H111929   1.411   2.412  10.207 -0.1324  0.7080 -0.0189
  810MPD2    H211930   1.116   2.402   9.904 -0.9069 -0.5172  1.1419
  810MPD2    H311931   1.319   2.504  10.010 -1.1838  0.1997 -1.0006
  810MPD2     N11932   1.347   2.184  10.326 -0.6854  0.1787 -0.0737
  810MPD2    H511933   1.408   2.244  10.380  1.3525 -2.9368  1.0639
  810MPD2    N111934   0.983   2.198  10.021  0.4058 -0.0229  0.3346
  810MPD2    H711935   0.932   2.254   9.953  1.0833  1.4949  1.0876
  811MPD2     C11936   0.245   2.567  10.168  0.0737  0.0632 -0.2196
  811MPD2    C111937   0.384   2.558  10.142 -0.2104 -0.2449  0.2757
  811MPD2    C211938   0.458   2.667  10.107  0.2645  0.2846  0.1607
  811MPD2    C311939   0.390   2.788  10.086 -1.0206 -0.0047  0.1615
  811MPD2    C411940   0.258   2.797  10.112 -0.0723 -0.0136 -0.8313
  811MPD2    C511941   0.189   2.690  10.164  0.1500 -0.4106  0.7766
  811MPD2     H11942   0.562   2.668  10.075 -0.4793 -2.6750 -2.3023
  811MPD2    H111943   0.199   2.888  10.103 -3.0943 -1.6988  1.6969
  811MPD2    H211944   0.189   2.477  10.191 -0.9394  0.7152 -0.1692
  811MPD2    H311945   0.081   2.684  10.177  0.1171  0.5337  0.9822
  811MPD2     N11946   0.467   2.897  10.039 -0.0368 -0.8521  0.1786
  811MPD2    H511947   0.568   2.893  10.048 -0.1248  1.4183  2.1647
  811MPD2    N111948   0.439   2.429  10.157  0.0904 -0.9834 -0.1888
  811MPD2    H711949   0.377   2.350  10.168  0.2767 -1.1842 -0.5745
  812MPD2     C11950   3.785   2.369  12.366 -0.4587 -0.3233 -0.8280
  812MPD2    C111951   3.876   2.458  12.418  0.2177  0.3524 -0.2534
  812MPD2    C211952   3.998   2.418  12.476 -0.5274 -0.2405  0.1392
  812MPD2    C311953   4.029   2.288  12.479  0.1185  0.1312 -0.4578
  812MPD2    C411954   3.933   2.196  12.441  0.0888  0.3578 -0.6810
  812MPD2    C511955   3.814   2.232  12.385  0.5083 -0.6664 -0.1804
  812MPD2     H11956   4.078   2.483  12.512 -1.0430  1.3206 -1.5065
  812MPD2    H111957   3.943   2.088  12.442  0.7279  0.4106 -1.5737
  812MPD2    H211958   3.697   2.387  12.307  0.1278  2.3021 -0.8859
  812MPD2    H311959   3.754   2.147  12.354  0.9171 -0.4921 -1.4592
  812MPD2     N11960   4.157   2.235  12.525  0.3844 -0.4118 -0.1908
  812MPD2    H511961   4.226   2.303  12.556 -1.6802  1.3617  0.5644
  812MPD2    N111962   3.849   2.594  12.404  0.2158  0.1359 -0.2732
  812MPD2    H711963   3.768   2.612  12.346  1.0740  1.0005 -1.2106
  813MPD2     C11964   3.587   4.196  13.052 -0.1436 -0.2990 -0.4370
  813MPD2    C111965   3.563   4.244  13.177 -0.4966 -0.0977  0.1650
  813MPD2    C211966   3.457   4.199  13.250  0.0306  0.1398 -0.5958
  813MPD2    C311967   3.384   4.086  13.213 -0.8334 -0.4802 -0.4786
  813MPD2    C411968   3.419   4.027  13.095  0.2459 -0.3780 -0.5900
  813MPD2    C511969   3.515   4.080  13.023 -0.5767  0.6262  0.1544
  813MPD2     H11970   3.431   4.255  13.340  2.3806  1.4206 -0.7105
  813MPD2    H111971   3.366   3.936  13.066 -2.7909  0.5672  1.9214
  813MPD2    H211972   3.664   4.234  12.986 -0.6181  3.0065  0.9171
  813MPD2    H311973   3.527   4.041  12.922  0.0255 -0.7317  0.7461
  813MPD2     N11974   3.288   4.045  13.305 -1.2901 -0.1073 -0.3205
  813MPD2    H511975   3.282   4.101  13.389  2.0758  0.2167 -0.2598
  813MPD2    N111976   3.634   4.351  13.233 -0.0844  0.0838  0.6555
  813MPD2    H711977   3.591   4.400  13.311  1.3541  0.6704  1.0761
  814MPD2     C11978   4.155   0.739  12.323  0.1161 -0.0535 -0.5278
  814MPD2    C111979   4.158   0.815  12.203  1.6980 -0.3827  0.2421
  814MPD2    C211980   4.198   0.944  12.213 -0.0991  0.0168 -0.0360
  814MPD2    C311981   4.237   1.010  12.328 -0.0617  0.0220 -0.0239
  814MPD2    C411982   4.228   0.935  12.444  0.1436 -0.7789  0.1648
  814MPD2    C511983   4.198   0.796  12.441 -0.1368 -0.1966 -0.9006
  814MPD2     H11984   4.188   0.996  12.118 -2.1559  0.6594  0.5158
  814MPD2    H111985   4.246   0.975  12.543 -1.2537 -1.0938  0.5443
  814MPD2    H211986   4.125   0.635  12.321  1.2534 -0.4246  1.0108
  814MPD2    H311987   4.194   0.744  12.536  0.4122 -2.3049 -2.0337
  814MPD2     N11988   4.262   1.145  12.348 -0.2399 -0.6561  0.6030
  814MPD2    H511989   4.284   1.170  12.444 -1.9715 -0.2585  0.9118
  814MPD2    N111990   4.122   0.766  12.075 -0.2993 -0.2274  0.1989
  814MPD2    H711991   4.125   0.829  11.995  1.6380 -0.3737  0.1552
  815MPD2     C11992   0.206   3.691  12.081  0.1044  0.2016  0.0391
  815MPD2    C111993   0.111   3.731  11.993  1.1954  1.1146 -0.3867
  815MPD2    C211994   4.708   3.778  12.029  0.4433 -0.0980 -0.0220
  815MPD2    C311995   4.678   3.790  12.159  0.3681 -0.0942 -0.6655
  815MPD2    C411996   0.053   3.743  12.251 -0.2605 -0.2461  0.7410
  815MPD2    C511997   0.174   3.694  12.210 -0.0613  0.1400 -0.2510
  815MPD2     H11998   4.631   3.793  11.955 -0.3625 -0.4281  0.7501
  815MPD2    H111999   0.035   3.735  12.358  1.9835  4.8228  1.4704
  815MPD2    H212000   0.302   3.649  12.053  0.5799  0.7118  0.9128
  815MPD2    H312001   0.243   3.663  12.287 -1.3152 -1.8150  0.0933
  815MPD2     N12002   4.551   3.840  12.195  0.1102 -0.1341 -0.0212
  815MPD2    H512003   4.489   3.875  12.123 -0.0415 -1.7079 -0.6465
  815MPD2    N112004   0.140   3.717  11.858  0.2897 -0.7000  0.0499
  815MPD2    H712005   0.225   3.670  11.828  0.1628 -0.9454  0.0752
  816MPD2     C12006   4.407   2.931  17.181  0.0889  0.4497 -0.8420
  816MPD2    C112007   4.423   3.056  17.234 -1.0816 -0.4345 -0.1510
  816MPD2    C212008   4.548   3.110  17.212  0.1590 -0.2736 -0.2953
  816MPD2    C312009   4.644   3.035  17.145  0.3364  0.0076  0.4171
  816MPD2    C412010   4.626   2.910  17.103  0.1207  0.3526 -0.1519
  816MPD2    C512011   4.504   2.852  17.120  0.6732 -0.2165  0.2247
  816MPD2     H12012   4.562   3.214  17.238 -2.8305  0.5462 -1.9712
  816MPD2    H112013   4.694   2.839  17.058  1.9485  1.2588  1.1607
  816MPD2    H212014   4.308   2.886  17.179  0.4132 -0.2687 -0.9162
  816MPD2    H312015   4.472   2.758  17.078  2.5051 -0.9503  0.4751
  816MPD2     N12016   0.052   3.097  17.135  0.1207 -0.3660  0.4094
  816MPD2    H512017   0.052   3.194  17.165  0.3218 -0.0288 -0.6701
  816MPD2    N112018   4.317   3.128  17.294  0.0994 -0.4655 -0.2260
  816MPD2    H712019   4.224   3.089  17.291 -0.3396  0.8287 -3.2665
  817MPD2     C12020   4.326   0.461  10.180 -0.1288  0.1448 -0.3598
  817MPD2    C112021   4.224   0.401  10.113 -0.3262  0.4178 -0.3879
  817MPD2    C212022   4.104   0.478  10.093  0.1549 -0.5047  0.5857
  817MPD2    C312023   4.086   0.600  10.140 -0.5482  0.0695 -1.0186
  817MPD2    C412024   4.197   0.662  10.200  0.0469 -0.8078 -0.7118
  817MPD2    C512025   4.310   0.588  10.220  0.0350 -0.0785  1.1276
  817MPD2     H12026   4.022   0.433  10.039  0.3122 -1.8157  1.4148
  817MPD2    H112027   4.202   0.767  10.226  2.1598 -1.7349  2.4812
  817MPD2    H212028   4.413   0.404  10.210  0.9520  1.9599  0.0030
  817MPD2    H312029   4.404   0.632  10.252 -0.5245 -0.5945  3.4726
  817MPD2     N12030   3.967   0.661  10.107 -0.1815  0.9354  0.1963
  817MPD2    H512031   3.898   0.606  10.057  0.1738  1.3364 -0.7249
  817MPD2    N112032   4.228   0.265  10.063  0.1312  0.0436 -0.3329
  817MPD2    H712033   4.147   0.236  10.010 -0.4567  0.7750  0.1756
  818MPD2     C12034   3.238   4.710   9.953  0.0987  0.6408 -0.2916
  818MPD2    C112035   3.284   4.685  10.078 -0.2782  0.0725  0.4885
  818MPD2    C212036   3.339   4.562  10.096  0.1290  0.0107  0.3418
  818MPD2    C312037   3.361   4.471   9.992  0.2356 -0.0413  0.0692
  818MPD2    C412038   3.322   4.514   9.862  0.3749  0.1404  0.1042
  818MPD2    C512039   3.262   4.632   9.844 -0.1466 -0.6142  0.5551
  818MPD2     H12040   3.344   4.527  10.199  1.6935 -0.2347  0.1778
  818MPD2    H112041   3.341   4.446   9.780 -1.1377 -0.0353 -0.0935
  818MPD2    H212042   3.202   0.087   9.926  1.8384  1.2671 -0.3468
  818MPD2    H312043   3.223   4.665   9.748 -0.2706  2.1042  1.5522
  818MPD2     N12044   3.414   4.340  10.012  0.6830  1.1052 -0.3374
  818MPD2    H512045   3.416   4.284   9.927 -2.4257  0.6383 -0.0826
  818MPD2    N112046   3.264   0.040  10.188 -0.7118 -0.3641  0.2343
  818MPD2    H712047   3.289   0.000  10.278  0.8067 -0.2505 -0.1304
  819MPD2     C12048   0.755   1.377  16.113  0.1522 -0.0057  0.6906
  819MPD2    C112049   0.826   1.297  16.025  0.6463  0.6574 -0.0013
  819MPD2    C212050   0.955   1.262  16.061  0.2014  0.4861  0.8808
  819MPD2    C312051   1.013   1.314  16.175  0.0983 -0.0791 -0.6941
  819MPD2    C412052   0.941   1.393  16.260  0.0360 -1.3361 -0.1528
  819MPD2    C512053   0.812   1.429  16.229 -0.1879  0.2843  0.4532
  819MPD2     H12054   1.017   1.214  15.986  0.5631  1.1195  0.7783
  819MPD2    H112055   0.973   1.424  16.358  0.5521 -0.6046 -0.5551
  819MPD2    H212056   0.649   1.394  16.100  0.4749  1.4337 -0.0164
  819MPD2    H312057   0.752   1.485  16.299  1.6630  0.7397  1.6411
  819MPD2     N12058   1.150   1.276  16.190  0.3118  0.2601 -0.9376
  819MPD2    H512059   1.186   1.217  16.116 -0.8752 -0.7387 -0.7059
  819MPD2    N112060   0.760   1.243  15.912 -0.0866 -0.1535 -1.3094
  819MPD2    H712061   0.661   1.262  15.901 -0.4057 -0.1409  1.7302
  820MPD2     C12062   0.080   1.411  15.158  0.2175  0.3947 -0.5241
  820MPD2    C112063   0.166   1.472  15.234 -0.0368  0.0441  0.3109
  820MPD2    C212064   0.264   1.420  15.323 -0.3939 -0.6893  0.3206
  820MPD2    C312065   0.269   1.280  15.328  0.1109 -0.0940 -0.4134
  820MPD2    C412066   0.166   1.216  15.260  0.7686 -0.4154 -0.7125
  820MPD2    C512067   0.078   1.274  15.171  0.4294  0.3334  0.2442
  820MPD2     H12068   0.340   1.489  15.357 -1.8427  1.6841 -1.2087
  820MPD2    H112069   0.183   1.109  15.257 -0.5914 -0.6346 -0.4485
  820MPD2    H212070   0.025   1.454  15.076  0.0571  0.4869 -0.3695
  820MPD2    H312071   0.001   1.216  15.123 -1.2454  1.1361  1.9527
  820MPD2     N12072   0.363   1.205  15.404  0.0577  0.5251 -0.1553
  820MPD2    H512073   0.355   1.104  15.392  0.8052  0.4379  0.1081
  820MPD2    N112074   0.173   1.608  15.208 -0.5895 -0.1996 -0.1298
  820MPD2    H712075   0.126   1.632  15.122  0.7019  0.4163 -0.6678
  821MPD2     C12076   1.151   2.568  13.385 -0.3376  0.2099  0.2062
  821MPD2    C112077   1.241   2.639  13.468  0.1084 -0.1115  0.7715
  821MPD2    C212078   1.333   2.726  13.407  0.1763 -0.2897  0.0432
  821MPD2    C312079   1.329   2.753  13.270 -0.3344 -0.0966  0.4593
  821MPD2    C412080   1.242   2.674  13.195  0.1194 -0.3000  0.5543
  821MPD2    C512081   1.157   2.583  13.248  0.5921  0.0371 -0.6041
  821MPD2     H12082   1.418   2.761  13.465  0.8271  0.6278 -1.4651
  821MPD2    H112083   1.231   2.693  13.088 -4.1647  0.5020  1.1071
  821MPD2    H212084   1.089   2.488  13.424 -0.5695  0.2032 -0.1816
  821MPD2    H312085   1.083   2.537  13.183  0.1259  2.2982 -1.6679
  821MPD2     N12086   1.412   2.857  13.211  0.4693  0.4822  0.1603
  821MPD2    H512087   1.421   2.867  13.110 -2.9313  0.3466 -0.1599
  821MPD2    N112088   1.256   2.601  13.605  0.1813  0.1458  0.3337
  821MPD2    H712089   1.331   2.632  13.666  0.0638 -0.1410  0.6174
  822MPD2     C12090   1.664   3.247  15.745 -0.2841  0.4376  0.3630
  822MPD2    C112091   1.629   3.174  15.858 -0.2366  0.0700 -0.3544
  822MPD2    C212092   1.578   3.240  15.965  0.5163  0.8562 -0.1581
  822MPD2    C312093   1.575   3.379  15.976 -0.3796 -0.2169  0.3390
  822MPD2    C412094   1.600   3.449  15.866  0.2120 -0.7596  0.4426
  822MPD2    C512095   1.642   3.384  15.751 -0.6292  0.3799  0.5546
  822MPD2     H12096   1.553   3.190  16.058 -0.5331 -1.0903 -1.4799
  822MPD2    H112097   1.593   3.557  15.855 -1.6554 -0.8340  0.9454
  822MPD2    H212098   1.704   3.200  15.656  1.9867  0.3674  1.4243
  822MPD2    H312099   1.648   3.433  15.654 -1.8306  0.6973  0.6314
  822MPD2     N12100   1.533   3.447  16.098 -0.1152 -0.4641  0.1204
  822MPD2    H512101   1.502   3.381  16.169  0.2336 -0.5392  0.2033
  822MPD2    N112102   1.661   3.032  15.881  0.0788 -0.5748 -0.2629
  822MPD2    H712103   1.645   2.993  15.973  1.1520  2.3668  1.1738
  823MPD2     C12104   1.300   3.403  16.900  0.3363  0.5934 -0.5986
  823MPD2    C112105   1.336   3.355  16.777  0.2244 -0.7816 -0.1137
  823MPD2    C212106   1.337   3.220  16.745 -0.3985 -0.2953  0.2557
  823MPD2    C312107   1.342   3.131  16.856  0.1477  0.3396 -0.0284
  823MPD2    C412108   1.305   3.176  16.981 -0.0624 -0.9235 -0.7696
  823MPD2    C512109   1.271   3.309  17.000  0.2738 -0.2613  0.3815
  823MPD2     H12110   1.360   3.186  16.644 -1.2150  0.2182 -0.1058
  823MPD2    H112111   1.299   3.113  17.069 -0.4330  0.5468  0.2437
  823MPD2    H212112   1.280   3.508  16.919  3.0662  1.1372 -0.8071
  823MPD2    H312113   1.233   3.348  17.094  1.5592 -0.0952  0.8320
  823MPD2     N12114   1.378   2.997  16.846 -0.6426 -0.2146  0.1948
  823MPD2    H512115   1.361   2.935  16.924  0.0417 -1.3835 -0.5821
  823MPD2    N112116   1.345   3.462  16.678  0.1678 -0.4844 -0.2720
  823MPD2    H712117   1.334   3.558  16.710  1.5664  0.0500 -1.4085
  824MPD2     C12118   1.630   2.182  15.689  0.6998 -0.5661  0.4309
  824MPD2    C112119   1.716   2.234  15.786  0.4328  0.7562  0.4890
  824MPD2    C212120   1.823   2.158  15.829  0.2053 -0.1017  0.3698
  824MPD2    C312121   1.838   2.032  15.787 -0.3154  0.0718  0.8427
  824MPD2    C412122   1.756   1.983  15.689 -0.6554  0.3158  0.4347
  824MPD2    C512123   1.651   2.057  15.638  0.3245 -0.1728 -0.1903
  824MPD2     H12124   1.887   2.196  15.908  0.7219  0.0496 -0.1229
  824MPD2    H112125   1.777   1.888  15.643  0.1525  1.1869 -1.0000
  824MPD2    H212126   1.544   2.234  15.649  1.5999  1.7524  1.5655
  824MPD2    H312127   1.590   2.024  15.554  1.0677 -1.1270 -0.3550
  824MPD2     N12128   1.945   1.956  15.831 -0.6840 -0.0690  0.0995
  824MPD2    H512129   2.012   2.008  15.888  1.5785 -1.7432 -1.0370
  824MPD2    N112130   1.706   2.368  15.839  0.6683  0.0998 -0.0500
  824MPD2    H712131   1.775   2.403  15.904 -0.1716  1.2208  0.2542
  825MPD2     C12132   2.743   1.828  15.561  0.2975 -0.1310  0.1374
  825MPD2    C112133   2.642   1.905  15.609 -0.1780  0.9032 -0.2308
  825MPD2    C212134   2.646   2.044  15.603  0.0288 -0.5421 -0.2260
  825MPD2    C312135   2.754   2.105  15.536 -0.4471 -0.2491  0.0574
  825MPD2    C412136   2.855   2.026  15.485 -0.4950 -0.4331 -0.6930
  825MPD2    C512137   2.846   1.891  15.497  0.5862 -0.7771  0.0948
  825MPD2     H12138   2.562   2.111  15.619  1.7177  1.3506  0.7193
  825MPD2    H112139   2.945   2.069  15.443 -1.6976  2.2975 -0.4872
  825MPD2    H212140   2.732   1.720  15.569 -0.2214  0.0190  1.4382
  825MPD2    H312141   2.912   1.829  15.437 -0.5063  0.7638 -2.7372
  825MPD2     N12142   2.773   2.247  15.533 -0.3240  0.2437  0.0342
  825MPD2    H512143   2.855   2.277  15.482 -0.3695  0.2265 -0.0483
  825MPD2    N112144   2.528   1.842  15.668 -0.4097  0.2873 -0.1307
  825MPD2    H712145   2.514   1.742  15.654 -0.5009  0.1808  0.7139
  826MPD2     C12146   2.875   2.452  13.748 -0.3745 -0.3948 -0.0211
  826MPD2    C112147   2.820   2.342  13.690 -0.0372 -0.5705  0.1242
  826MPD2    C212148   2.684   2.338  13.686  0.2893  0.3333  0.2941
  826MPD2    C312149   2.606   2.438  13.741  0.1514  0.8471  0.0109
  826MPD2    C412150   2.670   2.542  13.810 -0.6243  0.1311  0.0283
  826MPD2    C512151   2.804   2.552  13.803 -0.2403 -0.6432  0.8836
  826MPD2     H12152   2.641   2.248  13.643 -1.7216  0.8944  1.1324
  826MPD2    H112153   2.605   2.617  13.854 -1.4362  0.7743 -2.3077
  826MPD2    H212154   2.983   2.464  13.741  0.0758 -2.7653  2.6252
  826MPD2    H312155   2.849   2.644  13.838 -1.8546  0.8101 -0.8494
  826MPD2     N12156   2.463   2.435  13.754  0.2975 -0.4787  0.0213
  826MPD2    H512157   2.418   2.521  13.782  1.4610  0.2739 -0.3959
  826MPD2    N112158   2.917   2.251  13.632 -0.1905 -0.3202 -0.0529
  826MPD2    H712159   3.014   2.271  13.652 -0.3290  0.1976  0.1277
  827MPD2     C12160   3.671   3.679  10.105  0.2446  0.1099  0.5062
  827MPD2    C112161   3.617   3.565  10.168 -0.1732  0.1972 -0.0424
  827MPD2    C212162   3.506   3.510  10.113 -0.6520 -0.2214 -0.5427
  827MPD2    C312163   3.454   3.563   9.996  0.1236  0.3924 -0.7984
  827MPD2    C412164   3.510   3.674   9.936  0.4852  0.1552 -0.1347
  827MPD2    C512165   3.619   3.738   9.995  0.0224  0.1157 -0.0293
  827MPD2     H12166   3.456   3.429  10.165 -0.1630 -0.0121  0.2710
  827MPD2    H112167   3.471   3.723   9.847 -0.2302  1.4667  0.8938
  827MPD2    H212168   3.744   3.733  10.164  1.4689 -2.6787  1.5386
  827MPD2    H312169   3.667   3.830   9.963  1.9024 -0.8413  0.0255
  827MPD2     N12170   3.334   3.494   9.944  0.5684 -0.0068  0.1103
  827MPD2    H512171   3.315   3.405   9.990  0.2238 -0.2784 -0.5647
  827MPD2    N112172   3.680   3.520  10.287 -0.0048  0.6735  0.0087
  827MPD2    H712173   3.754   3.583  10.318 -0.0343 -0.1743  1.7863
  828MPD2     C12174   1.833   2.703  12.505 -0.2604 -0.4130  0.2501
  828MPD2    C112175   1.833   2.760  12.383  0.1319 -0.0123 -0.4301
  828MPD2    C212176   1.923   2.725  12.285 -0.7291  0.1653  0.5320
  828MPD2    C312177   2.032   2.652  12.321 -0.1690  0.2497  0.0818
  828MPD2    C412178   2.048   2.610  12.449  0.0554 -0.0252  0.6398
  828MPD2    C512179   1.945   2.628  12.537 -0.0948 -0.5366 -0.6025
  828MPD2     H12180   1.915   2.784  12.195 -3.2258 -0.4892  0.3265
  828MPD2    H112181   2.138   2.568  12.492  0.1421 -0.4254  0.0624
  828MPD2    H212182   1.766   2.730  12.586  1.7951  1.3855  1.3671
  828MPD2    H312183   1.967   2.610  12.641  3.3495  0.9487 -1.0743
  828MPD2     N12184   2.140   2.619  12.233 -0.2816  0.0695  0.6738
  828MPD2    H512185   2.218   2.568  12.274  1.3150  0.4618 -1.8820
  828MPD2    N112186   1.742   2.866  12.355  0.5666  1.1929 -0.4569
  828MPD2    H712187   1.750   2.914  12.266 -0.3905 -0.4125 -1.3977
  829MPD2     C12188   1.933   3.469  11.817 -0.0464  0.9585  0.0429
  829MPD2    C112189   1.796   3.508  11.845  0.3534  0.8416 -0.3767
  829MPD2    C212190   1.731   3.461  11.955  0.0873  0.0448  0.2483
  829MPD2    C312191   1.795   3.369  12.034 -0.2752 -0.6733  0.5153
  829MPD2    C412192   1.930   3.332  12.013  0.6102  0.3954  0.2760
  829MPD2    C512193   1.997   3.379  11.901  0.9236 -0.0154 -0.1905
  829MPD2     H12194   1.627   3.484  11.978  0.0948 -0.7555  1.0957
  829MPD2    H112195   1.981   3.265  12.082 -1.9837  1.4271  3.1863
  829MPD2    H212196   1.996   3.508  11.737  0.1254  0.1106 -0.2339
  829MPD2    H312197   2.097   3.351  11.871  0.0482 -3.8689  0.4788
  829MPD2     N12198   1.731   3.292  12.130 -0.2617  0.1110  0.4427
  829MPD2    H512199   1.780   3.215  12.174 -3.0075 -0.7320  2.0515
  829MPD2    N112200   1.743   3.610  11.757 -0.0547  0.2139  0.1725
  829MPD2    H712201   1.785   3.616  11.665 -1.5652  1.9386 -0.4017
  830MPD2     C12202   1.884   1.153  15.825  0.5569  0.2024 -0.0646
  830MPD2    C112203   1.790   1.244  15.848  0.2951  0.3227 -0.2573
  830MPD2    C212204   1.782   1.355  15.764 -0.3509 -0.5307 -0.5963
  830MPD2    C312205   1.876   1.375  15.660 -0.2943  0.1728  0.7254
  830MPD2    C412206   1.977   1.280  15.651 -0.6344  0.4383  0.3814
  830MPD2    C512207   1.980   1.173  15.732  0.2206 -0.1337  0.7422
  830MPD2     H12208   1.694   1.417  15.783  0.7726 -0.0012  2.8793
  830MPD2    H112209   2.069   1.303  15.599  0.6106  1.3707  2.9609
  830MPD2    H212210   1.901   1.067  15.889  0.8545  0.0180 -0.3898
  830MPD2    H312211   2.059   1.100  15.721  0.8893  0.7569 -0.4116
  830MPD2     N12212   1.888   1.487  15.577  0.1715  0.4091 -0.0829
  830MPD2    H512213   1.962   1.476  15.509  0.3624 -4.0213  0.8200
  830MPD2    N112214   1.699   1.215  15.951 -0.2993  0.3120 -0.0495
  830MPD2    H712215   1.699   1.125  15.998  0.5543 -0.0116 -0.6740
  831MPD2     C12216   1.792   3.359  16.355 -0.0637  0.2941  0.3625
  831MPD2    C112217   1.809   3.265  16.253 -0.5294 -0.0445  0.5588
  831MPD2    C212218   1.725   3.151  16.255 -0.0256  0.5685 -0.1639
  831MPD2    C312219   1.639   3.135  16.359 -0.0999  1.0143 -0.9419
  831MPD2    C412220   1.640   3.216  16.464 -0.1431  0.4920 -0.0662
  831MPD2    C512221   1.716   3.331  16.465  0.7216  0.1048  0.4803
  831MPD2     H12222   1.738   3.073  16.180 -0.1191 -0.2991  0.7141
  831MPD2    H112223   1.579   3.198  16.551  0.3895 -0.6909  0.0539
  831MPD2    H212224   1.850   3.451  16.356 -1.0143  0.9119 -0.6438
  831MPD2    H312225   1.718   3.395  16.553 -1.2123 -0.6993  1.1199
  831MPD2     N12226   1.529   3.046  16.359 -0.3232 -0.8895 -0.4165
  831MPD2    H512227   1.464   3.052  16.437  1.5210  1.4469  0.9592
  831MPD2    N112228   1.902   3.305  16.147 -0.1139  0.1442 -0.0003
  831MPD2    H712229   1.946   3.397  16.146  0.0655  0.0534 -0.6220
  832MPD2     C12230   0.280   4.199  17.370 -0.2655  0.0754  0.2704
  832MPD2    C112231   0.196   4.307  17.363 -0.6032 -0.5684 -0.7217
  832MPD2    C212232   0.082   4.298  17.287  0.0134 -0.0902  0.0363
  832MPD2    C312233   0.060   4.177  17.221  0.0028 -0.9887 -0.3621
  832MPD2    C412234   0.133   4.065  17.249  0.5905 -0.4583 -0.0879
  832MPD2    C512235   0.246   4.074  17.324  0.5548 -0.1019 -0.2152
  832MPD2     H12236   0.022   4.381  17.253 -0.3491  0.5416  2.2127
  832MPD2    H112237   0.101   3.971  17.205 -0.4621 -1.0573  1.9604
  832MPD2    H212238   0.372   4.212  17.425 -0.3133  2.2033 -0.1705
  832MPD2    H312239   0.303   3.983  17.336  0.2448  0.1529  3.1501
  832MPD2     N12240   4.677   4.161  17.124 -0.6742  0.3800 -0.0876
  832MPD2    H512241   4.665   4.064  17.095  1.9270 -0.3014  1.1378
  832MPD2    N112242   0.243   4.424  17.426 -0.0092 -0.3199  0.2432
  832MPD2    H712243   0.334   4.420  17.471  0.4585  1.7247 -0.5541
  833MPD2     C12244   2.569   0.278  12.800  0.2920 -0.5104 -0.0583
  833MPD2    C112245   2.596   0.353  12.693  0.6391 -0.0510  0.0694
  833MPD2    C212246   2.646   0.299  12.578 -0.0011  0.3461  0.2485
  833MPD2    C312247   2.651   0.164  12.557  0.3028 -0.4446  0.1896
  833MPD2    C412248   2.629   0.086  12.674  0.3782 -0.1049  0.4200
  833MPD2    C512249   2.593   0.137  12.793 -0.0950  0.3087  0.7713
  833MPD2     H12250   2.666   0.365  12.494  0.5411  0.7280  0.6729
  833MPD2    H112251   2.641   4.700  12.673  2.3349  0.1081  1.5216
  833MPD2    H212252   2.526   0.318  12.891  2.1758  0.2803  0.4688
  833MPD2    H312253   2.573   0.073  12.878 -1.9805  0.2470  0.2652
  833MPD2     N12254   2.682   0.113  12.429 -0.4206 -0.6887 -0.2362
  833MPD2    H512255   2.655   0.018  12.405  1.0908 -0.8048 -1.4664
  833MPD2    N112256   2.568   0.490  12.706 -0.1442  0.0033 -0.9854
  833MPD2    H712257   2.553   0.520  12.802 -1.5406 -1.2373 -0.8264
  834MPD2     C12258   2.071   0.206  11.680 -0.2482 -0.1990  0.3943
  834MPD2    C112259   2.188   0.223  11.607  0.8804  0.1473 -0.7365
  834MPD2    C212260   2.308   0.207  11.673  0.2471  0.3447  0.1019
  834MPD2    C312261   2.317   0.160  11.802 -0.7428 -0.3968  1.0415
  834MPD2    C412262   2.198   0.132  11.865 -0.2241 -0.8404 -0.1730
  834MPD2    C512263   2.073   0.168  11.813  0.2000  0.0887  0.6591
  834MPD2     H12264   2.403   0.213  11.621 -0.9160 -0.0221 -2.0717
  834MPD2    H112265   2.195   0.106  11.970 -0.5295 -0.6670 -0.1393
  834MPD2    H212266   1.974   0.216  11.632  0.4922  0.3122 -0.9888
  834MPD2    H312267   1.987   0.156  11.877  1.1159 -3.5150  1.1950
  834MPD2     N12268   2.445   0.143  11.864 -0.4550 -0.3395  0.2070
  834MPD2    H512269   2.528   0.161  11.808  0.4059 -0.6835  1.3655
  834MPD2    N112270   2.176   0.251  11.469  0.0382  0.0041 -0.5679
  834MPD2    H712271   2.083   0.257  11.429 -0.1224 -1.3831 -0.4186
  835MPD2     C12272   2.464   3.153  11.024 -0.5557  0.1932  0.6219
  835MPD2    C112273   2.398   3.260  11.085 -0.1462 -0.7430 -0.3984
  835MPD2    C212274   2.429   3.284  11.220  0.1265  0.0770  0.3247
  835MPD2    C312275   2.525   3.207  11.288 -0.4491  1.0335 -0.2722
  835MPD2    C412276   2.576   3.092  11.224  0.2931  0.7191  0.1058
  835MPD2    C512277   2.553   3.065  11.091  0.1309  0.4354  0.6200
  835MPD2     H12278   2.381   3.368  11.269  0.5317  0.0692  0.7342
  835MPD2    H112279   2.653   3.026  11.263  0.6970  0.2753 -1.4106
  835MPD2    H212280   2.448   3.136  10.919 -0.9929  1.3002  0.5110
  835MPD2    H312281   2.603   2.985  11.038  2.1771  1.2084  1.3786
  835MPD2     N12282   2.564   3.229  11.424  0.1891  0.1538  0.4910
  835MPD2    H512283   2.625   3.158  11.462  0.9314  0.7092  0.3425
  835MPD2    N112284   2.318   3.359  11.019 -0.1585  0.1697 -0.7044
  835MPD2    H712285   2.296   3.441  11.074  3.4819  0.6641 -0.0117
  836MPD2     C12286   2.169   3.759  11.804 -0.2904  0.1963 -0.5550
  836MPD2    C112287   2.214   3.679  11.909  0.6677  0.0243  0.7585
  836MPD2    C212288   2.141   3.673  12.030 -0.7007  0.1432  0.0139
  836MPD2    C312289   2.015   3.737  12.032 -0.4504  0.5815 -0.6478
  836MPD2    C412290   1.978   3.818  11.924  0.1170 -0.0576 -0.6449
  836MPD2    C512291   2.054   3.830  11.812  0.1973 -0.4646  0.5875
  836MPD2     H12292   2.172   3.621  12.121  0.4003 -0.1458 -0.5194
  836MPD2    H112293   1.892   3.883  11.933 -0.6881 -1.1332 -0.4710
  836MPD2    H212294   2.229   3.770  11.714 -0.6950  0.2811 -0.8129
  836MPD2    H312295   2.029   3.906  11.738  0.2441  0.1792  1.2302
  836MPD2     N12296   1.923   3.739  12.136  0.4515  0.0775  0.2408
  836MPD2    H512297   1.835   3.790  12.124  1.9561  2.6070 -0.0300
  836MPD2    N112298   2.332   3.604  11.884  0.0638  0.4534  0.0574
  836MPD2    H712299   2.390   3.618  11.802 -1.5555 -0.6343 -1.2932
  837MPD2     C12300   1.016   3.441   9.994  0.1868  0.2176  0.0677
  837MPD2    C112301   0.898   3.464   9.935  0.2213 -0.7546 -0.5038
  837MPD2    C212302   0.859   3.590   9.902 -0.1744  0.1184 -0.0147
  837MPD2    C312303   0.931   3.699   9.943 -0.1274  0.3867 -0.4875
  837MPD2    C412304   1.053   3.681  10.014 -0.1627 -0.7086  0.3144
  837MPD2    C512305   1.093   3.548  10.029  0.1441  0.8854  0.0205
  837MPD2     H12306   0.764   3.595   9.850 -1.9902 -0.2571  3.2586
  837MPD2    H112307   1.123   3.760  10.037  1.0236 -1.6929  0.0268
  837MPD2    H212308   1.050   3.342  10.019  1.6744  0.1717 -2.1286
  837MPD2    H312309   1.188   3.534  10.079  0.3327 -1.0162 -0.8491
  837MPD2     N12310   0.860   3.819   9.921 -0.3373 -0.5294  0.1541
  837MPD2    H512311   0.776   3.809   9.864 -0.1253  1.1201 -0.4421
  837MPD2    N112312   0.812   3.358   9.893 -0.5223 -0.4917 -0.4609
  837MPD2    H712313   0.723   3.388   9.854 -0.3796  0.1435 -0.2959
  838MPD2     C12314   3.528   1.465  11.816  0.0953 -0.5024 -0.2448
  838MPD2    C112315   3.565   1.404  11.933  0.7300 -0.4879 -0.3693
  838MPD2    C212316   3.492   1.301  11.987  0.1329  0.1095  0.2072
  838MPD2    C312317   3.383   1.260  11.918  0.2481  0.4716 -0.0760
  838MPD2    C412318   3.342   1.323  11.802  0.2565  0.0295 -0.4043
  838MPD2    C512319   3.422   1.422  11.742  0.2638  0.0890 -0.6034
  838MPD2     H12320   3.523   1.242  12.072  0.5273  2.1226  1.4604
  838MPD2    H112321   3.262   1.289  11.738  0.6693  0.4388 -1.1479
  838MPD2    H212322   3.588   1.545  11.773 -0.6301 -0.6218 -1.4876
  838MPD2    H312323   3.401   1.448  11.639  0.0735  1.7398 -0.1590
  838MPD2     N12324   3.308   1.148  11.966  0.2716  0.1540 -0.4628
  838MPD2    H512325   3.329   1.128  12.063 -1.3600  1.9618  0.2674
  838MPD2    N112326   3.681   1.453  12.000  0.2547 -0.0572  0.4238
  838MPD2    H712327   3.720   1.393  12.072 -0.8081 -1.0876  0.1358
  839MPD2     C12328   3.692   0.839  12.132 -0.2384  0.3004  0.0668
  839MPD2    C112329   3.687   0.910  12.013  0.0846 -0.5611 -0.5968
  839MPD2    C212330   3.776   1.018  11.988  1.0255 -0.0921  0.2421
  839MPD2    C312331   3.865   1.050  12.089 -0.7567  0.0052 -0.8526
  839MPD2    C412332   3.871   0.973  12.197 -0.1915  0.2085 -0.1096
  839MPD2    C512333   3.795   0.859  12.218 -0.4333 -0.0401  0.1818
  839MPD2     H12334   3.782   1.062  11.889  1.1923  2.3527  1.3411
  839MPD2    H112335   3.934   0.995  12.282  1.2318 -1.2601 -0.7961
  839MPD2    H212336   3.616   0.770  12.166 -0.8319  0.3782 -1.0942
  839MPD2    H312337   3.799   0.798  12.308  1.7821  2.1485  1.5822
  839MPD2     N12338   3.951   1.155  12.083 -0.0627  0.3792  0.4771
  839MPD2    H512339   3.991   1.177  12.173  1.6869  0.8468 -0.4032
  839MPD2    N112340   3.582   0.889  11.926 -0.0772  0.3071  0.9079
  839MPD2    H712341   3.589   0.939  11.838 -0.8412 -1.9953 -0.4851
  840MPD2     C12342   4.247   3.631  10.202 -0.0196  0.2120  0.5723
  840MPD2    C112343   4.229   3.611  10.339  0.0610  0.1124 -0.4669
  840MPD2    C212344   4.288   3.696  10.425 -0.2964 -0.4364  0.1672
  840MPD2    C312345   4.358   3.805  10.373 -0.9953  0.9225  0.3542
  840MPD2    C412346   4.360   3.832  10.241  0.2219 -0.5754 -0.4504
  840MPD2    C512347   4.310   3.736  10.156  0.0355 -1.1510 -0.2436
  840MPD2     H12348   4.264   3.690  10.531  1.7994 -0.9946  0.6011
  840MPD2    H112349   4.410   3.921  10.205  0.6547 -0.2239  0.9932
  840MPD2    H212350   4.208   3.561  10.129 -0.6788  0.0350  1.0914
  840MPD2    H312351   4.336   3.742  10.051 -3.1380  1.9990 -0.8407
  840MPD2     N12352   4.415   3.903  10.455  0.0985 -0.1567 -0.1897
  840MPD2    H512353   4.434   3.990  10.406 -0.3720 -0.0823 -0.2418
  840MPD2    N112354   4.137   3.502  10.377  0.4046  0.2090 -0.0433
  840MPD2    H712355   4.073   3.466  10.307 -1.9669  0.4882  2.0041
  841MPD2     C12356   3.620   3.293  14.013  0.1630  0.3146  0.1054
  841MPD2    C112357   3.507   3.285  14.093  0.2696 -0.2366  0.0812
  841MPD2    C212358   3.506   3.346  14.220 -0.0277 -0.0102 -0.2575
  841MPD2    C312359   3.617   3.412  14.264  0.2656 -0.0140 -0.0716
  841MPD2    C412360   3.725   3.432  14.186 -0.5850  0.1360  0.2800
  841MPD2    C512361   3.716   3.376  14.057 -0.5614 -0.5202  0.2162
  841MPD2     H12362   3.423   3.333  14.288  1.2448 -0.8905  1.1240
  841MPD2    H112363   3.809   3.498  14.206 -0.2227 -0.3461  0.3527
  841MPD2    H212364   3.626   3.249  13.914  2.4193 -2.0878  1.3225
  841MPD2    H312365   3.811   3.373  14.005  0.4906  5.3224  1.8728
  841MPD2     N12366   3.603   3.459  14.395  0.3852  0.7291 -0.0997
  841MPD2    H512367   3.512   3.452  14.437  0.5781 -1.4683 -0.0472
  841MPD2    N112368   3.393   3.203  14.058  0.4005 -0.4051 -0.6305
  841MPD2    H712369   3.332   3.165  14.130  0.8019 -1.7444 -1.0020
  842MPD2     C12370   3.659   4.167  17.251  0.5234 -0.0220 -0.2846
  842MPD2    C112371   3.631   4.303  17.246  0.6051  0.4722 -0.0201
  842MPD2    C212372   3.653   4.381  17.360  0.7466  0.1291  0.2104
  842MPD2    C312373   3.685   4.325  17.484 -0.5565 -0.1203  0.9239
  842MPD2    C412374   3.725   4.193  17.480 -0.4585  0.1874 -0.7846
  842MPD2    C512375   3.717   4.118  17.369  0.2052 -0.0718  0.4276
  842MPD2     H12376   3.640   4.489  17.361 -0.0809  0.0323 -0.4980
  842MPD2    H112377   3.763   4.138  17.566 -0.9589 -0.6697 -1.1060
  842MPD2    H212378   3.654   4.099  17.166 -0.4703  0.7225 -0.8143
  842MPD2    H312379   3.753   4.016  17.370  0.8222  0.1469  0.2491
  842MPD2     N12380   3.703   4.397  17.602  0.1020  0.1364 -0.5462
  842MPD2    H512381   3.773   4.359  17.665  0.3516  1.2604 -0.1665
  842MPD2    N112382   3.573   4.356  17.128 -0.6512  0.5094  0.1107
  842MPD2    H712383   3.547   4.304  17.045  0.6613  0.0065  0.0190
  843MPD2     C12384   0.854   0.365   0.069  0.7198  1.0155  0.0161
  843MPD2    C112385   0.862   0.298   0.183 -1.0905 -0.2453 -0.3950
  843MPD2    C212386   0.966   0.322   0.268 -0.4667  0.5369  0.3986
  843MPD2    C312387   1.072   0.403   0.230  0.6213 -0.0561  1.2139
  843MPD2    C412388   1.052   0.487   0.125  0.4989  0.0509 -0.1739
  843MPD2    C512389   0.946   0.468   0.040  0.6239  0.1702 -0.0426
  843MPD2     H12390   0.980   0.245   0.343  0.7808  0.4439  0.0700
  843MPD2    H112391   1.131   0.553   0.092 -0.1108  0.4995 -0.7437
  843MPD2    H212392   0.769   0.360   0.001 -0.7435  1.9583  1.7904
  843MPD2    H312393   0.937   0.528  17.638 -1.0782  0.7265  0.4896
  843MPD2     N12394   1.189   0.417   0.307  0.0452  0.0618 -0.0271
  843MPD2    H512395   1.269   0.473   0.280  2.2448 -2.9940  0.0430
  843MPD2    N112396   0.763   0.207   0.202 -0.3249  0.2241  0.2681
  843MPD2    H712397   0.693   0.203   0.129  0.7682  3.3359 -0.9308
  844MPD2     C12398   4.542   4.245  16.453  0.8634  0.1503 -0.1187
  844MPD2    C112399   4.587   4.136  16.521  0.5664  0.4915  0.4580
  844MPD2    C212400   4.657   4.157  16.640 -0.5777 -0.1927  0.2996
  844MPD2    C312401   4.688   4.287  16.676  0.3952  0.4326 -0.3640
  844MPD2    C412402   4.649   4.393  16.596  0.5775  0.4486 -0.8309
  844MPD2    C512403   4.573   4.375  16.484  0.2607 -0.4326 -0.4479
  844MPD2     H12404   4.695   4.082  16.709  1.0072 -2.3500 -2.9540
  844MPD2    H112405   4.662   4.499  16.614 -2.1318  0.3899  1.3415
  844MPD2    H212406   4.478   4.229  16.367  1.7805 -2.0046 -0.4007
  844MPD2    H312407   4.546   4.461  16.424  3.2922  1.9405  1.5141
  844MPD2     N12408   0.059   4.307  16.781 -0.0237 -0.1156 -0.6245
  844MPD2    H512409   0.087   4.222  16.828  1.5023 -0.2463 -1.7600
  844MPD2    N112410   4.569   4.004  16.484 -0.0362  0.0186 -0.3398
  844MPD2    H712411   4.625   3.929  16.523  0.0606  0.9502  1.3134
  845MPD2     C12412   0.369   0.368  17.330 -0.9158 -0.1963  0.1242
  845MPD2    C112413   0.249   0.302  17.354  0.0994 -0.0458 -0.7211
  845MPD2    C212414   0.235   0.181  17.286 -0.3878  0.1760  0.3559
  845MPD2    C312415   0.333   0.120  17.210 -0.1099  0.0199 -0.4566
  845MPD2    C412416   0.450   0.187  17.204  0.0318  1.0189  0.0163
  845MPD2    C512417   0.469   0.309  17.261  1.2360 -0.1267  0.5284
  845MPD2     H12418   0.144   0.124  17.302  0.5188 -0.7657  2.0848
  845MPD2    H112419   0.535   0.152  17.147  1.8498 -0.9139  3.8448
  845MPD2    H212420   0.383   0.471  17.361  1.8987 -0.5419 -0.0072
  845MPD2    H312421   0.561   0.366  17.248  0.9174  0.1146 -0.6743
  845MPD2     N12422   0.318   4.713  17.151 -0.1712  0.4453 -0.5917
  845MPD2    H512423   0.222   4.687  17.134 -0.8680  1.1763  2.1163
  845MPD2    N112424   0.137   0.364  17.413  0.2049 -0.1386  0.1997
  845MPD2    H712425   0.148   0.455  17.456  2.3517 -0.0343 -0.5686
  846MPD2     C12426   1.994   0.378  13.717  0.0371 -1.2817  0.8546
  846MPD2    C112427   1.914   0.491  13.713  0.2162  0.0415  0.1767
  846MPD2    C212428   1.854   0.540  13.820 -0.8845  0.2788  0.1359
  846MPD2    C312429   1.871   0.480  13.942  0.4766 -0.0862  0.9290
  846MPD2    C412430   1.952   0.373  13.954  0.2249 -0.3242  0.4207
  846MPD2    C512431   2.018   0.325  13.842 -0.6883  0.6647 -0.7389
  846MPD2     H12432   1.788   0.626  13.811 -1.2203 -0.1677 -1.5061
  846MPD2    H112433   1.965   0.314  14.044  2.4437 -1.9750 -0.9624
  846MPD2    H212434   2.038   0.328  13.632  0.0392  1.5854 -0.8113
  846MPD2    H312435   2.077   0.234  13.851 -1.0344  0.6613  1.4499
  846MPD2     N12436   1.796   0.528  14.051  0.7442  0.1607 -0.4069
  846MPD2    H512437   1.725   0.598  14.033  1.7578  1.7786  1.6826
  846MPD2    N112438   1.888   0.562  13.591  0.0734  0.3770  0.2705
  846MPD2    H712439   1.828   0.644  13.592 -2.2181 -1.3021 -1.4025
  847MPD2     C12440   1.461   1.388  14.273  0.1091 -1.1573  0.2204
  847MPD2    C112441   1.581   1.332  14.276 -0.6851  0.2050  0.5271
  847MPD2    C212442   1.626   1.255  14.377  0.4224 -0.1515  0.0249
  847MPD2    C312443   1.537   1.224  14.479 -0.4650  0.1159 -0.2985
  847MPD2    C412444   1.407   1.282  14.473  0.3459 -0.9195 -0.0738
  847MPD2    C512445   1.369   1.354  14.366 -0.1485  0.0052 -0.0052
  847MPD2     H12446   1.728   1.218  14.382  0.7678  0.9142  1.0558
  847MPD2    H112447   1.331   1.269  14.549  0.0924  2.0816  0.2061
  847MPD2    H212448   1.429   1.458  14.197  3.0615 -0.6582 -0.5620
  847MPD2    H312449   1.271   1.398  14.356 -0.3153 -0.1067  1.0880
  847MPD2     N12450   1.580   1.137  14.584 -0.0400  0.1975 -0.1952
  847MPD2    H512451   1.672   1.096  14.578  0.2202  0.6589  0.6385
  847MPD2    N112452   1.676   1.365  14.182 -0.3882  0.0697 -0.1034
  847MPD2    H712453   1.762   1.316  14.204  0.7352  1.5495 -1.1757
  848MPD2     C12454   4.227   4.464  16.477  0.4117  0.2491  0.5598
  848MPD2    C112455   4.261   4.532  16.587 -0.0838  0.5399 -0.4609
  848MPD2    C212456   4.262   4.667  16.586  0.1654 -0.3570 -0.3538
  848MPD2    C312457   4.214   0.013  16.480 -0.0334 -0.0526 -0.1229
  848MPD2    C412458   4.173   4.660  16.367  0.2531  0.3650 -0.4677
  848MPD2    C512459   4.167   4.527  16.371 -0.5800 -0.1692 -1.0061
  848MPD2     H12460   4.288   0.000  16.676 -3.2338 -1.6838  1.4525
  848MPD2    H112461   4.126   4.716  16.288  1.4390  0.4583 -1.1080
  848MPD2    H212462   4.241   4.357  16.467 -1.6058  0.1237 -1.1250
  848MPD2    H312463   4.129   4.474  16.284  0.6131 -2.0706 -0.3506
  848MPD2     N12464   4.199   0.148  16.472 -0.2085  0.1483 -0.2045
  848MPD2    H512465   4.134   0.176  16.399  0.2450  0.8220 -0.3428
  848MPD2    N112466   4.306   4.466  16.703  0.7338 -0.4826 -0.3345
  848MPD2    H712467   4.356   4.516  16.776  1.2723 -1.4449 -0.0492
  849MPD2     C12468   3.987   4.464  14.146 -1.4663 -0.0561  0.5114
  849MPD2    C112469   4.083   4.375  14.160 -0.2303  0.1634  0.4367
  849MPD2    C212470   4.051   4.241  14.175 -0.0276 -0.6746 -0.8904
  849MPD2    C312471   3.917   4.204  14.173  0.4767  0.0616  0.3441
  849MPD2    C412472   3.816   4.301  14.147  0.9755  0.3061  0.2060
  849MPD2    C512473   3.861   4.431  14.132 -0.5338 -0.2583  0.8236
  849MPD2     H12474   4.128   4.171  14.206  0.3450 -0.5995 -1.6470
  849MPD2    H112475   3.710   4.275  14.153  1.5166 -1.8724  0.3193
  849MPD2    H212476   4.001   4.570  14.130 -0.3177  0.0081  1.8494
  849MPD2    H312477   3.799   4.512  14.093  1.1190  0.6600  0.1253
  849MPD2     N12478   3.887   4.070  14.209 -0.4219 -0.0957 -0.6574
  849MPD2    H512479   3.968   4.010  14.217  1.0353  1.9336 -0.0143
  849MPD2    N112480   4.220   4.398  14.153  0.1102  0.1567  0.0353
  849MPD2    H712481   4.276   4.316  14.173 -0.9308 -0.2733  1.1547
  850MPD2     C12482   1.660   2.389  14.612  0.3213  0.3875  0.1788
  850MPD2    C112483   1.627   2.475  14.718  0.2341  0.0747  0.3291
  850MPD2    C212484   1.732   2.523  14.798  0.6600  0.6702  0.0549
  850MPD2    C312485   1.857   2.468  14.784  0.0078 -0.7561 -0.3008
  850MPD2    C412486   1.881   2.377  14.689  0.4507 -0.0940 -0.0704
  850MPD2    C512487   1.785   2.335  14.601 -0.1289 -0.4910  0.1708
  850MPD2     H12488   1.712   2.592  14.879  1.3539 -0.0368  0.8221
  850MPD2    H112489   1.984   2.342  14.686  0.7695  0.7959  0.6574
  850MPD2    H212490   1.583   2.361  14.541 -1.2505  2.3042  1.1297
  850MPD2    H312491   1.809   2.257  14.529  2.8634  0.3005  0.2985
  850MPD2     N12492   1.955   2.475  14.889  0.2005  0.3216  0.7580
  850MPD2    H512493   2.036   2.416  14.874 -1.4829 -1.5134 -1.0628
  850MPD2    N112494   1.492   2.508  14.733  0.3122 -0.5949 -0.1385
  850MPD2    H712495   1.435   2.477  14.654 -1.2231  1.5514  0.1140
  851MPD2     C12496   1.922   2.413  15.453  0.2926  0.3226  0.4344
  851MPD2    C112497   1.820   2.354  15.382 -0.1610  0.0999  0.3533
  851MPD2    C212498   1.828   2.216  15.364 -0.4346 -0.0463 -0.2993
  851MPD2    C312499   1.934   2.150  15.417 -0.8044 -0.2488  0.0644
  851MPD2    C412500   2.048   2.212  15.474  0.0812  0.7683 -0.1067
  851MPD2    C512501   2.031   2.345  15.499  0.8405 -0.2726  0.7574
  851MPD2     H12502   1.762   2.160  15.299 -0.5537  0.1484 -0.3454
  851MPD2    H112503   2.130   2.158  15.518 -0.1855  0.7553  0.3780
  851MPD2    H212504   1.915   2.517  15.481  0.4973  0.0652  1.4548
  851MPD2    H312505   2.106   2.396  15.558  1.4462  0.7871 -0.9031
  851MPD2     N12506   1.932   2.017  15.381  0.3062 -0.2003  0.0410
  851MPD2    H512507   1.847   1.975  15.345  0.9777 -0.0516 -1.7345
  851MPD2    N112508   1.734   2.442  15.309 -0.1124 -0.1745 -0.0638
  851MPD2    H712509   1.730   2.540  15.337 -4.0192 -0.6219  1.0219
  852MPD2     C12510   2.039   0.203  10.875 -0.4027  0.8503 -0.3080
  852MPD2    C112511   2.116   0.158  10.766  0.2730  0.7454 -0.1236
  852MPD2    C212512   2.183   0.252  10.697  0.0086 -0.1498  0.0272
  852MPD2    C312513   2.186   0.381  10.730  0.3711  0.9234 -0.0757
  852MPD2    C412514   2.106   0.426  10.835  0.1527  0.3815  0.8874
  852MPD2    C512515   2.038   0.337  10.909  1.0069  0.1935 -0.0887
  852MPD2     H12516   2.229   0.224  10.603  0.6298 -1.3827  0.7028
  852MPD2    H112517   2.080   0.529  10.857 -1.2602 -0.0918  1.4483
  852MPD2    H212518   1.972   0.138  10.930 -2.0028  0.9174 -2.1670
  852MPD2    H312519   1.979   0.366  10.994  0.8053 -2.0440  0.5442
  852MPD2     N12520   2.268   0.471  10.653 -0.1614  0.2780 -0.3087
  852MPD2    H512521   2.325   0.432  10.579  0.5811  0.4621  0.1671
  852MPD2    N112522   2.112   0.024  10.713  0.2852  0.5633  0.2275
  852MPD2    H712523   2.161   0.009  10.626  1.0986 -1.7313  1.0716
  853MPD2     C12524   3.803   4.504  12.579  0.3840 -0.5065 -0.2249
  853MPD2    C112525   3.725   4.612  12.548 -0.0385  0.0714  0.3782
  853MPD2    C212526   3.708   4.656  12.419  0.7313 -0.4508 -0.1087
  853MPD2    C312527   3.780   4.595  12.316  0.2316 -0.2581  0.5351
  853MPD2    C412528   3.866   4.499  12.346 -0.5812 -0.1531 -0.1613
  853MPD2    C512529   3.867   4.448  12.476 -0.5066  0.1851 -0.6619
  853MPD2     H12530   3.652   0.025  12.401  1.6454 -0.2550 -1.9801
  853MPD2    H112531   3.933   4.461  12.269 -0.1999  2.5298 -1.1425
  853MPD2    H212532   3.816   4.456  12.676 -0.2538 -0.5838 -0.1784
  853MPD2    H312533   3.932   4.364  12.501 -2.6601 -2.0222 -2.5510
  853MPD2     N12534   3.773   4.640  12.179 -0.4391  0.2421 -0.4442
  853MPD2    H512535   3.842   4.601  12.115 -0.9951  0.8577 -1.4268
  853MPD2    N112536   3.668   4.670  12.660 -0.2857  0.3027  0.7004
  853MPD2    H712537   3.680   4.628  12.751  0.7322 -0.2813  0.2940
  854MPD2     C12538   4.553   0.489  12.972 -0.5965 -0.6333  0.0214
  854MPD2    C112539   4.668   0.450  12.904 -0.0143 -0.8034 -0.2815
  854MPD2    C212540   4.713   0.321  12.924  0.1162  0.3323  0.6242
  854MPD2    C312541   4.638   0.228  12.997  0.5811  0.3559 -0.1491
  854MPD2    C412542   4.525   0.267  13.061  0.1560  0.0255  0.8235
  854MPD2    C512543   4.484   0.400  13.054  0.0209 -0.3458  0.7327
  854MPD2     H12544   0.093   0.302  12.893 -0.8255 -0.9470 -1.6428
  854MPD2    H112545   4.462   0.205  13.124 -1.1075 -0.0319 -0.5133
  854MPD2    H212546   4.522   0.593  12.972 -0.2454 -0.5269  0.1418
  854MPD2    H312547   4.401   0.421  13.120  1.2506  4.8073  0.5855
  854MPD2     N12548   4.678   0.092  13.026 -0.0120 -0.0052 -0.6106
  854MPD2    H512549   4.634   0.040  13.101  0.7566  0.6197  0.2816
  854MPD2    N112550   0.016   0.547  12.828 -0.1306  0.8682  0.2751
  854MPD2    H712551   4.719   0.638  12.867  0.4313  1.7256 -1.4398
  855MPD2     C12552   0.089   4.653  13.867 -0.0928  0.0854  0.4946
  855MPD2    C112553   0.168   4.557  13.807 -0.4138  0.3356 -0.5022
  855MPD2    C212554   0.159   4.536  13.672  0.5869 -0.1638 -0.1899
  855MPD2    C312555   0.064   4.593  13.590 -0.9154 -0.3403  0.2039
  855MPD2    C412556   4.691   4.676  13.659  0.0513  0.5577 -0.1893
  855MPD2    C512557   4.715   4.712  13.792  0.1894  0.6996 -0.2737
  855MPD2     H12558   0.226   4.459  13.637  0.1313 -0.8855  0.5157
  855MPD2    H112559   4.597   4.710  13.616 -0.9725 -1.7108  0.2694
  855MPD2    H212560   0.078   4.674  13.973 -3.5548  0.8780 -0.0269
  855MPD2    H312561   4.643   0.055  13.842  0.7572  1.3457 -0.2960
  855MPD2     N12562   0.051   4.565  13.451  0.1886 -0.1778  0.7551
  855MPD2    H512563   4.702   4.614  13.397  1.3381 -1.3457 -1.8003
  855MPD2    N112564   0.260   4.474  13.877  0.1097 -0.0761  0.2022
  855MPD2    H712565   0.309   4.402  13.826  0.7024 -0.0581  0.7562
  856MPD2     C12566   2.680   0.754  13.704  0.4317  0.0743  0.2877
  856MPD2    C112567   2.783   0.841  13.685 -0.8936 -0.4786 -0.0826
  856MPD2    C212568   2.762   0.973  13.637 -0.0616  0.8821 -0.5485
  856MPD2    C312569   2.641   1.025  13.611 -0.1521 -0.0461  0.2707
  856MPD2    C412570   2.531   0.937  13.634 -0.0061  0.3564 -0.2977
  856MPD2    C512571   2.556   0.805  13.676  0.6109 -0.2742 -0.2692
  856MPD2     H12572   2.848   1.038  13.651 -1.4641  2.2922  1.4333
  856MPD2    H112573   2.431   0.959  13.597  0.5383  1.4208 -1.1293
  856MPD2    H212574   2.692   0.649  13.727 -0.5912 -0.0020  0.4646
  856MPD2    H312575   2.481   0.727  13.681 -0.3004  0.6365  0.4404
  856MPD2     N12576   2.614   1.156  13.568 -0.2739  0.3317  0.0874
  856MPD2    H512577   2.518   1.180  13.548 -0.6940 -0.8841  0.6694
  856MPD2    N112578   2.909   0.814  13.739 -0.1223  0.1527  0.0235
  856MPD2    H712579   2.977   0.887  13.723 -1.2235  0.7124 -2.1239
  857MPD2     C12580   4.288   3.103  13.429 -0.6379 -0.6204  0.3438
  857MPD2    C112581   4.328   3.123  13.297 -0.8988 -0.1483 -0.2574
  857MPD2    C212582   4.363   3.253  13.258 -0.5215  0.4045 -0.5178
  857MPD2    C312583   4.379   3.354  13.355 -0.4523 -0.2698  0.2022
  857MPD2    C412584   4.356   3.328  13.486  0.0112 -0.2229 -0.0053
  857MPD2    C512585   4.299   3.205  13.517 -0.1685 -0.2636 -0.3957
  857MPD2     H12586   4.383   3.271  13.153  2.0660 -2.1802 -0.4402
  857MPD2    H112587   4.370   3.395  13.569 -0.2827 -0.4351  0.2185
  857MPD2    H212588   4.263   3.003  13.463  0.1813 -0.9854 -0.1304
  857MPD2    H312589   4.286   3.179  13.622 -0.1248 -2.2959 -0.8821
  857MPD2     N12590   4.431   3.482  13.331  0.3253  0.3398  0.5296
  857MPD2    H512591   4.445   3.541  13.412 -2.1594  1.6682 -0.0196
  857MPD2    N112592   4.327   3.034  13.188  0.5306 -0.5018  0.5458
  857MPD2    H712593   4.326   3.069  13.092  0.0960  0.4473  0.8939
  858MPD2     C12594   4.233   1.914  16.890  0.0097  0.0561  0.4825
  858MPD2    C112595   4.361   1.867  16.872  0.2570  0.5590  0.0716
  858MPD2    C212596   4.464   1.956  16.861  0.4538  0.0396  0.2366
  858MPD2    C312597   4.446   2.084  16.903 -0.0424  0.3407  0.0375
  858MPD2    C412598   4.316   2.131  16.924 -0.0781  0.1920  0.0311
  858MPD2    C512599   4.211   2.046  16.913  0.5219 -0.5683 -0.3840
  858MPD2     H12600   4.567   1.928  16.840  1.0378  2.4891 -0.2685
  858MPD2    H112601   4.294   2.231  16.959 -1.8606  0.6408 -2.3989
  858MPD2    H212602   4.149   1.847  16.906  0.8705 -0.3409  3.3881
  858MPD2    H312603   4.112   2.079  16.941  0.5792  0.1760 -1.0537
  858MPD2     N12604   4.547   2.180  16.924  0.1687  0.3278 -0.2337
  858MPD2    H512605   4.520   2.261  16.979 -0.7956  0.4829 -0.9277
  858MPD2    N112606   4.376   1.729  16.848 -0.1874 -0.4502 -0.2238
  858MPD2    H712607   4.299   1.667  16.868 -0.0435 -0.8033 -0.7584
  859MPD2     C12608   3.396   4.075  15.969 -0.0759  0.1624 -0.2988
  859MPD2    C112609   3.456   4.045  15.849 -0.4948  0.4458  0.1559
  859MPD2    C212610   3.450   3.913  15.806 -0.4104  0.6055  0.2452
  859MPD2    C312611   3.390   3.824  15.892 -0.1130  0.1989 -0.2274
  859MPD2    C412612   3.333   3.857  16.010 -0.0663  0.1934  0.1717
  859MPD2    C512613   3.331   3.986  16.052  0.0281  0.3595  0.4782
  859MPD2     H12614   3.501   3.886  15.715 -0.4781  1.7314 -0.1288
  859MPD2    H112615   3.285   3.789  16.079  0.4489  0.0988  0.4357
  859MPD2    H212616   3.403   4.176  16.006 -0.2883  0.3447 -0.7609
  859MPD2    H312617   3.289   4.010  16.149  0.9814  1.1804  0.6927
  859MPD2     N12618   3.398   3.682  15.865  0.4547  0.2494  0.2077
  859MPD2    H512619   3.368   3.619  15.938  1.6309  0.5550  0.9456
  859MPD2    N112620   3.528   4.143  15.773 -0.2378  0.0174  0.6166
  859MPD2    H712621   3.538   4.234  15.816 -0.2897 -0.0497  0.7699
  860MPD2     C12622   1.000   4.106  11.582 -0.1495  0.5409  0.8534
  860MPD2    C112623   1.036   4.185  11.680  0.3750  0.2746 -0.2974
  860MPD2    C212624   0.941   4.244  11.751  0.0968  0.3838  0.3768
  860MPD2    C312625   0.801   4.218  11.729 -0.1361 -0.0252 -0.1437
  860MPD2    C412626   0.773   4.133  11.628 -0.3055  0.3026 -0.0172
  860MPD2    C512627   0.871   4.074  11.559 -0.1138  0.3307 -0.6144
  860MPD2     H12628   0.977   4.316  11.824 -2.5642  1.5129  0.5716
  860MPD2    H112629   0.668   4.110  11.611 -0.8428  2.5056  0.3482
  860MPD2    H212630   1.071   4.048  11.524 -0.1021 -0.1487  1.5998
  860MPD2    H312631   0.840   4.001  11.484  0.9134 -2.0597  1.2790
  860MPD2     N12632   0.699   4.258  11.816 -0.4721 -0.2611  0.1661
  860MPD2    H512633   0.606   4.225  11.792 -0.7227 -0.5270  1.4915
  860MPD2    N112634   1.174   4.207  11.718 -0.4868 -0.1823  0.1897
  860MPD2    H712635   1.195   4.236  11.813 -1.8365 -0.3129  0.5301
  861MPD2     C12636   0.881   3.134  10.807  0.1933 -0.3117 -0.1275
  861MPD2    C112637   0.769   3.101  10.876 -0.3793  0.7595 -0.4096
  861MPD2    C212638   0.646   3.117  10.806  0.5081  1.3731  0.2506
  861MPD2    C312639   0.642   3.166  10.676  0.0907  0.6842 -0.2812
  861MPD2    C412640   0.750   3.211  10.619  0.5631 -0.3733 -0.3158
  861MPD2    C512641   0.871   3.205  10.683  0.1638 -0.5215 -0.0673
  861MPD2     H12642   0.560   3.080  10.860  0.5589  0.3777 -0.3498
  861MPD2    H112643   0.728   3.274  10.534  0.6434 -0.8899 -0.7249
  861MPD2    H212644   0.981   3.132  10.850 -0.3715  3.0537  1.3135
  861MPD2    H312645   0.954   3.246  10.626 -0.8511  0.2966 -0.9340
  861MPD2     N12646   0.518   3.190  10.609  0.1352  0.4349  0.0954
  861MPD2    H512647   0.524   3.244  10.524  1.8937  1.1597  0.6929
  861MPD2    N112648   0.771   3.033  11.005  0.2618 -0.3189  0.5569
  861MPD2    H712649   0.681   3.027  11.050 -0.3058 -1.4573 -0.7413
  862MPD2     C12650   4.544   3.402  10.268 -0.4416 -0.0882  0.0534
  862MPD2    C112651   4.665   3.350  10.305 -0.1322  0.0249 -0.2580
  862MPD2    C212652   4.667   3.247  10.394  0.2116 -0.1165  0.1681
  862MPD2    C312653   4.558   3.189  10.449  0.5812  0.1979  0.0409
  862MPD2    C412654   4.437   3.238  10.408 -0.1692 -0.0752  0.0580
  862MPD2    C512655   4.430   3.343  10.315 -0.8289 -0.0194 -0.5459
  862MPD2     H12656   0.042   3.226  10.439 -0.3964 -1.9755  0.6072
  862MPD2    H112657   4.343   3.204  10.450 -1.3624  2.2241 -0.7479
  862MPD2    H212658   4.530   3.490  10.206 -0.2243  0.0581  0.2143
  862MPD2    H312659   4.330   3.376  10.289 -0.8985 -0.2059 -0.5170
  862MPD2     N12660   4.562   3.084  10.544  0.1424  0.1674 -0.3323
  862MPD2    H512661   4.470   3.055  10.576  0.1636  1.5520  0.9934
  862MPD2    N112662   0.062   3.423  10.262 -0.1714 -0.3443  0.1162
  862MPD2    H712663   0.045   3.469  10.173  1.8403 -0.9838 -0.5976
  863MPD2     C12664   3.007   0.995  16.523  0.2903  0.0504 -0.2052
  863MPD2    C112665   2.996   1.096  16.616 -0.2374 -0.4382 -0.2853
  863MPD2    C212666   3.092   1.102  16.720 -0.1949 -0.0251 -0.2474
  863MPD2    C312667   3.205   1.017  16.719  0.1061 -0.2532  0.8639
  863MPD2    C412668   3.208   0.926  16.619  0.0467  0.4080 -0.2207
  863MPD2    C512669   3.122   0.917  16.514  0.0470 -0.1741 -0.5604
  863MPD2     H12670   3.084   1.180  16.795  0.2979 -0.3410  0.1340
  863MPD2    H112671   3.293   0.859  16.627 -1.5630 -1.6575 -0.3452
  863MPD2    H212672   2.934   0.990  16.443  0.8017 -1.5997 -0.5754
  863MPD2    H312673   3.128   0.840  16.438 -2.0412  1.6559 -2.5619
  863MPD2     N12674   3.309   1.017  16.814 -0.4681 -0.1355 -0.1484
  863MPD2    H512675   3.377   0.942  16.812  0.6639  0.8535  1.5159
  863MPD2    N112676   2.880   1.164  16.611  0.0661  0.1424  0.6829
  863MPD2    H712677   2.827   1.137  16.529  0.5011  0.0403  0.4356
  864MPD2     C12678   3.450   2.115  17.277 -0.3456 -0.0610  0.1202
  864MPD2    C112679   3.566   2.055  17.219  0.1651  0.2368  0.0588
  864MPD2    C212680   3.673   2.138  17.183 -0.8483 -0.1333 -0.7441
  864MPD2    C312681   3.662   2.274  17.206  0.2470 -0.2032 -0.6424
  864MPD2    C412682   3.557   2.330  17.271  0.1133  0.0451 -0.0001
  864MPD2    C512683   3.452   2.254  17.307 -0.2992 -0.2731 -0.6081
  864MPD2     H12684   3.757   2.101  17.125 -0.4747 -1.6383  0.7419
  864MPD2    H112685   3.555   2.438  17.281 -1.1788 -0.0551  0.8434
  864MPD2    H212686   3.363   2.056  17.302  0.6176 -1.3150  0.5314
  864MPD2    H312687   3.376   2.298  17.370  0.8125 -0.5752  0.9338
  864MPD2     N12688   3.759   2.366  17.153 -0.0714  0.6357 -0.3799
  864MPD2    H512689   3.730   2.464  17.150  3.6149  1.7578  0.5957
  864MPD2    N112690   3.565   1.916  17.187  0.4953 -0.1615  0.6151
  864MPD2    H712691   3.481   1.863  17.209  0.7593 -0.4244  0.9823
  865MPD2     C12692   4.017   2.708  16.317  0.2388  0.7403  0.2814
  865MPD2    C112693   3.993   2.592  16.393 -0.0617  0.4260 -0.7101
  865MPD2    C212694   3.955   2.606  16.528  0.2657 -0.3357 -0.3232
  865MPD2    C312695   3.949   2.737  16.589 -0.1645 -0.3085  0.0212
  865MPD2    C412696   3.971   2.847  16.507 -0.1559 -0.0243  0.4798
  865MPD2    C512697   3.997   2.834  16.375 -0.1347  0.1893 -0.6115
  865MPD2     H12698   3.940   2.519  16.592  0.8498 -0.9810 -1.0518
  865MPD2    H112699   3.976   2.945  16.553 -2.3513  0.9898 -1.4482
  865MPD2    H212700   4.042   2.688  16.214  3.5779  0.7638  1.0796
  865MPD2    H312701   4.019   2.921  16.315  0.1826 -0.0824 -0.8842
  865MPD2     N12702   3.947   2.757  16.728  0.0156 -0.0067 -0.3383
  865MPD2    H512703   3.966   2.852  16.758 -1.8117  0.5965 -1.0647
  865MPD2    N112704   4.033   2.466  16.344 -0.5792  0.0325  0.5009
  865MPD2    H712705   4.070   2.468  16.250  4.2275  1.3877  2.3964
  866MPD2     C12706   1.201   3.231  11.389 -0.2311 -0.0755  0.3882
  866MPD2    C112707   1.224   3.299  11.281  0.0238 -0.4867  0.4576
  866MPD2    C212708   1.116   3.334  11.197 -0.2535  0.3557 -0.2349
  866MPD2    C312709   0.984   3.310  11.246 -0.3870  0.1329  0.9588
  866MPD2    C412710   0.968   3.241  11.364  0.0006  0.2921  0.3056
  866MPD2    C512711   1.074   3.204  11.435 -0.2357 -0.1760  0.1168
  866MPD2     H12712   1.132   3.404  11.116 -1.4176  1.7043  0.7070
  866MPD2    H112713   0.868   3.230  11.403  0.1992 -0.4312  0.6289
  866MPD2    H212714   1.288   3.197  11.444  0.8013  1.0306 -0.5804
  866MPD2    H312715   1.065   3.145  11.526  1.1088 -1.5397 -0.6599
  866MPD2     N12716   0.862   3.356  11.183 -0.0987  0.0233 -0.5726
  866MPD2    H512717   0.785   3.340  11.247 -1.1816  0.8669 -1.6579
  866MPD2    N112718   1.360   3.313  11.245  0.5605  0.1485  0.1123
  866MPD2    H712719   1.432   3.305  11.315 -1.1905 -0.7978  1.7749
  867MPD2     C12720   2.128   2.339  16.237  0.0134  0.2594  0.6787
  867MPD2    C112721   2.203   2.282  16.335 -0.8189 -0.3241  0.0884
  867MPD2    C212722   2.254   2.368  16.425  0.0692  0.3650 -0.2306
  867MPD2    C312723   2.246   2.506  16.416 -0.4899  0.9455  0.1881
  867MPD2    C412724   2.173   2.558  16.311 -0.5423  1.0213  0.0456
  867MPD2    C512725   2.105   2.474  16.224 -0.9754 -0.1313  0.6945
  867MPD2     H12726   2.318   2.322  16.500  1.5350  1.0088 -1.0759
  867MPD2    H112727   2.158   2.665  16.298  0.7515  1.0933 -0.9129
  867MPD2    H212728   2.084   2.277  16.159  0.7271 -3.1210  2.9659
  867MPD2    H312729   2.037   2.518  16.152 -0.7266 -0.7690  0.0768
  867MPD2     N12730   2.313   2.589  16.509  0.5115 -0.0131 -0.0606
  867MPD2    H512731   2.303   2.690  16.505  0.2643 -0.0189  0.4428
  867MPD2    N112732   2.223   2.142  16.331 -0.3563 -0.3379 -0.2236
  867MPD2    H712733   2.196   2.098  16.243 -1.1169  0.9159 -0.6141
  868MPD2     C12734   0.045   1.797  13.290 -0.3691  0.0394 -0.5147
  868MPD2    C112735   0.034   1.662  13.333  0.8839 -0.1134  0.2800
  868MPD2    C212736   4.658   1.625  13.421  0.3394 -0.1355  0.7062
  868MPD2    C312737   4.575   1.725  13.466 -0.0903 -0.6681  0.1339
  868MPD2    C412738   4.587   1.857  13.430  0.0133 -0.4370 -0.1125
  868MPD2    C512739   4.680   1.888  13.330  0.0498  0.5798 -0.2019
  868MPD2     H12740   4.652   1.523  13.459 -0.1286 -0.3187  0.1333
  868MPD2    H112741   4.536   1.936  13.484 -0.3755 -0.9569  0.2757
  868MPD2    H212742   0.126   1.836  13.230 -0.3844  0.0411 -0.5344
  868MPD2    H312743   4.697   1.988  13.294 -1.4226  1.5098  1.6350
  868MPD2     N12744   4.486   1.680  13.567  0.3243  0.4776  0.5434
  868MPD2    H512745   4.497   1.585  13.600  1.6810  0.3956 -0.1285
  868MPD2    N112746   0.127   1.570  13.273 -0.1852 -0.3892 -0.1092
  868MPD2    H712747   0.177   1.608  13.193 -1.8747  0.3969 -0.7941
  869MPD2     C12748   4.592   3.987   1.603 -0.3864  0.0991  0.3541
  869MPD2    C112749   4.576   4.105   1.668  0.0384  0.0714  0.0819
  869MPD2    C212750   4.615   4.229   1.611  0.0881 -0.4714  0.1217
  869MPD2    C312751   4.655   4.231   1.475 -0.2501  0.9327 -0.1385
  869MPD2    C412752   4.672   4.107   1.413 -0.5494  0.5280  0.4363
  869MPD2    C512753   4.643   3.992   1.474 -0.5644 -0.4573 -0.0169
  869MPD2     H12754   4.583   4.320   1.660 -0.0461  0.3886 -1.5678
  869MPD2    H112755   4.690   4.094   1.307 -2.6367  1.2555 -0.0058
  869MPD2    H212756   4.559   3.892   1.644 -0.9662  0.2547  0.2513
  869MPD2    H312757   4.653   3.900   1.417 -1.6224  0.4232 -1.6031
  869MPD2     N12758   4.686   4.352   1.408 -0.1366 -0.2127  0.3481
  869MPD2    H512759   0.003   4.347   1.314 -1.8791  0.9556 -0.4519
  869MPD2    N112760   4.532   4.099   1.803  0.0876  0.0502  0.4523
  869MPD2    H712761   4.507   4.007   1.837 -3.3288  0.7390 -0.1948
  870MPD2     C12762   4.599   2.438   1.795  0.2499 -0.1274 -0.0842
  870MPD2    C112763   4.704   2.523   1.771 -0.0560  0.0091 -0.3040
  870MPD2    C212764   0.033   2.537   1.642 -0.2264  0.0824  0.4303
  870MPD2    C312765   4.699   2.465   1.534  0.1025 -0.3391  0.1887
  870MPD2    C412766   4.589   2.383   1.562  0.0671  0.2640 -0.3501
  870MPD2    C512767   4.545   2.368   1.693  0.8730  0.1478  0.1481
  870MPD2     H12768   0.109   2.614   1.631 -1.0633  0.8452 -0.0215
  870MPD2    H112769   4.533   2.335   1.483  1.2372  0.9150 -1.5789
  870MPD2    H212770   4.553   2.430   1.893  0.7107  1.3449  0.2388
  870MPD2    H312771   4.460   2.309   1.724  0.3782  0.1816 -1.1380
  870MPD2     N12772   0.033   2.475   1.408  0.4746  0.0325 -0.1486
  870MPD2    H512773   0.111   2.540   1.403 -2.3221  3.4122  0.2660
  870MPD2    N112774   0.042   2.586   1.884  0.3027 -0.0260  0.2728
  870MPD2    H712775   0.017   2.542   1.972  0.0502 -3.6849 -1.6313
  871MPD2     C12776   1.415   2.572  16.210 -0.1450 -0.4335  0.4274
  871MPD2    C112777   1.456   2.490  16.314  0.6204  0.0078 -0.0024
  871MPD2    C212778   1.477   2.359  16.293 -0.5123  0.4188 -0.0166
  871MPD2    C312779   1.448   2.300  16.174  0.4114  0.3890  0.4273
  871MPD2    C412780   1.405   2.383  16.076  0.6126 -0.8962  0.5712
  871MPD2    C512781   1.383   2.519  16.093  0.3963  0.0627 -0.2143
  871MPD2     H12782   1.520   2.305  16.377 -1.7767 -1.4680 -0.5581
  871MPD2    H112783   1.378   2.341  15.979 -2.1204  1.8985  0.1495
  871MPD2    H212784   1.409   2.679  16.219  0.6194 -0.5208  1.9590
  871MPD2    H312785   1.356   2.583  16.010 -3.0130 -1.1309 -0.0252
  871MPD2     N12786   1.451   2.160  16.152 -0.2447 -0.1067 -0.0897
  871MPD2    H512787   1.399   2.118  16.076 -0.0862 -0.2037 -0.1445
  871MPD2    N112788   1.478   2.553  16.440 -0.1669  0.4957 -0.5398
  871MPD2    H712789   1.465   2.654  16.439 -1.1027  0.3929  0.6972
  872MPD2     C12790   2.608   4.552  14.298  0.9860  0.5349  0.0656
  872MPD2    C112791   2.556   4.670  14.241  0.1663  0.7227 -0.5781
  872MPD2    C212792   2.451   0.013  14.306 -1.1985  0.3937  0.2680
  872MPD2    C312793   2.405   4.701  14.434 -0.3794 -0.0429 -0.5378
  872MPD2    C412794   2.456   4.589  14.499  0.5337  0.0067  0.1633
  872MPD2    C512795   2.568   4.529  14.430  0.0227 -0.2410  0.2917
  872MPD2     H12796   2.417   0.107  14.264  1.6231  1.7920  1.1036
  872MPD2    H112797   2.422   4.562  14.598  2.0375 -0.9808  0.4005
  872MPD2    H212798   2.674   4.489  14.241 -0.4384 -0.8655 -0.0296
  872MPD2    H312799   2.611   4.442  14.479  3.4103  0.5714 -1.2628
  872MPD2     N12800   2.311   0.061  14.512  0.5248  0.4592  0.7647
  872MPD2    H512801   2.292   0.025  14.605 -0.6444  0.8444  0.6731
  872MPD2    N112802   2.607   4.717  14.114  0.3325 -0.8762 -0.4826
  872MPD2    H712803   2.577   0.090  14.092 -4.5425 -2.3951 -0.4763
  873MPD2     C12804   4.305   0.469   1.840  0.2048  0.1728 -0.1765
  873MPD2    C112805   4.211   0.444   1.745  0.7247  0.0299  0.2972
  873MPD2    C212806   4.218   0.320   1.688  0.9593 -0.3907  0.0424
  873MPD2    C312807   4.314   0.229   1.724 -0.2744  0.2286 -0.1298
  873MPD2    C412808   4.421   0.274   1.794 -0.1054 -0.4095 -0.0221
  873MPD2    C512809   4.410   0.385   1.862  0.0249 -0.8516 -0.9962
  873MPD2     H12810   4.138   0.293   1.619  1.2653 -1.2934  0.0390
  873MPD2    H112811   4.508   0.211   1.807  1.7533  2.5095  1.7106
  873MPD2    H212812   4.296   0.555   1.906 -0.4373  0.5266 -0.7238
  873MPD2    H312813   4.485   0.415   1.934  1.2767  0.6302 -2.9373
  873MPD2     N12814   4.332   0.100   1.674  0.5272  0.0263 -0.2143
  873MPD2    H512815   4.418   0.051   1.698 -1.0624 -1.8670  1.6460
  873MPD2    N112816   4.109   0.542   1.727  0.4670  0.3576 -0.3708
  873MPD2    H712817   4.110   0.634   1.769 -1.5469  0.4105 -0.4128
  874MPD2     C12818   3.475   0.304  16.456  0.3487  0.7704  0.0258
  874MPD2    C112819   3.563   0.244  16.545  0.1177 -0.4259 -0.1532
  874MPD2    C212820   3.691   0.276  16.533 -0.5119  0.3395 -0.1238
  874MPD2    C312821   3.741   0.378  16.460 -0.2262 -0.6717  0.3486
  874MPD2    C412822   3.654   0.422  16.362 -0.0531 -0.4110 -0.5941
  874MPD2    C512823   3.519   0.390  16.356  0.2837 -0.1466  0.1250
  874MPD2     H12824   3.761   0.224  16.597 -3.0905 -1.1228  1.4889
  874MPD2    H112825   3.683   0.497  16.289 -1.7951 -1.9055 -2.8442
  874MPD2    H212826   3.370   0.279  16.461  1.0342 -1.6470  2.4958
  874MPD2    H312827   3.444   0.432  16.291  2.5663  0.7571 -1.9296
  874MPD2     N12828   3.878   0.411  16.458  0.0483 -0.1967 -1.0030
  874MPD2    H512829   3.938   0.372  16.531 -0.1326 -0.2902 -0.9026
  874MPD2    N112830   3.510   0.147  16.636  0.6602  0.2350 -0.1303
  874MPD2    H712831   3.420   0.105  16.613  0.0657  1.3497  0.1576
  875MPD2     C12832   0.609   3.461  14.760  0.3345 -0.9611 -0.3411
  875MPD2    C112833   0.493   3.408  14.816  0.1688  0.5178 -0.9412
  875MPD2    C212834   0.463   3.465  14.937 -0.5257 -0.5075 -0.1763
  875MPD2    C312835   0.545   3.551  15.006  0.6232  0.0279 -0.3772
  875MPD2    C412836   0.652   3.607  14.945  0.0865  0.0594 -0.6884
  875MPD2    C512837   0.672   3.567  14.814  0.4446  0.0693 -0.1129
  875MPD2     H12838   0.382   3.416  14.990 -0.8302  2.4153  2.0313
  875MPD2    H112839   0.712   3.684  14.993 -0.7940  0.8682 -0.8737
  875MPD2    H212840   0.629   3.425  14.660 -1.7711  0.5869 -1.3218
  875MPD2    H312841   0.759   3.604  14.760 -0.9223  1.3808 -1.3966
  875MPD2     N12842   0.530   3.586  15.140  0.1365 -0.3318  0.0837
  875MPD2    H512843   0.595   3.656  15.173  1.0775 -0.6050 -1.1655
  875MPD2    N112844   0.424   3.305  14.764 -0.3780  0.4834 -0.0635
  875MPD2    H712845   0.342   3.283  14.819  1.3126 -0.7290  1.9587
  876MPD2     C12846   3.365   4.385  16.332  0.3680 -0.1340 -0.5276
  876MPD2    C112847   3.495   4.427  16.330 -0.4551 -0.0421  0.2048
  876MPD2    C212848   3.591   4.334  16.359 -0.4951 -0.4260 -0.4732
  876MPD2    C312849   3.567   4.200  16.358  0.2880 -0.7771  0.6261
  876MPD2    C412850   3.436   4.155  16.354  0.0681  0.5016 -0.0409
  876MPD2    C512851   3.335   4.247  16.343  0.3476 -0.5240  0.4894
  876MPD2     H12852   3.693   4.369  16.373  0.2724 -3.1527  0.7555
  876MPD2    H112853   3.416   4.048  16.351  1.3513  0.2854 -0.5739
  876MPD2    H212854   3.289   4.462  16.330 -0.0551 -0.5279  0.2414
  876MPD2    H312855   3.234   4.208  16.346  0.3597 -0.7162 -1.3678
  876MPD2     N12856   3.677   4.111  16.356 -0.6142 -0.3612  0.7935
  876MPD2    H512857   3.770   4.151  16.347  0.0295 -2.0769 -0.3596
  876MPD2    N112858   3.517   4.568  16.308  0.1184 -0.0322  0.2623
  876MPD2    H712859   3.438   4.629  16.289  0.8294  1.7533  2.9538
  877MPD2     C12860   3.482   0.055  15.592 -0.4343 -0.3401 -0.4025
  877MPD2    C112861   3.612   0.067  15.627 -0.1224  0.8659  0.1433
  877MPD2    C212862   3.701   0.079  15.526 -0.2280 -0.0920 -0.6224
  877MPD2    C312863   3.661   0.076  15.393 -0.2392 -0.5282 -0.3961
  877MPD2    C412864   3.526   0.072  15.360  0.1048 -0.0556 -0.4620
  877MPD2    C512865   3.437   0.055  15.464  0.9554 -0.4074 -0.1204
  877MPD2     H12866   3.805   0.085  15.556 -0.2625  0.6354 -0.6580
  877MPD2    H112867   3.498   0.066  15.255  2.3546  1.6329 -1.1604
  877MPD2    H212868   3.401   0.037  15.662  0.4337 -1.0308  0.4293
  877MPD2    H312869   3.330   0.041  15.453  0.7076 -2.2674  4.5593
  877MPD2     N12870   3.750   0.067  15.288  0.3000 -0.6973  0.2645
  877MPD2    H512871   3.713   0.074  15.194 -0.2616  1.6939  0.6615
  877MPD2    N112872   3.658   0.069  15.761 -0.5520  0.2807  0.8013
  877MPD2    H712873   3.753   0.099  15.781  0.2225 -1.0229 -0.9445
  878MPD2     C12874   4.370   4.434  13.351 -0.0570  0.0168 -0.5905
  878MPD2    C112875   4.282   4.459  13.450  0.0274  0.2667 -0.3276
  878MPD2    C212876   4.311   4.440  13.580 -0.2858  0.2060  0.3541
  878MPD2    C312877   4.437   4.393  13.612 -0.2533  0.2923  0.3206
  878MPD2    C412878   4.531   4.377  13.514 -0.2358  1.1018  0.3767
  878MPD2    C512879   4.498   4.407  13.384 -0.0154  0.2497  0.7865
  878MPD2     H12880   4.240   4.465  13.657 -1.6705 -1.2892 -0.4281
  878MPD2    H112881   4.638   4.365  13.531 -0.5926  0.6632  2.2653
  878MPD2    H212882   4.352   4.452  13.246 -2.0121 -0.0553 -0.2659
  878MPD2    H312883   4.573   4.403  13.306 -0.5393  2.2292  0.1959
  878MPD2     N12884   4.466   4.400  13.747  0.0146 -0.5601 -0.2451
  878MPD2    H512885   4.394   4.433  13.810 -1.1680 -2.6982 -0.4873
  878MPD2    N112886   4.152   4.506  13.410  0.3158 -0.3655 -0.7336
  878MPD2    H712887   4.120   4.494  13.314 -0.6280  2.1185 -0.7356
  879MPD2     C12888   4.171   1.317  17.003 -0.6341 -0.1798 -0.3184
  879MPD2    C112889   4.113   1.244  17.107 -0.2169 -0.1276  0.8035
  879MPD2    C212890   4.056   1.120  17.081  0.2225  0.7340 -0.0689
  879MPD2    C312891   4.041   1.087  16.950 -0.1087  0.0575 -0.2435
  879MPD2    C412892   4.091   1.168  16.841 -0.4426  0.2022 -0.0370
  879MPD2    C512893   4.154   1.282  16.875 -0.1525  0.3410 -0.2911
  879MPD2     H12894   4.009   1.058  17.156  2.1298 -0.6877 -0.0446
  879MPD2    H112895   4.080   1.141  16.737 -3.5084  1.4732 -0.0624
  879MPD2    H212896   4.214   1.415  17.019  0.6577 -1.0078  1.3391
  879MPD2    H312897   4.217   1.330  16.801  0.4026 -1.6989 -1.1527
  879MPD2     N12898   3.967   0.971  16.906 -0.4826  0.0416  0.1926
  879MPD2    H512899   3.962   0.952  16.807 -0.6306  1.0768  0.0009
  879MPD2    N112900   4.133   1.299  17.233 -0.2287 -0.3670 -0.0017
  879MPD2    H712901   4.189   1.383  17.239 -0.6018 -0.2137  1.3753
  880MPD2     C12902   1.622   2.965   0.611  0.6655 -0.5936 -0.4361
  880MPD2    C112903   1.549   2.859   0.667  0.2395 -0.9633 -1.3418
  880MPD2    C212904   1.621   2.743   0.699  0.1904 -0.4866  0.2723
  880MPD2    C312905   1.762   2.736   0.670 -0.0594  0.1118  0.7108
  880MPD2    C412906   1.831   2.845   0.620  0.6502 -0.7669 -0.5498
  880MPD2    C512907   1.760   2.957   0.587 -0.0722  0.2825 -0.5639
  880MPD2     H12908   1.572   2.663   0.753  0.0679 -1.1282 -0.7890
  880MPD2    H112909   1.938   2.849   0.605  0.8257  2.1660  1.5413
  880MPD2    H212910   1.574   3.059   0.587  0.8334 -0.8477 -1.7591
  880MPD2    H312911   1.824   3.040   0.561  0.0797  0.2084 -0.4300
  880MPD2     N12912   1.831   2.620   0.704  0.3833  0.2521 -0.4914
  880MPD2    H512913   1.777   2.562   0.767  1.6850 -0.0526  0.3204
  880MPD2    N112914   1.408   2.877   0.677 -0.0864  0.0573  0.4078
  880MPD2    H712915   1.370   2.966   0.645  0.2734 -0.2787 -0.9428
  881MPD2     C12916   0.722   3.270   0.126 -0.9056 -0.3669  0.1445
  881MPD2    C112917   0.836   3.198   0.103  0.4274  0.4101  0.0274
  881MPD2    C212918   0.876   3.100   0.191 -0.4349 -0.1119 -0.3268
  881MPD2    C312919   0.808   3.096   0.318 -0.0463 -0.1799  0.6053
  881MPD2    C412920   0.697   3.172   0.337  0.3158 -0.3129 -0.6828
  881MPD2    C512921   0.648   3.252   0.239  0.8146  0.1188 -0.2022
  881MPD2     H12922   0.956   3.031   0.169  1.1511  0.4669  3.6438
  881MPD2    H112923   0.630   3.153   0.420  0.5047 -1.3755 -0.7688
  881MPD2    H212924   0.671   3.321   0.046  0.0960  0.5374  0.0823
  881MPD2    H312925   0.552   3.301   0.249  0.3233 -1.0549  0.8109
  881MPD2     N12926   0.856   3.022   0.424  0.6479 -0.1533  0.7496
  881MPD2    H512927   0.800   3.010   0.508  0.7857 -0.5101  0.7910
  881MPD2    N112928   0.874   3.193  17.656 -0.5534  0.2319  0.2503
  881MPD2    H712929   0.829   3.263  17.597  0.0089  1.7903  1.6942
  882MPD2     C12930   3.866   4.453  14.602  0.3132 -0.1934  0.6549
  882MPD2    C112931   3.816   4.567  14.653  0.0992 -0.0788 -0.2638
  882MPD2    C212932   3.687   4.610  14.601 -0.8227  0.5118 -0.2082
  882MPD2    C312933   3.617   4.529  14.507  0.4095  0.4611 -0.0782
  882MPD2    C412934   3.670   4.407  14.468 -0.2556  0.2585  0.3131
  882MPD2    C512935   3.797   4.380  14.512 -0.2403 -0.3109  0.2785
  882MPD2     H12936   3.654   4.710  14.627  0.4099  0.2385  2.3806
  882MPD2    H112937   3.621   4.331  14.408  1.6394 -0.5640 -0.2014
  882MPD2    H212938   3.952   4.403  14.646 -0.4245 -0.8885  1.3252
  882MPD2    H312939   3.841   4.289  14.473  0.8009 -0.1253  0.9945
  882MPD2     N12940   3.496   4.567  14.447 -0.4498 -0.5402 -0.6327
  882MPD2    H512941   3.453   4.503  14.381 -0.6508 -0.6102 -0.4376
  882MPD2    N112942   3.893   4.642  14.744  0.3711  0.0412  0.0617
  882MPD2    H712943   3.977   4.594  14.777 -0.0232  0.3572  1.5194
  883MPD2     C12944   1.346   0.567  15.941 -0.1764  0.2911  0.0861
  883MPD2    C112945   1.321   0.529  16.072  0.0330  0.6640 -0.2289
  883MPD2    C212946   1.430   0.493  16.150 -0.8570 -0.6378  0.7336
  883MPD2    C312947   1.556   0.495  16.095 -0.2454  0.0005  0.8333
  883MPD2    C412948   1.575   0.539  15.967 -0.0898  0.7823 -0.2631
  883MPD2    C512949   1.469   0.563  15.881 -0.7605 -0.2823  0.6369
  883MPD2     H12950   1.408   0.471  16.253 -1.3557 -0.0348  0.7583
  883MPD2    H112951   1.673   0.540  15.920  0.9220  0.9655  1.7992
  883MPD2    H212952   1.267   0.609  15.881 -0.4247  2.4116  1.8828
  883MPD2    H312953   1.485   0.587  15.776  2.2711 -0.2593  1.0863
  883MPD2     N12954   1.665   0.479  16.179  0.5433  0.2802 -0.0928
  883MPD2    H512955   1.654   0.464  16.279  0.7472 -1.2406 -0.2988
  883MPD2    N112956   1.199   0.545  16.137 -0.1592  0.2476  0.1295
  883MPD2    H712957   1.191   0.513  16.233 -0.4585 -1.8921 -0.6240
  884MPD2     C12958   2.844   1.302  15.505  0.5038 -0.9606  0.5388
  884MPD2    C112959   2.844   1.329  15.368  0.3043 -0.5258 -0.2403
  884MPD2    C212960   2.754   1.424  15.320  0.6802 -0.5129  0.6019
  884MPD2    C312961   2.665   1.483  15.401 -0.0639 -0.4301  0.3598
  884MPD2    C412962   2.670   1.457  15.539  0.1601  0.7303  0.0773
  884MPD2    C512963   2.759   1.367  15.587 -0.1165 -0.6556  0.1920
  884MPD2     H12964   2.743   1.457  15.217  0.6811  0.7644  1.0145
  884MPD2    H112965   2.600   1.499  15.611  0.9590  0.1491  1.1819
  884MPD2    H212966   2.905   1.226  15.553  1.2161 -0.2612  0.7483
  884MPD2    H312967   2.765   1.340  15.691  0.2531 -0.3947  0.2368
  884MPD2     N12968   2.555   1.539  15.346  0.4300 -0.1984  0.0929
  884MPD2    H512969   2.554   1.539  15.245 -1.6169  2.0437  0.1067
  884MPD2    N112970   2.943   1.266  15.286  0.2735  0.6232 -0.0898
  884MPD2    H712971   3.023   1.214  15.320  0.0471  0.0200 -0.4699
  885MPD2     C12972   1.287   1.344   0.635  0.1311 -0.0039 -0.3369
  885MPD2    C112973   1.280   1.210   0.591  0.5440  0.0881 -0.4261
  885MPD2    C212974   1.236   1.184   0.458 -0.5757  0.5331 -0.0221
  885MPD2    C312975   1.198   1.283   0.373 -0.1499 -0.7163  1.1668
  885MPD2    C412976   1.212   1.414   0.415  0.4114  0.3064  0.5588
  885MPD2    C512977   1.247   1.442   0.547  0.4989  0.5589  0.6162
  885MPD2     H12978   1.241   1.090   0.405  0.9015  1.0441 -0.7734
  885MPD2    H112979   1.195   1.493   0.343  1.3053 -0.1205 -0.1284
  885MPD2    H212980   1.312   1.374   0.736  1.0467  0.1284 -0.6036
  885MPD2    H312981   1.238   1.546   0.575 -1.6773  0.0675  1.7132
  885MPD2     N12982   1.162   1.251   0.238  0.3556  0.3011  0.0785
  885MPD2    H512983   1.185   1.157   0.208  0.4205  0.0894  0.7865
  885MPD2    N112984   1.329   1.112   0.684  0.3806  0.3400 -0.4754
  885MPD2    H712985   1.370   1.144   0.772  1.7251 -2.0200 -0.2618
  886MPD2     C12986   2.801   3.978  15.180 -0.2512  0.3548  0.6708
  886MPD2    C112987   2.820   4.049  15.296 -0.0697  0.0007  0.5395
  886MPD2    C212988   2.777   4.181  15.294 -0.0935  0.1155 -0.2338
  886MPD2    C312989   2.711   4.239  15.182 -0.1948 -0.4532  0.3606
  886MPD2    C412990   2.685   4.157  15.075  0.3029 -0.7127  0.2300
  886MPD2    C512991   2.734   4.024  15.074  0.0990  0.0092 -0.5186
  886MPD2     H12992   2.818   4.245  15.372 -1.0271 -1.2360  1.3584
  886MPD2    H112993   2.638   4.189  14.983 -0.5339  0.6464  1.1295
  886MPD2    H212994   2.822   3.874  15.159  1.8056  0.6824  1.0629
  886MPD2    H312995   2.716   3.962  14.987 -2.8142 -0.1434  0.1795
  886MPD2     N12996   2.673   4.376  15.173  0.8563 -0.0239  0.2012
  886MPD2    H512997   2.649   4.416  15.083 -1.6555  0.5129  1.1078
  886MPD2    N112998   2.886   4.005  15.416  0.2564  0.3668  0.7669
  886MPD2    H712999   2.889   4.058  15.502 -1.6450 -0.1438  1.1597
  887MPD2     C13000   3.065   4.256  16.064  0.1741  0.3778 -0.0590
  887MPD2    C113001   3.077   4.268  15.925  0.9109  0.4880 -0.3584
  887MPD2    C213002   3.103   4.388  15.858 -0.2599 -0.1086 -0.3435
  887MPD2    C313003   3.108   4.501  15.944  0.8235  0.8275 -0.0503
  887MPD2    C413004   3.085   4.493  16.082 -0.4594 -0.0410  0.3860
  887MPD2    C513005   3.074   4.371  16.137 -0.2442  0.1017 -0.4503
  887MPD2     H13006   3.105   4.402  15.750  1.9450 -1.7839 -0.5185
  887MPD2    H113007   3.064   4.569  16.155 -2.1350 -1.6297  1.5464
  887MPD2    H213008   3.060   4.167  16.126 -1.3625 -0.2958 -1.1397
  887MPD2    H313009   3.075   4.361  16.245  0.2566  1.3485 -0.3403
  887MPD2     N13010   3.120   4.628  15.880 -0.0620 -0.1545 -0.4534
  887MPD2    H513011   3.106   4.627  15.779  2.2594  0.3724 -0.7800
  887MPD2    N113012   3.061   4.151  15.846  0.4334 -0.0859 -0.4992
  887MPD2    H713013   3.092   4.161  15.750 -0.9459 -0.2706 -0.9596
  888MPD2     C13014   0.227   4.531  14.928 -0.1592  0.2746  0.8945
  888MPD2    C113015   0.304   4.537  15.044 -0.3589  0.2548  0.3368
  888MPD2    C213016   0.400   4.634  15.049 -0.0644  0.0272 -0.2322
  888MPD2    C313017   0.420   0.000  14.948 -0.4815  0.2955 -0.0920
  888MPD2    C413018   0.357   4.708  14.829  0.4421 -0.1154  0.0867
  888MPD2    C513019   0.260   4.613  14.823  0.5995  0.0682 -0.9023
  888MPD2     H13020   0.451   4.647  15.144 -0.1496  0.3987 -0.2364
  888MPD2    H113021   0.386   0.045  14.742  1.1508 -0.5706  0.0144
  888MPD2    H213022   0.162   4.451  14.896  0.2393  0.8891 -1.4086
  888MPD2    H313023   0.221   4.595  14.723 -2.6321 -1.7434  0.7058
  888MPD2     N13024   0.507   0.107  14.982  0.8591 -0.1063  0.0855
  888MPD2    H513025   0.531   0.106  15.080  2.3261  1.3989 -0.2634
  888MPD2    N113026   0.284   4.441  15.151 -0.0844 -0.0735 -0.1158
  888MPD2    H713027   0.353   4.442  15.225 -1.5813 -0.7078  1.2960
  889MPD2     C13028   4.714   4.018  12.705 -0.3154 -0.6811 -0.7462
  889MPD2    C113029   4.610   4.027  12.793  0.4028 -0.2547  0.1053
  889MPD2    C213030   4.544   4.146  12.796 -0.6269  0.4686  0.4701
  889MPD2    C313031   4.558   4.234  12.691 -0.6781 -0.0938 -0.0549
  889MPD2    C413032   4.644   4.210  12.587  0.4748 -0.5676  0.0356
  889MPD2    C513033   0.003   4.101  12.599  0.0629 -0.4232  0.6585
  889MPD2     H13034   4.468   4.148  12.872 -0.8483 -0.4350  0.2744
  889MPD2    H113035   4.644   4.269  12.497  1.5102  0.3300  0.6274
  889MPD2    H213036   0.042   3.924  12.686  1.6566  1.1486 -4.4308
  889MPD2    H313037   0.077   4.075  12.525  0.4482  0.1150  0.8534
  889MPD2     N13038   4.463   4.341  12.690  0.0999 -0.2556  0.0563
  889MPD2    H513039   4.398   4.348  12.767  1.1880  5.0846  0.5147
  889MPD2    N113040   4.598   3.940  12.910 -0.9521  0.0688  0.3182
  889MPD2    H713041   4.533   3.965  12.984 -1.2341  2.1713 -0.6407
  890MPD2     C13042   3.689   1.087  14.922  0.1343  0.0269  0.2052
  890MPD2    C113043   3.816   1.065  14.867 -0.3535  0.1359  0.4702
  890MPD2    C213044   3.863   0.935  14.851 -0.5590  0.6617  0.2852
  890MPD2    C313045   3.778   0.829  14.898  0.6015  0.5353 -0.3635
  890MPD2    C413046   3.658   0.857  14.960 -0.1737 -0.2475  0.0284
  890MPD2    C513047   3.613   0.983  14.969 -0.4788 -0.3874  0.1825
  890MPD2     H13048   3.959   0.927  14.802 -0.9372  0.3081 -0.4054
  890MPD2    H113049   3.598   0.784  15.011 -0.0293  0.0720  0.6544
  890MPD2    H213050   3.648   1.187  14.933  0.3047  0.2597 -1.2325
  890MPD2    H313051   3.511   1.000  15.001 -0.2248  0.3678  0.5922
  890MPD2     N13052   3.834   0.701  14.887  0.0004  0.2263  0.4417
  890MPD2    H513053   3.930   0.700  14.855 -0.1259 -0.6608  0.0961
  890MPD2    N113054   3.881   1.181  14.825  0.0840 -0.7624  0.1102
  890MPD2    H713055   3.852   1.270  14.864  0.2309 -2.2974  3.7325
  891MPD2     C13056   2.118   4.556  17.175 -0.0572  1.0636  0.6094
  891MPD2    C113057   2.067   4.449  17.101  0.4345 -0.8578  0.3352
  891MPD2    C213058   2.108   4.321  17.130 -0.1798  0.4339  0.0553
  891MPD2    C313059   2.203   4.300  17.229 -0.4222 -0.3602  0.6915
  891MPD2    C413060   2.251   4.412  17.303  0.2323 -0.4046 -0.1689
  891MPD2    C513061   2.211   4.535  17.268 -0.4907  0.4183  0.2186
  891MPD2     H13062   2.068   4.233  17.082 -0.0009  1.1748 -1.4605
  891MPD2    H113063   2.333   4.412  17.374 -0.2055  0.5411  0.3363
  891MPD2    H213064   2.084   4.655  17.145  0.3477  1.9602  3.1698
  891MPD2    H313065   2.257   4.622  17.314  1.8665 -0.2155 -0.9296
  891MPD2     N13066   2.249   4.168  17.247  0.2276 -0.6885  0.2677
  891MPD2    H513067   2.195   4.092  17.208 -1.6013  1.2176 -0.8936
  891MPD2    N113068   1.981   4.482  16.993  0.3936  0.3739  0.0058
  891MPD2    H713069   1.959   4.581  16.989 -1.5796 -0.2565 -4.1181
  892MPD2     C13070   3.050   0.754  14.271  0.1332  0.0713 -0.2656
  892MPD2    C113071   2.975   0.663  14.194 -0.8088  0.2718 -0.3989
  892MPD2    C213072   3.021   0.531  14.187  0.8212  0.1762  0.1839
  892MPD2    C313073   3.129   0.485  14.257  0.2788 -0.3242  0.0022
  892MPD2    C413074   3.204   0.577  14.323  0.4068  0.1987 -0.4589
  892MPD2    C513075   3.169   0.710  14.326  0.3861 -0.2201  0.5641
  892MPD2     H13076   2.952   0.462  14.139 -0.7799  1.8321  0.0826
  892MPD2    H113077   3.296   0.550  14.373 -0.6161  1.1818  1.9640
  892MPD2    H213078   3.025   0.858  14.288  2.9325  0.7660 -0.4434
  892MPD2    H313079   3.232   0.780  14.379  0.8088  0.1479 -0.4214
  892MPD2     N13080   3.164   0.350  14.268 -0.5421 -0.0891 -0.1486
  892MPD2    H513081   3.254   0.335  14.313 -0.0459  1.0551 -0.7425
  892MPD2    N113082   2.856   0.692  14.130 -0.1424 -0.4934 -0.2177
  892MPD2    H713083   2.805   0.612  14.094  0.0619 -0.8850  0.3485
  893MPD2     C13084   4.413   2.669   1.375 -0.3697  0.1181  0.6606
  893MPD2    C113085   4.412   2.717   1.502  0.5524  0.4447 -0.6236
  893MPD2    C213086   4.325   2.652   1.592 -1.4364 -0.1684 -0.8808
  893MPD2    C313087   4.249   2.538   1.559 -0.3519 -0.1118 -0.2729
  893MPD2    C413088   4.247   2.500   1.429  0.1390 -0.0736 -0.0009
  893MPD2    C513089   4.326   2.565   1.336  0.8428  0.8414  0.5693
  893MPD2     H13090   4.317   2.695   1.691  0.0192 -1.9553  0.0118
  893MPD2    H113091   4.176   2.422   1.400  0.9575 -0.7548 -0.1782
  893MPD2    H213092   4.467   2.710   1.291  0.3093  0.4654  1.2636
  893MPD2    H313093   4.321   2.522   1.237  1.2863 -0.8068  1.2554
  893MPD2     N13094   4.173   2.462   1.646  0.9062  0.0994 -0.3657
  893MPD2    H513095   4.128   2.378   1.611  0.6032 -0.0654  0.4366
  893MPD2    N113096   4.502   2.819   1.539  0.3004 -0.6384 -0.3996
  893MPD2    H713097   4.575   2.838   1.471 -1.1156  0.1408 -1.6978
  894MPD2     C13098   2.711   1.061   0.794 -0.0266  0.4456 -0.0286
  894MPD2    C113099   2.708   1.069   0.934  0.2286 -0.9221 -0.1715
  894MPD2    C213100   2.702   1.192   0.982 -0.1994 -0.2253  0.1772
  894MPD2    C313101   2.721   1.301   0.898  0.1457  0.5322 -0.0352
  894MPD2    C413102   2.731   1.293   0.758  0.6004 -0.1934 -0.4147
  894MPD2    C513103   2.720   1.168   0.714 -0.2327 -0.1141  0.4304
  894MPD2     H13104   2.688   1.207   1.088  2.1372  2.1485  0.1574
  894MPD2    H113105   2.759   1.366   0.683 -0.0357 -0.4165 -0.8667
  894MPD2    H213106   2.707   0.960   0.754  0.4769 -0.2520  1.6866
  894MPD2    H313107   2.730   1.160   0.606 -0.5113 -0.6013  0.4366
  894MPD2     N13108   2.729   1.423   0.963  0.1043 -0.4809  0.2708
  894MPD2    H513109   2.703   1.421   1.062  0.9402  1.2301  0.5343
  894MPD2    N113110   2.685   0.959   1.025 -0.2330  0.6934 -0.8598
  894MPD2    H713111   2.660   0.983   1.121  0.3396 -0.7667 -0.3449
  895MPD2     C13112   2.215   4.524  13.922  0.1328 -0.0416  0.0573
  895MPD2    C113113   2.160   4.419  13.843 -0.5200 -0.0440 -0.3318
  895MPD2    C213114   2.234   4.308  13.825 -0.2725  1.0980 -0.3015
  895MPD2    C313115   2.363   4.292  13.869 -0.2570 -0.3807 -0.7274
  895MPD2    C413116   2.418   4.393  13.939  0.5533  0.4814  0.2566
  895MPD2    C513117   2.346   4.507  13.975 -0.5660 -0.1093 -0.0001
  895MPD2     H13118   2.189   4.243  13.750  0.3889 -0.2341  0.4667
  895MPD2    H113119   2.517   4.402  13.983  0.0850 -1.6781  1.6922
  895MPD2    H213120   2.161   4.614  13.948 -1.6496 -1.1121  0.0810
  895MPD2    H313121   2.396   4.587  14.030  1.1765 -0.5018 -1.0290
  895MPD2     N13122   2.426   4.178  13.815 -0.3287  0.4480  0.0779
  895MPD2    H513123   2.368   4.118  13.758  0.4773 -0.5658  0.3381
  895MPD2    N113124   2.037   4.419  13.776 -0.1409  0.0776 -0.0935
  895MPD2    H713125   2.022   4.348  13.705  1.7254 -2.0940  1.6430
  896MPD2     C13126   4.203   1.992   1.854 -0.0429  0.9104 -0.4443
  896MPD2    C113127   4.205   1.967   1.719  0.1469  1.1351  0.5260
  896MPD2    C213128   4.091   1.917   1.661  0.4317 -1.3644  0.0268
  896MPD2    C313129   3.973   1.909   1.738 -1.2075 -0.5190 -0.5557
  896MPD2    C413130   3.978   1.934   1.875 -0.6037  0.7465 -0.6060
  896MPD2    C513131   4.097   1.963   1.932 -1.2812 -0.7632 -0.0047
  896MPD2     H13132   4.082   1.905   1.554  1.4470  0.6692 -0.2866
  896MPD2    H113133   3.892   1.926   1.941  0.7131 -1.2967  0.8750
  896MPD2    H213134   4.293   2.037   1.896  0.1566 -0.5877  0.7469
  896MPD2    H313135   4.107   1.976   2.039 -1.0916 -0.6037 -0.0428
  896MPD2     N13136   3.856   1.855   1.671  0.0900  0.1678 -0.0283
  896MPD2    H513137   3.856   1.848   1.570  0.0818  2.0176 -0.1509
  896MPD2    N113138   4.328   1.994   1.653  0.0819 -0.3434  0.2259
  896MPD2    H713139   4.404   2.016   1.717  0.6171  0.3971 -0.6574
  897MPD2     C13140   1.306   3.949  10.287 -0.5160 -0.0379 -0.8437
  897MPD2    C113141   1.284   4.065  10.362 -0.7835  0.7640  0.4038
  897MPD2    C213142   1.207   4.058  10.478  0.2032 -0.0135 -0.1366
  897MPD2    C313143   1.151   3.934  10.514  0.5633 -0.8222 -0.0052
  897MPD2    C413144   1.175   3.817  10.435 -0.2760  0.3817  0.5500
  897MPD2    C513145   1.262   3.826  10.330 -0.4147 -0.5156 -0.7597
  897MPD2     H13146   1.172   4.148  10.528 -0.0688 -0.2053  0.0184
  897MPD2    H113147   1.129   3.723  10.462  1.2836 -0.7765 -0.8672
  897MPD2    H213148   1.366   3.958  10.198 -0.6425 -0.6471 -0.9921
  897MPD2    H313149   1.266   3.743  10.260  0.7582 -1.6956  0.7111
  897MPD2     N13150   1.058   3.938  10.625  0.1480  0.0166 -0.3714
  897MPD2    H513151   1.036   4.024  10.673  1.9559  0.7497 -0.8848
  897MPD2    N113152   1.349   4.183  10.317  0.1480  0.7917  1.3600
  897MPD2    H713153   1.422   4.168  10.248 -0.4008 -1.4445  1.2554
  898MPD2     C13154   3.472   4.404   0.298  1.0367 -0.3798 -0.5197
  898MPD2    C113155   3.362   4.460   0.354 -0.4913 -0.0616 -0.0341
  898MPD2    C213156   3.257   4.485   0.273 -0.3255  0.1804  0.1996
  898MPD2    C313157   3.252   4.429   0.145 -0.3877 -0.0695  0.2252
  898MPD2    C413158   3.355   4.357   0.098  0.1103  0.1286  0.1624
  898MPD2    C513159   3.471   4.349   0.173 -0.2187 -0.7297  0.2436
  898MPD2     H13160   3.170   4.537   0.311  0.3122  0.4487  1.2902
  898MPD2    H113161   3.349   4.324  17.684 -3.4471 -2.9070  1.3334
  898MPD2    H213162   3.563   4.389   0.355 -0.5123 -0.3660  1.9504
  898MPD2    H313163   3.562   4.295   0.148  0.4755  1.0605 -1.1245
  898MPD2     N13164   3.136   4.456   0.071 -0.1315  0.3156 -0.0189
  898MPD2    H513165   3.073   4.524   0.112 -1.1032 -0.1898 -0.6532
  898MPD2    N113166   3.349   4.501   0.489  0.4613 -0.4107 -0.3495
  898MPD2    H713167   3.276   4.565   0.519  1.7027  0.0049  1.7419
  899MPD2     C13168   3.821   0.623  17.354 -0.4053 -0.2960  0.2010
  899MPD2    C113169   3.696   0.685  17.338  0.7097  0.1065  0.0603
  899MPD2    C213170   3.595   0.662  17.426  0.1693 -0.1826 -0.1009
  899MPD2    C313171   3.625   0.584  17.538 -0.1291  0.1572  1.0647
  899MPD2    C413172   3.746   0.527  17.559  0.1999  0.0850  0.1830
  899MPD2    C513173   3.845   0.548  17.468 -0.1342  0.1643 -0.2004
  899MPD2     H13174   3.511   0.730  17.423 -0.4391 -0.8634  1.1152
  899MPD2    H113175   3.764   0.459  17.641 -0.2070 -0.6415 -0.3321
  899MPD2    H213176   3.911   0.650  17.299 -0.7663 -0.7624 -0.6168
  899MPD2    H313177   3.944   0.504  17.478  0.8680  2.3101 -0.6917
  899MPD2     N13178   3.539   0.595  17.658 -0.5363 -0.2575  0.4874
  899MPD2    H513179   3.574   0.550   0.053  0.3646  1.1508  0.8707
  899MPD2    N113180   3.680   0.789  17.240 -0.1074 -0.7916  0.0775
  899MPD2    H713181   3.765   0.814  17.191 -0.2418 -0.9523 -0.2375
  900MPD2     C13182   3.137   2.299  12.296 -0.2057 -0.4716  0.0907
  900MPD2    C113183   3.130   2.177  12.233  0.5931  0.5581 -0.1268
  900MPD2    C213184   3.054   2.166  12.113 -0.0679 -0.2344 -1.4912
  900MPD2    C313185   2.999   2.279  12.053  0.0624 -0.3302 -0.4414
  900MPD2    C413186   3.006   2.398  12.125  0.6032  0.2933 -0.3435
  900MPD2    C513187   3.067   2.406  12.245  0.0862  0.9358 -0.3396
  900MPD2     H13188   3.055   2.070  12.063  0.9209 -1.3322  0.5827
  900MPD2    H113189   2.962   2.491  12.089 -0.0803 -0.3320 -1.1394
  900MPD2    H213190   3.198   2.318  12.384 -0.3404 -0.0559  0.0933
  900MPD2    H313191   3.081   2.499  12.299  1.4071  0.2169  0.5513
  900MPD2     N13192   2.930   2.269  11.929  0.1540 -0.0161  0.2142
  900MPD2    H513193   2.924   2.175  11.891 -2.5564 -0.6447  2.2774
  900MPD2    N113194   3.186   2.070  12.306  0.0797 -0.0880  0.3980
  900MPD2    H713195   3.248   2.087  12.385 -1.2610  0.9102  1.2256
  901MPD2     C13196   3.226   1.192  12.942 -0.3365  0.1889  0.5369
  901MPD2    C113197   3.354   1.200  12.894  0.0571  0.3646  0.2964
  901MPD2    C213198   3.385   1.298  12.804 -0.9220 -0.2378  0.7117
  901MPD2    C313199   3.292   1.386  12.754 -0.2733 -0.6300 -0.0972
  901MPD2    C413200   3.161   1.374  12.796  0.2791  0.1276  0.1837
  901MPD2    C513201   3.129   1.276  12.887  0.2905  0.4524  0.0725
  901MPD2     H13202   3.489   1.316  12.777 -1.4477  1.2356 -0.3279
  901MPD2    H113203   3.079   1.438  12.765 -1.1703 -0.5596  2.5597
  901MPD2    H213204   3.197   1.118  13.016  2.8213 -0.1737  1.4428
  901MPD2    H313205   3.028   1.264  12.925 -0.1279  2.1644 -0.4884
  901MPD2     N13206   3.331   1.496  12.667  0.0362 -0.7615  0.5047
  901MPD2    H513207   3.431   1.506  12.652  0.2210  0.1253  2.2878
  901MPD2    N113208   3.455   1.112  12.939  0.0513  0.9272 -0.0781
  901MPD2    H713209   3.428   1.053  13.017 -0.1368  0.8996 -0.1632
  902MPD2     C13210   2.399   4.552  13.026  0.2698  0.4833  0.4493
  902MPD2    C113211   2.359   4.571  12.894  0.1882 -0.2441  0.8315
  902MPD2    C213212   2.379   4.469  12.803 -0.3889  0.2442 -0.0536
  902MPD2    C313213   2.447   4.355  12.841  0.7171 -0.6452  0.5312
  902MPD2    C413214   2.509   4.345  12.966 -0.0393 -0.2459 -0.2170
  902MPD2    C513215   2.485   4.447  13.055 -0.2265  0.5480 -0.0135
  902MPD2     H13216   2.379   4.491  12.697  0.9747  0.4156 -0.0263
  902MPD2    H113217   2.571   4.261  12.996 -0.4028  0.0141  1.2726
  902MPD2    H213218   2.393   4.627  13.104 -1.1453 -0.5486  1.3410
  902MPD2    H313219   2.541   4.445  13.148  0.9719 -1.9929 -0.7828
  902MPD2     N13220   2.465   4.247  12.751 -0.4840 -0.0967  0.2502
  902MPD2    H513221   2.538   4.178  12.753 -0.1661  0.2403  0.2890
  902MPD2    N113222   2.306   4.694  12.854 -0.5377  0.7482  0.0608
  902MPD2    H713223   2.301   0.051  12.918  1.4176  1.5398 -0.7533
  903MPD2     C13224   2.263   4.186  11.855 -0.1647 -0.4352 -0.2516
  903MPD2    C113225   2.199   4.166  11.974  0.0175  0.1675 -0.1388
  903MPD2    C213226   2.063   4.152  11.974 -1.0496  0.4189 -0.2328
  903MPD2    C313227   1.987   4.181  11.862 -0.0085  0.2742 -0.1306
  903MPD2    C413228   2.057   4.207  11.743 -0.0209  0.6020 -0.4085
  903MPD2    C513229   2.186   4.204  11.739 -0.2273  0.0100 -0.2713
  903MPD2     H13230   2.015   4.126  12.068 -0.6369 -0.2514 -0.2074
  903MPD2    H113231   2.013   4.234  11.648  0.2404  0.1884 -0.6454
  903MPD2    H213232   2.369   4.197  11.833 -0.1289 -2.3778 -1.0280
  903MPD2    H313233   2.237   4.206  11.644 -0.7195  2.0215 -0.4935
  903MPD2     N13234   1.848   4.181  11.884 -0.4409  0.2569  0.9461
  903MPD2    H513235   1.814   4.145  11.973  0.9983 -0.4378  1.1975
  903MPD2    N113236   2.271   4.137  12.089 -0.3180  0.0486  0.7607
  903MPD2    H713237   2.372   4.138  12.078 -0.5017  2.3497 -0.9261
  904MPD2     C13238   2.165   3.846  13.999 -0.8099  0.0119  0.2554
  904MPD2    C113239   2.136   3.722  14.050 -0.2514  0.4083  0.8325
  904MPD2    C213240   2.228   3.658  14.132  0.1698 -0.2560 -0.1424
  904MPD2    C313241   2.352   3.711  14.163 -0.2871  0.5140 -0.2947
  904MPD2    C413242   2.384   3.827  14.091  0.4663 -0.3211 -0.2136
  904MPD2    C513243   2.290   3.898  14.026  0.2111 -0.1033 -0.2782
  904MPD2     H13244   2.210   3.553  14.153 -0.9675 -0.0429 -0.0833
  904MPD2    H113245   2.476   3.883  14.102 -0.0031  0.5679 -0.7528
  904MPD2    H213246   2.103   3.907  13.934 -1.3744 -2.0079 -1.0917
  904MPD2    H313247   2.315   3.995  13.984 -0.4092  0.4895  0.7263
  904MPD2     N13248   2.437   3.627  14.239  0.1482  0.3568 -0.8229
  904MPD2    H513249   2.391   3.542  14.271  1.0065  0.3241  0.2983
  904MPD2    N113250   2.008   3.683  13.998 -0.4896 -0.5286 -0.3371
  904MPD2    H713251   1.960   3.755  13.945  1.1927  1.6839  1.1230
  905MPD2     C13252   1.960   3.820  13.371  0.2157  0.4276  0.0934
  905MPD2    C113253   2.010   3.757  13.488 -0.7710 -0.2816 -0.0439
  905MPD2    C213254   2.142   3.763  13.520  0.0150  0.8391 -0.2889
  905MPD2    C313255   2.222   3.848  13.447  0.0995  0.8354  0.4197
  905MPD2    C413256   2.176   3.918  13.347  0.2628 -0.0096  0.4346
  905MPD2    C513257   2.047   3.902  13.304 -0.6871  0.2538  0.0884
  905MPD2     H13258   2.183   3.709  13.605  0.4881 -0.4357 -1.3225
  905MPD2    H113259   2.239   3.986  13.291 -0.7079  0.3434 -0.2265
  905MPD2    H213260   1.859   3.809  13.332 -0.6859  0.7927  2.2845
  905MPD2    H313261   2.013   3.943  13.209 -0.0683  0.3986 -0.0724
  905MPD2     N13262   2.355   3.881  13.480 -0.2605  0.6818  0.1461
  905MPD2    H513263   2.403   3.961  13.439 -0.4936 -0.4424 -2.2813
  905MPD2    N113264   1.933   3.700  13.586 -0.6410 -0.3232  0.0448
  905MPD2    H713265   1.987   3.656  13.660  1.3021  0.9023 -0.6495
  906MPD2     C13266   4.597   4.181  11.230 -0.2791 -0.3329  0.3420
  906MPD2    C113267   4.563   4.075  11.157  1.3790  0.7971 -0.2184
  906MPD2    C213268   4.548   3.958  11.222 -0.2663 -0.4971  0.2476
  906MPD2    C313269   4.536   3.951  11.356 -0.2086  0.3819 -0.3558
  906MPD2    C413270   4.563   4.064  11.426  0.2438 -0.2378  0.8117
  906MPD2    C513271   4.603   4.179  11.366  0.1513 -0.5209 -0.1174
  906MPD2     H13272   4.528   3.873  11.158 -0.7341  0.1132 -0.4138
  906MPD2    H113273   4.550   4.073  11.534 -1.6754 -1.6889  0.6933
  906MPD2    H213274   4.614   4.276  11.180 -2.2737  0.6108  1.4262
  906MPD2    H313275   4.618   4.274  11.414 -1.2785 -0.9786  1.2213
  906MPD2     N13276   4.489   3.836  11.424 -0.4767  0.4085  0.3168
  906MPD2    H513277   4.463   3.847  11.522 -0.6732  2.3027  0.0624
  906MPD2    N113278   4.533   4.079  11.016 -0.0226 -0.5850 -0.0993
  906MPD2    H713279   4.514   3.989  10.973 -0.3273  0.3040 -1.8357
  907MPD2     C13280   2.842   2.901  16.049 -0.6095  1.1650  0.4467
  907MPD2    C113281   2.871   2.774  16.013 -0.0492  0.6907  0.4317
  907MPD2    C213282   2.957   2.698  16.090  0.2193  0.1755  0.6554
  907MPD2    C313283   3.022   2.748  16.199 -0.0047 -0.4048 -0.3881
  907MPD2    C413284   3.012   2.888  16.224 -0.0714 -0.3094 -0.6130
  907MPD2    C513285   2.921   2.955  16.148  0.1600  0.4489 -0.0713
  907MPD2     H13286   2.980   2.595  16.067 -0.6795 -0.0217  0.6239
  907MPD2    H113287   3.062   2.945  16.301  1.6602 -0.6634 -1.4830
  907MPD2    H213288   2.774   2.963  15.992  0.0680  2.0332  0.5727
  907MPD2    H313289   2.887   3.056  16.163 -0.3374  0.3045 -0.1969
  907MPD2     N13290   3.101   2.656  16.273  0.8423 -0.0277 -0.2398
  907MPD2    H513291   3.103   2.558  16.246 -0.5662 -0.0019 -0.4242
  907MPD2    N113292   2.830   2.709  15.895 -0.1877 -0.3783 -0.6238
  907MPD2    H713293   2.851   2.611  15.880 -0.0903 -0.3402 -0.7362
  908MPD2     C13294   1.263   4.507   9.484  0.1262 -0.2832 -0.0071
  908MPD2    C113295   1.197   4.417   9.570  0.5324 -0.1370  0.4522
  908MPD2    C213296   1.235   4.413   9.703 -0.2970  1.2779 -0.0234
  908MPD2    C313297   1.329   4.500   9.752  0.1325 -0.5372 -0.7190
  908MPD2    C413298   1.395   4.583   9.666 -0.7116 -0.1910  0.1311
  908MPD2    C513299   1.363   4.582   9.533  0.3055  0.1932 -0.0228
  908MPD2     H13300   1.185   4.351   9.776  3.0935  1.6585  2.6194
  908MPD2    H113301   1.460   4.662   9.703 -3.3183  1.6659  0.7284
  908MPD2    H213302   1.246   4.516   9.378  0.7475  2.4564  0.1186
  908MPD2    H313303   1.414   4.652   9.469  2.4822 -0.6215  0.8403
  908MPD2     N13304   1.366   4.494   9.891 -0.3995 -0.0659 -0.0309
  908MPD2    H513305   1.322   4.414   9.937 -0.5987  0.4756  0.7167
  908MPD2    N113306   1.088   4.332   9.529  0.3020  0.3948  0.6841
  908MPD2    H713307   1.065   4.256   9.593  0.7987  0.4794  0.9668
  909MPD2     C13308   1.192   1.652  11.406  0.4161 -0.4176  0.2981
  909MPD2    C113309   1.203   1.793  11.406 -0.5702  0.0596 -0.6251
  909MPD2    C213310   1.146   1.866  11.510  0.5998 -0.3968 -0.2369
  909MPD2    C313311   1.092   1.805  11.623 -0.2653  0.4782  0.1472
  909MPD2    C413312   1.086   1.662  11.620  1.1674  0.3884  0.1887
  909MPD2    C513313   1.134   1.587  11.511  0.3027 -0.0552 -0.3150
  909MPD2     H13314   1.158   1.973  11.503 -0.0044 -0.4101 -1.5409
  909MPD2    H113315   1.041   1.608  11.702 -0.2824  1.2719 -0.0196
  909MPD2    H213316   1.239   1.592  11.328 -0.0858 -1.3405  0.7027
  909MPD2    H313317   1.123   1.479  11.521 -1.6435  0.2823  1.2651
  909MPD2     N13318   1.057   1.886  11.734  0.3994 -0.0000  0.5041
  909MPD2    H513319   1.055   1.987  11.723  0.9671  0.1529  1.8212
  909MPD2    N113320   1.258   1.867  11.295  0.1766 -0.3494  0.2190
  909MPD2    H713321   1.238   1.967  11.299 -0.6651 -0.3845 -3.1851
  910MPD2     C13322   2.445   3.712  16.425 -0.6827  0.1887 -0.6345
  910MPD2    C113323   2.463   3.616  16.329 -0.7951  0.1695 -0.1817
  910MPD2    C213324   2.423   3.643  16.198 -0.3964  0.1505 -0.0927
  910MPD2    C313325   2.354   3.757  16.169  0.0021  0.8042 -0.4179
  910MPD2    C413326   2.326   3.846  16.272 -0.5221  0.0962  0.6864
  910MPD2    C513327   2.381   3.824  16.392 -0.6161 -0.3745  0.6298
  910MPD2     H13328   2.444   3.561  16.130  0.2341 -0.6945  1.1172
  910MPD2    H113329   2.286   3.944  16.249 -0.3146  0.8256  3.4526
  910MPD2    H213330   2.497   3.711  16.521  0.3722 -0.6692 -1.2031
  910MPD2    H313331   2.372   3.905  16.463  1.2260  0.0912  0.3145
  910MPD2     N13332   2.307   3.802  16.043  0.1044 -0.2017 -0.0781
  910MPD2    H513333   2.276   3.899  16.036 -1.7741 -0.8684 -0.8735
  910MPD2    N113334   2.520   3.489  16.367 -0.1523 -0.2209 -0.2849
  910MPD2    H713335   2.516   3.425  16.288  0.2840  2.1732 -2.2754
  911MPD2     C13336   0.364   4.140  16.593 -0.1992  0.4799  0.5935
  911MPD2    C113337   0.435   4.258  16.622  0.3987  0.1388 -0.1663
  911MPD2    C213338   0.390   4.376  16.563 -0.5174 -0.1065 -0.2556
  911MPD2    C313339   0.278   4.378  16.483  0.3370  0.0745  0.3898
  911MPD2    C413340   0.204   4.261  16.460 -0.7048 -1.1639 -0.5184
  911MPD2    C513341   0.259   4.141  16.505  0.4283 -0.5222 -0.3782
  911MPD2     H13342   0.443   4.465  16.593 -1.6393  0.1139  1.0722
  911MPD2    H113343   0.114   4.269  16.399 -0.0493  0.1039 -1.3109
  911MPD2    H213344   0.391   4.041  16.628  1.2729  1.0905  1.1815
  911MPD2    H313345   0.209   4.046  16.488  1.0880 -0.8043 -0.7633
  911MPD2     N13346   0.221   4.493  16.431 -0.2133  0.2856 -0.1902
  911MPD2    H513347   0.142   4.475  16.371 -3.6233  2.0574  3.7686
  911MPD2    N113348   0.543   4.253  16.713  0.4657  0.5127  0.5463
  911MPD2    H713349   0.563   4.158  16.742 -0.7977  0.0063 -0.2168
  912MPD2     C13350   0.016   4.407  15.809  0.5674  0.0850 -0.0875
  912MPD2    C113351   4.719   4.407  15.947  0.0658 -0.4704 -0.2093
  912MPD2    C213352   4.681   4.292  16.013  0.2163 -0.4178  0.2413
  912MPD2    C313353   4.672   4.171  15.943 -0.8689 -0.1564  0.7377
  912MPD2    C413354   4.681   4.176  15.800  0.1459 -0.1577  0.5096
  912MPD2    C513355   4.708   4.294  15.739 -0.0322  0.2329  0.0378
  912MPD2     H13356   4.666   4.289  16.120 -0.0533  1.4901  0.2585
  912MPD2    H113357   4.654   4.097  15.731  0.8704  0.5505 -0.5714
  912MPD2    H213358   0.034   4.495  15.748  1.3140 -0.2935 -0.4270
  912MPD2    H313359   4.704   4.310  15.632 -0.2408 -1.6465 -0.2401
  912MPD2     N13360   4.647   4.056  16.019 -0.2134  0.7246  0.2676
  912MPD2    H513361   4.647   4.058  16.120  2.1622 -1.9937  0.3078
  912MPD2    N113362   0.021   4.534  16.009 -0.3617  0.7078  0.2846
  912MPD2    H713363   0.045   4.612  15.948  2.0498 -1.2922 -1.3143
  913MPD2     C13364   0.054   0.621  10.072 -0.6582  0.1715  0.7170
  913MPD2    C113365   0.136   0.718  10.025 -0.0213 -0.7002  0.3834
  913MPD2    C213366   0.085   0.810   9.933  0.6852 -0.0084 -0.5496
  913MPD2    C313367   4.667   0.826   9.922 -0.0870  0.4189 -0.0493
  913MPD2    C413368   4.587   0.742   9.993 -0.1148 -0.4749  0.0715
  913MPD2    C513369   4.641   0.640  10.057  0.0278  0.5585 -0.4250
  913MPD2     H13370   0.153   0.877   9.880 -0.2096 -0.1511 -1.8632
  913MPD2    H113371   4.479   0.739   9.999 -0.2272  3.5289 -0.1161
  913MPD2    H213372   0.087   0.534  10.127 -1.4386 -1.2052 -0.9782
  913MPD2    H313373   4.573   0.563  10.091  0.6581 -0.4378 -1.3998
  913MPD2     N13374   4.597   0.934   9.849  0.4499  0.0891  0.5828
  913MPD2    H513375   4.495   0.933   9.848  0.4434 -1.7048  2.2980
  913MPD2    N113376   0.270   0.689  10.047  0.3092 -0.9719  0.4216
  913MPD2    H713377   0.301   0.636  10.128  2.3568  0.6897  0.7273
  914MPD2     C13378   3.423   0.651  12.332 -0.5320  0.0455 -0.4432
  914MPD2    C113379   3.387   0.776  12.386  0.1155 -0.1558  0.1589
  914MPD2    C213380   3.457   0.822  12.498  0.1730 -0.1738  0.5659
  914MPD2    C313381   3.558   0.741  12.562  0.7986  0.2673  0.6357
  914MPD2    C413382   3.583   0.614  12.512 -0.5796 -0.1258  0.3197
  914MPD2    C513383   3.523   0.575  12.396 -0.1464 -0.7479  0.2306
  914MPD2     H13384   3.430   0.914  12.550 -1.4108  0.3460 -1.1668
  914MPD2    H113385   3.662   0.553  12.554 -1.1904 -2.1329 -1.4416
  914MPD2    H213386   3.383   0.598  12.246  0.4143 -2.0345  0.4001
  914MPD2    H313387   3.540   0.477  12.354  1.8149 -0.4174  0.2647
  914MPD2     N13388   3.620   0.785  12.681  0.0104 -0.0786  0.0790
  914MPD2    H513389   3.599   0.877  12.716 -0.5484  0.6544 -2.1701
  914MPD2    N113390   3.282   0.848  12.330  0.1974  0.0662  0.2667
  914MPD2    H713391   3.233   0.798  12.256  0.3148  1.1375 -0.5286
  915MPD2     C13392   1.472   0.824  16.208  0.6558 -1.1735 -0.2709
  915MPD2    C113393   1.371   0.899  16.150  0.0067 -0.3429  0.2482
  915MPD2    C213394   1.260   0.938  16.227 -0.0703  0.6136  0.4854
  915MPD2    C313395   1.261   0.908  16.360  0.4265  0.3868  0.2819
  915MPD2    C413396   1.375   0.852  16.422 -0.7446  0.2657 -0.2236
  915MPD2    C513397   1.479   0.799  16.342 -0.1216 -0.8252 -0.2658
  915MPD2     H13398   1.172   0.981  16.181 -0.8009  0.7954  2.0784
  915MPD2    H113399   1.386   0.832  16.528  1.1936  1.4431 -0.2034
  915MPD2    H213400   1.563   0.787  16.162  0.1140 -1.3181 -1.2350
  915MPD2    H313401   1.563   0.745  16.385  0.1530 -2.1073 -2.3886
  915MPD2     N13402   1.148   0.942  16.439 -0.7494  0.5563 -0.6571
  915MPD2    H513403   1.078   1.005  16.401 -1.0323  0.6274 -0.0041
  915MPD2    N113404   1.371   0.918  16.007  0.1049  0.3798 -0.6049
  915MPD2    H713405   1.434   0.860  15.952 -1.6587 -0.1548 -2.0497
  916MPD2     C13406   4.282   4.074  15.941  0.2348 -0.1786 -0.7123
  916MPD2    C113407   4.216   3.958  15.977 -0.1260 -0.6281 -0.2714
  916MPD2    C213408   4.206   3.867  15.873  0.9249  0.1557 -0.6510
  916MPD2    C313409   4.264   3.883  15.749  0.4611  0.5815 -0.4415
  916MPD2    C413410   4.344   3.990  15.726  0.3914  0.3032 -0.4252
  916MPD2    C513411   4.351   4.088  15.819  0.2135 -0.0212 -0.0556
  916MPD2     H13412   4.144   3.780  15.889  0.6828  0.2471 -1.1087
  916MPD2    H113413   4.398   4.007  15.633 -0.0100 -1.2749 -0.9482
  916MPD2    H213414   4.280   4.153  16.015 -0.4393  0.1376 -1.0646
  916MPD2    H313415   4.399   4.182  15.795 -3.0595  2.0365  1.4943
  916MPD2     N13416   4.235   3.786  15.649  0.0062  0.0325 -0.3969
  916MPD2    H513417   4.159   3.722  15.670 -0.9848  1.0804 -0.7929
  916MPD2    N113418   4.147   3.951  16.102 -0.0012  0.2053  0.1278
  916MPD2    H713419   4.133   4.030  16.164 -1.5938  0.8423 -1.0473
  917MPD2     C13420   4.637   1.620  11.067 -0.0664  0.1033 -0.4061
  917MPD2    C113421   4.693   1.656  11.191  0.3886  0.1386  0.2998
  917MPD2    C213422   0.079   1.739  11.201  0.0044 -0.7567  0.5192
  917MPD2    C313423   0.125   1.801  11.083  0.2458  0.8971  0.5703
  917MPD2    C413424   0.062   1.776  10.965 -0.2741 -0.9223  0.1432
  917MPD2    C513425   4.681   1.685  10.955  0.0774 -0.1361  0.0177
  917MPD2     H13426   0.121   1.769  11.297 -1.1584  0.4472  0.6519
  917MPD2    H113427   0.101   1.820  10.874 -1.0796  1.3313  0.8905
  917MPD2    H213428   4.555   1.549  11.055  0.3740 -0.7192  1.3329
  917MPD2    H313429   4.637   1.662  10.859  1.1999 -0.8570 -0.3324
  917MPD2     N13430   0.245   1.883  11.087  0.4216  0.2096  0.6381
  917MPD2    H513431   0.271   1.935  11.003  1.4916  0.0650  0.8859
  917MPD2    N113432   4.631   1.592  11.303 -0.4589  0.3010 -0.0307
  917MPD2    H713433   4.568   1.516  11.281  1.3206 -0.7616 -1.4125
  918MPD2     C13434   0.005   1.863  12.259 -0.4193  0.5860 -0.7185
  918MPD2    C113435   0.074   1.900  12.150  0.3618 -0.3588  0.1570
  918MPD2    C213436   0.038   1.846  12.023  0.5840 -0.4628  0.3241
  918MPD2    C313437   4.652   1.752  12.016 -0.1208  0.3179  0.3862
  918MPD2    C413438   4.593   1.718  12.131  0.6126 -0.1042  0.0384
  918MPD2    C513439   4.622   1.779  12.246 -0.7049 -0.2122  1.0259
  918MPD2     H13440   0.097   1.869  11.935 -2.4342 -2.7497 -2.2605
  918MPD2    H113441   4.508   1.651  12.136  0.4338  0.1101 -0.1313
  918MPD2    H213442   0.027   1.899  12.359 -1.2206 -1.7835  0.3205
  918MPD2    H313443   4.570   1.760  12.339 -1.8696  1.4577  0.7227
  918MPD2     N13444   4.619   1.683  11.896 -0.0687 -0.1347 -0.5075
  918MPD2    H513445   4.662   1.710  11.808 -0.4390 -0.2543 -0.7226
  918MPD2    N113446   0.199   1.969  12.162  0.1527 -0.5147 -0.3140
  918MPD2    H713447   0.262   1.957  12.083  0.3325  0.6356 -0.3428
  919MPD2     C13448   0.686   0.698  11.376 -0.9599  0.5609  0.1232
  919MPD2    C113449   0.763   0.588  11.390 -0.7285 -0.0589  0.4535
  919MPD2    C213450   0.851   0.548  11.286 -0.1806 -0.5878  0.3442
  919MPD2    C313451   0.845   0.608  11.161  0.0773 -0.1776 -0.0068
  919MPD2    C413452   0.765   0.722  11.154 -0.0355 -0.5521  0.0465
  919MPD2    C513453   0.684   0.764  11.255  0.1485  0.3365  0.4837
  919MPD2     H13454   0.914   0.461  11.295 -1.6053 -1.5907  0.7828
  919MPD2    H113455   0.738   0.765  11.059  1.5549  2.2606  0.8646
  919MPD2    H213456   0.630   0.732  11.462  0.8376  0.6893  1.2439
  919MPD2    H313457   0.625   0.854  11.253  0.6642  0.6602  0.0667
  919MPD2     N13458   0.914   0.563  11.042 -0.5188  0.1043 -0.2991
  919MPD2    H513459   0.925   0.622  10.960 -0.5537 -1.2319 -1.2775
  919MPD2    N113460   0.766   0.519  11.508  0.3392 -0.0665  0.6627
  919MPD2    H713461   0.837   0.446  11.511  0.6944  0.2616  0.1420
  920MPD2     C13462   0.684   0.892  10.378  0.2289 -0.5428 -0.0758
  920MPD2    C113463   0.601   0.796  10.439  0.0262 -0.3307 -0.3737
  920MPD2    C213464   0.655   0.685  10.502 -0.2953  0.2449  0.3387
  920MPD2    C313465   0.792   0.666  10.497 -0.1240  0.2685  0.0583
  920MPD2    C413466   0.872   0.758  10.434 -0.1175  0.5996  0.4369
  920MPD2    C513467   0.817   0.870  10.383 -0.0060  0.4617  0.6839
  920MPD2     H13468   0.588   0.617  10.552  0.2632 -0.7463 -0.2708
  920MPD2    H113469   0.977   0.743  10.416 -0.7011 -1.5752 -1.1710
  920MPD2    H213470   0.651   0.975  10.318  0.1520  0.9870  2.0847
  920MPD2    H313471   0.873   0.950  10.336 -2.9681  1.5234 -0.9931
  920MPD2     N13472   0.847   0.552  10.565 -0.2298 -0.0196  0.5488
  920MPD2    H513473   0.783   0.508  10.630 -1.2224  1.4732  0.5826
  920MPD2    N113474   0.463   0.809  10.420  0.8785 -0.1669 -0.0161
  920MPD2    H713475   0.396   0.733  10.423 -1.2578  1.7161  0.5157
  921MPD2     C13476   1.375   0.027  17.049 -0.4420 -0.0719  0.3361
  921MPD2    C113477   1.377   4.654  16.957 -0.1289  0.2147 -0.6443
  921MPD2    C213478   1.256   4.586  16.938 -0.1793  0.3807  0.4772
  921MPD2    C313479   1.141   4.621  17.012 -0.4322 -0.1894 -0.3736
  921MPD2    C413480   1.144   0.011  17.097 -0.5753 -1.4873 -1.0697
  921MPD2    C513481   1.266   0.065  17.125  0.3876 -0.0117  0.7057
  921MPD2     H13482   1.257   4.500  16.873 -3.1329 -0.3054  1.3579
  921MPD2    H113483   1.058   0.041  17.156  1.6763  2.0972  0.3486
  921MPD2    H213484   1.472   0.072  17.064 -0.8244  0.8404  0.0871
  921MPD2    H313485   1.279   0.151  17.191 -2.2007 -0.5782  1.9364
  921MPD2     N13486   1.027   4.542  17.000 -0.0468  0.1025 -0.3070
  921MPD2    H513487   0.939   4.588  17.022 -0.7505 -1.6667  0.5556
  921MPD2    N113488   1.495   4.635  16.889 -0.6729  0.6458  0.0631
  921MPD2    H713489   1.584   4.675  16.916 -0.4791  1.4424 -1.7707
  922MPD2     C13490   1.731   1.446  16.815 -0.7021 -0.2006 -0.0392
  922MPD2    C113491   1.735   1.570  16.862  0.1990  0.6657 -0.0833
  922MPD2    C213492   1.626   1.623  16.929 -0.1870  0.3402  0.1570
  922MPD2    C313493   1.508   1.552  16.943 -0.3894 -0.7125 -0.8734
  922MPD2    C413494   1.504   1.424  16.889 -0.3740 -0.0720 -0.0249
  922MPD2    C513495   1.615   1.375  16.829 -0.4023 -0.0131  0.2203
  922MPD2     H13496   1.624   1.724  16.968  0.5934  1.2102 -2.0874
  922MPD2    H113497   1.413   1.365  16.891 -1.3633  1.4924  0.8231
  922MPD2    H213498   1.807   1.396  16.755  0.6471 -0.0462  1.5380
  922MPD2    H313499   1.615   1.275  16.785  0.4207 -0.7470  1.8954
  922MPD2     N13500   1.391   1.611  17.001 -0.0292  0.8810  0.3468
  922MPD2    H513501   1.394   1.713  17.005  1.9000  0.7736  1.6173
  922MPD2    N113502   1.851   1.653  16.844  0.3049  0.3609 -0.2130
  922MPD2    H713503   1.831   1.750  16.862 -1.4643  0.2938 -1.7041
  923MPD2     C13504   3.653   3.769   9.158 -0.2228 -0.2494  0.7252
  923MPD2    C113505   3.627   3.908   9.184  0.1796 -0.5541  0.1824
  923MPD2    C213506   3.726   3.981   9.253 -0.4603  0.4220  0.3383
  923MPD2    C313507   3.847   3.922   9.284 -0.8161 -1.0597 -0.6999
  923MPD2    C413508   3.867   3.786   9.270 -0.8011 -0.1449 -0.0841
  923MPD2    C513509   3.768   3.708   9.207 -0.2380 -0.0015 -0.2882
  923MPD2     H13510   3.705   4.083   9.282  1.3904  1.1140 -0.7322
  923MPD2    H113511   3.951   3.729   9.308 -1.8199 -0.5958  1.4789
  923MPD2    H213512   3.579   3.712   9.104 -0.6000  2.1751 -1.3098
  923MPD2    H313513   3.781   3.603   9.185 -1.9122 -0.2517 -0.1286
  923MPD2     N13514   3.944   3.991   9.359  0.1159 -0.3893  0.0423
  923MPD2    H513515   4.035   3.952   9.380 -0.3282 -1.4845 -0.0876
  923MPD2    N113516   3.503   3.961   9.144  0.2117  0.5021 -0.2405
  923MPD2    H713517   3.444   3.894   9.096  2.5102 -1.4643 -0.3572
  924MPD2     C13518   3.005   1.895  16.051 -0.5082 -0.5023 -0.3991
  924MPD2    C113519   3.012   1.897  16.187 -0.6129 -0.3705 -0.0905
  924MPD2    C213520   3.073   2.004  16.248  0.2117  0.5782 -0.2772
  924MPD2    C313521   3.141   2.096  16.180  0.5188  1.1103  0.2147
  924MPD2    C413522   3.143   2.087  16.044 -0.2105 -0.1945 -0.0435
  924MPD2    C513523   3.077   1.982  15.982 -0.5872  0.5794 -0.3816
  924MPD2     H13524   3.074   2.001  16.357  1.3593  4.7584 -0.2154
  924MPD2    H113525   3.182   2.155  15.969 -1.3394  1.2064  0.6479
  924MPD2    H213526   2.940   1.825  15.999 -2.4687 -0.2566  1.7245
  924MPD2    H313527   3.076   1.977  15.874 -0.1996 -3.1867 -0.2202
  924MPD2     N13528   3.203   2.207  16.243 -0.0071  0.5447  0.2758
  924MPD2    H513529   3.240   2.275  16.178 -1.1342  1.2999  0.4249
  924MPD2    N113530   2.946   1.798  16.261  0.0144  0.8550  0.4040
  924MPD2    H713531   2.937   1.707  16.218  0.8096  1.6572 -1.4825
  925MPD2     C13532   2.065   0.221  15.213 -0.6268  0.7104  0.0448
  925MPD2    C113533   1.964   0.189  15.119  0.4824  0.0309 -0.0837
  925MPD2    C213534   1.834   0.148  15.161 -0.0405 -0.2519  0.0578
  925MPD2    C313535   1.807   0.161  15.298  0.5408 -0.1205  0.0600
  925MPD2    C413536   1.904   0.193  15.388  0.2029  0.4733 -0.2142
  925MPD2    C513537   2.031   0.220  15.345 -0.2810 -0.1302  0.1560
  925MPD2     H13538   1.755   0.119  15.092 -0.5045  0.6470  0.2082
  925MPD2    H113539   1.897   0.200  15.496 -1.8065 -0.3704 -0.2853
  925MPD2    H213540   2.163   0.252  15.177  0.3709 -1.3265  1.0077
  925MPD2    H313541   2.099   0.242  15.426 -2.0619 -0.3159  1.6806
  925MPD2     N13542   1.680   0.139  15.359 -0.3294  0.2902 -0.1139
  925MPD2    H513543   1.677   0.139  15.461 -0.5275 -3.2722 -0.1220
  925MPD2    N113544   1.989   0.192  14.980 -0.2026  0.9018  0.3474
  925MPD2    H713545   1.907   0.164  14.927  1.0339 -0.6322 -0.7623
  926MPD2     C13546   0.881   2.861  13.637 -0.5210 -1.3159 -0.0498
  926MPD2    C113547   0.878   2.998  13.643  0.1632 -0.0282 -0.0086
  926MPD2    C213548   0.936   3.075  13.542 -0.7861 -0.1279  0.8261
  926MPD2    C313549   0.991   3.011  13.430 -0.0561  0.2617  0.4646
  926MPD2    C413550   0.996   2.873  13.428  0.1150 -0.3704  0.1051
  926MPD2    C513551   0.942   2.797  13.526  0.7115 -0.0262  0.1540
  926MPD2     H13552   0.932   3.182  13.554 -0.2566  0.0756 -0.8111
  926MPD2    H113553   1.041   2.820  13.345 -1.3032 -1.1850 -0.1375
  926MPD2    H213554   0.834   2.807  13.718 -1.1241 -1.0810 -0.2473
  926MPD2    H313555   0.944   2.690  13.511 -0.4570 -0.4525  2.9882
  926MPD2     N13556   1.048   3.079  13.320 -1.0647  0.4880 -0.2099
  926MPD2    H513557   1.106   3.018  13.264 -1.1709 -1.0224  1.3285
  926MPD2    N113558   0.822   3.064  13.758  0.0844  0.2444  0.1669
  926MPD2    H713559   0.811   3.165  13.751  0.4069  0.0165 -3.4854
  927MPD2     C13560   0.351   0.683  17.642  0.2373 -0.1026  0.4621
  927MPD2    C113561   0.431   0.799  17.654 -1.0423  0.2300 -0.1786
  927MPD2    C213562   0.557   0.799  17.599  0.5272  0.8353  0.4368
  927MPD2    C313563   0.601   0.690  17.526  0.0069 -0.7365  0.7030
  927MPD2    C413564   0.534   0.573  17.540 -0.0460 -0.3218  0.9331
  927MPD2    C513565   0.407   0.569  17.595 -0.5441 -0.0407  0.8000
  927MPD2     H13566   0.623   0.884  17.608  0.5634  0.4863  3.5131
  927MPD2    H113567   0.558   0.472  17.509  0.2021  0.6834 -2.1898
  927MPD2    H213568   0.250   0.672  17.678 -0.0954 -0.8584 -0.6945
  927MPD2    H313569   0.350   0.476  17.598  2.2107 -1.7167  0.9068
  927MPD2     N13570   0.708   0.704  17.437  0.7328 -0.4462 -0.0801
  927MPD2    H513571   0.744   0.798  17.421 -1.4097  0.2639 -0.7385
  927MPD2    N113572   0.387   0.908   0.035  0.2400  0.5813  0.3323
  927MPD2    H713573   0.451   0.983   0.059 -0.1752  0.8682  0.5608
  928MPD2     C13574   4.363   3.895   0.690 -0.1839 -0.2306 -0.1122
  928MPD2    C113575   4.307   3.864   0.815 -1.1071 -0.4829 -0.6326
  928MPD2    C213576   4.226   3.952   0.881  0.2591 -0.1543  0.4281
  928MPD2    C313577   4.206   4.083   0.836 -0.2168 -0.7024  0.2038
  928MPD2    C413578   4.252   4.108   0.705 -0.4740  0.1160  0.2635
  928MPD2    C513579   4.329   4.018   0.636 -0.6433  0.0828 -0.2828
  928MPD2     H13580   4.181   3.924   0.976  0.4185  0.6594  0.7537
  928MPD2    H113581   4.242   4.211   0.672 -2.0668  0.1978  0.9980
  928MPD2    H213582   4.434   3.829   0.643 -0.1398 -1.2350  1.3708
  928MPD2    H313583   4.373   4.042   0.540 -1.4512  3.0144  0.0869
  928MPD2     N13584   4.123   4.175   0.903 -0.5970 -0.0485  0.0687
  928MPD2    H513585   4.102   4.262   0.855 -1.5748  0.9236  2.2440
  928MPD2    N113586   4.335   3.735   0.864 -0.2046  0.9133  0.6827
  928MPD2    H713587   4.387   3.673   0.803  0.8511  0.0224  2.4857
  929MPD2     C13588   3.993   3.810  10.639 -0.0060 -0.4256 -0.1398
  929MPD2    C113589   3.863   3.769  10.659 -0.3591 -0.5975 -0.7037
  929MPD2    C213590   3.775   3.793  10.555 -0.2978 -0.3680  0.2822
  929MPD2    C313591   3.811   3.872  10.445 -0.0424  0.5514 -0.0750
  929MPD2    C413592   3.942   3.914  10.426  0.4389 -0.9484 -0.0428
  929MPD2    C513593   4.029   3.878  10.526 -0.2958  0.4286  0.4113
  929MPD2     H13594   3.676   3.762  10.587 -0.9173 -2.1179 -3.3025
  929MPD2    H113595   3.975   3.970  10.339 -1.9305  0.5757  0.0241
  929MPD2    H213596   4.070   3.804  10.716  1.0771 -1.2613 -1.2852
  929MPD2    H313597   4.133   3.910  10.521 -0.9158  2.6107  1.2088
  929MPD2     N13598   3.707   3.919  10.352  0.3770  0.4001 -0.0756
  929MPD2    H513599   3.747   3.977  10.279 -1.3858  0.0026 -1.3520
  929MPD2    N113600   3.831   3.704  10.781  0.1240 -0.0217 -0.3767
  929MPD2    H713601   3.903   3.704  10.852  0.7450 -2.5563 -1.0104
  930MPD2     C13602   0.492   1.220  14.613  0.0198  0.6514 -0.2385
  930MPD2    C113603   0.421   1.310  14.538 -0.4480 -0.5350  0.1293
  930MPD2    C213604   0.322   1.266  14.453 -1.1236  0.1744  0.4395
  930MPD2    C313605   0.317   1.130  14.429  0.0748  0.1992 -0.8829
  930MPD2    C413606   0.384   1.040  14.506  0.4520 -0.0962  0.0543
  930MPD2    C513607   0.470   1.085  14.606  0.8248 -0.0579  0.3465
  930MPD2     H13608   0.262   1.334  14.395 -2.8179 -0.6548  1.2356
  930MPD2    H113609   0.365   0.934  14.495 -0.6640  0.0063  0.9438
  930MPD2    H213610   0.559   1.248  14.694  1.7596 -1.7535 -0.8278
  930MPD2    H313611   0.511   1.016  14.679  0.1797 -0.6476  0.1501
  930MPD2     N13612   0.229   1.076  14.328  0.0625  0.0392  0.0400
  930MPD2    H513613   0.226   0.974  14.329  2.7405 -0.0465 -0.1118
  930MPD2    N113614   0.471   1.440  14.550 -0.0078 -0.3379  0.2398
  930MPD2    H713615   0.565   1.450  14.589  0.4288 -0.5569 -0.7635
  931MPD2     C13616   0.574   1.031   0.734  0.7991 -0.6752 -0.0553
  931MPD2    C113617   0.438   1.074   0.736 -0.2198 -0.0238 -0.0046
  931MPD2    C213618   0.372   1.077   0.856 -0.3796  0.0362  0.0744
  931MPD2    C313619   0.435   1.027   0.965 -0.1127 -0.4877  0.7382
  931MPD2    C413620   0.570   0.990   0.964  0.5778  0.1876 -0.7751
  931MPD2    C513621   0.645   0.987   0.848  0.0829  0.2671 -0.3192
  931MPD2     H13622   0.266   1.099   0.853 -0.0911  1.6749  1.5508
  931MPD2    H113623   0.628   0.969   1.053 -0.4479 -2.1832 -0.6619
  931MPD2    H213624   0.627   1.032   0.639 -0.6324  2.5919 -0.8025
  931MPD2    H313625   0.751   0.966   0.841  0.0074 -0.3886  0.4855
  931MPD2     N13626   0.371   1.004   1.091  0.1297 -0.7048 -0.1776
  931MPD2    H513627   0.413   0.943   1.161  1.7715  2.0341  1.1991
  931MPD2    N113628   0.363   1.106   0.621 -0.2380 -0.0253  0.3785
  931MPD2    H713629   0.263   1.119   0.632 -0.1917  0.3874  0.2927
  932MPD2     C13630   2.164   4.392  11.103 -0.0303 -0.8618  0.0746
  932MPD2    C113631   2.278   4.465  11.129 -0.5143 -0.1517  0.4671
  932MPD2    C213632   2.386   4.406  11.190 -0.9358 -0.0552 -0.5517
  932MPD2    C313633   2.378   4.270  11.233 -0.2757  0.0175 -0.1806
  932MPD2    C413634   2.261   4.200  11.229  0.6073 -0.1507  0.5156
  932MPD2    C513635   2.158   4.259  11.159  0.1045 -0.1424  0.0929
  932MPD2     H13636   2.467   4.472  11.219  1.1055 -1.4887 -3.0491
  932MPD2    H113637   2.265   4.099  11.267  0.8150 -1.2079 -2.2685
  932MPD2    H213638   2.073   4.428  11.056 -0.5584  1.5114  2.8742
  932MPD2    H313639   2.062   4.208  11.153 -1.1966  2.0948  2.1353
  932MPD2     N13640   2.488   4.207  11.283 -0.4560  0.2058 -0.6670
  932MPD2    H513641   2.478   4.112  11.318 -0.6878  0.6338  0.4231
  932MPD2    N113642   2.280   4.602  11.106  0.1668 -0.3057  0.0128
  932MPD2    H713643   2.373   4.640  11.117  1.3342 -3.1450 -0.1335
  933MPD2     C13644   4.255   2.885   1.009 -0.8991  0.1076 -0.5401
  933MPD2    C113645   4.206   3.008   1.022 -0.1340 -0.0390 -0.1911
  933MPD2    C213646   4.087   3.027   1.098 -0.2411  0.1958  0.5442
  933MPD2    C313647   4.036   2.926   1.182  0.1856  0.0937  0.0191
  933MPD2    C413648   4.097   2.799   1.163 -0.3806  0.0637  0.1722
  933MPD2    C513649   4.188   2.779   1.065  0.2434  0.2509  0.1686
  933MPD2     H13650   4.050   3.127   1.119 -1.6293 -0.0254 -0.8570
  933MPD2    H113651   4.079   2.712   1.225  2.5417  1.1833  2.6122
  933MPD2    H213652   4.344   2.866   0.950  0.6826 -0.2068  1.9908
  933MPD2    H313653   4.227   2.678   1.058  0.5004  0.4364 -1.1836
  933MPD2     N13654   3.939   2.952   1.280 -0.0091  0.4275  0.4634
  933MPD2    H513655   3.907   3.047   1.296 -0.8772  0.1653  0.2893
  933MPD2    N113656   4.265   3.110   0.951  0.3937 -0.1784 -0.0355
  933MPD2    H713657   4.358   3.084   0.919  0.3266 -1.2015  0.5821
  934MPD2     C13658   3.846   1.508   2.216 -0.2876  0.0209 -0.1914
  934MPD2    C113659   3.923   1.569   2.121  0.3196  0.1526 -0.3020
  934MPD2    C213660   3.888   1.543   1.986  0.5469 -0.5904  0.0757
  934MPD2    C313661   3.777   1.472   1.945  0.1733  0.0696 -0.4836
  934MPD2    C413662   3.700   1.427   2.049  0.2934  0.3923 -0.6737
  934MPD2    C513663   3.734   1.442   2.179  0.0194  0.6463 -0.0309
  934MPD2     H13664   3.942   1.593   1.906 -0.3264  0.5697  0.2031
  934MPD2    H113665   3.618   1.357   2.040  0.6320  0.2474 -2.6456
  934MPD2    H213666   3.870   1.514   2.321 -1.3047  0.1210  0.0320
  934MPD2    H313667   3.669   1.393   2.251  0.4392  1.0979  0.6644
  934MPD2     N13668   3.735   1.431   1.815  0.4440  0.2383  0.9094
  934MPD2    H513669   3.648   1.380   1.813  0.6928 -0.1722  0.6692
  934MPD2    N113670   4.036   1.649   2.142  0.3587  0.3226 -0.0520
  934MPD2    H713671   4.064   1.699   2.058 -3.4774  1.9181 -0.3869
  935MPD2     C13672   4.233   0.877   1.243 -0.3902  1.0024  0.1627
  935MPD2    C113673   4.096   0.845   1.215 -0.6046  0.2101  0.3569
  935MPD2    C213674   4.000   0.937   1.241  0.0331 -0.5648 -0.0086
  935MPD2    C313675   4.033   1.061   1.296 -0.9811  0.1594  0.2958
  935MPD2    C413676   4.166   1.097   1.309  0.1987 -0.4484  0.6185
  935MPD2    C513677   4.263   1.004   1.281  0.1712  0.3731  0.1280
  935MPD2     H13678   3.900   0.898   1.224 -1.4899  2.3602  2.1542
  935MPD2    H113679   4.197   1.196   1.339 -0.6810  0.8953 -2.9501
  935MPD2    H213680   4.316   0.809   1.228 -1.5453 -0.5790  0.9446
  935MPD2    H313681   4.367   1.031   1.297  0.5798 -1.1130 -0.0319
  935MPD2     N13682   3.938   1.152   1.337  0.2053  0.0622  0.2064
  935MPD2    H513683   3.972   1.235   1.385  0.4466  0.8440 -1.3204
  935MPD2    N113684   4.064   0.728   1.153  0.2292  0.4240 -0.8507
  935MPD2    H713685   3.966   0.729   1.125 -0.0020 -1.0926 -0.0641
  936MPD2     C13686   2.596   3.237  12.273 -0.1145  0.0220 -0.2993
  936MPD2    C113687   2.702   3.159  12.309  0.1690  0.1600  0.0686
  936MPD2    C213688   2.836   3.203  12.290  0.1206  0.1012 -0.6645
  936MPD2    C313689   2.851   3.333  12.240 -0.4418  0.0407  0.2068
  936MPD2    C413690   2.742   3.408  12.204  0.7212 -0.1736  0.4111
  936MPD2    C513691   2.613   3.361  12.224  0.6990 -0.2708 -0.0501
  936MPD2     H13692   2.913   3.134  12.324 -1.2489 -0.7115  0.7919
  936MPD2    H113693   2.757   3.507  12.163  3.2402 -0.0403  1.6727
  936MPD2    H213694   2.493   3.207  12.288  0.9137 -2.2784  2.2601
  936MPD2    H313695   2.532   3.433  12.214 -1.3022 -2.4433  0.5052
  936MPD2     N13696   2.973   3.401  12.224  0.7224 -0.0103 -0.5662
  936MPD2    H513697   2.958   3.497  12.194  1.0579  1.6019  4.5217
  936MPD2    N113698   2.679   3.038  12.376  0.3882  0.7094 -0.1609
  936MPD2    H713699   2.763   3.002  12.418 -0.4762  0.4856  1.3697
  937MPD2     C13700   0.948   4.622  11.595  0.1530  0.0038 -0.3396
  937MPD2    C113701   1.008   0.008  11.637 -0.0788  0.0954 -0.3548
  937MPD2    C213702   1.134   0.035  11.592  0.4814  0.1222 -0.4321
  937MPD2    C313703   1.211   4.663  11.520  0.0731 -0.3810  0.8939
  937MPD2    C413704   1.145   4.548  11.489  0.2337  0.1988  0.6453
  937MPD2    C513705   1.015   4.524  11.522 -0.2079 -0.1957  0.6511
  937MPD2     H13706   1.180   0.133  11.602  0.8345  0.1499 -2.2042
  937MPD2    H113707   1.194   4.475  11.426 -0.5364  1.8643 -1.8739
  937MPD2    H213708   0.842   4.604  11.614  0.9404 -2.6349  1.5654
  937MPD2    H313709   0.962   4.436  11.487  1.8260 -1.1037 -0.1799
  937MPD2     N13710   1.336   4.696  11.482  0.5464 -0.7318  0.3866
  937MPD2    H513711   1.374   0.066  11.503  1.7503 -1.1266 -0.0859
  937MPD2    N113712   0.941   0.119  11.691 -0.1292 -0.1264 -0.3899
  937MPD2    H713713   0.992   0.206  11.697 -0.1782 -0.3160  2.5723
  938MPD2     C13714   2.991   0.936   0.460 -0.6524 -0.1880  0.8590
  938MPD2    C113715   3.010   0.997   0.579 -0.1668 -0.1739 -0.2026
  938MPD2    C213716   3.018   0.917   0.697 -0.1819  0.3425  0.1054
  938MPD2    C313717   3.018   0.776   0.692 -0.5385 -0.1666  0.1234
  938MPD2    C413718   3.000   0.723   0.567  0.2541  0.7271 -0.5381
  938MPD2    C513719   2.993   0.803   0.455 -0.2235 -0.0862  0.3622
  938MPD2     H13720   3.003   0.959   0.796 -3.5133  1.0046 -0.7081
  938MPD2    H113721   3.004   0.615   0.567 -1.4549  0.6664 -0.4217
  938MPD2    H213722   2.977   0.986   0.365 -0.0952 -1.0281  0.3393
  938MPD2    H313723   2.986   0.750   0.360 -0.4125 -0.1961  0.4376
  938MPD2     N13724   3.040   0.689   0.799 -0.5104 -0.0844 -0.4791
  938MPD2    H513725   3.011   0.592   0.794 -0.6435 -0.1511  1.3790
  938MPD2    N113726   3.004   1.136   0.594 -0.4813  0.3165 -0.1230
  938MPD2    H713727   2.998   1.168   0.690  1.0508  0.0229  0.0660
  939MPD2     C13728   4.432   1.809   0.984 -0.2475 -0.0878 -0.0988
  939MPD2    C113729   4.360   1.902   0.916  0.4145 -0.2431  0.5912
  939MPD2    C213730   4.419   1.946   0.800  0.0563 -0.1093  0.4941
  939MPD2    C313731   4.534   1.905   0.748 -0.3843  0.0646  0.4582
  939MPD2    C413732   4.601   1.807   0.825 -0.0866  0.6765 -0.0939
  939MPD2    C513733   4.556   1.764   0.941 -0.1811 -0.1897 -0.8415
  939MPD2     H13734   4.371   2.026   0.744 -0.1295  0.2701  1.1916
  939MPD2    H113735   4.687   1.753   0.789 -1.0910  0.4424 -2.1674
  939MPD2    H213736   4.391   1.771   1.077 -1.0586 -0.4381 -0.5969
  939MPD2    H313737   4.605   1.693   1.007  0.1121  1.4412  0.6759
  939MPD2     N13738   4.597   1.962   0.635 -0.5150  0.9234  0.2759
  939MPD2    H513739   4.547   2.034   0.583  0.2953 -0.4077 -2.3227
  939MPD2    N113740   4.237   1.952   0.968  0.5951  0.2273 -0.0440
  939MPD2    H713741   4.213   1.916   1.060  0.5390 -0.6096 -0.3828
  940MPD2     C13742   2.718   2.509  12.635 -0.5324  0.0610 -0.1636
  940MPD2    C113743   2.803   2.478  12.740 -0.1880  0.1697 -0.0608
  940MPD2    C213744   2.936   2.464  12.722 -0.1624 -0.1576  0.5144
  940MPD2    C313745   2.993   2.523  12.609  0.7141  0.0415 -0.2211
  940MPD2    C413746   2.913   2.582  12.517 -0.6351 -0.7150 -0.0977
  940MPD2    C513747   2.776   2.569  12.527  0.0030 -0.1970 -0.6744
  940MPD2     H13748   3.002   2.431  12.801 -1.8424  3.4351  3.4391
  940MPD2    H113749   2.953   2.636  12.432 -0.6476 -0.9073 -0.2262
  940MPD2    H213750   2.610   2.506  12.639 -0.4301  0.2937  2.8977
  940MPD2    H313751   2.720   2.609  12.442  2.1341  0.7341 -1.6308
  940MPD2     N13752   3.133   2.544  12.595 -0.3744 -0.0591 -0.2531
  940MPD2    H513753   3.162   2.588  12.508  0.1917  0.8100  0.3671
  940MPD2    N113754   2.760   2.438  12.873 -0.3268 -0.4255  0.1916
  940MPD2    H713755   2.825   2.395  12.938 -1.0311 -0.4206  0.8941
  941MPD2     C13756   2.895   2.525   9.515  1.4967 -0.0336 -0.9039
  941MPD2    C113757   2.954   2.533   9.641 -0.9824  0.3477 -0.4550
  941MPD2    C213758   2.905   2.442   9.731 -0.0114 -0.2960 -0.2231
  941MPD2    C313759   2.803   2.347   9.698 -0.3306  0.0081  0.3247
  941MPD2    C413760   2.752   2.345   9.568 -0.8029  0.1549  0.4353
  941MPD2    C513761   2.800   2.437   9.480 -0.0147  0.1636  0.2556
  941MPD2     H13762   2.944   2.436   9.832  1.5993  1.5033 -0.7422
  941MPD2    H113763   2.678   2.272   9.537 -0.9201  0.2693  0.4489
  941MPD2    H213764   2.930   2.591   9.436  0.6216  1.7741  0.1916
  941MPD2    H313765   2.760   2.432   9.380  0.6839  0.5319 -0.0441
  941MPD2     N13766   2.768   2.238   9.783 -0.5166 -0.1187  0.0343
  941MPD2    H513767   2.711   2.162   9.747 -0.1952 -0.3156 -0.0631
  941MPD2    N113768   3.055   2.620   9.682 -0.0774  0.2861  0.2614
  941MPD2    H713769   3.081   2.616   9.780  1.5021 -2.3787 -0.2659
  942MPD2     C13770   1.797   4.443   9.017 -0.0913 -0.4424  0.5954
  942MPD2    C113771   1.823   4.347   9.113 -0.2902 -0.2227  0.0354
  942MPD2    C213772   1.952   4.312   9.146  0.2103  0.5339 -1.1060
  942MPD2    C313773   2.058   4.355   9.069 -0.3811 -0.3913  0.5971
  942MPD2    C413774   2.028   4.438   8.961 -0.7801  0.0567  0.7251
  942MPD2    C513775   1.898   4.482   8.934  0.1536  0.7783 -0.4686
  942MPD2     H13776   1.985   4.233   9.213 -0.5037  1.1703 -0.0008
  942MPD2    H113777   2.117   4.462   8.904 -1.1342  0.1962  0.2304
  942MPD2    H213778   1.700   4.490   9.007  0.3425  0.4797  0.7652
  942MPD2    H313779   1.875   4.548   8.851  1.5302 -1.5210 -2.6694
  942MPD2     N13780   2.187   4.310   9.083  0.1648  0.2177 -0.0554
  942MPD2    H513781   2.249   4.333   9.006  0.8883  0.0871  0.4851
  942MPD2    N113782   1.721   4.304   9.189 -0.3967 -0.2348 -0.0452
  942MPD2    H713783   1.747   4.256   9.274 -3.5293 -2.8712 -0.5880
  943MPD2     C13784   0.596   2.649   9.352 -0.0077  0.2756  0.1871
  943MPD2    C113785   0.613   2.527   9.408  1.3091  0.8067  0.5458
  943MPD2    C213786   0.741   2.486   9.441 -0.6062  0.5917  0.9874
  943MPD2    C313787   0.845   2.571   9.423 -0.3443 -0.1020  0.5402
  943MPD2    C413788   0.816   2.687   9.359 -0.2168  1.1140  0.1787
  943MPD2    C513789   0.693   2.736   9.326  0.3598 -0.2686  0.1382
  943MPD2     H13790   0.758   2.396   9.499 -0.9494 -0.5682 -0.7098
  943MPD2    H113791   0.893   2.761   9.339 -2.2794  3.2867  0.2648
  943MPD2    H213792   0.497   2.685   9.328  0.0045 -1.4543 -2.4278
  943MPD2    H313793   0.675   2.833   9.282  3.1025  0.1326 -0.0854
  943MPD2     N13794   0.974   2.535   9.476  0.3794 -0.4945 -0.4104
  943MPD2    H513795   0.989   2.451   9.530 -1.2732 -2.0040 -2.3077
  943MPD2    N113796   0.493   2.459   9.428  0.8853 -0.2105 -0.4161
  943MPD2    H713797   0.404   2.503   9.410  0.8715 -0.8850 -2.0035
  944MPD2     C13798   0.505   1.081  10.727  0.2671  0.1292  0.6840
  944MPD2    C113799   0.590   1.182  10.688 -1.0582 -0.8443 -0.3352
  944MPD2    C213800   0.630   1.270  10.790  0.0002  0.5761 -0.4905
  944MPD2    C313801   0.600   1.241  10.924  0.0515  0.7004 -0.0082
  944MPD2    C413802   0.523   1.137  10.961  0.0911  0.1036  0.5556
  944MPD2    C513803   0.473   1.062  10.856 -0.1515 -0.2252  0.1374
  944MPD2     H13804   0.684   1.361  10.764  2.1148 -0.2764  0.8468
  944MPD2    H113805   0.517   1.106  11.064 -0.6820  2.5421  1.2374
  944MPD2    H213806   0.459   1.022  10.648  1.1115  1.5937 -0.9195
  944MPD2    H313807   0.404   0.981  10.880 -0.6767 -0.4431 -2.1348
  944MPD2     N13808   0.647   1.340  11.015 -0.1295 -0.0283  0.2523
  944MPD2    H513809   0.685   1.424  10.972 -0.5234 -0.0181 -0.0782
  944MPD2    N113810   0.639   1.195  10.553 -0.4958  0.2965  0.1720
  944MPD2    H713811   0.584   1.147  10.483 -1.5393 -0.8809  1.8078
    1TCq1    O113812   3.251   2.303  14.566  0.5901 -0.2219 -0.1183
    1TCq1    C113813   3.361   2.268  14.492 -0.4294  0.1690  0.3355
    1TCq1    O213814   3.412   2.328  14.398 -0.5404 -0.7626 -0.0901
    1TCq1    C213815   3.447   2.195  14.587 -0.2221 -0.6153 -0.4673
    1TCq1    C313816   3.400   2.094  14.664 -0.1476 -1.1156 -0.1188
    1TCq1    C413817   3.476   2.058  14.772  0.2941  0.2517 -0.0331
    1TCq1    C513818   3.588   2.129  14.804  0.4535 -0.2208  0.2023
    1TCq1    C613819   3.633   2.234  14.722 -0.1594  0.0129  1.2090
    1TCq1    C713820   3.562   2.268  14.613  0.3193 -0.0636  0.2173
    1TCq1    C813821   3.744   2.309  14.766  0.2421  0.0741  0.4037
    1TCq1    O413822   3.765   2.312  14.888  0.2175  0.4547 -0.1201
    1TCq1    C913823   3.457   1.932  14.846 -0.0752  0.4693 -1.0178
    1TCq1    O513824   3.386   1.844  14.792 -0.6122 -0.0102  0.0889
    1TCq1    O613825   3.492   1.931  14.964  0.2132  0.0908 -0.8465
    1TCq1    H113826   3.265   2.259  14.653 -0.4888  2.9840  1.7045
    1TCq1    H213827   3.312   2.037  14.636 -0.0565 -1.3603  0.0801
    1TCq1    H313828   3.650   2.097  14.887 -0.2509  0.1950  0.8879
    1TCq1    H413829   3.590   2.356  14.556  0.1960  0.2853  0.6888
    2MPD2     C13830   4.171   2.574  14.676 -0.2801 -0.1069 -0.2920
    2MPD2    C113831   4.100   2.565  14.560  0.6641 -0.5970  0.4226
    2MPD2    C213832   3.980   2.495  14.557 -0.2157 -0.3771 -0.3349
    2MPD2    C313833   3.929   2.442  14.677 -0.1805  0.5927  0.3533
    2MPD2    C413834   4.009   2.449  14.788  0.1896 -0.2129 -0.4790
    2MPD2    C513835   4.119   2.528  14.792 -0.3505  0.2314 -0.2381
    2MPD2     H13836   3.919   2.487  14.468 -3.0199  0.4195  1.4839
    2MPD2    H113837   3.975   2.404  14.881  0.4493 -1.1092 -0.8159
    2MPD2    H213838   4.263   2.630  14.685 -0.3232  0.0774 -1.0886
    2MPD2    H313839   4.171   2.539  14.887 -2.0325 -1.0451  0.8378
    2MPD2     N13840   3.814   2.373  14.665 -0.0233  0.6494 -0.1256
    2MPD2    H513841   3.778   2.372  14.570  1.5640 -0.2193 -0.7233
    2MPD2    N113842   4.157   2.627  14.448  0.5259 -0.0245 -0.2759
    2MPD2    H713843   4.249   2.667  14.452  0.3619  0.1529  1.6338
    3TMC2    C113844   4.175   2.704  14.226 -0.5334  1.0010 -0.1570
    3TMC2    C213845   4.288   2.773  14.268  0.2148 -0.2499 -0.0119
    3TMC2    C313846   4.383   2.790  14.171  0.2178 -0.4177 -0.5391
    3TMC2    C413847   4.154   2.666  14.094 -0.3035 -0.1496  0.2209
    3TMC2    C513848   4.256   2.693  14.011 -0.3358 -0.2192  0.6031
    3TMC2    C613849   4.369   2.759  14.046  0.8076  0.4132  0.2935
    3TMC2     C13850   4.095   2.636  14.322  0.5145  0.4954 -0.0116
    3TMC2     O13851   3.980   2.611  14.281  0.1011  0.0819  0.1956
    3TMC2     H13852   4.295   2.811  14.369  2.0433 -1.3894  0.2779
    3TMC2    H113853   4.075   2.594  14.076 -0.2235  0.0296 -0.8745
    3TMC2    H213854   4.446   2.787  13.975 -0.1946  1.3733 -0.4154
    3TMC2    C713855   4.272   2.607  13.894 -0.6967 -0.5718 -0.3507
    3TMC2    C813856   4.485   2.889  14.202 -0.2002 -0.3648  0.2239
    3TMC2    O113857   4.385   2.597  13.857  0.3758  0.1420 -0.2008
    3TMC2    O213858   4.503   2.977  14.123  0.2991 -0.0954  0.2729
    3TMC2    O513859   4.506   2.888  14.337  0.3221 -0.8886 -0.6465
    3TMC2    H513860   4.470   2.813  14.388 -1.2367 -1.5070 -2.6468
    4MPD2     C13861   3.259   3.510  13.297  0.4072 -0.0625  0.0643
    4MPD2    C113862   3.327   3.509  13.177 -0.0555 -0.4974 -0.2478
    4MPD2    C213863   3.416   3.398  13.151 -0.5015 -0.3240 -0.1000
    4MPD2    C313864   3.446   3.310  13.252  0.3885  0.1501 -0.0745
    4MPD2    C413865   3.384   3.326  13.367 -0.4636 -0.6938 -0.2302
    4MPD2    C513866   3.291   3.417  13.391 -0.2169  0.2399 -0.3058
    4MPD2     H13867   3.462   3.387  13.054 -0.1940  1.4803 -0.1579
    4MPD2    H113868   3.397   3.262  13.453  0.1783 -1.3470 -0.8237
    4MPD2    H213869   3.187   3.587  13.323  1.1427  0.5126  0.3968
    4MPD2    H313870   3.256   3.422  13.494 -0.6401 -2.5024 -0.3145
    4MPD2     N13871   3.537   3.208  13.229 -0.0741 -0.2764 -0.0562
    4MPD2    H513872   3.576   3.190  13.137  0.7742  1.9703 -0.1513
    4MPD2    N113873   3.285   3.602  13.076 -0.1078 -0.2594  0.0661
    4MPD2    H713874   3.228   3.680  13.107 -0.3340 -0.3250 -0.1881
    5TCq2    C113875   3.560   3.104  13.314  0.1560 -0.2835 -0.5063
    5TCq2    O213876   3.526   3.079  13.427  0.1925  0.3653  0.1400
    5TCq2    C213877   3.665   3.017  13.260  0.8975  0.7081  0.1656
    5TCq2    C313878   3.662   2.971  13.134  0.1556 -0.8769  0.0771
    5TCq2    C413879   3.753   2.881  13.086  0.2565  0.3259 -0.3506
    5TCq2    C513880   3.841   2.824  13.174 -0.1037  0.2071 -0.6333
    5TCq2    C613881   3.837   2.860  13.310 -0.1540 -0.5962 -0.5670
    5TCq2    C713882   3.755   2.959  13.354  0.7684  0.4277 -0.0759
    5TCq2    C813883   3.926   2.804  13.412  1.0128  0.2595  0.9431
    5TCq2    O413884   3.937   2.880  13.509  0.8674 -0.0122 -0.2331
    5TCq2    C913885   3.738   2.830  12.957  0.6229  0.2584  0.1001
    5TCq2    O513886   3.646   2.888  12.893 -0.7760 -0.1374  0.1651
    5TCq2    O613887   3.809   2.735  12.915 -0.3479 -0.3864  0.2609
    5TCq2    H213888   3.584   2.999  13.065  0.9924 -1.1248 -0.9642
    5TCq2    H313889   3.891   2.740  13.128 -2.6330 -1.2410 -0.7218
    5TCq2    H413890   3.753   2.996  13.456 -2.2950 -2.8245  1.0519
    6MPD1     C13891   3.202   0.515  13.505  0.5525 -0.1621 -0.3656
    6MPD1    C113892   3.210   0.548  13.374 -0.3532 -0.3996  0.0148
    6MPD1    C213893   3.153   0.462  13.279  0.4952  0.8670 -0.2388
    6MPD1    C313894   3.101   0.339  13.325 -0.2771 -0.0038 -0.2541
    6MPD1    C413895   3.102   0.307  13.457  0.0556 -0.1070 -0.0617
    6MPD1    C513896   3.149   0.397  13.548 -0.2529  0.1154 -0.3484
    6MPD1     H13897   3.148   0.488  13.174  1.5479  1.3742 -0.1681
    6MPD1    H113898   3.063   0.215  13.499  0.8454 -1.6156 -2.5770
    6MPD1    H213899   3.244   0.586  13.576 -1.5410 -0.0136  0.7282
    6MPD1    H313900   3.140   0.360  13.650 -0.1898  0.8348 -0.0814
    6MPD1     N13901   3.055   0.241  13.240 -0.5833  0.5185  0.1518
    6MPD1    H513902   2.998   0.173  13.290 -0.5585 -0.3351 -0.9655
    6MPD1    N113903   3.266   0.670  13.333 -0.5017 -0.5070  0.8982
    6MPD1    H613904   3.318   0.652  13.248 -0.1962  4.7116 -0.0596
    6MPD1    H713905   3.336   0.715  13.391  0.4453 -1.8062  0.7346
    7MPD2     C13906   2.798   4.251  13.212  0.4242  0.4944 -0.2000
    7MPD2    C113907   2.884   4.276  13.106 -0.1734  1.0659  0.3253
    7MPD2    C213908   2.936   4.172  13.023  0.2194 -0.5447 -0.9746
    7MPD2    C313909   2.905   4.040  13.051  0.2281  0.6104 -0.3813
    7MPD2    C413910   2.813   4.015  13.160 -0.0461  0.3451  0.2497
    7MPD2    C513911   2.762   4.116  13.239  0.1084 -0.0428  0.2723
    7MPD2     H13912   3.009   4.196  12.947  1.0300 -0.4402 -0.1624
    7MPD2    H113913   2.799   3.910  13.178 -0.2902  0.3505  0.0792
    7MPD2    H213914   2.749   4.328  13.271  1.9872  0.4230  1.1814
    7MPD2    H313915   2.703   4.090  13.326 -2.1057  2.0324 -0.6162
    7MPD2     N13916   2.960   3.929  12.975 -0.3253  0.1391  0.0137
    7MPD2    H513917   2.967   3.840  13.024  0.7355 -1.0934 -2.3539
    7MPD2    N113918   2.932   4.405  13.082 -0.0958  0.0352  0.0122
    7MPD2    H713919   3.018   4.419  13.030 -1.0986  2.8984 -0.8461
    8TMC3    C113920   3.092   3.830  12.795 -0.7166 -0.1973 -0.4328
    8TMC3    C213921   3.155   3.750  12.889  0.2143 -0.4670 -0.9696
    8TMC3    C313922   3.290   3.725  12.872 -0.4541 -0.3824  0.3552
    8TMC3    C413923   3.158   3.864  12.678 -0.1129 -0.0741 -0.4304
    8TMC3    C513924   3.294   3.842  12.659 -0.3162 -0.3322  0.1305
    8TMC3    C613925   3.354   3.767  12.751 -0.6503 -0.1068  0.5667
    8TMC3     C13926   3.025   3.947  12.854  0.8474  0.6532  0.0196
    8TMC3     O13927   3.035   4.048  12.782  0.0432  0.3620 -1.2769
    8TMC3     H13928   3.097   3.718  12.975  1.5915  0.0956  0.1638
    8TMC3    H113929   3.102   3.897  12.591 -0.2990 -1.0075 -0.6587
    8TMC3    H213930   3.461   3.751  12.759 -0.6303  0.3049  1.1788
    8TMC3    C713931   3.364   3.967  12.619  0.3354 -0.4693 -0.1608
    8TMC3    C813932   3.346   3.617  12.950 -0.2712  0.0482  0.4039
    8TMC3    O113933   3.474   3.954  12.576  0.3396 -0.0451  0.2969
    8TMC3    O213934   3.444   3.555  12.905  0.7879 -0.2145 -0.4615
    9TMC3    C113935   3.034   0.114  13.034 -0.6165  0.4578  0.2166
    9TMC3    C213936   3.084   0.089  12.906  0.2368 -0.3305  0.1741
    9TMC3    C313937   3.049   4.691  12.842  0.3280 -0.0192  0.9340
    9TMC3    C413938   2.960   0.023  13.103  0.2097  0.3883  0.5349
    9TMC3    C513939   2.936   4.630  13.044 -0.3071 -0.1288  0.2955
    9TMC3    C613940   2.977   4.596  12.915  0.0734  0.0170  0.2949
    9TMC3     C13941   3.073   0.233  13.101  0.2256 -0.2423 -0.1348
    9TMC3     O13942   3.140   0.308  13.033 -0.5206 -0.5132  0.2433
    9TMC3     H13943   3.139   0.166  12.854 -1.6587 -0.4872 -2.0469
    9TMC3    H113944   2.919   0.038  13.202 -0.4359 -0.3856  0.3836
    9TMC3    H213945   2.952   4.498  12.874  2.1282  0.1307 -1.2224
    9TMC3    C713946   2.881   4.519  13.126 -0.2382  0.3191 -0.2603
    9TMC3    C813947   3.138   4.655  12.731 -0.6296  0.0845  0.5573
    9TMC3    O113948   2.781   4.547  13.193  0.0232 -0.2762  0.2816
    9TMC3    O213949   3.227   0.011  12.698 -0.8069 -0.1060  0.3006
   10MPD2     C13950   3.423   4.248  12.550 -0.4313  0.2397  0.6034
   10MPD2    C113951   3.308   4.208  12.613  0.3398  0.2609 -0.9160
   10MPD2    C213952   3.220   4.299  12.662 -0.1761 -0.7405 -0.1132
   10MPD2    C313953   3.238   4.435  12.657 -0.6072  0.2714 -0.1949
   10MPD2    C413954   3.360   4.476  12.611 -0.0303 -0.4687  0.0608
   10MPD2    C513955   3.449   4.382  12.555 -0.2163  0.5571 -0.2219
   10MPD2     H13956   3.125   4.264  12.700  0.0033  0.3256  1.2753
   10MPD2    H113957   3.387   4.581  12.617 -2.1505  0.1091 -0.2507
   10MPD2    H213958   3.496   4.180  12.507 -1.0880  0.3336 -0.6795
   10MPD2    H313959   3.547   4.414  12.520  0.5604  0.8968  2.2542
   10MPD2     N13960   3.141   4.521  12.719  0.3392 -0.4350 -0.1737
   10MPD2    H513961   3.066   4.485  12.776  1.5291  1.9786  2.8933
   10MPD2    N113962   3.283   4.075  12.639 -0.0708  0.4691 -0.6425
   10MPD2    H713963   3.189   4.059  12.673 -0.2316 -0.8576 -1.7396
   11MPD2     C13964   4.232   2.458  13.646 -0.1424 -0.7084  0.1909
   11MPD2    C113965   4.164   2.571  13.691  0.4795  0.3952  0.7307
   11MPD2    C213966   4.084   2.649  13.610 -0.3071  0.2752  0.0375
   11MPD2    C313967   4.075   2.619  13.476 -0.0702  0.2808  0.1797
   11MPD2    C413968   4.147   2.507  13.427  0.4053  0.2546  0.2266
   11MPD2    C513969   4.215   2.430  13.513 -0.9555  0.2596  0.0631
   11MPD2     H13970   4.039   2.733  13.661  0.1269  0.3879  0.2389
   11MPD2    H113971   4.152   2.495  13.319  1.7139 -0.0641  0.3240
   11MPD2    H213972   4.291   2.402  13.718  0.0624  0.3513  0.8504
   11MPD2    H313973   4.277   2.350  13.475 -1.1493  0.9910 -1.8391
   11MPD2     N13974   3.998   2.691  13.382 -0.3205  0.1353 -0.6941
   11MPD2    H513975   3.967   2.643  13.298 -1.3309  2.1031 -1.4563
   11MPD2    N113976   4.162   2.614  13.827 -0.0607  0.4595  0.2410
   11MPD2    H713977   4.089   2.678  13.857  1.4316  2.1506  0.2477
    1MPD1     C13978   1.354   4.154  17.198  0.1918  0.1803 -0.2964
    1MPD1    C113979   1.391   4.288  17.212  0.2579 -0.1431 -0.3618
    1MPD1    C213980   1.511   4.322  17.260  0.3762  0.0926  0.1162
    1MPD1    C313981   1.596   4.223  17.296 -0.2318 -0.5258  0.2827
    1MPD1    C413982   1.564   4.095  17.279  0.5039 -0.0551 -0.1860
    1MPD1    C513983   1.447   4.054  17.212  0.3099  0.3686  0.2417
    1MPD1     H13984   1.535   4.428  17.270  0.0249  0.3201 -1.4515
    1MPD1    H113985   1.635   4.018  17.308  0.8416  0.3543  0.0787
    1MPD1    H213986   1.255   4.121  17.169 -0.4920  3.0144 -1.1881
    1MPD1    H313987   1.425   3.951  17.187  0.3254 -0.0768  2.0771
    1MPD1     N13988   1.717   4.256  17.362  0.3848  0.6001  0.4561
    1MPD1    H513989   1.775   4.176  17.385 -0.1063 -0.6729 -2.7401
    1MPD1    N113990   1.293   4.382  17.192 -0.5804 -0.0658  0.0148
    1MPD1    H613991   1.223   4.347  17.127 -0.6640 -0.9923  0.6054
    1MPD1    H713992   1.331   4.467  17.152 -2.7011  1.5362  1.3722
    2MPD1     C13993   2.089   0.353  17.676 -0.6553  0.0191 -0.2954
    2MPD1    C113994   1.971   0.317  17.620  0.6130 -1.3013 -0.5928
    2MPD1    C213995   1.945   0.182  17.617  0.2698 -0.3653 -0.1939
    2MPD1    C313996   2.041   0.092  17.661 -0.5464 -0.1726  0.6891
    2MPD1    C413997   2.164   0.138   0.025  0.2538  0.2058  0.2399
    2MPD1    C513998   2.189   0.273   0.030 -0.1797 -0.3014 -0.5919
    2MPD1     H13999   1.845   0.147  17.594  1.7699 -4.1543 -0.9962
    2MPD1    H114000   2.249   0.074   0.046  0.7915  0.6440 -0.5901
    2MPD1    H214001   2.111   0.458  17.685  0.5521 -0.2560 -0.0232
    2MPD1    H314002   2.281   0.311   0.073 -1.8927  0.9373  2.0073
    2MPD1     N14003   2.023   4.677  17.628 -0.1184  0.5653 -0.1078
    2MPD1    H514004   1.934   4.640  17.595 -0.6249  1.0882  0.6520
    2MPD1    N114005   1.884   0.415  17.584  0.4719  0.1358  0.3655
    2MPD1    H614006   1.920   0.510  17.573 -0.0975  0.4577  1.3396
    2MPD1    H714007   1.817   0.389  17.512 -1.5953  2.1695  1.5504
    3TMC3    C114008   2.079   4.470  17.561 -0.0711  0.2570  0.5972
    3TMC3    C214009   2.128   4.352  17.607  0.4678  1.4849  0.1492
    3TMC3    C314010   2.050   4.236  17.587  0.2603 -0.6173 -0.2446
    3TMC3    C414011   1.967   4.481  17.490 -0.0127 -0.3681  0.3903
    3TMC3    C514012   1.898   4.367  17.447 -0.4697 -0.4699  0.1706
    3TMC3    C614013   1.941   4.244  17.497  0.6089  0.1197  0.7983
    3TMC3     C14014   2.117   4.581  17.634 -0.4962  0.1393 -0.5200
    3TMC3     O14015   2.232   4.580  17.679  0.2797  0.3353 -0.2843
    3TMC3     H14016   2.218   4.348  17.667  0.2287 -1.3874  0.2904
    3TMC3    H114017   1.967   4.569  17.426 -0.2298 -1.4897 -1.1494
    3TMC3    H214018   1.900   4.145  17.479 -1.2277  1.1343 -0.5764
    3TMC3    C714019   1.777   4.381  17.365  0.1012  0.7787 -0.1933
    3TMC3    C814020   2.094   4.107  17.632  0.0236 -0.1010 -0.7724
    3TMC3    O114021   1.739   4.492  17.324 -0.4054 -0.7244  0.0964
    3TMC3    O214022   2.080   4.003  17.564  0.4017 -0.1786 -0.1544
    4MPD1     C14023   2.361   3.833   0.296  0.0635  0.4179 -0.2314
    4MPD1    C114024   2.293   3.931   0.358  0.2557 -0.1941 -0.2318
    4MPD1    C214025   2.237   4.038   0.275  0.1907  0.1254 -0.7032
    4MPD1    C314026   2.224   4.024   0.139  0.5671  0.1814 -0.9210
    4MPD1    C414027   2.274   3.913   0.082 -0.6300  0.8287 -0.5617
    4MPD1    C514028   2.348   3.822   0.151 -0.3295  0.1406  0.0101
    4MPD1     H14029   2.211   4.126   0.332 -0.0411  0.0412 -0.6800
    4MPD1    H114030   2.273   3.899  17.663  3.6105 -0.1238 -0.4733
    4MPD1    H214031   2.416   3.755   0.348  2.6177  2.1410 -0.3364
    4MPD1    H314032   2.391   3.738   0.097 -1.5266  0.3297 -1.2441
    4MPD1     N14033   2.145   4.121   0.071 -0.2443  0.1893  0.4792
    4MPD1    H514034   2.112   4.202   0.123 -0.5188 -0.0265  0.6422
    4MPD1    N114035   2.304   3.951   0.498  0.5459  0.1109 -0.5733
    4MPD1    H614036   2.226   4.007   0.531 -0.3235 -0.9432 -0.8463
    4MPD1    H714037   2.314   3.866   0.553 -2.2536  0.6132  0.6918
    1TCq1    O114038   3.916   4.069  11.701 -0.0252 -0.1178 -0.6025
    1TCq1    C114039   3.902   4.192  11.655 -0.0870 -0.1052  0.4505
    1TCq1    O214040   3.989   4.256  11.600 -0.3009  0.1104  0.0775
    1TCq1    C214041   3.770   4.233  11.633  0.1360  0.2365  0.1723
    1TCq1    C314042   3.665   4.144  11.637 -0.1255  0.4206 -0.1425
    1TCq1    C414043   3.536   4.184  11.603  0.7787 -0.7835 -0.2414
    1TCq1    C514044   3.521   4.316  11.562 -0.1456  0.1829 -0.1013
    1TCq1    C614045   3.625   4.398  11.554 -0.4751 -0.6250 -0.3568
    1TCq1    C714046   3.757   4.364  11.601  0.6761 -0.2966 -0.5320
    1TCq1    C814047   3.629   4.504  11.456 -0.0138 -0.0953  0.1904
    1TCq1    O414048   3.737   4.568  11.451 -0.9980  0.0447  0.5342
    1TCq1    C914049   3.449   4.080  11.559  0.3691  0.2581  0.1196
    1TCq1    O514050   3.480   3.961  11.570  0.0793 -0.1749 -0.5414
    1TCq1    O614051   3.348   4.102  11.497 -0.2130 -0.4572  0.0125
    1TCq1    H114052   3.855   4.022  11.762  2.7138 -1.7085  0.9309
    1TCq1    H214053   3.685   4.037  11.639 -0.3521  0.3502 -1.5368
    1TCq1    H314054   3.420   4.332  11.526 -0.1767 -0.2977 -0.2318
    1TCq1    H414055   3.834   4.439  11.609 -0.4089  0.8087 -0.4699
    2MPD1     C14056   3.456   0.014  11.034 -0.5552 -0.4543  0.0093
    2MPD1    C114057   3.400   4.608  11.039 -1.0503 -0.1090  0.4305
    2MPD1    C214058   3.421   4.531  11.151  0.4756 -0.1010 -0.3955
    2MPD1    C314059   3.508   4.570  11.247  0.1087  0.7753 -1.5739
    2MPD1    C414060   3.558   4.698  11.246  0.2446 -0.2856 -0.5817
    2MPD1    C514061   3.535   0.054  11.135  0.6190 -0.2874 -0.0472
    2MPD1     H14062   3.387   4.429  11.167 -0.1308  0.0862 -0.5031
    2MPD1    H114063   3.637   0.014  11.310  0.2483  0.0551 -0.7851
    2MPD1    H214064   3.442   0.082  10.951  0.0917  1.3448  1.3822
    2MPD1    H314065   3.586   0.149  11.123  0.0526 -0.0467 -0.5446
    2MPD1     N14066   3.541   4.476  11.348 -0.0924 -0.1835 -0.1547
    2MPD1    H514067   3.487   4.390  11.351 -1.2508  0.5202 -0.8371
    2MPD1    N114068   3.349   4.549  10.926 -0.0102 -0.1498 -0.2095
    2MPD1    H614069   3.276   4.481  10.948 -0.3385  1.0276  2.3255
    2MPD1    H714070   3.321   4.616  10.855  0.9600 -0.3638 -0.7880
    1TCq1    O114071   0.695   3.366   1.328  0.0146  0.7571 -0.0721
    1TCq1    C114072   0.774   3.270   1.382 -0.0309 -0.3193  0.2106
    1TCq1    O214073   0.884   3.229   1.343 -0.2679  0.0345 -0.6358
    1TCq1    C214074   0.687   3.196   1.469 -0.0198  0.5335  0.3046
    1TCq1    C314075   0.665   3.066   1.440 -0.1947 -0.1450 -0.2494
    1TCq1    C414076   0.571   2.996   1.514 -0.0783  0.5343 -0.0503
    1TCq1    C514077   0.477   3.059   1.587 -0.4341 -0.4554  0.6408
    1TCq1    C614078   0.497   3.191   1.607 -0.9700 -0.6230 -0.9351
    1TCq1    C714079   0.598   3.263   1.548  0.9434 -0.0823  0.2614
    1TCq1    C814080   0.398   3.271   1.681 -0.6775  0.0622 -0.2258
    1TCq1    O414081   0.409   3.395   1.684  0.1411 -0.3184  0.2150
    1TCq1    C914082   0.543   2.865   1.459 -0.1114  0.6139  0.4678
    1TCq1    O514083   0.570   2.854   1.339  0.1470  0.1961 -0.5519
    1TCq1    O614084   0.454   2.800   1.520  0.3326 -0.0916 -0.1817
    1TCq1    H114085   0.608   3.379   1.373 -0.2057 -0.3407 -0.1745
    1TCq1    H214086   0.727   3.011   1.370  0.9770  0.4371  0.3313
    1TCq1    H314087   0.396   2.996   1.622  0.1060 -1.8586 -0.6486
    1TCq1    H414088   0.610   3.370   1.560 -0.8910  0.0760  0.5953
    2MPD1     C14089   4.701   3.273   1.993  0.0226  0.0926  0.0404
    2MPD1    C114090   0.007   3.143   1.962 -0.3135  0.2368  0.1664
    2MPD1    C214091   0.121   3.131   1.878 -0.3164  0.3645  0.1127
    2MPD1    C314092   0.193   3.232   1.822 -1.2492 -0.3275  0.2474
    2MPD1    C414093   0.158   3.362   1.850 -0.8376  0.1474 -0.7140
    2MPD1    C514094   0.051   3.376   1.936 -0.1709 -0.3106  0.4285
    2MPD1     H14095   0.159   3.031   1.862  0.1985  0.4123  1.0574
    2MPD1    H114096   0.211   3.448   1.810 -2.0480  1.5614  0.7247
    2MPD1    H214097   4.621   3.295   2.063  0.1358 -1.1179  0.5490
    2MPD1    H314098   0.023   3.478   1.958 -1.1503 -1.0890  2.7676
    2MPD1     N14099   0.300   3.191   1.738  0.4811  0.7048 -0.0884
    2MPD1    H514100   0.322   3.093   1.745  0.7206  0.6918 -1.0424
    2MPD1    N114101   4.672   3.034   2.024 -0.5126  0.2943  0.1551
    2MPD1    H614102   4.668   2.945   1.974 -0.3355 -0.5238  1.5965
    2MPD1    H714103   4.577   3.054   2.053 -0.7867 -0.7106 -0.0374
    1MPD1     C14104   4.361   4.181  11.762 -0.3276 -0.1834  0.0956
    1MPD1    C114105   4.476   4.112  11.780  0.3715 -0.2858  0.1032
    1MPD1    C214106   4.592   4.184  11.758  0.8030  0.0577  0.1580
    1MPD1    C314107   4.594   4.307  11.697 -0.0986  0.6507  0.4926
    1MPD1    C414108   4.476   4.364  11.654  0.1813  0.2097 -0.4682
    1MPD1    C514109   4.360   4.309  11.707  0.4975 -0.1563 -0.5586
    1MPD1     H14110   4.688   4.135  11.769  0.9746  0.4062  0.1891
    1MPD1    H114111   4.477   4.465  11.614 -1.3877  0.4558  0.1425
    1MPD1    H214112   4.270   4.127  11.786  0.8776 -2.4839 -0.4668
    1MPD1    H314113   4.262   4.351  11.689  0.2245 -1.0516 -1.1632
    1MPD1     N14114   4.720   4.367  11.677 -0.5342  0.1906 -0.1423
    1MPD1    H514115   0.075   4.321  11.725 -0.5490  1.1590  0.7919
    1MPD1    N114116   4.483   3.985  11.844  0.1881 -0.2903  0.5586
    1MPD1    H614117   4.395   3.933  11.852 -0.6250  1.1250  0.8391
    1MPD1    H714118   4.557   3.924  11.812 -0.1113  0.6355 -1.8966
    2MPD1     C14119   4.550   0.744  10.988 -1.1973 -0.2073  0.4388
    2MPD1    C114120   4.480   0.680  10.894 -0.2868  0.4457 -0.9863
    2MPD1    C214121   4.470   0.541  10.900 -0.0784 -0.1342 -0.3333
    2MPD1    C314122   4.562   0.473  10.982 -0.3484  0.5599 -0.3318
    2MPD1    C414123   4.649   0.536  11.058 -0.0478 -0.2598 -0.1953
    2MPD1    C514124   4.633   0.674  11.071 -0.1414 -0.7365 -0.2495
    2MPD1     H14125   4.395   0.493  10.840  2.2273 -2.9208 -0.9605
    2MPD1    H114126   4.719   0.481  11.121 -1.1109 -0.2631  0.9805
    2MPD1    H214127   4.542   0.849  11.013 -1.2702 -0.6838  2.3933
    2MPD1    H314128   4.686   0.728  11.148 -0.1090 -0.1987 -0.6509
    2MPD1     N14129   4.554   0.335  10.989  0.0527 -0.0816 -0.1490
    2MPD1    H514130   4.616   0.280  11.049  0.4609 -0.6225 -1.0699
    2MPD1    N114131   4.374   0.748  10.836 -0.0847 -0.0901 -0.6936
    2MPD1    H614132   4.406   0.839  10.803  0.4048  0.3067  0.8535
    2MPD1    H714133   4.359   0.698  10.749 -0.3941  0.0356 -0.7138
    3MPD1     C14134   4.191   4.209  10.405  0.3584  0.0920  0.1877
    3MPD1    C114135   4.321   4.238  10.367  0.4245  0.5388 -0.0441
    3MPD1    C214136   4.393   4.323  10.445 -0.0447  0.8232 -0.1885
    3MPD1    C314137   4.332   4.381  10.560  0.9055  0.4726 -0.8841
    3MPD1    C414138   4.198   4.352  10.591 -0.2259  1.4020  0.5854
    3MPD1    C514139   4.129   4.265  10.512  0.0087  0.1921 -0.0798
    3MPD1     H14140   4.498   4.344  10.430 -0.2851  0.2834 -2.6927
    3MPD1    H114141   4.141   4.392  10.674  0.4225  2.8579  0.3244
    3MPD1    H214142   4.133   4.129  10.360  1.0705 -1.1153  1.4267
    3MPD1    H314143   4.036   4.223  10.548 -0.5687  1.4235 -0.1395
    3MPD1     N14144   4.401   4.470  10.638 -0.1418 -1.0903  0.3237
    3MPD1    H514145   4.499   4.487  10.616 -0.1952  0.1323  1.0169
    3MPD1    N114146   4.381   4.174  10.263 -0.0452 -0.2928  0.3837
    3MPD1    H614147   4.457   4.235  10.233 -0.7581 -0.3751 -1.5551
    3MPD1    H714148   4.318   4.144  10.189 -0.0740  1.2090 -0.1843
    4MPD2     C14149   0.499   0.268  11.457 -0.1859 -0.2754  0.0900
    4MPD2    C114150   0.545   0.143  11.484  0.2334  0.2755 -0.0443
    4MPD2    C214151   0.643   0.093  11.398 -0.3581  0.0208 -0.0652
    4MPD2    C314152   0.704   0.166  11.297  0.1143 -0.6695  0.3199
    4MPD2    C414153   0.652   0.287  11.271  0.0429 -0.2348 -1.1948
    4MPD2    C514154   0.547   0.330  11.344  0.5982  0.6826  0.4344
    4MPD2     H14155   0.673   4.713  11.418 -2.5442 -0.6260 -0.0943
    4MPD2    H114156   0.691   0.337  11.183  1.5304  0.3034 -0.2440
    4MPD2    H214157   0.420   0.323  11.507  1.2970  1.7537  0.2086
    4MPD2    H314158   0.506   0.424  11.308  0.6367  1.0063  1.2452
    4MPD2     N14159   0.799   0.104  11.209  0.7140  0.1171 -0.4069
    4MPD2    H514160   0.832   0.168  11.138  2.0517 -0.9899 -0.7738
    4MPD2    N114161   0.483   0.054  11.582  0.4467 -0.7892 -0.4036
    4MPD2    H714162   0.511   4.678  11.584  1.8294 -0.3640  0.5430
    5TMC3    C114163   0.316   4.677  11.722 -0.0518  0.0447  0.1289
    5TMC3    C214164   0.188   4.651  11.682 -0.4393  0.6165 -0.5068
    5TMC3    C314165   0.165   4.529  11.637  0.1346 -0.1948  0.3824
    5TMC3    C414166   0.410   4.579  11.718 -0.0243  0.3512 -0.2532
    5TMC3    C514167   0.384   4.462  11.657 -0.6090 -0.6008 -0.2489
    5TMC3    C614168   0.254   4.428  11.622 -0.3836  0.1568  0.2183
    5TMC3     C14169   0.364   0.083  11.655  0.6236 -0.4459 -0.0263
    5TMC3     O14170   0.294   0.186  11.672  0.0467 -0.2170 -0.6378
    5TMC3     H14171   0.110   0.002  11.705  0.3701  1.7411 -1.3187
    5TMC3    H114172   0.513   4.597  11.744 -0.1417 -2.1689  1.9808
    5TMC3    H214173   0.226   4.332  11.581  0.7790  0.6527 -1.7567
    5TMC3    C714174   0.492   4.414  11.571  0.7340 -0.0867 -0.1144
    5TMC3    C814175   0.021   4.493  11.625 -0.0895 -0.4929  0.9715
    5TMC3    O114176   0.587   4.490  11.552  0.2342  0.0849  0.0459
    5TMC3    O214177   4.673   4.566  11.560  0.0566  0.2527 -0.0007
    6TMC3    C114178   4.507   0.115  10.910 -0.2479  0.9618  0.7806
    6TMC3    C214179   4.408   0.038  10.850  0.4339 -0.1988  0.4960
    6TMC3    C314180   4.448   4.633  10.806 -0.1998 -0.4171 -0.7551
    6TMC3    C414181   4.641   0.074  10.905  0.0002 -0.6293  0.0955
    6TMC3    C514182   4.672   4.677  10.853  0.0677  0.8696  0.6900
    6TMC3    C614183   4.578   4.592  10.803  0.1951  0.2410 -0.1206
    6TMC3     C14184   4.467   0.259  10.920  0.1858 -0.4627 -0.1087
    6TMC3     O14185   4.350   0.284  10.884  0.4033  0.5476 -0.0381
    6TMC3     H14186   4.303   0.068  10.850  0.7284  0.8140 -2.3670
    6TMC3    H114187   4.721   0.138  10.942  1.4226 -2.2923 -0.1341
    6TMC3    H214188   4.605   4.489  10.784  1.3947  0.5625 -0.1447
    6TMC3    C714189   0.081   4.627  10.876 -0.3987  0.2812  0.0532
    6TMC3    C814190   4.345   4.544  10.742  0.2220  0.1059 -0.2015
    6TMC3    O114191   0.166   4.713  10.875  0.4182 -0.1787 -0.4335
    6TMC3    O214192   4.229   4.566  10.777  1.2220  0.4194  0.3164
    7MPD2     C14193   0.693   4.132  11.197  0.5276  0.0975 -0.3717
    7MPD2    C114194   0.726   4.256  11.239  0.7757 -0.4690  0.5025
    7MPD2    C214195   0.649   4.318  11.339 -0.0776 -0.3343 -0.3639
    7MPD2    C314196   0.542   4.247  11.399 -0.3658  0.3885  0.5929
    7MPD2    C414197   0.506   4.121  11.342 -0.8256  0.1744  0.0570
    7MPD2    C514198   0.592   4.062  11.257 -0.4067  0.3878 -0.2916
    7MPD2     H14199   0.670   4.419  11.374 -2.3539 -0.1452  0.4388
    7MPD2    H114200   0.438   4.049  11.388 -0.4681  1.1716  2.1486
    7MPD2    H214201   0.754   4.082  11.122  0.6413  0.6149 -0.6307
    7MPD2    H314202   0.562   3.967  11.213  2.0941  0.1238 -1.4537
    7MPD2     N14203   0.454   4.307  11.490  0.5556  0.2682  0.5495
    7MPD2    H514204   0.378   4.245  11.519 -0.5424  1.4814  0.2854
    7MPD2    N114205   0.807   4.345  11.168 -0.1803 -0.1198  0.3836
    7MPD2    H714206   0.818   4.437  11.209 -1.3385 -0.3976  1.3416
    8TMC3    C114207   0.907   4.442  10.990  0.1414 -0.3912 -0.2215
    8TMC3    C214208   0.837   4.479  10.881  0.1756 -0.4140  0.1297
    8TMC3    C314209   0.790   4.606  10.879  0.5335  0.1264  0.3522
    8TMC3    C414210   0.935   4.530  11.088 -0.6914 -0.8091 -0.2412
    8TMC3    C514211   0.897   4.661  11.086  0.0907 -0.4135 -0.3868
    8TMC3    C614212   0.819   4.697  10.974  0.9475 -0.3734 -0.1332
    8TMC3     C14213   0.859   4.320  11.042  1.0267 -0.0202  0.0973
    8TMC3     O14214   0.825   4.233  10.961  0.6893 -0.2265 -0.7074
    8TMC3     H14215   0.820   4.415  10.795  0.0006 -1.7957  1.2092
    8TMC3    H114216   0.988   4.496  11.176 -1.3172  1.1399  0.9024
    8TMC3    H214217   0.774   0.073  10.963  1.5180  0.0964  1.8298
    8TMC3    C714218   0.838   4.699  11.212  0.7116 -0.0348  0.1795
    8TMC3    C814219   0.645   4.592  10.861 -0.0049  0.4754  0.4525
    8TMC3    O114220   0.814   4.607  11.290 -0.1343 -0.5891 -0.6281
    8TMC3    O214221   0.577   4.688  10.829  0.2037 -0.7339  0.4549
    9MPD2     C14222   0.455   4.301  10.993 -0.3555 -0.5324  0.0529
    9MPD2    C114223   0.461   4.422  10.929 -0.6859 -0.1537 -0.1098
    9MPD2    C214224   0.343   4.490  10.900  0.7144  0.0547 -0.1835
    9MPD2    C314225   0.220   4.426  10.928  0.1005 -0.0607 -0.0120
    9MPD2    C414226   0.222   4.290  10.967 -0.9785  0.1275 -0.1503
    9MPD2    C514227   0.339   4.228  11.007  0.3482 -1.0339 -0.0262
    9MPD2     H14228   0.354   4.593  10.868 -2.7212 -0.2002 -2.1211
    9MPD2    H114229   0.131   4.241  11.000 -0.6583  0.1054  0.6903
    9MPD2    H214230   0.553   4.264  11.023 -0.6706 -2.1609 -0.9586
    9MPD2    H314231   0.348   4.134  11.061  0.1260 -0.1615  1.5455
    9MPD2     N14232   0.095   4.492  10.904  0.3442 -0.2828  0.7156
    9MPD2    H514233   0.011   4.441  10.931  0.1223 -0.5821 -0.5543
    9MPD2    N114234   0.593   4.473  10.910  0.0224 -0.4281 -0.3488
    9MPD2    H714235   0.661   4.400  10.932 -0.2454 -0.7977 -0.7570
    1MPD1     C14236   4.141   3.942  16.650  0.2393  1.2761 -0.2087
    1MPD1    C114237   4.196   3.823  16.693 -1.0488 -0.0201  0.5758
    1MPD1    C214238   4.121   3.725  16.747 -0.3737 -0.5355  0.5649
    1MPD1    C314239   3.985   3.748  16.776  0.5486 -0.2891 -0.8887
    1MPD1    C414240   3.927   3.865  16.742 -0.1098  0.3817 -0.5107
    1MPD1    C514241   4.004   3.960  16.675 -0.0802 -0.1026  0.5956
    1MPD1     H14242   4.160   3.625  16.756 -1.1127 -0.9329 -0.6656
    1MPD1    H114243   3.823   3.886  16.764 -0.4831  0.9989 -2.8029
    1MPD1    H214244   4.201   4.022  16.608 -0.4305  1.0321 -1.6248
    1MPD1    H314245   3.956   4.052  16.644  0.5755 -0.3193 -1.0573
    1MPD1     N14246   3.905   3.645  16.829  0.1677 -0.3597 -0.4747
    1MPD1    H514247   3.805   3.653  16.838  0.3256 -0.1617  0.9797
    1MPD1    N114248   4.326   3.800  16.657 -0.3551  0.2373  0.0998
    1MPD1    H614249   4.375   3.734  16.717 -0.7183  0.3257  0.4890
    1MPD1    H714250   4.374   3.888  16.637 -0.3266  0.5181  1.3976
    2MPD1     C14251   3.383   2.731  16.886  0.0280  0.3758 -0.3416
    2MPD1    C114252   3.310   2.818  16.957  0.2353  0.5849  0.0041
    2MPD1    C214253   3.371   2.944  16.982  0.3174  0.1639 -0.2336
    2MPD1    C314254   3.504   2.962  16.971  0.7306 -0.0717 -0.5983
    2MPD1    C414255   3.581   2.858  16.915  0.6482 -0.5658  0.4562
    2MPD1    C514256   3.518   2.745  16.869 -0.1102  0.3804 -0.2483
    2MPD1     H14257   3.310   3.021  17.026  0.1279  0.0605 -0.3153
    2MPD1    H114258   3.689   2.861  16.908  0.4762  0.8810 -1.6135
    2MPD1    H214259   3.329   2.646  16.845 -0.0259  1.3297 -2.2206
    2MPD1    H314260   3.568   2.669  16.810 -1.9510 -0.3268 -0.8779
    2MPD1     N14261   3.560   3.090  16.997 -0.0652  0.0637  0.0306
    2MPD1    H514262   3.497   3.169  17.010 -0.3703 -0.2600  0.5508
    2MPD1    N114263   3.175   2.794  16.974  0.1692  0.3509  0.3111
    2MPD1    H614264   3.127   2.842  17.050  3.4444  2.0577  1.2612
    2MPD1    H714265   3.157   2.694  16.983 -0.9732  0.5275  0.0876
    3TCq2    C114266   3.696   3.116  17.007 -1.2053 -0.0476 -0.2233
    3TCq2    O214267   3.792   3.043  16.988 -0.0593  0.1402 -0.4196
    3TCq2    C214268   3.724   3.265  17.034  0.0585  0.0031  0.3094
    3TCq2    C314269   3.612   3.335  17.067 -0.3891  0.0912  1.0200
    3TCq2    C414270   3.610   3.469  17.026 -0.3706 -0.3447 -0.1501
    3TCq2    C514271   3.716   3.533  16.962  0.4078  0.0394 -1.0586
    3TCq2    C614272   3.827   3.449  16.931  0.0407  0.8129  0.0706
    3TCq2    C714273   3.834   3.319  16.965  0.2639  0.1562 -0.3606
    3TCq2    C814274   3.948   3.527  16.885  0.5477  0.0395 -0.3164
    3TCq2    O414275   4.057   3.468  16.884  0.2819  0.2166 -0.2379
    3TCq2    C914276   3.498   3.551  17.071 -0.7775  0.5668 -0.6663
    3TCq2    O514277   3.499   3.672  17.042 -0.2373 -0.1722 -0.6198
    3TCq2    O614278   3.424   3.495  17.157  0.3862  0.1301  0.2203
    3TCq2    H214279   3.534   3.292  17.129  0.6767 -2.1530  0.7850
    3TCq2    H314280   3.714   3.641  16.964  1.6868  0.0379  0.7789
    3TCq2    H414281   3.925   3.262  16.954  0.9258  1.3823 -1.2781
    1TCq1    O114282   1.477   1.057  12.427  0.3396  0.2370 -0.5420
    1TCq1    C114283   1.472   1.126  12.313  0.4004 -0.0149  0.5212
    1TCq1    O214284   1.562   1.115  12.233  0.0248 -0.5049  0.1141
    1TCq1    C214285   1.427   1.257  12.346  0.1212  0.6108 -0.4993
    1TCq1    C314286   1.301   1.270  12.405 -0.2426  0.0607  1.0682
    1TCq1    C414287   1.264   1.382  12.471  0.0531 -0.0047  0.4784
    1TCq1    C514288   1.360   1.481  12.476 -0.6250 -0.0679 -0.4917
    1TCq1    C614289   1.487   1.467  12.428 -1.1405  0.4730 -0.1915
    1TCq1    C714290   1.521   1.355  12.354 -0.1418  0.4061 -0.1231
    1TCq1    C814291   1.588   1.567  12.434 -0.1298  0.6730  0.5718
    1TCq1    O414292   1.696   1.546  12.382  0.3926  0.0135  0.0088
    1TCq1    C914293   1.135   1.397  12.540 -0.3227  0.3435  0.1575
    1TCq1    O514294   1.068   1.290  12.549 -0.5237  0.0282  0.9433
    1TCq1    O614295   1.105   1.508  12.598 -0.0341 -0.2757  0.2038
    1TCq1    H114296   1.410   1.093  12.488  1.0351  0.2403  0.2252
    1TCq1    H214297   1.234   1.186  12.418 -1.9250  1.1843 -0.3499
    1TCq1    H314298   1.330   1.567  12.534 -0.5556 -1.2352  1.2753
    1TCq1    H414299   1.624   1.336  12.327  0.5153 -0.6474  3.1322
    2MPD2     C14300   1.781   1.731  12.594  0.0436 -0.2887  0.1007
    2MPD2    C114301   1.643   1.754  12.581 -0.2167  0.1514 -0.2079
    2MPD2    C214302   1.579   1.863  12.639  0.7187  0.4000  0.2159
    2MPD2    C314303   1.659   1.950  12.704  0.6257  0.4444  0.4360
    2MPD2    C414304   1.799   1.924  12.719 -0.1574  0.4861  0.8110
    2MPD2    C514305   1.857   1.817  12.666 -0.0996  0.2517 -0.0874
    2MPD2     H14306   1.471   1.868  12.643  0.6130  1.4431 -3.5484
    2MPD2    H114307   1.867   1.990  12.771  0.3648 -0.7781  1.7235
    2MPD2    H214308   1.826   1.637  12.564 -0.0973  0.2593 -1.8035
    2MPD2    H314309   1.962   1.799  12.685  0.8106  4.3352 -1.1191
    2MPD2     N14310   1.597   2.071  12.752 -0.2574  0.2732 -0.3990
    2MPD2    H514311   1.496   2.065  12.760 -0.0683 -0.3502  1.3788
    2MPD2    N114312   1.553   1.675  12.508 -0.2222 -0.3864  0.1143
    2MPD2    H714313   1.457   1.686  12.537  0.0181  1.1589  0.3463
    3TCq1    O114314   1.511   2.690  12.964 -0.3079 -0.4172  0.0959
    3TCq1    C114315   1.537   2.579  13.032  0.3106  0.0764  0.3527
    3TCq1    O214316   1.613   2.574  13.126 -0.2534 -0.3169 -0.5813
    3TCq1    C214317   1.491   2.468  12.959 -0.7330 -0.1383  0.0809
    3TCq1    C314318   1.374   2.475  12.894 -0.7274 -0.2739  0.0565
    3TCq1    C414319   1.350   2.379  12.796 -0.3368 -0.0667  0.1030
    3TCq1    C514320   1.439   2.278  12.767  0.7685  0.2808  0.1270
    3TCq1    C614321   1.554   2.282  12.837  0.1662  0.1131  0.4924
    3TCq1    C714322   1.587   2.376  12.932  0.1772 -0.3867  0.5418
    3TCq1    C814323   1.650   2.179  12.821 -0.0169  0.4161 -0.2478
    3TCq1    O414324   1.759   2.199  12.871  0.0400 -0.2530  0.0719
    3TCq1    C914325   1.227   2.400  12.723 -0.6476 -0.1081 -0.4132
    3TCq1    O514326   1.152   2.500  12.742  0.2938 -0.3356 -0.1447
    3TCq1    O614327   1.196   2.317  12.631  0.8523 -0.0307  0.1724
    3TCq1    H114328   1.476   2.667  12.876  2.1301 -0.7313 -0.7875
    3TCq1    H214329   1.296   2.543  12.925  0.0405 -1.4211  4.4073
    3TCq1    H314330   1.404   2.210  12.691  1.1607 -2.3673  2.3262
    3TCq1    H414331   1.673   2.373  12.999  0.2156 -2.6919  0.3901
    1MPD2     C14332   1.517   3.620  15.246 -0.2800 -0.7798  0.5052
    1MPD2    C114333   1.533   3.520  15.154  0.0861  0.3219 -0.9170
    1MPD2    C214334   1.642   3.433  15.161 -0.0464 -0.2874  0.3120
    1MPD2    C314335   1.725   3.428  15.267 -0.4698 -0.3090  0.1861
    1MPD2    C414336   1.706   3.518  15.371 -0.4515 -0.3457 -0.2317
    1MPD2    C514337   1.608   3.617  15.350  0.2734 -0.4371  0.1984
    1MPD2     H14338   1.666   3.365  15.081  0.3499  3.3874 -2.7114
    1MPD2    H114339   1.769   3.513  15.459 -1.7263  1.9507  0.8047
    1MPD2    H214340   1.441   3.697  15.250  1.2737  0.7375  0.9799
    1MPD2    H314341   1.582   3.684  15.431 -0.8506  0.1950 -0.6852
    1MPD2     N14342   1.822   3.319  15.270  0.1110 -0.2247  0.6643
    1MPD2    H514343   1.830   3.271  15.181 -0.0988 -1.2452  1.2019
    1MPD2    N114344   1.444   3.517  15.041  0.5617  0.1555 -0.3164
    1MPD2    H714345   1.377   3.592  15.031 -1.4457 -1.3712  1.7332
    2TMC3    C114346   1.328   3.423  14.858 -0.2019  0.1548  0.2519
    2TMC3    C214347   1.297   3.296  14.812 -0.4203 -0.4900 -0.3764
    2TMC3    C314348   1.291   3.275  14.682 -0.2766  0.2641 -0.0778
    2TMC3    C414349   1.333   3.537  14.781  0.4033  0.3411  0.1767
    2TMC3    C514350   1.336   3.511  14.647  0.2451 -0.0877 -0.4164
    2TMC3    C614351   1.302   3.384  14.599 -0.1262 -0.5318  0.1016
    2TMC3     C14352   1.434   3.409  14.955  0.3728 -0.4078 -0.3436
    2TMC3     O14353   1.496   3.300  14.950  0.0347 -0.1138  0.0810
    2TMC3     H14354   1.300   3.214  14.882 -0.8493 -1.1460 -1.1346
    2TMC3    H114355   1.366   3.634  14.817 -0.1601  0.2861  0.8301
    2TMC3    H214356   1.290   3.361  14.494 -0.7908  1.4862 -0.2692
    2TMC3    C714357   1.328   3.617  14.548  0.6775 -0.2576 -0.3256
    2TMC3    C814358   1.362   3.154  14.642  0.2210  0.4667  0.2225
    2TMC3    O114359   1.301   3.583  14.434  0.2488  0.6400  0.6918
    2TMC3    O214360   1.305   3.090  14.554  0.3410 -0.0181 -0.2681
    3TCq1    O114361   2.008   4.634  14.409 -0.2345 -0.2337  0.0918
    3TCq1    C114362   2.002   4.599  14.540  0.4260 -0.3120  0.3319
    3TCq1    O214363   2.017   4.677  14.633  0.2453  0.1540 -0.4528
    3TCq1    C214364   1.988   4.458  14.558 -0.1566  0.0110  0.0088
    3TCq1    C314365   2.056   4.401  14.661 -0.0920  0.2797  0.2414
    3TCq1    C414366   2.030   4.272  14.699 -0.6355 -0.1816 -0.2600
    3TCq1    C514367   1.935   4.199  14.627 -0.0365 -0.0401 -0.7211
    3TCq1    C614368   1.885   4.257  14.514 -0.8730 -0.7474  0.0919
    3TCq1    C714369   1.906   4.393  14.479 -0.2144  0.1685 -0.7118
    3TCq1    C814370   1.776   4.197  14.435 -0.2345 -0.0572  0.2930
    3TCq1    O414371   1.745   4.259  14.333  0.0048 -0.0622 -0.0724
    3TCq1    C914372   2.117   4.217  14.800  0.0028  0.3958 -0.2900
    3TCq1    O514373   2.213   4.287  14.844 -0.3705 -0.0384  0.4018
    3TCq1    O614374   2.097   4.094  14.841  0.4003 -0.1851  0.4062
    3TCq1    H114375   1.994   4.550  14.361 -1.4552 -0.7217  1.3126
    3TCq1    H214376   2.135   4.454  14.713  0.5047  1.0167 -1.4199
    3TCq1    H314377   1.921   4.095  14.653 -0.8490  0.3518  0.4299
    3TCq1    H414378   1.859   4.451  14.401 -0.8893  1.3350  0.5588
    4MPD2     C14379   1.542   4.041  14.320  0.9068 -0.7470  0.1535
    4MPD2    C114380   1.592   4.032  14.450 -0.1277 -0.2333 -0.0146
    4MPD2    C214381   1.546   3.926  14.532  0.3605 -0.1181  0.4839
    4MPD2    C314382   1.450   3.835  14.488 -0.7471 -0.0005  0.2429
    4MPD2    C414383   1.396   3.862  14.361 -1.1210  0.2736 -0.6945
    4MPD2    C514384   1.448   3.959  14.272  0.1550 -0.4989 -0.3271
    4MPD2     H14385   1.600   3.900  14.622  2.1493  0.8765 -0.3224
    4MPD2    H114386   1.312   3.803  14.324 -0.1560 -1.4076 -0.2349
    4MPD2    H214387   1.580   4.100  14.237  1.5078  1.2738  1.8800
    4MPD2    H314388   1.411   3.962  14.171  2.1529  0.8974 -1.0305
    4MPD2     N14389   1.417   3.720  14.577  0.6383 -0.5191  0.5013
    4MPD2    H514390   1.464   3.719  14.668 -3.8408  0.1752  2.8218
    4MPD2    N114391   1.709   4.096  14.498  0.4241 -1.2371 -0.5436
    4MPD2    H714392   1.739   4.073  14.592 -1.0601 -0.4880  0.1318
    5TMC2    C114393   1.935   3.009  15.159 -0.1047 -0.0151 -0.0429
    5TMC2    C214394   1.883   2.909  15.233  0.3881  0.3090 -0.1947
    5TMC2    C314395   1.869   2.930  15.365  0.1557 -0.7762 -0.3181
    5TMC2    C414396   1.976   3.124  15.218 -0.6014 -0.5843 -0.8882
    5TMC2    C514397   1.960   3.143  15.352 -0.1910 -0.0207  0.5278
    5TMC2    C614398   1.917   3.040  15.432  0.0259  0.7061  0.1847
    5TMC2     C14399   1.859   3.041  15.039  0.4216  0.4595 -0.2961
    5TMC2     O14400   1.833   3.160  15.028  0.3808 -0.4458 -0.0501
    5TMC2     H14401   1.826   2.831  15.184  1.3579  0.3038 -1.3085
    5TMC2    H114402   2.010   3.199  15.147  2.0602  0.5193  1.5013
    5TMC2    H214403   1.887   3.064  15.533  1.5724  0.3460  0.7377
    5TMC2    C714404   1.902   3.279  15.375  0.3007  0.9478 -1.6790
    5TMC2    C814405   1.845   2.818  15.442  0.0196 -0.3859  0.2111
    5TMC2    O114406   1.891   3.308  15.493 -0.6867 -0.1617  0.0887
    5TMC2    O214407   1.797   2.712  15.404 -0.0357 -0.7668  0.1021
    5TMC2    O514408   1.962   2.825  15.506  0.0075  0.2672 -0.3963
    5TMC2    H514409   2.018   2.903  15.485 -0.6700  0.6458 -0.8335
    6MPD2     C14410   1.555   2.941  14.639 -0.1861 -0.1396 -0.6010
    6MPD2    C114411   1.575   3.049  14.717  0.3717 -0.3915 -0.1290
    6MPD2    C214412   1.679   3.052  14.806  0.3783  0.4434 -0.7195
    6MPD2    C314413   1.760   2.942  14.837 -0.0551  0.6553  1.0921
    6MPD2    C414414   1.757   2.841  14.745 -0.1401 -0.8986 -0.5295
    6MPD2    C514415   1.648   2.843  14.654 -0.4096 -0.3895 -0.2069
    6MPD2     H14416   1.674   3.133  14.877 -1.0049 -1.9221  1.9111
    6MPD2    H114417   1.827   2.760  14.759 -0.9608 -1.4060  0.6640
    6MPD2    H214418   1.476   2.933  14.565 -0.1674  0.3827 -0.6801
    6MPD2    H314419   1.651   2.768  14.575  0.8758  0.7639 -1.2627
    6MPD2     N14420   1.843   2.934  14.949 -0.0931  0.4736  0.6927
    6MPD2    H514421   1.880   2.843  14.976 -1.5002 -0.8215 -1.7415
    6MPD2    N114422   1.476   3.145  14.720  0.3899  0.0704  0.2596
    6MPD2    H714423   1.489   3.221  14.786  4.1609 -0.2217 -0.1757
  945NH3     N114424   4.377   0.184   7.574  0.3405 -0.0495  0.0875
  945NH3     H214425   4.425   0.132   7.647  0.1601 -0.4591 -0.0867
  945NH3     H314426   4.424   0.274   7.572 -1.6902  0.9334 -2.3367
  945NH3     H414427   4.417   0.142   7.491  2.4403  0.4524  0.8299
  946SOD     NA14428   1.157   1.512  16.578  0.3174 -0.2412 -0.1318
  947SOD     NA14429   3.298   3.905  11.440  0.2467  0.0786  0.1219
  948SOD     NA14430   0.564   0.637   7.159  0.2993  0.5438 -0.0360
  949SOD     NA14431   0.212   2.543   0.263  0.0654  0.3413 -0.0021
  950SOD     NA14432   1.045   2.304   2.866  0.0776  0.2758 -0.0766
  951SOD     NA14433   4.517   2.885  14.774 -0.3265 -0.4382  0.1874
  952SOD     NA14434   2.642   2.699  11.585 -0.2739  0.1575 -0.2458
  953SOD     NA14435   4.013   2.693   6.981  0.3809 -0.2361  0.0472
  954SOD     NA14436   0.145   0.295  11.829  0.0218 -0.1121 -0.0199
  955SOD     NA14437   2.271   4.128  14.982 -0.1212 -0.1497  0.2898
  956SOD     NA14438   3.879   1.652   1.162  0.3585  0.1893 -0.2269
  957SOD     NA14439   4.201   4.002  12.952 -0.2995  0.5295  0.6678
  958SOD     NA14440   4.480   2.643  13.648  0.0150  0.1449  0.0925
  959SOD     NA14441   4.133   3.274  16.106  0.1589 -0.4331  0.1627
  960SOD     NA14442   3.381   3.577  11.455  0.4829 -0.2331 -0.2155
  961SOD     NA14443   4.697   2.682   9.330  0.2765  0.1449 -0.1938
  962SOD     NA14444   4.114   3.756  13.165  0.7242  0.1207  0.0996
  963SOD     NA14445   2.049   2.204   9.850 -0.5118  0.0740  0.0271
  964SOD     NA14446   2.444   1.434  11.065 -0.7625  0.4141  0.0108
  965SOD     NA14447   2.578   3.286   3.365 -0.0605 -0.2968  0.2804
  966SOD     NA14448   3.157   1.846  15.135  0.0031 -0.8357  0.6860
  967SOD     NA14449   0.055   0.394   0.671  0.1024  0.3004  0.2986
  968SOD     NA14450   1.876   2.944   9.983  0.0247 -0.6843 -0.0406
  969SOD     NA14451   2.730   1.156  12.865 -0.1838  0.2672 -0.0987
  970SOD     NA14452   3.343   3.253   2.407 -0.3052  0.2168 -0.1306
  971SOD     NA14453   0.550   2.047  16.978 -0.3651  0.2019  0.5451
  972SOD     NA14454   1.723   2.973  10.278 -0.4027  0.0762  0.6151
  973SOD     NA14455   0.876   3.936   1.105 -0.3100  0.5462  0.5774
  974SOD     NA14456   0.174   1.702  12.673  0.2427 -0.1587 -0.1113
  975SOD     NA14457   2.535   3.901  10.240  0.2123 -0.0569 -0.2194
  976SOD     NA14458   3.411   3.841  11.735 -0.3358 -0.0769  0.2926
  977SOD     NA14459   2.417   1.716  10.932  0.2248  0.0946  0.1761
  978SOD     NA14460   1.433   2.603  10.857  0.2798  0.1578  0.4623
  979SOD     NA14461   0.323   2.647  12.074 -0.1577  0.1380 -0.2473
  980SOD     NA14462   3.445   1.036  14.250 -0.1050  0.3714 -0.4877
  981SOD     NA14463   1.062   1.849  10.303  0.4303  0.4165  0.7044
  982SOD     NA14464   3.968   1.424   0.938 -0.2177 -0.3737 -0.1548
  983SOD     NA14465   3.255   1.357  16.650 -0.0346  0.1746  0.2988
  984SOD     NA14466   1.580   2.835   9.875 -0.0765  0.1748  0.0389
  985SOD     NA14467   3.287   3.080  10.134 -0.1243  0.3813  0.5480
  986SOD     NA14468   2.482   2.583  11.337  0.0611  0.1699 -0.6204
  987SOD     NA14469   2.127   3.396   7.484 -0.2539 -0.5058 -0.3783
  988SOD     NA14470   0.974   1.450  12.746  0.2117 -0.1663  0.6908
  989SOD     NA14471   3.102   3.489   2.358  0.0354 -0.1090 -0.0830
  990SOD     NA14472   1.347   1.790  15.364  0.1893 -0.6755  0.1354
  991SOD     NA14473   2.732   3.303  15.405 -0.1009  0.2832 -0.0412
  992SOD     NA14474   4.337   1.167  15.098  0.2264 -0.1530 -0.0079
  993SOD     NA14475   0.561   1.222  11.774 -0.4251  0.3186 -0.5447
  994SOD     NA14476   1.591   1.594   5.573 -0.1292  0.4868 -0.2298
  995SOD     NA14477   3.899   0.318   2.410  0.2321  0.1579  0.1534
  996SOD     NA14478   1.994   4.364  15.734  0.3532 -0.1628  0.2256
  997SOD     NA14479   3.066   2.793   0.182  0.0787 -0.1066  0.3278
  998SOD     NA14480   4.651   2.542   2.314 -0.1000  0.2192 -0.3528
  999SOD     NA14481   1.827   0.697  10.303  0.3827  0.4412 -0.5215
 1000SOD     NA14482   1.644   1.424  10.978  0.1056  0.1696  0.4818
 1001SOD     NA14483   1.063   2.498  12.544  0.1675 -0.2085  0.4956
 1002SOD     NA14484   2.870   2.990  14.433  0.3785 -0.0016  0.0210
 1003SOD     NA14485   3.490   2.513  14.292 -0.4018  0.1820  0.6025
 1004SOD     NA14486   3.740   0.819   4.958  0.4185  0.0049 -0.3249
 1005SOD     NA14487   2.019   0.765  12.777  0.0015 -0.0306  0.3774
 1006SOD     NA14488   4.273   4.549   2.096  0.1160  0.2703  0.4663
 1007SOD     NA14489   2.888   1.849  12.110  0.0466 -0.0112  0.4627
 1008SOD     NA14490   2.874   0.458  17.483 -0.3337 -0.1757 -0.2578
 1009SOD     NA14491   3.185   0.474  17.483 -0.3462  0.2926 -0.1905
 1010SOD     NA14492   0.355   4.252   3.813 -0.0753 -0.0099  0.4000
 1011SOD     NA14493   3.314   2.485  10.123  0.1390  0.4850 -0.4354
 1012SOL     OW14494   4.528   3.987   6.111 -0.3999 -0.6003 -0.1943
 1012SOL    HW114495   4.503   4.043   6.184 -0.5251 -0.0812 -0.6321
 1012SOL    HW214496   4.484   4.023   6.034 -0.6934 -0.3910  0.0731
 1013SOL     OW14497   0.517   0.336   6.668  0.3156  0.2990 -0.2058
 1013SOL    HW114498   0.563   0.407   6.712 -1.5005  0.9301  0.6712
 1013SOL    HW214499   0.568   0.264   6.707  2.6605  0.6505 -2.5943
 1014SOL     OW14500   3.684   1.845  15.117 -0.6451 -0.0006  0.2439
 1014SOL    HW114501   3.740   1.877  15.047  0.7729  1.5650  2.1055
 1014SOL    HW214502   3.602   1.851  15.068 -0.6947  0.8228  0.4312
 1015SOL     OW14503   3.431   3.253   4.861 -0.1388  0.5585  0.1513
 1015SOL    HW114504   3.349   3.294   4.833  0.7491  1.4557 -1.1384
 1015SOL    HW214505   3.418   3.163   4.831  1.4773  0.5610 -0.5576
 1016SOL     OW14506   0.249   3.103  13.851 -0.0207 -0.0127  0.1494
 1016SOL    HW114507   0.305   3.181  13.847  0.2603 -0.4354 -3.4098
 1016SOL    HW214508   0.284   3.052  13.779 -0.0917 -0.1431  0.2077
 1017SOL     OW14509   4.487   1.420   8.044 -0.0616  0.2896 -0.6129
 1017SOL    HW114510   4.519   1.334   8.070  0.2838  0.8929  0.9365
 1017SOL    HW214511   4.402   1.399   8.006 -0.2170  0.4355 -0.3469
 1018SOL     OW14512   4.253   3.611   5.343 -0.4375 -0.0645 -0.6511
 1018SOL    HW114513   4.219   3.522   5.332  1.0364 -0.5104 -1.5873
 1018SOL    HW214514   4.293   3.612   5.256 -0.5426  0.8059 -0.6906
 1019SOL     OW14515   4.623   0.222  15.510  0.0177 -0.7955  0.0833
 1019SOL    HW114516   4.664   0.142  15.478 -1.1503 -2.1230  1.9340
 1019SOL    HW214517   4.564   0.245  15.438 -0.4979 -0.5209  0.5926
 1020SOL     OW14518   1.190   2.431  10.500  0.2925 -0.0963 -0.2329
 1020SOL    HW114519   1.266   2.487  10.482  0.2913 -1.2031 -3.7103
 1020SOL    HW214520   1.140   2.440  10.419 -0.5168  0.7121  0.3490
 1021SOL     OW14521   1.648   1.143   4.687 -0.5175 -0.0170  0.2610
 1021SOL    HW114522   1.588   1.156   4.760 -1.9633 -1.1345 -0.7401
 1021SOL    HW214523   1.589   1.132   4.612  1.8554 -0.4128 -1.5686
 1022SOL     OW14524   4.620   4.630   3.814  0.1261 -0.4701 -0.3035
 1022SOL    HW114525   4.682   4.696   3.843 -0.9862  0.3765  0.1489
 1022SOL    HW214526   4.555   4.629   3.885  0.8897 -0.5033  0.3912
 1023SOL     OW14527   3.841   1.277  12.781 -0.0934  0.6718  0.0371
 1023SOL    HW114528   3.759   1.228  12.776  0.9745 -1.4444  3.0848
 1023SOL    HW214529   3.855   1.296  12.874  1.7024  0.4946 -0.2111
 1024SOL     OW14530   1.272   1.867   5.766 -0.1687  0.0713 -0.3221
 1024SOL    HW114531   1.253   1.944   5.712 -0.7622  0.4778  0.4849
 1024SOL    HW214532   1.203   1.806   5.740  0.2248 -1.3694  2.1031
 1025SOL     OW14533   3.050   0.030   8.548  0.7206 -0.4014 -0.3717
 1025SOL    HW114534   3.002   4.675   8.579  1.6900 -0.5639  0.7157
 1025SOL    HW214535   3.092   0.063   8.627  0.8808 -0.6071 -0.3740
 1026SOL     OW14536   2.154   0.546   3.593 -0.0681  1.0536 -0.2774
 1026SOL    HW114537   2.134   0.598   3.671 -1.0397 -0.6228  0.5841
 1026SOL    HW214538   2.152   0.459   3.631 -2.7262  0.5213 -1.6016
 1027SOL     OW14539   3.289   4.151   4.740 -0.0185  0.8040 -0.2787
 1027SOL    HW114540   3.294   4.186   4.829 -1.8489  1.7662 -0.5638
 1027SOL    HW214541   3.383   4.143   4.721  0.1304  1.8372  0.0069
 1028SOL     OW14542   0.472   2.037   7.378 -0.1934  0.0019 -0.0898
 1028SOL    HW114543   0.442   2.102   7.315  0.0098  0.8228  0.6737
 1028SOL    HW214544   0.553   2.077   7.406 -0.8441  0.1351  1.5936
 1029SOL     OW14545   3.715   2.448   7.311  0.5469  0.2193 -0.7534
 1029SOL    HW114546   3.643   2.424   7.253 -1.1735  1.5777  0.7945
 1029SOL    HW214547   3.676   2.452   7.398  0.5041  1.9980 -0.8631
 1030SOL     OW14548   3.350   3.800  14.266  0.2567 -0.0022 -0.4781
 1030SOL    HW114549   3.274   3.836  14.221 -0.6170  0.8867  1.6964
 1030SOL    HW214550   3.396   3.875  14.304 -0.1606  0.7435 -1.4317
 1031SOL     OW14551   1.586   4.411   4.925 -0.1725 -0.5094 -0.0267
 1031SOL    HW114552   1.528   4.401   4.850 -0.8257 -0.6505  0.4990
 1031SOL    HW214553   1.652   4.343   4.907 -1.2102 -1.8399  1.1531
 1032SOL     OW14554   4.629   2.732   5.455  0.3802 -0.0315 -0.1058
 1032SOL    HW114555   4.562   2.727   5.387 -1.1160  2.0707  1.2148
 1032SOL    HW214556   4.681   2.808   5.428 -3.0585  2.6756  0.9187
 1033SOL     OW14557   1.461   3.966   6.664 -0.6813 -0.0897 -0.0282
 1033SOL    HW114558   1.521   4.024   6.712 -2.3181 -0.7023  2.7636
 1033SOL    HW214559   1.383   3.973   6.719 -2.2728 -3.4358 -1.8659
 1034SOL     OW14560   4.682   1.993   7.365 -0.3502  0.0060  0.2751
 1034SOL    HW114561   4.694   1.954   7.452 -1.4072 -2.0871 -0.5231
 1034SOL    HW214562   4.667   1.915   7.312  0.1937 -0.5269  0.8996
 1035SOL     OW14563   3.243   1.484   2.053  0.0434 -0.0809 -0.0448
 1035SOL    HW114564   3.224   1.538   2.129 -2.6620  0.1850 -0.9030
 1035SOL    HW214565   3.164   1.430   2.054 -1.2052  1.7523 -1.0176
 1036SOL     OW14566   3.669   3.194  17.331  1.0668 -0.2282  0.4562
 1036SOL    HW114567   3.669   3.283  17.369  1.8582  0.3838 -0.9823
 1036SOL    HW214568   3.762   3.191  17.309  1.8408 -0.0295  3.5627
 1037SOL     OW14569   3.976   2.261   1.466  0.1074  0.0004  0.3810
 1037SOL    HW114570   3.931   2.317   1.404 -0.1464 -0.3453  0.2504
 1037SOL    HW214571   4.049   2.227   1.414 -2.0062 -2.3748 -1.0547
 1038SOL     OW14572   1.267   3.586   1.790  0.4368 -0.3197  0.2038
 1038SOL    HW114573   1.287   3.628   1.706  0.9855 -3.1843 -1.1094
 1038SOL    HW214574   1.292   3.499   1.757  0.3927  0.0461 -0.7793
 1039SOL     OW14575   2.151   1.426   7.537 -0.2157  0.5287 -0.1836
 1039SOL    HW114576   2.058   1.447   7.549 -0.1383  0.3363  0.7462
 1039SOL    HW214577   2.156   1.348   7.592  1.0309  1.6158  1.2535
 1040SOL     OW14578   1.657   0.420  15.582  0.4442 -0.3823  0.1735
 1040SOL    HW114579   1.611   0.363  15.643  2.7777 -1.3310  1.0605
 1040SOL    HW214580   1.747   0.413  15.614 -0.0450 -0.1758  1.6142
 1041SOL     OW14581   3.099   2.457   4.326  0.2689  0.0667  0.2319
 1041SOL    HW114582   3.091   2.411   4.409 -0.3013  0.8111  0.5825
 1041SOL    HW214583   3.184   2.419   4.302  0.8172  0.4913  1.5178
 1042SOL     OW14584   0.190   0.831   3.438  0.4581  1.0093  0.0855
 1042SOL    HW114585   0.151   0.884   3.368 -1.1797 -0.4731 -0.1145
 1042SOL    HW214586   0.124   0.762   3.445  0.1154  1.3846  0.5535
 1043SOL     OW14587   4.717   4.534  10.567 -0.3920  0.1185 -0.0281
 1043SOL    HW114588   0.066   4.566  10.511  1.0361 -0.5553  1.3965
 1043SOL    HW214589   4.643   4.590  10.543 -1.9835 -1.3269  1.4250
 1044SOL     OW14590   1.314   0.429   1.988 -0.5391 -0.0265  0.1189
 1044SOL    HW114591   1.307   0.343   1.946  0.6163 -1.2979  2.5201
 1044SOL    HW214592   1.385   0.465   1.935 -0.4507  0.5766  0.6483
 1045SOL     OW14593   0.301   2.882  12.050  0.1897  0.4893 -0.0448
 1045SOL    HW114594   0.225   2.940  12.044  0.5880  1.1260  0.8642
 1045SOL    HW214595   0.326   2.885  11.958  0.2096  0.0347 -0.0516
 1046SOL     OW14596   4.691   2.845   0.645  0.1010 -0.4517 -0.1762
 1046SOL    HW114597   4.654   2.880   0.564  0.6774 -0.5367 -0.4745
 1046SOL    HW214598   4.675   2.753   0.622 -3.0664  0.2872 -1.0075
 1047SOL     OW14599   2.279   0.067  13.313  0.1290 -0.4275 -0.2986
 1047SOL    HW114600   2.240   0.153  13.329  0.5499  0.0724 -1.8320
 1047SOL    HW214601   2.245   0.019  13.387  1.8744  0.3289  0.9987
 1048SOL     OW14602   2.476   4.431   8.251 -0.3756 -0.2804 -0.6794
 1048SOL    HW114603   2.511   4.516   8.223 -0.5486 -0.0696 -0.2522
 1048SOL    HW214604   2.386   4.458   8.269 -1.0646 -2.0729 -1.3994
 1049SOL     OW14605   3.757   0.291   6.848 -0.0664  0.3819 -0.1837
 1049SOL    HW114606   3.813   0.215   6.863 -3.5989 -2.3513 -0.7932
 1049SOL    HW214607   3.751   0.287   6.752 -2.1794  1.2311 -0.0765
 1050SOL     OW14608   2.810   1.770   8.570  0.0171  0.0913  0.5621
 1050SOL    HW114609   2.798   1.764   8.665 -1.4303 -0.7734  0.3191
 1050SOL    HW214610   2.889   1.715   8.565  1.1936  1.5877  2.6832
 1051SOL     OW14611   1.852   1.999   5.125  0.9249  0.0906 -0.3908
 1051SOL    HW114612   1.888   1.911   5.111  2.2168  0.7880 -1.4237
 1051SOL    HW214613   1.910   2.024   5.198  3.6620 -2.0219 -1.8321
 1052SOL     OW14614   3.574   2.708   4.656  0.4562  0.1755  0.8427
 1052SOL    HW114615   3.609   2.718   4.568 -1.4475 -2.2467 -0.1943
 1052SOL    HW214616   3.616   2.785   4.696 -0.1011  0.7299  0.3610
 1053SOL     OW14617   3.479   1.413  15.047  0.5198 -0.0552 -0.1473
 1053SOL    HW114618   3.482   1.501  15.009 -4.0945  1.2438  2.4422
 1053SOL    HW214619   3.391   1.410  15.085 -0.1508 -1.4762 -1.8011
 1054SOL     OW14620   3.719   4.006   7.800  0.2181  0.8143  0.6386
 1054SOL    HW114621   3.655   4.074   7.779 -1.3263 -1.0409 -0.7235
 1054SOL    HW214622   3.785   4.024   7.733  1.1849 -1.5862  0.9329
 1055SOL     OW14623   1.787   0.167   9.506 -0.2411 -0.2504  0.4842
 1055SOL    HW114624   1.754   0.157   9.595 -1.1509  3.3330  0.5567
 1055SOL    HW214625   1.807   0.075   9.487  3.8841  0.7542 -0.0216
 1056SOL     OW14626   3.106   4.395   3.162 -0.4015 -0.3368 -0.5728
 1056SOL    HW114627   3.071   4.418   3.077  0.6648 -1.6657 -1.3745
 1056SOL    HW214628   3.114   4.485   3.193 -0.7354 -0.2801 -0.6532
 1057SOL     OW14629   2.918   3.194   6.732  0.1861 -0.0163  0.5339
 1057SOL    HW114630   2.996   3.139   6.719  0.5255  0.1780  1.7557
 1057SOL    HW214631   2.899   3.234   6.647 -3.8419  0.2588  1.5586
 1058SOL     OW14632   2.978   3.164   3.506  0.6367  0.0027 -0.2253
 1058SOL    HW114633   2.982   3.234   3.571 -2.0968 -0.5478  0.5120
 1058SOL    HW214634   3.040   3.099   3.540 -0.3244 -1.6501 -1.5909
 1059SOL     OW14635   3.434   4.698   6.761 -0.2527 -0.5739 -0.4423
 1059SOL    HW114636   3.465   0.035   6.693  0.6737  0.4352  0.8419
 1059SOL    HW214637   3.349   4.669   6.728 -1.3488  0.8081  1.1912
 1060SOL     OW14638   3.012   0.759   6.961 -0.5749  0.0280  0.8805
 1060SOL    HW114639   3.027   0.743   7.054  1.9390  0.7575  0.5990
 1060SOL    HW214640   3.101   0.755   6.926 -1.1234  1.9893 -0.7285
 1061SOL     OW14641   4.459   0.676   0.826  0.1816  0.3781 -0.2675
 1061SOL    HW114642   4.482   0.721   0.745  0.8808 -0.2959 -0.4452
 1061SOL    HW214643   4.366   0.694   0.813  0.1394  0.5353  0.2438
 1062SOL     OW14644   2.692   3.063  15.423 -0.0657  0.0115 -0.1635
 1062SOL    HW114645   2.657   3.052  15.511  0.0565  3.4098  0.2804
 1062SOL    HW214646   2.616   3.041  15.370  1.3930 -1.8702 -1.4851
 1063SOL     OW14647   1.391   1.209  17.230 -0.4994 -0.0174  0.4598
 1063SOL    HW114648   1.431   1.144  17.288 -2.1773 -1.2887  0.2166
 1063SOL    HW214649   1.394   1.159  17.148 -2.3867  0.9643 -0.2205
 1064SOL     OW14650   2.425   3.059   9.940 -0.2801  0.4194  0.4416
 1064SOL    HW114651   2.412   3.016   9.856  1.8329  0.7612 -0.0523
 1064SOL    HW214652   2.455   2.985   9.992 -1.5732 -0.2451  0.2469
 1065SOL     OW14653   3.428   0.565   9.163 -1.0310  0.1437 -0.5736
 1065SOL    HW114654   3.389   0.630   9.105 -0.4168 -1.5518 -2.8694
 1065SOL    HW214655   3.363   0.496   9.155  0.5496 -1.1442 -2.3122
 1066SOL     OW14656   3.229   1.384  15.918 -0.4448  0.5034 -0.2804
 1066SOL    HW114657   3.298   1.390  15.851 -0.0703 -1.6893 -0.0931
 1066SOL    HW214658   3.262   1.456  15.971  1.5876 -1.0206  0.5698
 1067SOL     OW14659   1.751   2.735   4.718  0.1596 -0.1235 -0.6006
 1067SOL    HW114660   1.674   2.751   4.771  1.5198  2.5237  0.5326
 1067SOL    HW214661   1.773   2.641   4.719  0.0734 -0.1830 -3.6636
 1068SOL     OW14662   0.489   4.331   7.072  0.4739 -0.7362  0.1939
 1068SOL    HW114663   0.577   4.362   7.052 -0.1897  0.9320 -0.1054
 1068SOL    HW214664   0.455   4.409   7.114  2.7335 -0.3213  1.2563
 1069SOL     OW14665   3.213   3.817   4.005  0.3120 -0.0994 -0.0087
 1069SOL    HW114666   3.270   3.894   3.993  2.0729 -1.0105  2.4777
 1069SOL    HW214667   3.277   3.758   3.967  0.7103  1.0922 -1.1856
 1070SOL     OW14668   1.853   0.638   6.215 -0.0663 -0.2064  0.2578
 1070SOL    HW114669   1.880   0.701   6.281 -0.0556 -1.8715  1.8436
 1070SOL    HW214670   1.758   0.653   6.207 -0.0983  0.4538  1.8943
 1071SOL     OW14671   2.481   2.138   1.298  0.5710 -0.3081 -0.1498
 1071SOL    HW114672   2.532   2.128   1.218  0.2582 -0.2170 -0.3607
 1071SOL    HW214673   2.499   2.230   1.315  1.2701 -0.5958  0.6741
 1072SOL     OW14674   0.733   3.819  12.988  0.5106 -0.9052 -0.2408
 1072SOL    HW114675   0.805   3.837  13.048  0.3184  0.0298 -0.2926
 1072SOL    HW214676   0.717   3.730  13.018  1.5250 -0.7612  0.7303
 1073SOL     OW14677   2.492   1.052   3.716 -0.1004 -0.3216 -0.9294
 1073SOL    HW114678   2.449   0.980   3.762 -0.2205  0.9312  0.8889
 1073SOL    HW214679   2.579   1.011   3.718 -0.3170 -0.7148  0.5468
 1074SOL     OW14680   3.317   3.370   0.547  0.0393 -0.0782 -0.4724
 1074SOL    HW114681   3.274   3.456   0.545 -2.0652 -1.1359 -1.1576
 1074SOL    HW214682   3.362   3.378   0.463  1.2609 -1.0520  0.1029
 1075SOL     OW14683   1.991   4.656   8.612 -1.0179 -0.2221 -0.2667
 1075SOL    HW114684   2.017   4.569   8.581  1.1733  0.5486 -0.5803
 1075SOL    HW214685   2.012   0.003   8.549  1.9911  0.2434  1.2616
 1076SOL     OW14686   3.783   1.370   6.693  0.1324 -0.2525 -0.1073
 1076SOL    HW114687   3.870   1.399   6.722  1.0648 -2.2881 -0.8746
 1076SOL    HW214688   3.748   1.358   6.781  0.3901  0.1881  0.0574
 1077SOL     OW14689   1.744   3.111   8.479  0.3031  0.3235 -0.3162
 1077SOL    HW114690   1.777   3.033   8.524  0.3411  1.6932  1.9881
 1077SOL    HW214691   1.758   3.083   8.388  1.0590  2.3715 -0.8450
 1078SOL     OW14692   3.918   0.499   9.832 -0.2315  0.6637 -0.0194
 1078SOL    HW114693   3.922   0.420   9.778  2.6768 -0.1889  1.4633
 1078SOL    HW214694   3.828   0.533   9.829 -0.2160  0.6344 -1.0127
 1079SOL     OW14695   2.896   2.139   2.745  0.5733  0.2493  0.4904
 1079SOL    HW114696   2.921   2.178   2.661  0.5475  0.4783  0.5921
 1079SOL    HW214697   2.857   2.061   2.704 -0.2830  0.1313  1.5238
 1080SOL     OW14698   2.437   3.589   1.889  0.0555  0.1122 -0.0055
 1080SOL    HW114699   2.517   3.582   1.836  1.0468 -0.6759  1.6159
 1080SOL    HW214700   2.393   3.506   1.871  3.7577 -2.5549  3.2535
 1081SOL     OW14701   3.647   3.452   4.913  0.7170 -0.0468  0.3170
 1081SOL    HW114702   3.577   3.389   4.929  1.4471 -0.7217  0.7919
 1081SOL    HW214703   3.716   3.401   4.873  0.8476  0.6235 -0.3199
 1082SOL     OW14704   0.247   2.122   7.609 -0.1093 -0.0967 -0.1529
 1082SOL    HW114705   0.307   2.183   7.652  1.6278 -1.6183 -0.3604
 1082SOL    HW214706   0.314   2.056   7.586  0.9003  1.2884 -1.1953
 1083SOL     OW14707   1.735   0.793  10.104  0.1738  0.2402 -0.3585
 1083SOL    HW114708   1.656   0.843  10.084  0.1236  0.3805  0.1878
 1083SOL    HW214709   1.738   0.745  10.022  3.3169 -1.0813  0.5277
 1084SOL     OW14710   2.137   0.831  15.567 -0.0317 -0.3324  0.8135
 1084SOL    HW114711   2.062   0.808  15.513 -0.2406 -0.1752  1.0366
 1084SOL    HW214712   2.206   0.781  15.524 -0.9745 -3.1856  2.6553
 1085SOL     OW14713   3.035   1.870  17.569 -0.2694  0.7667 -0.2377
 1085SOL    HW114714   2.969   1.933  17.599  0.9673  2.2489 -0.6566
 1085SOL    HW214715   3.046   1.822  17.651 -0.8188  0.4755 -0.3335
 1086SOL     OW14716   1.173   3.000   8.958  0.5406 -0.0213  0.0550
 1086SOL    HW114717   1.104   2.950   9.002 -0.0374  0.4189 -0.3525
 1086SOL    HW214718   1.223   2.930   8.916 -4.1867 -2.1095 -1.9697
 1087SOL     OW14719   0.899   4.122   8.455  0.3876 -0.1754  0.4443
 1087SOL    HW114720   0.895   4.038   8.499  0.8683  0.2549  1.2982
 1087SOL    HW214721   0.884   4.106   8.361 -0.2006  2.6985  0.0278
 1088SOL     OW14722   3.807   3.361  15.193 -0.3176 -0.0762  0.1081
 1088SOL    HW114723   3.877   3.355  15.129  1.8975 -0.0132  2.5372
 1088SOL    HW214724   3.784   3.268  15.199  0.3091 -0.0687  2.7049
 1089SOL     OW14725   3.827   4.151   6.841 -0.5690  0.0915 -0.4316
 1089SOL    HW114726   3.740   4.119   6.818 -1.3006  1.5209  0.3767
 1089SOL    HW214727   3.822   4.244   6.820  2.0703 -0.1444 -2.1063
 1090SOL     OW14728   2.523   4.440   7.466 -0.1739 -0.1065  0.4911
 1090SOL    HW114729   2.443   4.391   7.446 -2.0777  2.7786  1.1266
 1090SOL    HW214730   2.591   4.372   7.465  1.5329  1.5990  0.8004
 1091SOL     OW14731   2.219   0.257   2.722  0.6385 -0.1616  0.1322
 1091SOL    HW114732   2.173   0.338   2.699 -0.9116 -0.9920  0.3241
 1091SOL    HW214733   2.205   0.205   2.643 -2.6792  0.1698  0.5313
 1092SOL     OW14734   4.446   4.377   4.137 -0.2226 -0.1533  0.2016
 1092SOL    HW114735   4.430   4.286   4.164 -0.0949 -1.1588 -3.1198
 1092SOL    HW214736   4.506   4.359   4.065  0.7721 -1.3944  1.3329
 1093SOL     OW14737   4.031   4.387  15.994  0.2493 -0.0217 -0.1629
 1093SOL    HW114738   4.065   4.313  15.943 -1.6353 -0.1943 -1.1568
 1093SOL    HW214739   3.974   4.432  15.932 -0.9581  0.3695  1.2346
 1094SOL     OW14740   3.922   4.057   5.165 -0.2506  0.3096  0.2137
 1094SOL    HW114741   4.004   4.016   5.193  0.8020 -0.3992 -3.8330
 1094SOL    HW214742   3.864   3.981   5.160 -1.9912  1.6788 -0.5397
 1095SOL     OW14743   1.895   3.385   9.036 -0.5642  0.1341 -0.4654
 1095SOL    HW114744   1.828   3.429   9.088 -2.1831 -1.9881 -0.7659
 1095SOL    HW214745   1.923   3.450   8.972 -0.5631  0.7336  0.1375
 1096SOL     OW14746   3.490   3.179   5.116 -0.4930 -0.2102  0.0409
 1096SOL    HW114747   3.485   3.222   5.030  0.4955  2.1028  1.1268
 1096SOL    HW214748   3.409   3.204   5.161 -0.7797 -0.9078 -0.0883
 1097SOL     OW14749   4.191   4.664   8.342 -0.0337 -0.0452 -0.4045
 1097SOL    HW114750   4.181   4.629   8.431  3.9667  1.1485  0.5047
 1097SOL    HW214751   4.249   0.017   8.356 -2.2710  1.5907  0.1836
 1098SOL     OW14752   3.392   0.021  10.707  0.0669  0.6100 -0.4550
 1098SOL    HW114753   3.341   0.089  10.753 -0.6541  0.3196 -0.8204
 1098SOL    HW214754   3.481   0.055  10.717  0.2793  0.3843 -1.6098
 1099SOL     OW14755   4.432   3.399  16.835  0.0017  0.4325 -0.3050
 1099SOL    HW114756   4.451   3.428  16.746 -0.0464  0.3159 -0.3526
 1099SOL    HW214757   4.447   3.305  16.834 -0.6818  0.3044  2.1917
 1100SOL     OW14758   2.636   1.056  16.921  0.0718 -0.1500 -0.1246
 1100SOL    HW114759   2.699   1.099  16.978 -1.5476  1.8315  0.1811
 1100SOL    HW214760   2.628   0.973  16.968 -2.2264  2.2463  3.7185
 1101SOL     OW14761   0.091   0.666  15.179 -0.1668  0.1054 -0.4082
 1101SOL    HW114762   0.050   0.598  15.231 -2.0912  0.1307 -1.8708
 1101SOL    HW214763   0.183   0.640  15.178 -0.8097 -2.1400 -0.5057
 1102SOL     OW14764   0.744   0.206   2.216  0.1169 -0.1791  0.3343
 1102SOL    HW114765   0.697   0.128   2.245  1.2922 -0.0618  2.5583
 1102SOL    HW214766   0.812   0.182   2.154  0.9068  1.1585  0.6838
 1103SOL     OW14767   0.531   1.150  14.122 -0.0899  0.3987 -0.0930
 1103SOL    HW114768   0.482   1.232  14.120 -0.0629  0.3957 -0.8041
 1103SOL    HW214769   0.616   1.171  14.160 -0.7242  0.3200  1.3690
 1104SOL     OW14770   0.298   1.760   2.031 -0.2912  0.1894  0.2461
 1104SOL    HW114771   0.356   1.699   1.985  0.6344  1.6371 -0.5080
 1104SOL    HW214772   0.357   1.834   2.020 -0.6319  0.2324 -1.3295
 1105SOL     OW14773   3.055   0.535  16.533 -0.1569 -0.2048 -0.2698
 1105SOL    HW114774   3.044   0.509  16.442 -0.6892  0.7934 -0.4850
 1105SOL    HW214775   3.144   0.567  16.518 -0.4944  0.5198 -0.6710
 1106SOL     OW14776   3.536   3.110  14.845  0.4698 -0.6139 -0.5113
 1106SOL    HW114777   3.488   3.031  14.818  1.0253 -0.9831 -0.4256
 1106SOL    HW214778   3.466   3.175  14.848  0.0248 -1.1170 -0.0757
 1107SOL     OW14779   2.344   4.295  14.459  0.4968  0.7306  0.0213
 1107SOL    HW114780   2.308   4.367  14.407  0.6083  0.0332 -1.0121
 1107SOL    HW214781   2.378   4.235  14.392 -0.2663  0.1713  0.1349
 1108SOL     OW14782   2.302   4.653   7.516 -0.0052 -0.4887  0.4419
 1108SOL    HW114783   2.258   4.695   7.442 -0.1739 -1.1435  0.1714
 1108SOL    HW214784   2.266   4.564   7.513  0.9043 -0.8057 -1.4222
 1109SOL     OW14785   0.933   2.458   6.175  0.5235  0.1004  0.0725
 1109SOL    HW114786   0.946   2.450   6.081 -1.1637 -0.4944 -0.1183
 1109SOL    HW214787   1.019   2.493   6.200  1.0498  0.5385 -2.4195
 1110SOL     OW14788   1.064   2.773   8.566 -0.2419  0.0668  1.0680
 1110SOL    HW114789   0.991   2.771   8.627  0.5476  1.5999  2.0672
 1110SOL    HW214790   1.060   2.861   8.528 -0.8783  0.2353  1.5254
 1111SOL     OW14791   2.328   3.308   8.299 -0.3964  0.0684 -0.5667
 1111SOL    HW114792   2.352   3.234   8.355 -2.0367 -0.5501 -0.6938
 1111SOL    HW214793   2.302   3.269   8.215  1.3580  0.4380 -1.2934
 1112SOL     OW14794   1.058   1.465   4.906  0.2260  0.3459  0.7947
 1112SOL    HW114795   0.988   1.483   4.968  0.8316  0.8849  1.3308
 1112SOL    HW214796   1.127   1.483   4.970  1.1208  1.1749 -0.3853
 1113SOL     OW14797   2.464   1.565   5.650 -0.0396  0.4589 -0.1792
 1113SOL    HW114798   2.481   1.482   5.605 -1.4189 -0.3307  0.7636
 1113SOL    HW214799   2.484   1.619   5.574 -0.2633 -0.6297 -1.0231
 1114SOL     OW14800   4.547   2.333  16.244 -0.3704 -0.2566  0.1189
 1114SOL    HW114801   4.583   2.420  16.231  1.1077 -1.2556 -2.2545
 1114SOL    HW214802   4.625   2.301  16.289  0.5524  0.7095 -0.8291
 1115SOL     OW14803   3.660   0.861   5.473  0.2232  0.4727 -0.4293
 1115SOL    HW114804   3.623   0.948   5.488  0.3002  0.4249  0.0401
 1115SOL    HW214805   3.580   0.808   5.466  0.2407  0.5441 -1.1872
 1116SOL     OW14806   2.907   0.346  14.806 -0.2785  0.2437 -0.0826
 1116SOL    HW114807   2.946   0.394  14.732 -0.2067  0.9361  0.4060
 1116SOL    HW214808   2.859   0.284  14.751  2.7456 -2.0334 -0.1678
 1117SOL     OW14809   0.649   3.080   8.275 -0.0052 -0.6233  0.0609
 1117SOL    HW114810   0.705   3.148   8.313 -1.3156  1.3768 -1.5950
 1117SOL    HW214811   0.674   2.995   8.311  1.2181 -1.9321 -3.8840
 1118SOL     OW14812   1.016   0.000   9.383 -0.4714 -0.2923 -0.6333
 1118SOL    HW114813   0.954   4.651   9.404 -0.3584 -0.6196 -1.4048
 1118SOL    HW214814   1.089   4.675   9.424 -1.5581  1.1953  3.0241
 1119SOL     OW14815   4.619   2.111   4.187 -0.1737  0.3779 -0.1092
 1119SOL    HW114816   4.684   2.053   4.147 -0.0964  0.2025  0.2729
 1119SOL    HW214817   4.648   2.192   4.145  3.1348 -0.4462  0.5995
 1120SOL     OW14818   1.579   4.109   6.010  0.1039  0.0709  0.2593
 1120SOL    HW114819   1.577   4.044   6.081  1.5298  0.0051  0.2383
 1120SOL    HW214820   1.547   4.188   6.052  1.5749  0.9316 -0.2230
 1121SOL     OW14821   2.675   4.346   7.091  1.1917 -0.0580  0.6165
 1121SOL    HW114822   2.755   4.388   7.123  1.4713 -0.5193  0.5360
 1121SOL    HW214823   2.609   4.405   7.126  0.1192 -0.4874 -0.6984
 1122SOL     OW14824   4.510   2.997  14.966 -0.5404 -0.5458 -0.8158
 1122SOL    HW114825   4.423   3.034  14.986 -0.8788 -0.9821 -1.4889
 1122SOL    HW214826   4.558   3.071  15.003 -2.0178  0.2873 -0.5701
 1123SOL     OW14827   2.714   0.783   6.484  0.1213 -0.1824 -0.0528
 1123SOL    HW114828   2.748   0.803   6.571 -0.8548 -0.5843  0.4250
 1123SOL    HW214829   2.718   0.687   6.482 -0.1028 -0.2161  1.5677
 1124SOL     OW14830   0.680   2.375   5.712  0.0585 -0.1096 -0.1728
 1124SOL    HW114831   0.748   2.309   5.697  1.7610  1.3259  1.1938
 1124SOL    HW214832   0.675   2.411   5.624  2.8473 -1.5875 -0.9438
 1125SOL     OW14833   3.479   2.767   5.750 -0.4585 -0.8483 -0.0332
 1125SOL    HW114834   3.408   2.707   5.775  0.6381 -1.3722  1.8011
 1125SOL    HW214835   3.517   2.717   5.678  1.0449  0.3601 -0.0702
 1126SOL     OW14836   3.109   4.451   6.372 -0.2452 -0.0842 -0.3278
 1126SOL    HW114837   3.151   4.372   6.340 -0.5199  0.2546 -1.5318
 1126SOL    HW214838   3.126   4.522   6.310 -3.0672  0.9768  0.1117
 1127SOL     OW14839   0.685   1.529   0.725  0.2787  0.1993 -0.2432
 1127SOL    HW114840   0.676   1.479   0.644  1.2840  1.3794 -1.0967
 1127SOL    HW214841   0.592   1.542   0.742  0.3755 -1.2260  1.2686
 1128SOL     OW14842   1.332   3.047   4.815  0.1792 -0.2771 -0.3405
 1128SOL    HW114843   1.400   2.985   4.841 -0.7259 -1.3271 -0.4783
 1128SOL    HW214844   1.249   3.000   4.810  0.7487 -1.3879  0.7422
 1129SOL     OW14845   0.433   4.600   1.613 -0.8084  0.3446 -0.1384
 1129SOL    HW114846   0.407   4.627   1.525 -0.3477 -1.1063 -0.7175
 1129SOL    HW214847   0.362   4.543   1.644  0.8294 -1.0194  1.1166
 1130SOL     OW14848   2.184   1.566   4.969 -0.3251  0.4761 -0.1214
 1130SOL    HW114849   2.185   1.635   5.035  1.6309  0.5267 -0.2062
 1130SOL    HW214850   2.134   1.501   5.019  1.2554  0.8420  1.9585
 1131SOL     OW14851   2.278   3.206  15.354  0.3249 -0.1341  0.4728
 1131SOL    HW114852   2.255   3.153  15.430  1.4833  0.2759  1.1012
 1131SOL    HW214853   2.345   3.147  15.320 -2.4587 -1.7602 -2.2010
 1132SOL     OW14854   2.822   4.275  14.784 -0.3482  0.6484 -0.1456
 1132SOL    HW114855   2.763   4.219  14.734  0.3072 -1.2277  1.1925
 1132SOL    HW214856   2.900   4.227  14.811 -0.5321  0.8270  0.6994
 1133SOL     OW14857   3.012   3.340   7.562  0.1017  0.2910  0.1949
 1133SOL    HW114858   3.066   3.419   7.555 -2.2754  1.9803  0.7681
 1133SOL    HW214859   3.079   3.275   7.581 -1.3298 -0.4297  2.8070
 1134SOL     OW14860   4.614   1.119   3.594 -0.5843  0.1417  0.4608
 1134SOL    HW114861   4.608   1.023   3.594  3.6543 -0.1188  0.8568
 1134SOL    HW214862   4.559   1.140   3.519  0.2663 -4.4325 -1.4500
 1135SOL     OW14863   1.714   1.542  13.287  0.5792  0.2501 -0.5394
 1135SOL    HW114864   1.711   1.517  13.379  0.3465 -0.4709 -0.7381
 1135SOL    HW214865   1.752   1.629  13.282 -0.1519  0.5552 -0.7213
 1136SOL     OW14866   3.187   0.961   9.862 -0.3449  0.0596 -0.3133
 1136SOL    HW114867   3.224   0.895   9.920  1.7944  0.7545 -0.8883
 1136SOL    HW214868   3.174   1.027   9.930  2.0370 -0.0039  0.1947
 1137SOL     OW14869   1.256   4.509   6.207  0.3039  0.0107  0.1547
 1137SOL    HW114870   1.192   4.579   6.209 -1.1219 -1.3298  1.4734
 1137SOL    HW214871   1.268   4.495   6.301 -1.0545  1.0073  0.4683
 1138SOL     OW14872   2.883   2.308  16.998 -0.1930  0.2443  0.6226
 1138SOL    HW114873   2.896   2.252  16.921  1.6458  2.7528 -0.8851
 1138SOL    HW214874   2.843   2.389  16.966 -1.1239 -0.1793  0.7133
 1139SOL     OW14875   1.757   1.889   3.641 -0.1194 -0.6718 -0.2972
 1139SOL    HW114876   1.702   1.828   3.591 -0.6940  1.4173 -2.1886
 1139SOL    HW214877   1.716   1.974   3.628  1.1217 -0.0373  0.0154
 1140SOL     OW14878   2.671   3.767  10.380 -0.1753 -0.4178 -0.2296
 1140SOL    HW114879   2.642   3.749  10.469 -3.3748  0.4038 -1.1054
 1140SOL    HW214880   2.760   3.799  10.394 -0.8149  0.9912  0.5471
 1141SOL     OW14881   2.754   0.024   1.165 -0.1123  0.2079 -0.6103
 1141SOL    HW114882   2.687   0.091   1.154  1.3616  2.0248  1.6089
 1141SOL    HW214883   2.785   0.029   1.074 -0.3499  1.0131 -0.6435
 1142SOL     OW14884   1.925   0.350   8.841 -0.1119  0.2047 -0.5825
 1142SOL    HW114885   1.961   0.261   8.845 -0.1192  0.3684  2.6370
 1142SOL    HW214886   1.849   0.343   8.898  1.4474 -1.3189  1.3484
 1143SOL     OW14887   2.292   3.416   6.399  0.7768  0.1850  0.4785
 1143SOL    HW114888   2.381   3.448   6.384 -0.1340  2.5931  0.1064
 1143SOL    HW214889   2.282   3.373   6.314  1.4125  1.5489 -0.2819
 1144SOL     OW14890   4.079   0.578   8.690 -0.0022 -0.2052 -0.1541
 1144SOL    HW114891   4.139   0.585   8.616  0.1877  0.0091  0.0179
 1144SOL    HW214892   4.048   0.488   8.685 -1.8201  0.5644 -2.8255
 1145SOL     OW14893   4.537   3.125   6.856 -0.5528 -0.1452  0.2168
 1145SOL    HW114894   4.596   3.097   6.786 -0.6917 -0.0347  0.0534
 1145SOL    HW214895   4.561   3.074   6.933 -1.0554  0.6748  0.9170
 1146SOL     OW14896   0.518   4.709   9.338 -0.4500  0.4883  0.2164
 1146SOL    HW114897   0.583   4.655   9.383  0.0881  0.9169 -0.0427
 1146SOL    HW214898   0.567   0.069   9.343 -1.2826  0.9460  0.7267
 1147SOL     OW14899   2.129   2.926   4.132 -0.1083  0.2667  0.0363
 1147SOL    HW114900   2.176   2.843   4.132 -0.1220  0.2606  1.7379
 1147SOL    HW214901   2.177   2.974   4.199 -1.4195  1.4028  0.1611
 1148SOL     OW14902   0.611   0.476  13.933 -0.0686  0.2356 -0.2421
 1148SOL    HW114903   0.678   0.452  13.869  1.1283  1.0864  0.6919
 1148SOL    HW214904   0.638   0.565  13.956 -2.4663  1.1969 -1.0934
 1149SOL     OW14905   0.392   1.869  16.985  0.5715 -0.5606 -0.0669
 1149SOL    HW114906   0.340   1.876  16.905  1.6091 -0.6383 -0.7489
 1149SOL    HW214907   0.367   1.785  17.025 -2.4586 -0.2380 -1.2877
 1150SOL     OW14908   2.249   2.373   7.850 -0.1204  0.6758  0.4717
 1150SOL    HW114909   2.205   2.311   7.792 -0.2767 -0.2113  1.5292
 1150SOL    HW214910   2.304   2.313   7.900  0.1039  0.7950  0.3699
 1151SOL     OW14911   0.932   2.232   0.293 -0.4161  0.7429  0.0165
 1151SOL    HW114912   0.981   2.276   0.223  0.5678 -0.0426  0.2058
 1151SOL    HW214913   1.010   2.229   0.349 -1.0687 -0.7885  0.8156
 1152SOL     OW14914   2.740   3.534  15.357 -0.0345 -0.2548  0.0545
 1152SOL    HW114915   2.670   3.568  15.302  0.3516  1.0454  0.3557
 1152SOL    HW214916   2.812   3.596  15.345 -0.1081  0.0193  1.0338
 1153SOL     OW14917   0.210   4.341   8.733 -0.0684 -0.0330  0.4943
 1153SOL    HW114918   0.195   4.400   8.807  1.1049  0.2713  0.4883
 1153SOL    HW214919   0.263   4.273   8.775  0.0759  1.0415  2.0709
 1154SOL     OW14920   4.099   2.093   8.380  0.7653 -0.1962  0.1650
 1154SOL    HW114921   4.185   2.073   8.344  1.0409  0.8871  0.2254
 1154SOL    HW214922   4.108   2.179   8.421  3.9641 -0.7896  0.7039
 1155SOL     OW14923   0.536   0.797   1.224  0.4684 -0.1962  0.2992
 1155SOL    HW114924   0.620   0.800   1.178  0.3008 -0.5021 -0.0333
 1155SOL    HW214925   0.543   0.706   1.250  1.0252  0.0006  0.8330
 1156SOL     OW14926   0.750   3.882   7.542 -0.6503  0.6478 -0.1029
 1156SOL    HW114927   0.690   3.835   7.485 -0.5006 -0.1825  0.4341
 1156SOL    HW214928   0.787   3.812   7.595  0.1714  2.2084  1.3910
 1157SOL     OW14929   3.559   4.131   4.666 -0.1413 -0.5234 -0.4341
 1157SOL    HW114930   3.633   4.138   4.726  1.2731  0.2695 -2.3083
 1157SOL    HW214931   3.597   4.115   4.580 -0.0876 -1.6205 -0.2083
 1158SOL     OW14932   2.016   4.598   7.508 -0.1174 -0.2064 -0.5147
 1158SOL    HW114933   1.946   4.658   7.482 -0.0077  0.7608  1.3975
 1158SOL    HW214934   1.963   4.518   7.515 -0.5875  0.2459  1.1335
 1159SOL     OW14935   0.162   3.713   7.585  0.2250 -0.3659 -0.0434
 1159SOL    HW114936   0.136   3.767   7.660 -0.2598  1.7641 -1.7326
 1159SOL    HW214937   0.200   3.782   7.530  0.2744  1.1855  1.9195
 1160SOL     OW14938   0.681   0.661   3.753 -0.2921  0.4350  0.2425
 1160SOL    HW114939   0.703   0.729   3.688 -0.3348 -1.2171 -1.4905
 1160SOL    HW214940   0.586   0.663   3.755 -0.3601 -1.5384 -1.8459
 1161SOL     OW14941   1.279   1.484   9.952 -0.2295 -0.5850  0.3520
 1161SOL    HW114942   1.329   1.537  10.014 -0.1223 -0.2453 -0.0259
 1161SOL    HW214943   1.195   1.480   9.998  1.1323  0.8254  2.9821
 1162SOL     OW14944   2.889   0.001   2.613  0.6611 -0.0928  0.2454
 1162SOL    HW114945   2.799   4.689   2.611  0.8464 -0.7449  2.7057
 1162SOL    HW214946   2.933   4.638   2.617  0.1632 -0.4056 -0.8633
 1163SOL     OW14947   3.367   0.272  14.655  0.8014  0.0185 -0.1876
 1163SOL    HW114948   3.406   0.358  14.639 -2.0243  1.3872  0.3034
 1163SOL    HW214949   3.439   0.215  14.627  0.4692 -0.4182 -0.1682
 1164SOL     OW14950   3.362   0.969   3.315 -0.3742  0.1383 -0.6580
 1164SOL    HW114951   3.335   0.883   3.348  0.7341  0.3268  0.7328
 1164SOL    HW214952   3.404   0.988   3.399 -2.3170  0.3406  0.2556
 1165SOL     OW14953   1.405   2.233  15.316 -0.8793 -0.1601  0.2153
 1165SOL    HW114954   1.411   2.296  15.388 -0.5971  0.8379 -0.6794
 1165SOL    HW214955   1.488   2.261  15.278 -1.8224  2.5937  0.1514
 1166SOL     OW14956   4.246   2.008   8.877 -0.0883 -0.6933 -0.5136
 1166SOL    HW114957   4.252   1.996   8.972  0.4356  0.3252 -0.4183
 1166SOL    HW214958   4.231   1.916   8.857 -0.1360 -0.6467 -0.6925
 1167SOL     OW14959   3.997   4.386  11.944  0.5045  0.1879  0.1688
 1167SOL    HW114960   3.990   4.445  11.869  0.7966 -0.4537 -0.3548
 1167SOL    HW214961   3.904   4.374  11.965  0.9363 -0.3723  1.7251
 1168SOL     OW14962   0.797   2.489  13.659 -0.2906 -0.1523  0.2053
 1168SOL    HW114963   0.802   2.483  13.755  0.1204 -1.1703  0.1210
 1168SOL    HW214964   0.892   2.485  13.648 -0.7242 -0.3181 -3.2871
 1169SOL     OW14965   2.175   0.124   6.254  0.6103  0.7068 -0.6281
 1169SOL    HW114966   2.165   0.141   6.347 -1.7464  0.1138 -0.7717
 1169SOL    HW214967   2.269   0.132   6.244  0.6676  0.9723  0.1678
 1170SOL     OW14968   0.126   4.021   3.409  0.1189  0.1945 -0.0386
 1170SOL    HW114969   0.104   3.967   3.484 -0.5362  0.5463  0.0174
 1170SOL    HW214970   0.196   3.974   3.364 -0.5536 -1.1200  0.3082
 1171SOL     OW14971   4.187   0.380  14.689 -0.0204 -0.3139  0.6912
 1171SOL    HW114972   4.241   0.364  14.611  0.4575 -1.1501  1.1893
 1171SOL    HW214973   4.102   0.361  14.649  0.1397 -1.3200  0.8161
 1172SOL     OW14974   0.535   1.931   4.947 -0.0717 -0.6842 -0.1874
 1172SOL    HW114975   0.602   1.945   4.881 -1.7600 -1.2103 -1.9914
 1172SOL    HW214976   0.523   2.021   4.978  2.0832 -0.3749 -0.2423
 1173SOL     OW14977   3.815   0.927  11.595  0.1895 -0.2201 -0.1866
 1173SOL    HW114978   3.829   0.991  11.525 -1.4531 -0.4367 -0.7212
 1173SOL    HW214979   3.753   0.868  11.553  2.5576 -2.6391 -0.2969
 1174SOL     OW14980   2.651   1.860  12.784 -0.2138  0.5424  0.1393
 1174SOL    HW114981   2.574   1.911  12.811 -0.0924 -0.3951  2.2156
 1174SOL    HW214982   2.712   1.934  12.777  1.4298 -0.8195  0.1875
 1175SOL     OW14983   3.267   4.198   1.104  0.2620  0.2154 -0.7481
 1175SOL    HW114984   3.201   4.129   1.097  0.6878 -0.0633 -2.1558
 1175SOL    HW214985   3.241   4.242   1.023 -3.0187  0.1590  0.2840
 1176SOL     OW14986   4.264   1.719   3.788  0.5036 -0.0888  0.2435
 1176SOL    HW114987   4.322   1.780   3.833  0.1008  1.0926 -0.8402
 1176SOL    HW214988   4.279   1.754   3.700 -2.1327 -0.5269 -0.3855
 1177SOL     OW14989   4.458   0.217   7.260 -0.7516 -0.0347  0.2252
 1177SOL    HW114990   4.458   0.214   7.165  0.6963  1.7772  0.1651
 1177SOL    HW214991   4.552   0.231   7.271 -0.9774  0.3198  1.7511
 1178SOL     OW14992   4.495   4.600   2.023  0.4287 -0.5328  0.6379
 1178SOL    HW114993   4.514   4.606   1.929  2.6917  0.5329  1.1677
 1178SOL    HW214994   4.555   4.669   2.052 -3.1602  2.6671  0.5447
 1179SOL     OW14995   0.503   1.351   3.573 -0.4330  0.0252 -0.2521
 1179SOL    HW114996   0.530   1.442   3.582  0.7045 -0.2082 -1.2628
 1179SOL    HW214997   0.509   1.349   3.478 -1.6026 -2.8749 -0.2727
 1180SOL     OW14998   4.322   2.022   8.225  0.3046 -0.2827  0.1078
 1180SOL    HW114999   4.264   1.955   8.189  0.8796 -0.7937  0.1443
 1180SOL    HW215000   4.406   2.013   8.181  0.5692 -1.7155  0.9266
 1181SOL     OW15001   3.599   2.184  10.061 -0.4879  0.1410  0.0653
 1181SOL    HW115002   3.532   2.234  10.108 -0.7519 -1.6526  1.5989
 1181SOL    HW215003   3.551   2.102  10.047  0.8915 -0.6741  0.0212
 1182SOL     OW15004   4.619   3.271   9.881 -0.2302  0.7835 -0.0059
 1182SOL    HW115005   4.591   3.180   9.874  0.2017  0.7226 -0.8538
 1182SOL    HW215006   4.699   3.259   9.932 -1.8313 -3.1307  1.6087
 1183SOL     OW15007   2.848   1.003   4.129  0.2374  0.2225 -0.0720
 1183SOL    HW115008   2.849   1.091   4.089 -1.0699  0.9453  1.4939
 1183SOL    HW215009   2.825   0.952   4.051 -1.2289  2.6912 -1.2537
 1184SOL     OW15010   1.784   0.853  13.639 -0.5259 -0.2066 -0.4906
 1184SOL    HW115011   1.714   0.872  13.701  0.4922  1.5376  0.1592
 1184SOL    HW215012   1.816   0.943  13.630  1.3204 -0.8385 -0.2757
 1185SOL     OW15013   3.275   2.887   0.179 -0.1170  0.5532 -0.1167
 1185SOL    HW115014   3.259   2.977   0.153 -0.7815  0.5851  0.3972
 1185SOL    HW215015   3.368   2.899   0.201  0.1483 -1.1348 -0.2550
 1186SOL     OW15016   4.112   2.431  11.313  0.0357  0.0251  0.2447
 1186SOL    HW115017   4.058   2.361  11.278  0.9824 -0.5538 -0.0742
 1186SOL    HW215018   4.185   2.442  11.251 -1.8548  2.0325 -1.6448
 1187SOL     OW15019   4.095   1.874   9.514 -0.0282 -0.2740  0.1124
 1187SOL    HW115020   4.020   1.933   9.525 -2.3742 -3.3491  0.5882
 1187SOL    HW215021   4.170   1.921   9.550  0.0362  0.3236 -0.7995
 1188SOL     OW15022   1.330   0.725   2.365  0.0880  0.0545 -0.0471
 1188SOL    HW115023   1.390   0.765   2.302 -2.0746 -1.3555 -3.0014
 1188SOL    HW215024   1.374   0.640   2.369  1.7069  0.8972  0.0499
 1189SOL     OW15025   0.557   1.807   0.941  0.6403  0.0350  0.3242
 1189SOL    HW115026   0.595   1.823   0.855 -1.0916  1.4956 -0.1937
 1189SOL    HW215027   0.466   1.838   0.935  0.1193 -1.1602  2.1294
 1190SOL     OW15028   1.245   4.635   1.325 -0.0525 -0.5547  0.1351
 1190SOL    HW115029   1.245   4.547   1.362 -1.7341 -0.7583 -0.3575
 1190SOL    HW215030   1.176   4.630   1.259  1.6180  0.2554 -1.6886
 1191SOL     OW15031   2.546   1.595  10.562  0.6642 -0.5530  0.4351
 1191SOL    HW115032   2.614   1.530  10.544 -0.1342 -1.5819  1.1586
 1191SOL    HW215033   2.564   1.657  10.491 -0.3118 -2.4407 -1.4909
 1192SOL     OW15034   2.081   2.409   9.934 -0.2607  0.3026 -0.4937
 1192SOL    HW115035   2.096   2.490   9.982  1.2233 -0.5123  0.4214
 1192SOL    HW215036   2.143   2.414   9.860  2.9221 -1.5110  2.0481
 1193SOL     OW15037   2.383   0.700   2.911  0.1655  0.4045  0.2004
 1193SOL    HW115038   2.361   0.674   2.822  1.5052  1.1303 -0.3425
 1193SOL    HW215039   2.439   0.777   2.895  1.1658 -0.4731 -0.4585
 1194SOL     OW15040   2.034   4.273   2.387 -0.1470 -0.1813  0.0538
 1194SOL    HW115041   2.080   4.285   2.304  0.1303  1.0507  0.3858
 1194SOL    HW215042   2.106   4.230   2.433 -0.9431  1.0001  2.3848
 1195SOL     OW15043   2.828   1.121   6.956  0.3036 -0.1598 -0.1580
 1195SOL    HW115044   2.841   1.215   6.962 -0.3576  0.1945 -4.0091
 1195SOL    HW215045   2.853   1.114   6.864  0.5409 -0.7293 -0.0517
 1196SOL     OW15046   3.057   3.412   1.315 -0.5890 -0.1357  0.2642
 1196SOL    HW115047   3.110   3.431   1.238  1.2128 -0.3648  1.4427
 1196SOL    HW215048   3.092   3.324   1.326  0.3017  0.2426  0.4661
 1197SOL     OW15049   4.036   2.266   8.077 -0.1225 -0.1234 -0.3064
 1197SOL    HW115050   3.976   2.242   8.006 -1.1851 -1.1615  0.9314
 1197SOL    HW215051   4.095   2.322   8.027  0.5513 -0.7182 -0.1842
 1198SOL     OW15052   1.598   3.529   1.830 -0.0049 -0.2159  0.3884
 1198SOL    HW115053   1.653   3.485   1.765  1.4433 -0.3451  1.7023
 1198SOL    HW215054   1.567   3.610   1.790 -0.3847 -1.2037 -1.3384
 1199SOL     OW15055   2.365   1.819   6.586 -0.2491  0.7066 -0.5160
 1199SOL    HW115056   2.401   1.826   6.674  0.0582  0.2479 -0.5994
 1199SOL    HW215057   2.348   1.910   6.565 -0.6945  0.5787 -0.7020
 1200SOL     OW15058   1.873   3.241   5.434  0.3274  0.2024 -0.4734
 1200SOL    HW115059   1.824   3.172   5.478 -2.2891  1.2941 -1.6546
 1200SOL    HW215060   1.796   3.298   5.436 -0.2516 -0.5990 -0.0256
 1201SOL     OW15061   3.893   1.615   4.301  0.0384 -0.5050 -0.0313
 1201SOL    HW115062   3.886   1.602   4.396  1.5472  1.6536  0.3601
 1201SOL    HW215063   3.849   1.700   4.305  1.1056 -0.0139  1.1330
 1202SOL     OW15064   0.984   1.581   8.832  0.1168  0.1408 -0.3294
 1202SOL    HW115065   0.932   1.578   8.751  0.6579 -1.9908 -0.5899
 1202SOL    HW215066   1.032   1.664   8.822  2.0014 -0.7468  1.4008
 1203SOL     OW15067   4.390   4.220  12.278 -0.1990 -0.0309  0.0959
 1203SOL    HW115068   4.456   4.216  12.209 -0.3549 -0.7821 -0.0125
 1203SOL    HW215069   4.428   4.275  12.347  1.6594  1.4032 -2.0854
 1204SOL     OW15070   3.321   3.904   6.917  0.4368 -0.8387 -0.4680
 1204SOL    HW115071   3.381   3.851   6.864 -0.0139 -1.7064 -0.1069
 1204SOL    HW215072   3.322   3.988   6.870 -0.0330 -0.0149  1.0186
 1205SOL     OW15073   2.885   4.084   5.123 -0.2708  0.3612 -0.1484
 1205SOL    HW115074   2.971   4.119   5.147 -1.0497  1.9543  0.3493
 1205SOL    HW215075   2.821   4.143   5.164 -0.1909 -0.2725  0.8680
 1206SOL     OW15076   2.446   0.456   5.952  0.2288  0.3175 -0.3124
 1206SOL    HW115077   2.530   0.448   5.997  0.2256  1.8504 -0.0308
 1206SOL    HW215078   2.394   0.499   6.019  0.9573  1.5455 -0.5424
 1207SOL     OW15079   0.381   3.477   5.786  0.1232 -0.1631 -0.4125
 1207SOL    HW115080   0.441   3.411   5.751  2.4062  0.7210  1.7676
 1207SOL    HW215081   0.416   3.557   5.747 -2.3025  0.5145 -1.1861
 1208SOL     OW15082   1.732   0.644   4.440 -0.3449 -0.1030 -0.7143
 1208SOL    HW115083   1.769   0.577   4.497 -1.9221 -0.9914 -0.7285
 1208SOL    HW215084   1.698   0.709   4.501 -0.9753 -0.9869 -0.1379
 1209SOL     OW15085   1.492   2.101   0.254  0.5820  0.1821 -0.8284
 1209SOL    HW115086   1.431   2.057   0.314  3.0756 -1.2823  0.6664
 1209SOL    HW215087   1.433   2.137   0.188  0.2799  3.4722  1.2223
 1210SOL     OW15088   2.122   3.716   7.752  0.5745 -0.9845 -0.4144
 1210SOL    HW115089   2.048   3.777   7.743  0.9200 -0.3461  1.1484
 1210SOL    HW215090   2.088   3.654   7.816  0.7241  1.6448  2.2031
 1211SOL     OW15091   0.754   1.947   1.106 -0.1593  0.3111 -0.0688
 1211SOL    HW115092   0.831   1.897   1.080 -0.1484 -0.2922  1.1257
 1211SOL    HW215093   0.680   1.907   1.060 -1.1236 -0.2043  1.9732
 1212SOL     OW15094   0.639   0.865   5.755 -0.1195 -0.2651  0.1137
 1212SOL    HW115095   0.649   0.933   5.822 -2.0016 -0.6034  0.7299
 1212SOL    HW215096   0.647   0.920   5.677 -1.7413  1.0148  0.8528
 1213SOL     OW15097   3.040   0.569  12.943 -0.3214 -0.3145 -0.1680
 1213SOL    HW115098   3.102   0.502  12.972 -1.2960 -1.6122 -1.0749
 1213SOL    HW215099   3.093   0.626  12.888 -0.1173 -0.9615 -0.6403
 1214SOL     OW15100   3.157   0.243  15.229 -0.0909  0.9699 -0.2571
 1214SOL    HW115101   3.147   0.240  15.134 -0.2735 -1.1025 -0.1733
 1214SOL    HW215102   3.078   0.282  15.267 -0.2846 -1.1761  1.5822
 1215SOL     OW15103   2.315   3.927   9.359 -0.1783  0.2462 -0.4372
 1215SOL    HW115104   2.242   3.985   9.338  0.9966  1.8727 -0.0875
 1215SOL    HW215105   2.304   3.930   9.454  0.7744 -0.9566 -0.2952
 1216SOL     OW15106   4.539   4.488   7.693  0.3624  0.0856 -0.3347
 1216SOL    HW115107   4.545   4.474   7.598  1.4657  0.5388 -0.3251
 1216SOL    HW215108   4.575   4.576   7.686  0.0897  0.3643  1.7771
 1217SOL     OW15109   4.460   0.685   5.946 -0.1477 -0.4556  0.2369
 1217SOL    HW115110   4.456   0.622   6.017 -0.9891 -1.8029 -1.0085
 1217SOL    HW215111   4.500   0.627   5.881 -0.6168 -0.5811  0.0676
 1218SOL     OW15112   3.405   4.686  10.436 -0.3144 -0.3265 -0.1896
 1218SOL    HW115113   3.446   4.599  10.436 -0.9703 -0.6215  3.0901
 1218SOL    HW215114   3.378   4.689  10.528  0.7926  1.0723  0.0911
 1219SOL     OW15115   4.221   3.301   4.876 -0.3666  0.4005 -0.1006
 1219SOL    HW115116   4.240   3.211   4.852  0.6165  0.6549 -0.2576
 1219SOL    HW215117   4.281   3.315   4.949  0.7455  1.0081 -1.1332
 1220SOL     OW15118   2.888   3.401   2.391  0.1915  0.3758  0.5976
 1220SOL    HW115119   2.799   3.422   2.363  0.4943  0.3175 -0.3930
 1220SOL    HW215120   2.859   3.321   2.436  1.3111  0.0736  0.7885
 1221SOL     OW15121   0.995   2.827   9.061 -0.0817  0.2288  0.1373
 1221SOL    HW115122   0.946   2.747   9.082 -1.6177  1.6026  1.7346
 1221SOL    HW215123   0.936   2.863   8.994  0.8051  0.6984 -0.3920
 1222SOL     OW15124   1.452   1.456   5.692 -0.5982  0.2318 -0.0859
 1222SOL    HW115125   1.362   1.489   5.693 -0.8040 -0.3529  0.0435
 1222SOL    HW215126   1.436   1.363   5.700  0.9502  0.0888  1.2486
 1223SOL     OW15127   1.591   1.486  13.531 -0.2666  0.3441  0.1515
 1223SOL    HW115128   1.495   1.483  13.534 -0.2649 -0.5679 -0.4861
 1223SOL    HW215129   1.605   1.400  13.489 -0.8377 -1.1799  3.0956
 1224SOL     OW15130   3.978   1.195   4.454  0.0696  0.2019 -0.3800
 1224SOL    HW115131   4.021   1.136   4.392  3.4300  1.0697  1.1104
 1224SOL    HW215132   4.012   1.281   4.428 -0.1402 -0.0777 -1.5902
 1225SOL     OW15133   0.541   0.806   9.328 -0.3361 -0.6221  0.0060
 1225SOL    HW115134   0.456   0.765   9.314 -1.2469  0.5270  2.0925
 1225SOL    HW215135   0.562   0.760   9.409 -1.1667 -1.5962 -0.3399
 1226SOL     OW15136   1.753   4.583   2.742  0.1192  0.0602 -0.3473
 1226SOL    HW115137   1.776   4.508   2.687  0.0484 -0.9814  1.0475
 1226SOL    HW215138   1.774   4.665   2.696  2.0239 -0.5788 -0.6367
 1227SOL     OW15139   1.876   2.343   7.781 -0.0965  0.3005 -0.2043
 1227SOL    HW115140   1.905   2.253   7.763  1.4247  1.0606 -1.5208
 1227SOL    HW215141   1.781   2.334   7.776  0.0564 -0.7243 -1.5005
 1228SOL     OW15142   4.597   1.195   8.200 -0.1122 -0.5082  0.8695
 1228SOL    HW115143   4.692   1.185   8.204 -0.2187 -1.3632  1.2777
 1228SOL    HW215144   4.579   1.236   8.285 -0.8296  0.5693  0.1965
 1229SOL     OW15145   4.028   2.627   6.036 -0.1249  0.0655  0.1641
 1229SOL    HW115146   4.008   2.662   5.949 -2.0657 -0.3817  0.4436
 1229SOL    HW215147   4.015   2.702   6.094  0.3853 -0.9816  1.6398
 1230SOL     OW15148   2.675   2.002   2.180  0.8331  0.1534  0.8128
 1230SOL    HW115149   2.710   2.020   2.093 -1.7831  1.9475  0.1487
 1230SOL    HW215150   2.603   1.942   2.161  1.2307 -0.0683  0.0129
 1231SOL     OW15151   3.052   1.512   4.518 -0.3305  0.0394 -0.1965
 1231SOL    HW115152   3.030   1.586   4.460  0.6665  1.6636  1.5065
 1231SOL    HW215153   3.147   1.502   4.515 -0.2216  1.4095 -1.5853
 1232SOL     OW15154   4.652   4.371   4.457 -0.0269  0.0012 -0.1917
 1232SOL    HW115155   4.579   4.423   4.490  1.3440  2.4840 -1.1114
 1232SOL    HW215156   4.618   4.284   4.478 -2.1591  0.4959 -1.5880
 1233SOL     OW15157   1.330   0.186   5.500 -0.1619 -0.3751  0.6682
 1233SOL    HW115158   1.314   0.094   5.523 -3.5510  0.0763  0.1176
 1233SOL    HW215159   1.273   0.219   5.569  0.1992  1.0647  0.2595
 1234SOL     OW15160   1.614   1.208   5.854 -0.1846 -0.5712 -0.0916
 1234SOL    HW115161   1.590   1.281   5.910  0.0513  0.0776 -0.8303
 1234SOL    HW215162   1.561   1.138   5.892 -1.7712  1.1464  0.8880
 1235SOL     OW15163   2.999   0.980   9.405 -0.0882  0.0651 -0.1676
 1235SOL    HW115164   3.033   1.028   9.480  1.0955  0.5841 -1.0353
 1235SOL    HW215165   3.054   0.902   9.413  1.1874  0.9812  0.0203
 1236SOL     OW15166   1.962   3.556   7.052 -0.0034  0.8601 -0.4572
 1236SOL    HW115167   1.955   3.647   7.081  1.6492  0.1017  2.2988
 1236SOL    HW215168   1.995   3.563   6.962 -1.9226 -0.1210 -1.2357
 1237SOL     OW15169   1.875   2.096  16.289  0.7439 -0.2138 -0.2605
 1237SOL    HW115170   1.911   2.086  16.377 -0.1314 -0.7075  0.0399
 1237SOL    HW215171   1.783   2.108  16.313  1.4384 -0.6226  2.5471
 1238SOL     OW15172   2.807   4.592   4.883  0.4464  0.4085 -0.0118
 1238SOL    HW115173   2.897   4.560   4.882 -0.2360 -1.5728  0.9316
 1238SOL    HW215174   2.765   4.506   4.872 -0.2697  0.6324  0.9930
 1239SOL     OW15175   0.982   2.436   5.918 -0.5655  0.3071  0.1744
 1239SOL    HW115176   0.954   2.372   5.852 -0.7383 -0.5647  1.1038
 1239SOL    HW215177   0.984   2.507   5.854 -0.4527  2.3658  2.4653
 1240SOL     OW15178   4.114   2.043   4.140 -0.0500 -0.7524  0.5815
 1240SOL    HW115179   4.143   2.118   4.192  1.2415 -1.0046  0.2236
 1240SOL    HW215180   4.082   2.094   4.066  1.8526  3.7671  2.9008
 1241SOL     OW15181   3.896   3.369   4.592 -0.4160  0.1343 -0.1414
 1241SOL    HW115182   3.865   3.280   4.574  1.0027  0.2214 -3.0975
 1241SOL    HW215183   3.878   3.409   4.506 -0.5854  0.8908  0.2497
 1242SOL     OW15184   0.607   0.302   8.959  0.1523 -0.0636  0.0861
 1242SOL    HW115185   0.688   0.299   8.907 -1.6556  0.4482 -2.7456
 1242SOL    HW215186   0.571   0.387   8.934 -0.0106 -0.2810 -0.4126
 1243SOL     OW15187   4.593   0.199   7.966  0.5507  0.0377  0.3218
 1243SOL    HW115188   4.549   0.126   8.011  1.2296 -0.6442 -0.1159
 1243SOL    HW215189   4.537   0.271   7.994  0.2246 -0.1263  0.0916
 1244SOL     OW15190   1.091   0.982   8.831 -0.0484  0.1006 -0.2800
 1244SOL    HW115191   1.130   1.015   8.911  1.8285 -1.1340 -0.6893
 1244SOL    HW215192   1.075   0.888   8.846  0.3242 -0.0566 -0.8802
 1245SOL     OW15193   2.751   4.435   2.540  0.0771  0.1827  0.3078
 1245SOL    HW115194   2.739   4.404   2.630  1.7371  1.5584  1.0014
 1245SOL    HW215195   2.846   4.435   2.532  0.2492 -1.3746  2.4212
 1246SOL     OW15196   3.799   2.054   9.555  0.0366 -0.2165 -0.4888
 1246SOL    HW115197   3.859   2.115   9.596  1.7630 -1.3249 -1.3694
 1246SOL    HW215198   3.756   2.108   9.489 -0.2360  0.7953  0.5076
 1247SOL     OW15199   4.186   4.398  12.263 -0.3335 -0.1335  0.0057
 1247SOL    HW115200   4.161   4.365  12.177  0.0399  2.8809 -1.2438
 1247SOL    HW215201   4.250   4.333  12.294  1.2016 -0.0624 -2.9752
 1248SOL     OW15202   3.645   3.007  10.036 -0.0073  0.0310 -0.2268
 1248SOL    HW115203   3.559   2.964  10.045  0.1657 -0.5525 -1.4201
 1248SOL    HW215204   3.695   2.930  10.008  0.4203  0.3054 -0.2023
 1249SOL     OW15205   4.272   0.708   3.426 -0.0801  0.7034 -0.3694
 1249SOL    HW115206   4.289   0.732   3.517  1.7389  1.8182 -0.9884
 1249SOL    HW215207   4.177   0.711   3.416 -0.2808  1.3259  1.6690
 1250SOL     OW15208   1.532   0.745   5.417 -0.1656 -0.5070 -0.5132
 1250SOL    HW115209   1.543   0.661   5.373  2.1898  0.3342 -1.4900
 1250SOL    HW215210   1.482   0.718   5.494  0.0243  0.4887 -0.0335
 1251SOL     OW15211   3.636   0.310   8.259  0.3506  0.1050 -0.4282
 1251SOL    HW115212   3.688   0.359   8.195  0.9377  0.5324  0.3616
 1251SOL    HW215213   3.674   0.229   8.227 -0.8473 -0.7788  0.3793
 1252SOL     OW15214   1.465   3.129   3.381  0.1620 -0.3663 -0.2328
 1252SOL    HW115215   1.511   3.055   3.341  1.4861 -1.2203  2.9175
 1252SOL    HW215216   1.374   3.099   3.375  0.3123 -0.5001 -1.7983
 1253SOL     OW15217   0.771   3.728  15.229 -0.2345 -0.5419 -0.7618
 1253SOL    HW115218   0.828   3.786  15.179 -0.7963 -0.8345 -1.7300
 1253SOL    HW215219   0.817   3.644  15.231  1.1442  0.2413  1.2841
 1254SOL     OW15220   3.338   1.017   1.997 -0.1269  0.5896 -0.2688
 1254SOL    HW115221   3.352   1.094   2.051  0.7908  0.1883  0.0671
 1254SOL    HW215222   3.277   1.042   1.927  0.0468  0.6170 -0.4124
 1255SOL     OW15223   3.794   2.744  15.953 -0.3916  0.0445 -0.3677
 1255SOL    HW115224   3.776   2.836  15.932  1.5491  0.1543 -1.4865
 1255SOL    HW215225   3.889   2.731  15.952 -0.1786  1.6180 -0.6114
 1256SOL     OW15226   2.754   0.945   9.069  0.4134 -0.2822  0.4538
 1256SOL    HW115227   2.691   0.919   9.136 -0.2732 -1.4938 -0.6763
 1256SOL    HW215228   2.775   0.860   9.030 -0.1121 -1.2160  2.1835
 1257SOL     OW15229   3.666   2.893  16.267 -0.1859  0.4628 -0.5529
 1257SOL    HW115230   3.708   2.959  16.212 -0.6235  0.7764 -0.5087
 1257SOL    HW215231   3.690   2.807  16.231 -0.4171 -0.4404  1.4016
 1258SOL     OW15232   3.224   1.352   9.416  0.2309  0.0342 -0.3740
 1258SOL    HW115233   3.129   1.351   9.420  0.2113 -0.5400 -0.8418
 1258SOL    HW215234   3.247   1.341   9.323  0.7638  0.7794 -0.3282
 1259SOL     OW15235   1.479   2.940  10.271  0.1935  0.2280  0.9091
 1259SOL    HW115236   1.402   2.993  10.291 -1.1699 -1.0124 -1.0643
 1259SOL    HW215237   1.443   2.855  10.245  0.4321  0.5377 -0.4407
 1260SOL     OW15238   3.488   2.642  15.368 -0.6231 -0.2602 -0.0637
 1260SOL    HW115239   3.492   2.698  15.290 -0.5671 -0.7605 -0.4254
 1260SOL    HW215240   3.458   2.700  15.437 -1.5840 -0.9612  0.1157
 1261SOL     OW15241   0.544   0.197  13.660  0.3536 -0.2896  0.4695
 1261SOL    HW115242   0.459   0.153  13.654 -0.8935  1.9904  1.5956
 1261SOL    HW215243   0.602   0.136  13.614 -0.1560  0.0003 -0.5678
 1262SOL     OW15244   4.299   2.931  14.740  0.6966  0.0146 -0.0715
 1262SOL    HW115245   4.286   3.001  14.804 -0.2680  0.2943 -0.5645
 1262SOL    HW215246   4.231   2.943  14.673  1.3538 -2.1167 -1.1318
 1263SOL     OW15247   4.430   1.777  10.111 -0.5803  0.0998 -0.2826
 1263SOL    HW115248   4.438   1.686  10.140  1.7156 -0.2709 -2.1410
 1263SOL    HW215249   4.478   1.774  10.029 -0.3363  3.1290 -0.2336
 1264SOL     OW15250   0.266   4.383   7.929  0.2365 -0.0574  0.1561
 1264SOL    HW115251   0.190   4.325   7.935 -0.1522  0.4753  0.3724
 1264SOL    HW215252   0.301   4.376   8.018  1.6375 -0.1152 -0.4036
 1265SOL     OW15253   1.703   4.451   3.954 -0.0650  0.1512  0.3138
 1265SOL    HW115254   1.686   4.544   3.938 -1.2874 -0.5581 -2.4489
 1265SOL    HW215255   1.759   4.460   4.031  1.9390 -0.7301 -1.0144
 1266SOL     OW15256   1.165   3.054   7.031  0.2501 -0.0055  0.0356
 1266SOL    HW115257   1.202   3.121   7.089  3.4695 -0.5566 -1.3552
 1266SOL    HW215258   1.120   3.106   6.965 -1.9116 -0.5467  1.1047
 1267SOL     OW15259   0.117   4.352   7.184 -0.1840  0.4418  0.1211
 1267SOL    HW115260   0.034   4.394   7.210  0.0472  0.5553  0.6824
 1267SOL    HW215261   0.108   4.257   7.182  0.0749  0.4308 -0.5414
 1268SOL     OW15262   3.428   4.450   4.065  0.7960  0.1455  0.2000
 1268SOL    HW115263   3.452   4.514   4.132 -2.2175  2.3475 -0.8097
 1268SOL    HW215264   3.339   4.482   4.049  0.8639 -0.3590 -1.2003
 1269SOL     OW15265   1.666   2.893   5.850 -0.0512 -0.0087  0.7309
 1269SOL    HW115266   1.620   2.961   5.899  0.2515  1.7369 -1.4097
 1269SOL    HW215267   1.664   2.824   5.916 -1.9724 -1.5568 -0.9448
 1270SOL     OW15268   2.194   1.931   3.347  0.1418 -0.1653  0.0572
 1270SOL    HW115269   2.128   1.863   3.354 -1.3693  1.5335  2.1930
 1270SOL    HW215270   2.193   1.937   3.251  0.4658  0.1128  0.0703
 1271SOL     OW15271   1.473   0.416  15.401 -0.1404 -0.2836  1.0151
 1271SOL    HW115272   1.545   0.402  15.462  1.8017 -0.7614 -1.3932
 1271SOL    HW215273   1.403   0.423  15.465 -1.7350 -2.1367 -0.4881
 1272SOL     OW15274   3.741   4.371   6.663 -0.2387  0.0038 -0.1630
 1272SOL    HW115275   3.648   4.363   6.642 -0.1214  0.8851 -1.0042
 1272SOL    HW215276   3.780   4.315   6.596  0.0232 -1.5797  1.3126
 1273SOL     OW15277   3.270   0.351   8.190  0.2070  0.0371  0.3906
 1273SOL    HW115278   3.296   0.261   8.174  0.8969  0.0827  1.2029
 1273SOL    HW215279   3.223   0.339   8.273  1.0289  0.3034  0.8923
 1274SOL     OW15280   1.405   2.900   2.722 -0.6709 -0.4673  0.2445
 1274SOL    HW115281   1.447   2.982   2.696 -1.0250 -0.3171  0.1537
 1274SOL    HW215282   1.326   2.928   2.768  0.3936  0.4690  1.5205
 1275SOL     OW15283   3.879   1.287  16.055  0.0832 -0.0089 -0.1400
 1275SOL    HW115284   3.948   1.231  16.019  1.8385  1.1696  1.4108
 1275SOL    HW215285   3.931   1.365  16.072  0.2124 -0.3358  0.9793
 1276SOL     OW15286   3.140   1.020   2.765  0.5898  0.0874 -0.5183
 1276SOL    HW115287   3.143   0.925   2.755 -1.2851 -0.1664  1.4963
 1276SOL    HW215288   3.232   1.044   2.770  0.5505 -0.0194  0.6050
 1277SOL     OW15289   2.376   3.558   3.053 -0.0969  0.3097  0.0184
 1277SOL    HW115290   2.335   3.638   3.021  2.1925  1.0363 -1.1134
 1277SOL    HW215291   2.470   3.573   3.041 -0.3337  0.8060 -1.2226
 1278SOL     OW15292   0.959   1.192   0.643  0.4623 -1.0239 -0.2499
 1278SOL    HW115293   0.924   1.206   0.731  1.3616 -0.6543  0.0446
 1278SOL    HW215294   1.051   1.172   0.659  1.2159  1.7714 -1.1508
 1279SOL     OW15295   0.871   0.201  13.080  0.3389  0.0082 -0.0765
 1279SOL    HW115296   0.776   0.192  13.090  0.3203 -0.6987 -0.9450
 1279SOL    HW215297   0.895   0.145  13.006  0.9269 -1.3661  1.1331
 1280SOL     OW15298   4.518   2.659   3.042 -0.6436  0.0972 -0.4213
 1280SOL    HW115299   4.441   2.715   3.043 -0.4725  0.3224 -0.0169
 1280SOL    HW215300   4.589   2.721   3.059  0.2170  0.0473 -3.9081
 1281SOL     OW15301   0.655   1.118   5.944  0.2761 -0.1578 -0.4534
 1281SOL    HW115302   0.577   1.149   5.898 -0.0416 -1.1478 -0.6034
 1281SOL    HW215303   0.613   1.109   6.029 -0.6668 -2.1076 -1.1089
 1282SOL     OW15304   1.736   2.708   6.848  0.5871 -0.5362  0.1652
 1282SOL    HW115305   1.736   2.789   6.796 -1.0721 -0.4199  0.3413
 1282SOL    HW215306   1.778   2.731   6.931  2.6301  0.1027 -1.0499
 1283SOL     OW15307   3.698   2.550   4.933 -0.2683  0.0082  0.0397
 1283SOL    HW115308   3.692   2.645   4.918 -1.8295 -0.0742  0.2232
 1283SOL    HW215309   3.607   2.537   4.957 -0.2380 -0.4497 -0.0900
 1284SOL     OW15310   0.358   1.347  16.061 -0.0205  0.5411 -0.4171
 1284SOL    HW115311   0.412   1.273  16.033  0.7417  0.3224  1.6154
 1284SOL    HW215312   0.358   1.397  15.980 -0.2804 -3.3638 -2.8373
 1285SOL     OW15313   4.081   1.207   9.350  0.0647 -0.4236  0.5275
 1285SOL    HW115314   4.082   1.291   9.397  0.6411  0.5204 -1.1813
 1285SOL    HW215315   3.988   1.190   9.335 -0.1677  1.0047  0.2795
 1286SOL     OW15316   0.245   0.431   0.807  0.1079  0.4158  0.7183
 1286SOL    HW115317   0.295   0.510   0.821  0.3264  0.4840 -0.4265
 1286SOL    HW215318   0.224   0.399   0.894  2.7702  2.3523  2.0496
 1287SOL     OW15319   4.029   0.994   2.686 -0.8371 -0.2793 -0.2820
 1287SOL    HW115320   4.063   1.084   2.684 -1.8494  0.0535 -1.9676
 1287SOL    HW215321   4.063   0.955   2.767 -0.3978  0.1559 -0.2519
 1288SOL     OW15322   1.958   0.596   7.059  0.6527 -0.1481 -0.2146
 1288SOL    HW115323   2.005   0.585   6.976  1.5689 -0.5715  0.3578
 1288SOL    HW215324   1.942   0.690   7.062 -0.0272 -0.2053 -2.0883
 1289SOL     OW15325   0.139   0.862   7.393  0.2492 -0.4735 -0.1514
 1289SOL    HW115326   0.075   0.796   7.419 -1.4037  2.5695  3.3882
 1289SOL    HW215327   0.164   0.902   7.476 -2.0299 -0.5680  0.5604
 1290SOL     OW15328   0.244   2.563   5.591 -0.3653  0.2022  0.6705
 1290SOL    HW115329   0.188   2.485   5.585 -1.2919  1.0474 -1.6814
 1290SOL    HW215330   0.283   2.549   5.677  0.7726 -0.2231  0.0741
 1291SOL     OW15331   3.867   1.207   2.499  0.2688  0.1200  0.2216
 1291SOL    HW115332   3.826   1.294   2.493  0.6747  0.2425 -0.6779
 1291SOL    HW215333   3.810   1.164   2.562  0.4592  0.0798  0.3662
 1292SOL     OW15334   4.690   4.132   5.261  0.0786 -0.3888  0.1985
 1292SOL    HW115335   4.666   4.225   5.259 -3.8054 -1.3531  0.3585
 1292SOL    HW215336   4.637   4.111   5.338  0.9695 -0.9876  0.6382
 1293SOL     OW15337   3.558   1.218  14.187 -0.1968 -0.0851  0.1834
 1293SOL    HW115338   3.653   1.225  14.176 -0.4294  0.4366 -1.4851
 1293SOL    HW215339   3.528   1.278  14.119  1.0281  1.2074  0.7922
 1294SOL     OW15340   2.092   2.002  16.121 -0.3125  0.4497 -0.2795
 1294SOL    HW115341   2.010   2.024  16.166  1.1106  2.7628  1.1788
 1294SOL    HW215342   2.076   1.911  16.097 -2.2671  0.3008  1.5775
 1295SOL     OW15343   3.466   2.339   8.262  0.2287  0.1814 -0.0188
 1295SOL    HW115344   3.441   2.428   8.238 -1.4923 -0.3042 -0.0096
 1295SOL    HW215345   3.381   2.295   8.270  0.8949 -1.1508 -0.2263
 1296SOL     OW15346   3.727   1.897  11.771 -0.1646 -0.1180 -0.8829
 1296SOL    HW115347   3.812   1.938  11.757 -0.3228  0.8157  0.9244
 1296SOL    HW215348   3.754   1.818  11.818 -0.7290  2.5317  3.8138
 1297SOL     OW15349   0.337   2.067   8.275  1.0142 -0.0930 -0.0737
 1297SOL    HW115350   0.360   1.979   8.247 -1.4786 -0.5698 -0.6507
 1297SOL    HW215351   0.297   2.053   8.361 -0.3114  0.1599 -0.6534
 1298SOL     OW15352   0.210   0.065   8.801 -0.0900  0.5180 -0.5671
 1298SOL    HW115353   0.140   0.116   8.761 -0.6965 -0.6315 -0.9413
 1298SOL    HW215354   0.172   0.037   8.885 -0.6956 -0.2764 -1.1082
 1299SOL     OW15355   3.858   1.840   6.346 -0.0760 -0.0072 -0.7659
 1299SOL    HW115356   3.943   1.833   6.389 -0.0531 -2.6257 -1.2307
 1299SOL    HW215357   3.864   1.774   6.276 -0.2828 -0.2735 -0.5298
 1300SOL     OW15358   2.854   3.356   6.422  0.2307 -0.3276  0.1389
 1300SOL    HW115359   2.873   3.278   6.371 -0.3336 -0.7534  0.5725
 1300SOL    HW215360   2.770   3.343   6.466 -0.7923  1.1125 -1.3668
 1301SOL     OW15361   4.229   2.360   8.437  0.7807  0.0269  0.3564
 1301SOL    HW115362   4.310   2.341   8.389  0.2996 -1.1741  0.0097
 1301SOL    HW215363   4.259   2.343   8.526  4.0010 -0.9397 -0.9245
 1302SOL     OW15364   3.128   2.790   7.918  0.7172  0.1502 -0.3440
 1302SOL    HW115365   3.103   2.871   7.964  1.8730 -0.4583  1.3626
 1302SOL    HW215366   3.163   2.743   7.994 -0.7406  0.3095  0.4357
 1303SOL     OW15367   1.408   3.011  13.643 -0.0264  0.8562  0.3411
 1303SOL    HW115368   1.497   2.987  13.669  0.4257  0.8285 -1.2413
 1303SOL    HW215369   1.419   2.989  13.550  1.0410  0.7610  0.4936
 1304SOL     OW15370   0.832   1.785   6.458  0.0186 -0.6633 -0.3730
 1304SOL    HW115371   0.881   1.859   6.422 -1.4383  0.2991 -0.3391
 1304SOL    HW215372   0.835   1.723   6.385  0.1311 -2.3934  1.0963
 1305SOL     OW15373   0.160   1.580   1.164 -0.9438  0.4480 -0.1848
 1305SOL    HW115374   0.071   1.600   1.192 -1.2799 -1.7073  0.2758
 1305SOL    HW215375   0.133   1.505   1.112  1.8264 -1.1530  0.6898
 1306SOL     OW15376   3.366   0.874   3.688  0.0154  0.7849  0.1987
 1306SOL    HW115377   3.426   0.800   3.688 -0.6291  0.2576  1.1945
 1306SOL    HW215378   3.318   0.862   3.606 -2.1909 -0.8500  1.7432
 1307SOL     OW15379   0.161   1.885   8.587 -0.5112  0.0694 -0.4010
 1307SOL    HW115380   0.078   1.887   8.539 -0.1856 -0.1521 -0.9729
 1307SOL    HW215381   0.200   1.970   8.566  0.2244 -0.1572  0.0594
 1308SOL     OW15382   4.204   3.651  13.585  0.7715  0.3936 -0.2068
 1308SOL    HW115383   4.203   3.712  13.659 -1.3387  1.0341 -0.7420
 1308SOL    HW215384   4.289   3.675  13.548  0.4349  0.0290 -1.2228
 1309SOL     OW15385   4.587   0.764  16.674 -0.4665  0.0218  0.0438
 1309SOL    HW115386   4.673   0.732  16.645 -1.1894  0.4967 -2.6160
 1309SOL    HW215387   4.605   0.745  16.766  1.5863  1.3698 -0.0902
 1310SOL     OW15388   3.811   0.386  12.171 -0.5146 -0.2326  0.8692
 1310SOL    HW115389   3.899   0.424  12.180 -0.9964  1.1707 -0.4596
 1310SOL    HW215390   3.806   0.329  12.248  2.7982  0.4821  1.6269
 1311SOL     OW15391   3.791   0.370  13.074  0.7534 -0.3355 -0.2861
 1311SOL    HW115392   3.804   0.351  12.981 -2.9032  0.2208 -0.9435
 1311SOL    HW215393   3.747   0.291  13.107  0.4983 -1.8257 -4.1334
 1312SOL     OW15394   4.366   2.474  12.509 -0.6698  0.1005  0.0970
 1312SOL    HW115395   4.416   2.541  12.554  0.0819 -0.3695 -0.0280
 1312SOL    HW215396   4.436   2.429  12.461  0.2327  0.1093  1.4280
 1313SOL     OW15397   2.360   2.168  16.008  0.2289  0.6033 -0.4257
 1313SOL    HW115398   2.385   2.123  15.928 -1.5217  0.6438 -0.9910
 1313SOL    HW215399   2.430   2.144  16.069  0.3851  0.2630 -0.7430
 1314SOL     OW15400   2.392   4.298  15.079 -0.3340  0.5784  0.1443
 1314SOL    HW115401   2.349   4.383  15.092  0.0728  1.1219 -1.9367
 1314SOL    HW215402   2.486   4.317  15.075 -0.5273  1.6054  0.5863
 1315SOL     OW15403   3.348   2.456   5.259 -0.1770 -0.0915  0.4809
 1315SOL    HW115404   3.335   2.370   5.217 -1.4627  0.1994  0.2894
 1315SOL    HW215405   3.271   2.462   5.315 -1.2578 -1.0330 -0.8947
 1316SOL     OW15406   3.442   3.852  17.215 -0.1580 -0.1404  0.0754
 1316SOL    HW115407   3.460   3.792  17.143 -0.9181  1.1161 -1.1556
 1316SOL    HW215408   3.449   3.935  17.167  0.9700  1.2166  2.5490
 1317SOL     OW15409   2.967   3.021  15.421 -0.4369  0.8171  0.1536
 1317SOL    HW115410   2.872   3.023  15.433 -0.5231  0.2314 -0.4162
 1317SOL    HW215411   2.983   3.107  15.384  1.2171  0.1391 -0.7069
 1318SOL     OW15412   2.798   2.081  13.181 -0.6925 -0.0580 -0.0050
 1318SOL    HW115413   2.767   2.076  13.090 -3.1322  2.1742  0.6918
 1318SOL    HW215414   2.717   2.039  13.211 -1.1551  1.5154  0.9650
 1319SOL     OW15415   3.698   1.874   3.599 -0.2262 -0.0312  0.0927
 1319SOL    HW115416   3.697   1.805   3.533 -0.7106  0.0808 -0.0174
 1319SOL    HW215417   3.639   1.836   3.664  1.5138  1.4654  2.5312
 1320SOL     OW15418   3.553   3.505   5.941  0.2581 -0.2645  0.1046
 1320SOL    HW115419   3.573   3.551   6.023  1.3697  0.9899 -0.8671
 1320SOL    HW215420   3.506   3.578   5.901 -0.0174 -1.8748 -2.5039
 1321SOL     OW15421   1.332   0.348  15.151  0.0746  0.3021 -0.0571
 1321SOL    HW115422   1.324   0.259  15.117 -1.0784 -0.1648  1.4379
 1321SOL    HW215423   1.369   0.342  15.239  2.7089 -0.3379 -1.2322
 1322SOL     OW15424   3.819   3.698   4.733 -0.2105  0.1729 -0.0908
 1322SOL    HW115425   3.780   3.760   4.794  1.1085 -0.6155  1.5203
 1322SOL    HW215426   3.829   3.621   4.788  3.8310 -0.1431 -1.2509
 1323SOL     OW15427   0.108   4.022  16.893  0.5689 -0.1145  0.2543
 1323SOL    HW115428   0.073   3.966  16.962  1.1819 -0.7912  0.0177
 1323SOL    HW215429   0.170   3.962  16.853 -0.6920 -1.4090  0.2445
 1324SOL     OW15430   3.206   0.426   3.427 -0.3683 -0.3519 -0.2626
 1324SOL    HW115431   3.211   0.452   3.335  1.5994  0.3367  0.0407
 1324SOL    HW215432   3.170   0.338   3.417  1.2750 -1.5225  4.0048
 1325SOL     OW15433   1.826   0.344   2.838 -0.2988  0.4704  0.0729
 1325SOL    HW115434   1.854   0.261   2.875 -0.7729 -0.1384 -0.9303
 1325SOL    HW215435   1.733   0.325   2.824 -0.1967  0.3799 -0.4795
 1326SOL     OW15436   3.574   0.390   8.518  0.6013 -0.1035 -0.4258
 1326SOL    HW115437   3.593   0.355   8.431 -1.2584  1.7612 -1.6108
 1326SOL    HW215438   3.582   0.308   8.566  2.3415 -0.9525 -2.1782
 1327SOL     OW15439   2.411   3.976   9.616 -0.8767 -0.2778 -0.3047
 1327SOL    HW115440   2.437   3.962   9.706 -1.4457  2.6026  0.3338
 1327SOL    HW215441   2.377   4.066   9.619  0.0874  0.0390  0.8842
 1328SOL     OW15442   3.260   2.141   4.703 -0.1646 -0.1690  0.4724
 1328SOL    HW115443   3.354   2.146   4.723  0.0771 -0.6453 -0.5355
 1328SOL    HW215444   3.258   2.143   4.607 -0.3317 -2.4508  0.4219
 1329SOL     OW15445   0.447   3.775   1.191  0.1755 -0.2043 -0.2888
 1329SOL    HW115446   0.415   3.699   1.143 -1.8999  1.4344 -1.5457
 1329SOL    HW215447   0.381   3.780   1.260 -2.8304  0.4418 -3.2061
 1330SOL     OW15448   2.056   3.156   3.069 -0.0046  0.5400 -0.0761
 1330SOL    HW115449   2.056   3.251   3.065 -1.6925  0.4455 -2.5158
 1330SOL    HW215450   2.077   3.141   3.161 -1.9818  0.8793  0.4342
 1331SOL     OW15451   3.722   4.467   9.632  0.2866  0.5264 -0.1371
 1331SOL    HW115452   3.702   4.396   9.571  1.3780 -0.4815  0.6723
 1331SOL    HW215453   3.633   4.471   9.667  0.3895  0.6873  0.1138
 1332SOL     OW15454   2.223   1.382   1.851  0.4774 -0.2657  0.0785
 1332SOL    HW115455   2.209   1.476   1.845 -2.8051 -0.7880 -0.6819
 1332SOL    HW215456   2.287   1.367   1.921  1.9176 -0.0169 -1.2060
 1333SOL     OW15457   2.499   4.700   8.154  0.1812 -0.3146  0.3614
 1333SOL    HW115458   2.556   0.018   8.220 -1.2086  3.0234 -0.4195
 1333SOL    HW215459   2.558   4.690   8.078  0.9429 -0.1020  0.9209
 1334SOL     OW15460   4.417   3.340   7.071 -0.1128  0.1748 -0.5580
 1334SOL    HW115461   4.343   3.390   7.036 -1.5508 -1.9122 -0.4787
 1334SOL    HW215462   4.456   3.295   6.995  3.1115  0.8305  0.6942
 1335SOL     OW15463   2.986   2.450   1.681 -0.0923 -0.6593 -0.0758
 1335SOL    HW115464   3.079   2.427   1.676  0.3380  0.6618  1.6692
 1335SOL    HW215465   2.971   2.487   1.594  1.4352 -0.0573 -0.0716
 1336SOL     OW15466   4.026   0.822  13.050  0.5103  0.0625  0.2611
 1336SOL    HW115467   4.046   0.848  13.140 -0.2316 -0.1467  0.4841
 1336SOL    HW215468   3.996   0.733  13.069 -2.9040  0.9561 -0.9899
 1337SOL     OW15469   1.996   4.371   3.880 -0.3830 -0.4901 -0.4862
 1337SOL    HW115470   1.960   4.418   3.955  0.4218 -0.5778 -0.0470
 1337SOL    HW215471   2.003   4.281   3.911  1.4271  0.1276  0.8878
 1338SOL     OW15472   1.346   1.603  10.580 -0.3595  0.4076  0.2601
 1338SOL    HW115473   1.286   1.602  10.654 -0.0509  2.1171  0.5510
 1338SOL    HW215474   1.395   1.684  10.598 -1.3983  0.6480  1.9834
 1339SOL     OW15475   2.193   4.400   4.500  0.2034 -0.3388 -0.1990
 1339SOL    HW115476   2.203   4.305   4.510  1.4826 -0.0408  1.5209
 1339SOL    HW215477   2.198   4.425   4.593  2.9870  1.0205 -0.7139
 1340SOL     OW15478   0.989   3.887   1.289  0.2971 -0.3619  0.5070
 1340SOL    HW115479   0.926   3.905   1.359 -0.3720 -1.9570  0.3341
 1340SOL    HW215480   1.061   3.883   1.352 -0.1625 -2.3427  0.9312
 1341SOL     OW15481   4.307   2.225   7.841  0.0175 -0.0720 -0.2607
 1341SOL    HW115482   4.265   2.154   7.891 -1.8415 -0.3684 -2.2675
 1341SOL    HW215483   4.389   2.228   7.890  0.5839  0.0998 -1.2431
 1342SOL     OW15484   3.190   4.417   4.696  0.8014 -0.3140  0.6618
 1342SOL    HW115485   3.207   4.327   4.725 -0.2290 -0.8365 -0.3417
 1342SOL    HW215486   3.141   4.445   4.773  1.0321  0.6757  0.4372
 1343SOL     OW15487   0.303   4.141   8.082 -0.1010  0.4445  0.6791
 1343SOL    HW115488   0.275   4.165   8.170 -2.8868  2.4181 -0.7572
 1343SOL    HW215489   0.398   4.152   8.081 -0.0928  0.2789 -0.4937
 1344SOL     OW15490   1.203   1.670   7.660  0.7898 -0.1707  0.2649
 1344SOL    HW115491   1.189   1.745   7.602  1.4184 -0.7709 -0.6540
 1344SOL    HW215492   1.115   1.633   7.654  0.2613  1.3105 -1.1475
 1345SOL     OW15493   4.662   0.847   3.621  0.1107 -0.8710  0.4036
 1345SOL    HW115494   4.659   0.781   3.551  0.3630 -0.8541  0.3775
 1345SOL    HW215495   4.656   0.803   3.706  1.6387 -1.3694  0.2479
 1346SOL     OW15496   4.110   3.902   5.284  0.0946 -0.1074  0.8210
 1346SOL    HW115497   4.168   3.895   5.207 -0.3067 -1.8651  0.6760
 1346SOL    HW215498   4.095   3.810   5.307  0.7515 -0.6011 -0.6920
 1347SOL     OW15499   1.902   2.083  17.532 -0.3106  0.4793 -0.3344
 1347SOL    HW115500   1.815   2.123  17.524  1.6375  4.5852 -1.0823
 1347SOL    HW215501   1.933   2.101  17.621 -1.6043  0.6685  0.0764
 1348SOL     OW15502   0.650   3.575  11.612  0.1097  0.0632 -0.0737
 1348SOL    HW115503   0.606   3.510  11.667  2.1064 -0.5624  0.7785
 1348SOL    HW215504   0.707   3.622  11.673  0.9721 -2.8233  1.3328
 1349SOL     OW15505   1.400   3.790   6.459  0.1241 -0.2705 -0.0517
 1349SOL    HW115506   1.464   3.728   6.424 -1.4322 -2.2193  0.5074
 1349SOL    HW215507   1.449   3.847   6.518  0.4718 -0.7765  0.1417
 1350SOL     OW15508   1.574   1.266   8.264 -0.6153 -0.0972 -0.2640
 1350SOL    HW115509   1.633   1.243   8.192  0.0951  1.2195 -0.1127
 1350SOL    HW215510   1.511   1.196   8.250 -0.5001 -0.2871  0.1574
 1351SOL     OW15511   4.220   3.650  11.040 -0.1492  0.2143 -0.0220
 1351SOL    HW115512   4.256   3.571  11.080  0.9486 -0.1924 -1.8069
 1351SOL    HW215513   4.155   3.681  11.103  0.6541  0.1070  0.8559
 1352SOL     OW15514   1.487   3.855   2.158 -0.2706 -0.2851  0.3646
 1352SOL    HW115515   1.566   3.836   2.209  0.8941 -0.1629 -1.4056
 1352SOL    HW215516   1.462   3.765   2.138 -0.1567 -0.2654  0.1426
 1353SOL     OW15517   1.618   1.470   0.513  0.5052  0.2468 -0.2418
 1353SOL    HW115518   1.557   1.437   0.447 -2.0039  2.0857  1.1721
 1353SOL    HW215519   1.697   1.500   0.467 -0.0633  0.1740 -1.2744
 1354SOL     OW15520   1.569   1.612   8.465  0.0514 -0.1094  0.2550
 1354SOL    HW115521   1.630   1.630   8.537 -0.2951  2.4366 -0.0838
 1354SOL    HW215522   1.623   1.642   8.392 -0.9418 -1.0321 -0.8459
 1355SOL     OW15523   4.292   3.897   6.448 -0.0153  0.1529  0.0062
 1355SOL    HW115524   4.201   3.923   6.436  0.3838  2.3791  1.7600
 1355SOL    HW215525   4.286   3.858   6.535 -1.5742 -0.7808 -0.5084
 1356SOL     OW15526   2.045   2.928  12.532 -0.6783  0.1882  0.2017
 1356SOL    HW115527   2.110   2.888  12.590  0.4804  1.8085  0.0361
 1356SOL    HW215528   2.006   2.850  12.492 -1.7560  1.1490 -0.6262
 1357SOL     OW15529   0.817   3.713   5.475  0.8593 -0.0080  0.0674
 1357SOL    HW115530   0.911   3.711   5.494  0.5495 -1.5410  1.4442
 1357SOL    HW215531   0.802   3.807   5.472  1.1451  0.0205 -0.4781
 1358SOL     OW15532   1.749   2.699   5.327 -0.7860  0.3458 -0.7226
 1358SOL    HW115533   1.696   2.742   5.393  0.6392  0.2714  0.4604
 1358SOL    HW215534   1.687   2.630   5.302  1.4265 -0.8300 -2.9262
 1359SOL     OW15535   3.714   3.420   0.521  0.0287  0.2406 -0.2145
 1359SOL    HW115536   3.748   3.340   0.482 -3.4031 -0.4062 -1.9045
 1359SOL    HW215537   3.700   3.395   0.612  0.9761  1.5331  0.2952
 1360SOL     OW15538   3.916   3.242   1.313 -0.0444  0.0630 -0.9064
 1360SOL    HW115539   3.899   3.276   1.401  0.6233  0.2278 -0.8389
 1360SOL    HW215540   3.969   3.313   1.277 -1.1625  1.3730  0.0191
 1361SOL     OW15541   4.512   2.192   2.665  0.2285 -0.3654  0.6974
 1361SOL    HW115542   4.467   2.155   2.589  0.6292  1.1011 -0.2523
 1361SOL    HW215543   4.593   2.223   2.623  0.3347 -0.1813  1.0390
 1362SOL     OW15544   1.613   0.052   7.868 -0.0091  0.0652 -0.5104
 1362SOL    HW115545   1.636   0.132   7.820  1.6602 -0.8627 -1.2432
 1362SOL    HW215546   1.573   0.083   7.950  1.2193  2.2291 -0.7340
 1363SOL     OW15547   3.209   2.791  12.988 -0.5256  0.2839  0.3491
 1363SOL    HW115548   3.181   2.822  13.074  0.2117  1.7787  0.0470
 1363SOL    HW215549   3.170   2.704  12.996  2.1896 -0.9635  0.0280
 1364SOL     OW15550   4.607   2.589   0.585 -1.2920  0.3465 -0.0671
 1364SOL    HW115551   4.515   2.586   0.612 -0.4952  1.4070  2.7428
 1364SOL    HW215552   4.604   2.519   0.521  0.4040  1.0948 -0.9735
 1365SOL     OW15553   1.474   1.868   3.776  0.0581 -0.3260 -0.7665
 1365SOL    HW115554   1.514   1.934   3.719  2.8146  1.4905  3.2572
 1365SOL    HW215555   1.387   1.906   3.789  0.1205 -0.4085 -0.1078
 1366SOL     OW15556   1.203   1.346  16.726  0.2228  0.2575  0.3132
 1366SOL    HW115557   1.203   1.358  16.821  0.2739  1.4990  0.1558
 1366SOL    HW215558   1.231   1.255  16.726 -1.6903 -0.3324 -1.2369
 1367SOL     OW15559   2.395   3.570   7.787 -0.1985  0.0187  0.5112
 1367SOL    HW115560   2.385   3.563   7.882 -0.6139  0.8894  0.5256
 1367SOL    HW215561   2.350   3.652   7.766 -2.1278 -1.5029 -1.3607
 1368SOL     OW15562   0.533   2.603  13.450 -0.1583  0.3942  0.3715
 1368SOL    HW115563   0.466   2.577  13.386 -1.2521  1.8974  0.9326
 1368SOL    HW215564   0.546   2.697  13.440 -0.0603  0.5167  1.6861
 1369SOL     OW15565   4.147   0.855  13.310  0.3290  0.4260 -0.1117
 1369SOL    HW115566   4.202   0.916  13.359  1.6579 -2.5696  2.1365
 1369SOL    HW215567   4.065   0.876  13.354 -0.2280  0.8966 -1.4091
 1370SOL     OW15568   2.096   1.591   5.835  0.6598 -0.3639 -0.5413
 1370SOL    HW115569   2.020   1.573   5.891  1.2498  1.6639  0.9195
 1370SOL    HW215570   2.147   1.639   5.900  0.4763 -0.7492 -0.1105
 1371SOL     OW15571   3.611   1.116  12.475  0.1861 -0.3966  0.2710
 1371SOL    HW115572   3.705   1.106  12.489  0.4060 -1.0830 -1.6127
 1371SOL    HW215573   3.584   1.161  12.554 -1.2485  1.8516 -1.4993
 1372SOL     OW15574   2.171   1.640   1.871 -0.2921 -0.0403 -0.2732
 1372SOL    HW115575   2.223   1.658   1.793 -0.2871  1.1876  0.0087
 1372SOL    HW215576   2.150   1.729   1.898  1.2372  0.2085  0.1181
 1373SOL     OW15577   0.486   0.388   0.183  0.0704  0.2130 -0.1755
 1373SOL    HW115578   0.481   0.412   0.276 -0.7360  0.0347 -0.1775
 1373SOL    HW215579   0.559   0.443   0.154  0.6421 -1.1790 -1.3669
 1374SOL     OW15580   3.512   2.210   9.595 -0.0972 -0.0818  0.6740
 1374SOL    HW115581   3.553   2.217   9.681  0.1957 -1.2983  0.6212
 1374SOL    HW215582   3.441   2.273   9.610 -2.6907 -2.8027 -0.0648
 1375SOL     OW15583   1.886   1.969   4.790 -0.4191 -0.5959 -0.1289
 1375SOL    HW115584   1.885   1.909   4.715  0.2895 -0.9465  0.1424
 1375SOL    HW215585   1.899   1.899   4.854 -1.9076 -0.4959  0.2811
 1376SOL     OW15586   3.854   1.678   6.150 -0.0959 -0.5351 -0.1239
 1376SOL    HW115587   3.809   1.602   6.186 -0.0894  0.6410  2.3653
 1376SOL    HW215588   3.939   1.641   6.126 -0.0724 -1.6883  1.7403
 1377SOL     OW15589   4.465   0.495  16.214 -0.0972 -0.6926 -0.5890
 1377SOL    HW115590   4.544   0.442  16.214  0.0575 -0.4670 -0.8412
 1377SOL    HW215591   4.462   0.526  16.304  0.6756  0.7891 -1.0722
 1378SOL     OW15592   1.656   0.641  11.420  0.1184 -0.4669 -0.4240
 1378SOL    HW115593   1.619   0.620  11.334 -0.5065 -1.9638  0.2114
 1378SOL    HW215594   1.629   0.732  11.412  2.0311  0.0620 -0.8564
 1379SOL     OW15595   1.381   3.965   8.437  0.1142 -0.1501 -0.3444
 1379SOL    HW115596   1.457   4.019   8.458  0.3870 -1.1554  1.2221
 1379SOL    HW215597   1.314   4.032   8.424  1.8345  1.4330 -0.9835
 1380SOL     OW15598   2.457   0.394  14.103 -0.3316  0.0379 -0.0880
 1380SOL    HW115599   2.545   0.356  14.105  0.2872  1.2982 -2.4707
 1380SOL    HW215600   2.441   0.417  14.194  0.7695  1.1956 -0.1966
 1381SOL     OW15601   0.142   4.297   6.134 -0.2461  0.5258 -0.1533
 1381SOL    HW115602   0.118   4.212   6.095 -1.4078  1.1759 -0.8657
 1381SOL    HW215603   0.098   4.302   6.219  0.6759 -0.9411  0.4132
 1382SOL     OW15604   1.079   1.050   2.336 -0.3088 -0.5699 -0.2628
 1382SOL    HW115605   1.066   0.962   2.370  1.7278 -0.8811 -0.2837
 1382SOL    HW215606   1.035   1.040   2.251 -1.2497  0.7104  0.0801
 1383SOL     OW15607   3.311   1.657  10.761 -0.1985  0.0800 -0.0782
 1383SOL    HW115608   3.366   1.729  10.790 -0.2515  0.4315 -0.8508
 1383SOL    HW215609   3.297   1.665  10.666 -0.6646  0.1671 -0.0018
 1384SOL     OW15610   4.517   1.800   2.543  0.4216  0.0039  0.0120
 1384SOL    HW115611   4.486   1.763   2.460  0.6878  1.1321 -0.5891
 1384SOL    HW215612   4.607   1.828   2.525 -0.1152  1.0782 -0.9803
 1385SOL     OW15613   4.473   1.731   6.643  0.1706 -0.2427 -0.9296
 1385SOL    HW115614   4.514   1.727   6.729  2.3170  0.4987 -1.9400
 1385SOL    HW215615   4.387   1.769   6.659  1.1601  1.3984  0.3779
 1386SOL     OW15616   1.735   0.359  11.527  0.4951 -0.5518  0.2080
 1386SOL    HW115617   1.679   0.436  11.516 -0.8365 -1.4258  0.8913
 1386SOL    HW215618   1.710   0.327  11.614 -0.6495 -0.3039 -0.0381
 1387SOL     OW15619   1.675   2.793   6.391  0.2037 -0.5153 -0.2801
 1387SOL    HW115620   1.669   2.701   6.364 -0.3044 -0.4174 -0.5011
 1387SOL    HW215621   1.583   2.814   6.410  0.6201  0.2132  0.8929
 1388SOL     OW15622   4.547   3.424  17.646  0.5355 -0.4546  0.1669
 1388SOL    HW115623   4.480   3.491  17.660 -0.0573 -1.3082  1.3933
 1388SOL    HW215624   4.521   3.364  17.577 -0.5080  1.1295 -0.8134
 1389SOL     OW15625   0.341   2.944  13.630  0.3381  0.0075  0.4694
 1389SOL    HW115626   0.428   2.948  13.590 -0.8240 -1.3625 -2.1331
 1389SOL    HW215627   0.307   2.870  13.581  3.9244 -2.2780  1.3995
 1390SOL     OW15628   1.029   3.357  11.751  0.3219 -0.4774  0.3051
 1390SOL    HW115629   1.056   3.430  11.807 -1.1475 -0.1244  0.5426
 1390SOL    HW215630   1.090   3.368  11.679  0.9289  0.0112  0.8876
 1391SOL     OW15631   2.737   2.535   8.550  0.4252 -0.6459  0.2135
 1391SOL    HW115632   2.803   2.512   8.616 -1.6583 -0.5454  2.3299
 1391SOL    HW215633   2.667   2.476   8.575 -0.9345  1.6686  1.9213
 1392SOL     OW15634   2.314   0.599   7.093 -0.0411 -0.0869  0.1976
 1392SOL    HW115635   2.341   0.689   7.111 -0.8193 -0.0746  1.3200
 1392SOL    HW215636   2.399   0.554   7.095 -0.7304 -1.3874  0.1685
 1393SOL     OW15637   0.623   3.660   8.688  0.3072  0.1645 -0.3868
 1393SOL    HW115638   0.616   3.720   8.614  1.2573  2.5336  1.4459
 1393SOL    HW215639   0.562   3.692   8.754 -1.2642  0.1615 -1.8535
 1394SOL     OW15640   1.650   2.248   3.004  0.7937  0.5237 -0.5354
 1394SOL    HW115641   1.698   2.307   2.946  1.4046  0.6692  0.1139
 1394SOL    HW215642   1.573   2.301   3.024  1.2242  1.2613 -0.8148
 1395SOL     OW15643   2.305   0.289   8.766  0.8501  0.2198  0.5484
 1395SOL    HW115644   2.281   0.197   8.783  2.2039 -0.4846 -1.3827
 1395SOL    HW215645   2.303   0.296   8.671 -1.3742  3.1122  0.8096
 1396SOL     OW15646   4.150   1.037  11.180  0.0866  0.6705 -0.4416
 1396SOL    HW115647   4.222   1.066  11.236  1.4436 -0.9236 -1.3727
 1396SOL    HW215648   4.152   0.947  11.212  1.7190  0.2467 -1.7706
 1397SOL     OW15649   1.350   4.286   1.003  0.8817  0.4471 -0.5181
 1397SOL    HW115650   1.270   4.336   1.021  0.8696 -0.1206  0.9693
 1397SOL    HW215651   1.416   4.348   1.033  0.7557 -1.3840  3.5425
 1398SOL     OW15652   2.205   3.117  14.383 -0.1151  0.3436 -0.5061
 1398SOL    HW115653   2.140   3.144  14.317  0.1567 -0.5759 -1.1603
 1398SOL    HW215654   2.283   3.158  14.344 -0.5329  1.8411  0.2351
 1399SOL     OW15655   2.522   4.246  12.055 -0.5062  0.7112 -0.3841
 1399SOL    HW115656   2.614   4.270  12.065  0.1905 -2.2248 -0.0187
 1399SOL    HW215657   2.485   4.327  12.019 -0.7913  0.5117 -0.5383
 1400SOL     OW15658   4.654   1.242   2.350 -0.0067 -0.0005 -0.1388
 1400SOL    HW115659   4.603   1.316   2.382 -0.2910 -0.1858 -0.1633
 1400SOL    HW215660   4.584   1.177   2.350  0.8775 -0.9402 -1.2309
 1401SOL     OW15661   4.570   1.844   7.891 -0.2193 -0.3230  0.2935
 1401SOL    HW115662   4.609   1.782   7.830  0.8929  0.8386 -0.1797
 1401SOL    HW215663   4.492   1.799   7.924 -0.2613  1.1981  2.3256
 1402SOL     OW15664   1.318   3.969   2.722  0.2860 -0.4985 -0.7325
 1402SOL    HW115665   1.247   4.015   2.676 -0.0774  0.7907  1.0807
 1402SOL    HW215666   1.353   3.902   2.664 -0.6415 -0.6471 -1.1212
 1403SOL     OW15667   2.445   4.174  14.230 -0.5901  0.8428 -0.0583
 1403SOL    HW115668   2.421   4.219  14.149  0.2450  0.1452 -0.6879
 1403SOL    HW215669   2.538   4.161  14.214 -0.6232 -0.2814  0.6736
 1404SOL     OW15670   2.783   0.771  15.585  0.4614 -0.5890  0.0133
 1404SOL    HW115671   2.838   0.838  15.625  2.5509 -1.5643 -1.2163
 1404SOL    HW215672   2.825   0.691  15.615 -0.9097 -1.1509  0.4166
 1405SOL     OW15673   0.539   1.503   7.239 -0.2072  0.3581  0.0490
 1405SOL    HW115674   0.559   1.419   7.199  0.1817  0.3409  0.2768
 1405SOL    HW215675   0.510   1.481   7.328  0.4311 -1.3274 -0.1621
 1406SOL     OW15676   3.802   0.289   1.512 -0.5902 -0.4167  0.1967
 1406SOL    HW115677   3.812   0.272   1.419  0.1942  1.1876 -0.0131
 1406SOL    HW215678   3.880   0.344   1.523  0.3095 -1.7546  0.4473
 1407SOL     OW15679   3.482   2.169  12.149 -0.0981 -0.4006  0.3174
 1407SOL    HW115680   3.459   2.217  12.069 -1.7457 -1.9794 -0.1730
 1407SOL    HW215681   3.470   2.081  12.114  0.0257  0.0872 -0.9409
 1408SOL     OW15682   0.398   1.846   7.214  0.1251  0.3098 -0.2892
 1408SOL    HW115683   0.338   1.905   7.168  0.1386  0.2383 -0.4000
 1408SOL    HW215684   0.421   1.905   7.285 -0.6222 -0.2040  0.3768
 1409SOL     OW15685   2.957   0.452   8.744 -0.0874 -0.6380  0.5145
 1409SOL    HW115686   3.039   0.442   8.695  0.8781  1.8072  1.6227
 1409SOL    HW215687   2.986   0.429   8.832  2.0283 -1.8185 -0.4805
 1410SOL     OW15688   1.157   1.016   5.277 -0.2521 -0.3062 -0.5155
 1410SOL    HW115689   1.102   1.094   5.265 -1.9386 -1.5077 -0.7037
 1410SOL    HW215690   1.213   1.010   5.200  0.6577 -1.3252  0.2309
 1411SOL     OW15691   2.900   2.848   8.306 -0.2546  0.0653  0.5798
 1411SOL    HW115692   2.954   2.788   8.357 -1.2549 -0.4739  1.0012
 1411SOL    HW215693   2.854   2.900   8.372 -1.2327  0.3313 -0.3091
 1412SOL     OW15694   1.891   3.814   9.443  0.4887 -0.1096  0.0801
 1412SOL    HW115695   1.902   3.723   9.413 -1.3235  0.1802 -1.4875
 1412SOL    HW215696   1.796   3.820   9.449  0.6183  0.6916  1.4098
 1413SOL     OW15697   2.711   4.452   1.981 -0.4393  0.0888  0.3009
 1413SOL    HW115698   2.635   4.469   2.036 -0.7620 -0.7162  0.0891
 1413SOL    HW215699   2.737   4.536   1.942 -1.8821  1.3172  1.9480
 1414SOL     OW15700   4.683   0.415   3.681 -0.7146 -0.4664 -0.0869
 1414SOL    HW115701   4.644   0.491   3.724  0.8085  1.0624 -1.4401
 1414SOL    HW215702   0.056   0.422   3.695 -0.3946 -1.5894 -1.7031
 1415SOL     OW15703   4.009   0.151   6.862  0.3463  0.1945 -0.1532
 1415SOL    HW115704   4.063   0.205   6.804 -0.5783  2.3202  0.9450
 1415SOL    HW215705   4.058   0.070   6.877  1.1358  0.4335 -1.4020
 1416SOL     OW15706   1.854   2.172  15.038 -0.5897 -0.0194  0.0933
 1416SOL    HW115707   1.817   2.152  14.952 -0.1584  0.8447 -0.2811
 1416SOL    HW215708   1.780   2.215  15.081 -1.8601 -1.2468 -0.8634
 1417SOL     OW15709   1.310   3.326  10.740  0.4481 -0.1932 -0.6782
 1417SOL    HW115710   1.378   3.371  10.690  0.5641 -1.4715 -1.6595
 1417SOL    HW215711   1.244   3.395  10.729  1.4592  0.6006 -1.7598
 1418SOL     OW15712   1.950   3.970   3.705 -0.0371 -0.0087 -0.4231
 1418SOL    HW115713   1.909   4.035   3.649  1.4407  0.9681 -0.3666
 1418SOL    HW215714   1.885   3.900   3.716 -0.0719  0.1778  0.5603
 1419SOL     OW15715   4.151   4.178  16.284  0.0326  0.3831 -0.3344
 1419SOL    HW115716   4.245   4.160  16.292 -0.0793 -0.6573 -1.3548
 1419SOL    HW215717   4.124   4.214  16.369 -0.2456 -2.1029  0.6465
 1420SOL     OW15718   3.868   2.731  15.095 -0.2239  0.1233  0.2793
 1420SOL    HW115719   3.835   2.680  15.170  1.6516  0.8145  1.5720
 1420SOL    HW215720   3.814   2.713  15.018 -0.5068 -3.3001  1.2653
 1421SOL     OW15721   4.399   2.237   0.510 -0.7620  0.1322 -0.7334
 1421SOL    HW115722   4.347   2.205   0.437 -2.1079 -0.0397  0.3050
 1421SOL    HW215723   4.473   2.280   0.466  1.0408 -1.1492  1.0008
 1422SOL     OW15724   3.427   3.871   5.641  0.5343 -0.2412  0.6682
 1422SOL    HW115725   3.397   3.815   5.569 -1.4728  2.3307 -0.5229
 1422SOL    HW215726   3.377   3.948   5.611  0.4167 -0.1249  1.1748
 1423SOL     OW15727   0.485   1.030   3.116  0.1602 -0.4577 -0.4828
 1423SOL    HW115728   0.424   1.103   3.107  1.7040  0.8539 -0.1826
 1423SOL    HW215729   0.455   0.967   3.051 -3.9435  1.8444 -0.8144
 1424SOL     OW15730   0.908   1.689  13.995 -0.4867 -0.5691  0.2855
 1424SOL    HW115731   0.978   1.662  14.055  0.5388  1.3051 -0.0621
 1424SOL    HW215732   0.961   1.740  13.934 -0.5174  0.2165  0.9084
 1425SOL     OW15733   1.174   1.132   5.897 -0.0910 -0.0965  0.6859
 1425SOL    HW115734   1.118   1.205   5.872 -1.7810 -1.2610  1.0800
 1425SOL    HW215735   1.214   1.106   5.814 -0.7674 -1.5120  0.7984
 1426SOL     OW15736   4.059   0.016   4.850  1.1276 -0.0577  0.0175
 1426SOL    HW115737   3.991   0.036   4.915  1.0037 -0.2335 -0.0587
 1426SOL    HW215738   4.068   4.646   4.874 -0.8676 -0.1650  0.3458
 1427SOL     OW15739   3.932   3.101  15.857  0.0595 -0.7107 -0.1306
 1427SOL    HW115740   3.913   3.170  15.793 -0.7468 -0.3226  0.5177
 1427SOL    HW215741   4.016   3.069  15.824 -0.3876  0.2890 -2.1974
 1428SOL     OW15742   0.046   2.023   8.081  0.5047 -0.3020 -0.0923
 1428SOL    HW115743   0.136   2.002   8.105  0.6378 -0.4967 -0.7611
 1428SOL    HW215744   0.047   1.991   7.991 -0.5670 -0.3014 -0.1013
 1429SOL     OW15745   4.164   4.053  10.132 -0.2365  0.2640 -0.0750
 1429SOL    HW115746   4.168   4.103  10.051  0.6249  1.4421  0.7107
 1429SOL    HW215747   4.185   3.964  10.101  0.8604  1.1995 -2.0507
 1430SOL     OW15748   1.519   0.446   5.096 -0.3770 -0.0394 -0.0830
 1430SOL    HW115749   1.537   0.383   5.165 -0.5678 -0.1979 -0.1765
 1430SOL    HW215750   1.429   0.425   5.070 -1.4146  1.5921  2.2880
 1431SOL     OW15751   0.808   1.146  14.134  0.6866  0.2149  0.2362
 1431SOL    HW115752   0.880   1.208  14.147  1.1956 -0.3562  0.1344
 1431SOL    HW215753   0.795   1.153  14.040 -4.0368  3.1261  1.1195
 1432SOL     OW15754   4.403   3.208   7.742  0.3325  0.6643 -0.0646
 1432SOL    HW115755   4.452   3.142   7.791 -0.6835  0.1501  0.2722
 1432SOL    HW215756   4.353   3.248   7.813 -2.0887  0.3533 -1.5837
 1433SOL     OW15757   2.353   3.768   3.818 -0.0560  0.1064  0.3671
 1433SOL    HW115758   2.363   3.808   3.905 -0.4077 -0.3675  0.6295
 1433SOL    HW215759   2.441   3.747   3.787 -0.0542 -0.3619  0.6971
 1434SOL     OW15760   1.079   3.595   3.777 -0.2783 -0.1507  0.4576
 1434SOL    HW115761   1.034   3.517   3.809  0.5098  0.5104  3.1592
 1434SOL    HW215762   1.149   3.600   3.841  1.2899  0.5002 -1.3224
 1435SOL     OW15763   2.552   2.682   6.194  0.8103  0.0047  0.0675
 1435SOL    HW115764   2.470   2.669   6.146 -0.0221  1.0454  1.2373
 1435SOL    HW215765   2.524   2.687   6.285 -1.7166 -0.2152 -0.6890
 1436SOL     OW15766   2.231   0.876   6.837 -0.3304  0.8424 -0.0349
 1436SOL    HW115767   2.225   0.929   6.917  0.4047 -1.6337  1.6831
 1436SOL    HW215768   2.178   0.927   6.777 -2.1625 -0.6694  0.3019
 1437SOL     OW15769   3.031   2.771   5.757  0.2084 -0.3453 -0.7875
 1437SOL    HW115770   3.003   2.680   5.746  1.8658 -1.1576  1.5704
 1437SOL    HW215771   3.051   2.803   5.669 -0.1059 -1.3182 -1.2099
 1438SOL     OW15772   2.851   0.880   7.176  0.2553 -0.4335  0.2684
 1438SOL    HW115773   2.835   0.969   7.144 -0.3393 -0.8262 -0.5260
 1438SOL    HW215774   2.878   0.834   7.096 -1.6675 -0.1539 -0.5396
 1439SOL     OW15775   0.609   2.550   4.062 -0.0392 -0.0473  0.4983
 1439SOL    HW115776   0.631   2.514   3.976  1.0267 -1.7616  1.4959
 1439SOL    HW215777   0.552   2.619   4.029  2.2958  0.5758 -2.2602
 1440SOL     OW15778   1.741   4.340   5.695 -0.0052  0.5602  0.6733
 1440SOL    HW115779   1.730   4.251   5.730  2.6736  0.2415  0.7227
 1440SOL    HW215780   1.695   4.337   5.611 -0.0101 -0.2866  0.7003
 1441SOL     OW15781   2.586   4.596  13.727 -0.8467 -0.4471  0.2867
 1441SOL    HW115782   2.499   4.632  13.748 -0.9335 -0.2247 -0.4515
 1441SOL    HW215783   2.588   4.625  13.636 -2.5777  0.7092  0.5943
 1442SOL     OW15784   3.461   2.692  13.844 -0.2395 -0.4089 -0.2433
 1442SOL    HW115785   3.459   2.604  13.883 -2.0807  0.7586  2.3156
 1442SOL    HW215786   3.455   2.742  13.925 -0.0903 -0.6903 -0.0586
 1443SOL     OW15787   0.216   3.489   8.118 -0.1644  0.5075  0.1179
 1443SOL    HW115788   0.197   3.442   8.036  1.9263  0.6972 -0.4696
 1443SOL    HW215789   0.290   3.437   8.149 -1.0810 -1.1678 -0.4764
 1444SOL     OW15790   0.815   3.776   5.079 -0.2652 -0.0997  0.1877
 1444SOL    HW115791   0.902   3.812   5.094  0.1273 -0.8633 -0.2402
 1444SOL    HW215792   0.776   3.857   5.047 -2.4074 -0.6824  1.3119
 1445SOL     OW15793   2.266   0.247   5.373  0.1300  0.9091 -0.2594
 1445SOL    HW115794   2.186   0.223   5.326  0.1944 -2.4327  1.2624
 1445SOL    HW215795   2.217   0.285   5.446 -1.1445 -1.5019  0.1435
 1446SOL     OW15796   4.220   1.009  13.523  0.4050 -0.3139  0.2448
 1446SOL    HW115797   4.187   1.098  13.539 -0.6801 -0.7134  0.1988
 1446SOL    HW215798   4.307   1.019  13.561  0.3953 -0.8999  0.4130
 1447SOL     OW15799   1.941   2.302   8.068  0.1431  0.5101  0.1573
 1447SOL    HW115800   1.885   2.379   8.068 -0.8076 -0.1840 -0.1044
 1447SOL    HW215801   1.976   2.317   7.980  1.7788  2.6321  1.1576
 1448SOL     OW15802   4.350   0.845   9.750  0.0725  0.0362  0.1619
 1448SOL    HW115803   4.269   0.798   9.768 -0.9508  1.5888 -0.4343
 1448SOL    HW215804   4.379   0.801   9.671  0.3955 -1.2019  0.9695
 1449SOL     OW15805   4.430   4.086   5.346 -0.4067 -0.0481 -0.5536
 1449SOL    HW115806   4.423   4.013   5.285  0.0774  0.2096 -0.9303
 1449SOL    HW215807   4.405   4.153   5.282 -0.4841  0.3993 -0.0524
 1450SOL     OW15808   1.311   2.222   8.457 -0.2242  0.1051  0.1192
 1450SOL    HW115809   1.234   2.165   8.459 -1.0762  1.3391  1.8850
 1450SOL    HW215810   1.363   2.155   8.411 -1.0423 -1.3155  1.2649
 1451SOL     OW15811   3.474   3.767   6.735 -0.0361  0.5297 -0.6153
 1451SOL    HW115812   3.403   3.717   6.693  0.7912 -0.0185 -1.3703
 1451SOL    HW215813   3.557   3.730   6.706 -0.4705 -1.8639  1.1262
 1452SOL     OW15814   4.078   2.437   0.159  0.2625 -0.2156 -0.0056
 1452SOL    HW115815   4.041   2.500   0.097 -1.1214 -2.0984 -1.0964
 1452SOL    HW215816   4.029   2.359   0.134  0.1059  0.0400 -0.5051
 1453SOL     OW15817   4.486   3.277  11.294 -0.3969 -0.2309  0.4221
 1453SOL    HW115818   4.581   3.280  11.294 -0.3452 -1.5453  1.9768
 1453SOL    HW215819   4.462   3.217  11.365  0.8114  0.6028  1.5228
 1454SOL     OW15820   2.375   4.311   5.130  0.5015 -0.1726 -0.1064
 1454SOL    HW115821   2.441   4.381   5.130 -1.1186  1.3503  0.5726
 1454SOL    HW215822   2.304   4.348   5.077  0.8593 -1.8830 -1.7483
 1455SOL     OW15823   1.925   2.114  13.083  0.0897 -0.3667  0.0564
 1455SOL    HW115824   1.881   2.117  13.168 -0.0790 -0.6796 -0.0227
 1455SOL    HW215825   1.851   2.122  13.024 -0.8252 -1.5986  1.0625
 1456SOL     OW15826   0.739   2.624   4.960  0.3733 -0.1813  0.1300
 1456SOL    HW115827   0.796   2.638   5.036 -0.1234 -0.1852  0.4998
 1456SOL    HW215828   0.654   2.614   5.002 -0.1990  0.0314 -0.9739
 1457SOL     OW15829   4.501   1.744   9.846  0.0949 -0.2312 -0.1161
 1457SOL    HW115830   4.575   1.800   9.822 -1.6070  1.1827 -1.9664
 1457SOL    HW215831   4.503   1.684   9.772 -1.6839  0.2210 -0.5277
 1458SOL     OW15832   2.635   4.691   6.203 -0.1042 -0.2383 -0.2772
 1458SOL    HW115833   2.550   0.014   6.205 -0.0011 -0.0684  0.1449
 1458SOL    HW215834   2.645   4.682   6.108 -0.2542 -1.5341 -0.1668
 1459SOL     OW15835   1.741   3.065   4.919 -0.2349 -0.8488 -0.4273
 1459SOL    HW115836   1.782   2.987   4.955  0.7812  0.1597  0.6063
 1459SOL    HW215837   1.695   3.097   4.997 -1.1281 -1.8073 -0.5567
 1460SOL     OW15838   0.844   2.364   6.881  0.0330 -0.2309 -0.0343
 1460SOL    HW115839   0.898   2.308   6.936 -0.6983 -0.9215 -0.0226
 1460SOL    HW215840   0.791   2.293   6.845 -0.7230  0.2349  0.1574
 1461SOL     OW15841   4.160   0.375   6.715 -0.0642  0.0702  0.4025
 1461SOL    HW115842   4.087   0.359   6.657  1.0064  0.1354 -0.9626
 1461SOL    HW215843   4.161   0.470   6.726  1.9327 -0.0086  1.0474
 1462SOL     OW15844   1.765   4.302   1.925 -0.0637 -0.0446  0.6421
 1462SOL    HW115845   1.701   4.318   1.856  2.3982 -0.3990 -1.7304
 1462SOL    HW215846   1.714   4.310   2.006 -0.0931 -2.4389  0.8650
 1463SOL     OW15847   3.721   0.103   7.198  0.0013  0.2600  0.4627
 1463SOL    HW115848   3.814   0.127   7.192 -0.2562  1.1143 -0.0843
 1463SOL    HW215849   3.733   0.009   7.185 -0.2051  0.2050  0.6815
 1464SOL     OW15850   3.641   3.895   7.084  0.6472 -0.1031  0.6904
 1464SOL    HW115851   3.617   3.987   7.072 -1.1272 -0.2305  3.1881
 1464SOL    HW215852   3.579   3.867   7.151 -0.6925  0.3089 -0.3839
 1465SOL     OW15853   1.611   3.515   1.036  0.2312 -0.3706  0.6766
 1465SOL    HW115854   1.524   3.546   1.061  0.9883  1.9601  0.3444
 1465SOL    HW215855   1.639   3.569   0.962 -3.8911 -1.4000 -1.6303
 1466SOL     OW15856   1.584   4.191   8.492  0.1824  0.1251  0.3757
 1466SOL    HW115857   1.674   4.215   8.466 -0.8708  0.8942 -2.6244
 1466SOL    HW215858   1.593   4.204   8.586 -0.4716  1.2604  0.2853
 1467SOL     OW15859   2.320   0.934   8.333 -0.2684  0.1976 -0.1873
 1467SOL    HW115860   2.316   0.854   8.282 -0.1341  1.7299 -2.5834
 1467SOL    HW215861   2.408   0.966   8.310  0.7869 -1.6396  1.2944
 1468SOL     OW15862   2.063   1.503  11.359  0.0961  0.0229  0.7064
 1468SOL    HW115863   2.118   1.435  11.398 -2.1745 -2.0890  0.2513
 1468SOL    HW215864   2.063   1.475  11.268  0.0546 -0.7592  0.9500
 1469SOL     OW15865   2.148   1.577   7.137  0.3031 -0.0380 -0.3714
 1469SOL    HW115866   2.211   1.619   7.195 -2.2309  2.7152  0.4340
 1469SOL    HW215867   2.182   1.617   7.057  0.0932  1.4270  0.2697
 1470SOL     OW15868   0.964   3.888   4.454 -0.3032 -0.0925 -0.2836
 1470SOL    HW115869   1.027   3.836   4.503 -0.6111 -0.8400 -0.6752
 1470SOL    HW215870   0.881   3.851   4.486 -0.6867  0.1594 -0.9708
 1471SOL     OW15871   3.092   4.464  13.877 -0.4138  0.0313 -0.0185
 1471SOL    HW115872   3.020   4.445  13.816  0.4464  0.4928 -1.1860
 1471SOL    HW215873   3.047   4.473  13.961 -2.4071  0.4222 -1.1225
 1472SOL     OW15874   4.697   4.586   4.273  0.1026 -0.2004 -0.0474
 1472SOL    HW115875   4.682   4.494   4.296  0.2371 -0.8101 -2.4144
 1472SOL    HW215876   4.630   4.627   4.328 -2.2920 -2.0196 -1.6117
 1473SOL     OW15877   1.404   0.577   4.201 -0.7183 -0.2673  0.4016
 1473SOL    HW115878   1.352   0.644   4.245  1.8566 -0.0947  3.1772
 1473SOL    HW215879   1.383   0.506   4.262 -0.2340 -1.3425 -0.6742
 1474SOL     OW15880   2.064   1.991   6.527 -0.2913  0.1606 -0.2542
 1474SOL    HW115881   2.152   2.027   6.532 -0.0687 -0.5697  1.0769
 1474SOL    HW215882   2.080   1.916   6.469  3.1876  2.5464 -2.3292
 1475SOL     OW15883   3.995   0.403   7.862  0.3988  0.2295  0.3396
 1475SOL    HW115884   3.988   0.427   7.770  4.3691 -2.5365 -0.7183
 1475SOL    HW215885   4.058   0.467   7.894  0.4382 -0.2073  1.1529
 1476SOL     OW15886   2.745   0.290   8.435  0.0868  0.3398 -0.0592
 1476SOL    HW115887   2.697   0.325   8.510 -0.3212  1.2437 -0.7369
 1476SOL    HW215888   2.741   0.198   8.459 -0.7142  0.3261 -0.2380
 1477SOL     OW15889   1.883   0.454  15.699 -0.1439  0.1335  0.2842
 1477SOL    HW115890   1.867   0.543  15.730  0.0650 -0.3747  1.8383
 1477SOL    HW215891   1.978   0.465  15.699  0.1737 -2.5759 -0.2690
 1478SOL     OW15892   2.318   3.725   0.704  0.2254  0.4307  0.2430
 1478SOL    HW115893   2.300   3.705   0.796  0.3971  0.8843  0.3768
 1478SOL    HW215894   2.244   3.679   0.665 -0.0075  0.2954  0.8333
 1479SOL     OW15895   4.510   0.029  11.849  0.0344  0.0304  0.2029
 1479SOL    HW115896   4.477   0.058  11.934 -0.2715  0.8311 -0.1958
 1479SOL    HW215897   4.433   4.712  11.807  0.3889 -0.2995 -0.1518
 1480SOL     OW15898   1.660   2.136   6.845 -0.4109  0.3383 -0.3163
 1480SOL    HW115899   1.724   2.092   6.901 -1.4593 -1.0699 -0.2128
 1480SOL    HW215900   1.707   2.155   6.764  2.8180 -1.5382  1.1233
 1481SOL     OW15901   1.418   0.231  11.486 -0.4080  0.1338  0.3256
 1481SOL    HW115902   1.457   0.272  11.409 -2.5995  2.5659  0.4753
 1481SOL    HW215903   1.419   0.305  11.547 -2.9090  1.6111 -1.3681
 1482SOL     OW15904   0.977   0.312   7.192 -0.0129 -0.3850  0.1093
 1482SOL    HW115905   1.010   0.289   7.279 -1.0490 -1.1524  0.3041
 1482SOL    HW215906   0.885   0.287   7.205 -0.2933 -0.2601 -1.6053
 1483SOL     OW15907   2.097   1.351   4.103  0.0928 -0.1461  0.0672
 1483SOL    HW115908   2.177   1.305   4.131 -1.4709 -1.3554  2.5269
 1483SOL    HW215909   2.132   1.433   4.068  0.5860 -0.8660 -1.1157
 1484SOL     OW15910   3.323   2.240   2.095  0.1441  0.1829  0.5470
 1484SOL    HW115911   3.292   2.182   2.026 -0.1248  0.4034  0.4812
 1484SOL    HW215912   3.250   2.302   2.096 -0.7214 -0.8375  0.3918
 1485SOL     OW15913   3.101   4.233   7.642 -0.4586 -0.0236  0.2235
 1485SOL    HW115914   3.011   4.261   7.663  0.3253  3.3819 -1.0299
 1485SOL    HW215915   3.141   4.285   7.712  2.5790 -0.9892 -0.8070
 1486SOL     OW15916   0.106   1.887   2.974  0.1489 -0.2730 -0.0885
 1486SOL    HW115917   0.167   1.955   3.003 -1.0952  0.7756  0.0336
 1486SOL    HW215918   0.030   1.934   2.943 -0.7176 -0.1421  2.1997
 1487SOL     OW15919   3.338   4.535   8.988 -0.5910 -0.1307  0.2446
 1487SOL    HW115920   3.393   4.560   9.063  0.0507  0.7875 -0.5313
 1487SOL    HW215921   3.257   4.584   8.999  0.0335  1.0949 -0.5808
 1488SOL     OW15922   1.944   4.034   5.598 -0.4550 -0.5557 -0.2980
 1488SOL    HW115923   2.026   4.071   5.630 -2.5318  3.2348  0.6858
 1488SOL    HW215924   1.875   4.073   5.651 -0.6954  1.4240 -2.0936
 1489SOL     OW15925   2.062   3.318  17.157  0.3537  0.1063 -0.3442
 1489SOL    HW115926   2.056   3.408  17.126 -1.7422  0.2400  0.4252
 1489SOL    HW215927   2.143   3.291  17.116  1.2750  2.3555 -0.0224
 1490SOL     OW15928   1.407   1.892   8.011 -0.1233  0.2433 -0.2047
 1490SOL    HW115929   1.314   1.915   8.017  0.0341  1.1629 -1.4280
 1490SOL    HW215930   1.409   1.863   7.920  0.1004 -0.4766  0.0344
 1491SOL     OW15931   1.003   4.428   6.853  0.6328  0.4417 -0.3125
 1491SOL    HW115932   0.989   4.367   6.926 -1.3113 -0.0837 -1.1255
 1491SOL    HW215933   1.020   4.510   6.900  1.5725 -1.5504  2.8189
 1492SOL     OW15934   0.408   3.794   3.705 -0.4001 -0.5757  0.7580
 1492SOL    HW115935   0.427   3.786   3.612  2.7113 -2.3618  1.5676
 1492SOL    HW215936   0.320   3.829   3.691  0.3956  1.5159  0.9874
 1493SOL     OW15937   1.494   0.310  11.226  0.5234  0.1801 -0.5119
 1493SOL    HW115938   1.443   0.391  11.216 -1.2317 -0.9119 -0.4274
 1493SOL    HW215939   1.585   0.328  11.203  0.3929  0.8339 -0.5298
 1494SOL     OW15940   2.180   1.975   7.281  0.3980 -0.2348 -0.2945
 1494SOL    HW115941   2.205   1.973   7.189 -0.4842  0.5981 -0.5543
 1494SOL    HW215942   2.269   1.982   7.316  0.2109  1.4439 -0.1203
 1495SOL     OW15943   2.839   2.176   3.923 -0.8200  0.2703  0.3391
 1495SOL    HW115944   2.859   2.269   3.930  3.7457 -0.4946 -2.1178
 1495SOL    HW215945   2.872   2.156   3.835  2.0980  1.8962  1.0604
 1496SOL     OW15946   3.116   3.075   5.101  0.2235 -0.7371  1.1471
 1496SOL    HW115947   3.124   3.021   5.179 -0.7604 -1.8422  0.4815
 1496SOL    HW215948   3.031   3.042   5.070  0.5776 -0.8674  0.3267
 1497SOL     OW15949   4.653   2.763   9.118 -0.5071 -0.3380 -0.1933
 1497SOL    HW115950   4.613   2.685   9.079 -0.5883 -0.4333  0.0869
 1497SOL    HW215951   4.713   2.786   9.047  1.1970 -0.5861  1.1796
 1498SOL     OW15952   2.788   0.006   3.154  0.0729 -0.4314 -0.0059
 1498SOL    HW115953   2.753   4.640   3.167 -1.2937 -0.2035 -2.2691
 1498SOL    HW215954   2.792   0.002   3.059 -2.0039 -1.2407 -0.0448
 1499SOL     OW15955   4.414   2.683  15.089  0.4665  0.2103 -0.6758
 1499SOL    HW115956   4.337   2.625  15.086  1.1966 -0.8173  0.0960
 1499SOL    HW215957   4.371   2.751  15.141 -1.2411 -1.0222 -0.4714
 1500SOL     OW15958   0.381   3.071   5.468 -0.3243  0.0324  0.1387
 1500SOL    HW115959   0.432   3.120   5.533  1.9382 -1.5189 -0.4476
 1500SOL    HW215960   0.383   3.131   5.394  2.1030  0.8835  0.9017
 1501SOL     OW15961   3.713   3.373   9.021 -0.1188 -0.1875 -0.1088
 1501SOL    HW115962   3.802   3.409   9.016 -0.9180  1.5340 -2.3255
 1501SOL    HW215963   3.662   3.442   8.978  1.8674  1.5639  0.3246
 1502SOL     OW15964   4.242   1.511   5.867  0.2777  0.1024  0.0761
 1502SOL    HW115965   4.331   1.535   5.892 -0.0223  0.9676  0.2911
 1502SOL    HW215966   4.253   1.423   5.830 -0.7498  0.6525 -1.4976
 1503SOL     OW15967   4.321   3.465  13.943 -0.8054 -0.1371 -0.4564
 1503SOL    HW115968   4.412   3.469  13.973 -0.5328  1.9887 -1.6192
 1503SOL    HW215969   4.279   3.419  14.016  2.0877 -2.6224 -0.3478
 1504SOL     OW15970   4.209   4.142   7.355 -0.0404  0.3646 -0.0151
 1504SOL    HW115971   4.269   4.080   7.313  1.3494  0.8265  1.2747
 1504SOL    HW215972   4.233   4.139   7.447 -0.8381  0.5876  0.1990
 1505SOL     OW15973   4.007   3.266  14.551 -0.4313  0.3422 -0.3350
 1505SOL    HW115974   3.993   3.302  14.639 -0.0392 -0.7589  0.1742
 1505SOL    HW215975   3.921   3.223  14.543  0.2443 -0.9427 -0.7144
 1506SOL     OW15976   2.257   2.114   9.894 -0.0751  0.6873 -0.0578
 1506SOL    HW115977   2.252   2.053   9.967  0.9858  1.1175  0.3648
 1506SOL    HW215978   2.295   2.046   9.838  0.8031 -0.2001  1.6175
 1507SOL     OW15979   0.964   2.474   2.986 -0.1788 -0.2131  0.3257
 1507SOL    HW115980   0.945   2.444   3.074 -0.8976 -2.1735 -0.4943
 1507SOL    HW215981   0.980   2.566   3.005  0.7307 -0.5972  1.3780
 1508SOL     OW15982   1.851   2.271   7.488 -0.2134  0.5681  0.0762
 1508SOL    HW115983   1.845   2.201   7.554 -0.6901 -1.2660 -1.9178
 1508SOL    HW215984   1.928   2.246   7.436 -1.4544  0.7264 -1.8214
 1509SOL     OW15985   3.810   2.298   3.055 -0.3551 -0.3759  0.6599
 1509SOL    HW115986   3.776   2.261   2.973 -1.6975 -1.6004  1.7671
 1509SOL    HW215987   3.756   2.250   3.119 -0.7510  0.0335  0.6320
 1510SOL     OW15988   3.617   0.045   4.605  0.2296 -0.5385  0.0656
 1510SOL    HW115989   3.630   0.053   4.510 -1.1148  3.3632  0.2046
 1510SOL    HW215990   3.587   0.131   4.634  2.1650 -0.4154  1.6807
 1511SOL     OW15991   0.737   1.321  12.191 -0.2516 -0.1459 -0.1473
 1511SOL    HW115992   0.814   1.279  12.229  0.0521  1.4932  1.0883
 1511SOL    HW215993   0.760   1.414  12.190 -1.6377  0.2172  1.5647
 1512SOL     OW15994   0.282   3.789   8.546  0.3407  0.6245  0.6691
 1512SOL    HW115995   0.255   3.874   8.511  1.6141  1.7948  2.4718
 1512SOL    HW215996   0.237   3.726   8.490 -0.5457  0.6149  1.3830
 1513SOL     OW15997   3.056   1.252  11.566 -0.7647  0.3599 -0.0988
 1513SOL    HW115998   3.089   1.191  11.633  0.8733 -0.4769 -1.6916
 1513SOL    HW215999   3.132   1.305  11.544  0.5567 -1.1569  0.8628
 1514SOL     OW16000   2.822   2.045  10.726 -0.3958  0.6872 -0.2238
 1514SOL    HW116001   2.860   1.982  10.665 -0.8902 -0.4825  0.6769
 1514SOL    HW216002   2.834   2.005  10.812  0.2580  2.3194  0.4372
 1515SOL     OW16003   2.001   1.402   6.651  0.1956  0.0752  0.6857
 1515SOL    HW116004   2.087   1.360   6.655 -1.1711 -2.6434  1.3116
 1515SOL    HW216005   2.038   1.490   6.639 -0.7199  0.1112 -1.8236
 1516SOL     OW16006   0.715   3.075   3.157  0.8681 -0.0865 -0.3312
 1516SOL    HW116007   0.736   2.981   3.157  0.6059 -0.1466  0.7489
 1516SOL    HW216008   0.742   3.083   3.248  2.5916 -1.4539 -0.7257
 1517SOL     OW16009   2.088   4.714   3.744  0.3558 -0.4171 -0.0193
 1517SOL    HW116010   2.104   0.058   3.676  4.4224  0.8909  2.2361
 1517SOL    HW216011   2.153   4.648   3.720  0.0287 -0.5135 -0.6371
 1518SOL     OW16012   4.648   2.508   5.639 -0.1701 -0.4700  0.0633
 1518SOL    HW116013   4.660   2.587   5.587 -1.1351  1.1419  2.3409
 1518SOL    HW216014   4.677   2.433   5.587  1.5373 -0.0850  0.4745
 1519SOL     OW16015   2.144   1.887   9.304  0.0924  0.4134 -0.2604
 1519SOL    HW116016   2.127   1.972   9.345  0.5934  0.4254 -0.0706
 1519SOL    HW216017   2.062   1.879   9.256 -0.3790  1.6577  0.3403
 1520SOL     OW16018   2.414   0.305   3.860 -0.3225 -0.3050  0.0875
 1520SOL    HW116019   2.465   0.286   3.939  0.6152 -3.1727 -1.1990
 1520SOL    HW216020   2.450   0.392   3.843 -0.8905  0.3139  2.0904
 1521SOL     OW16021   4.314   2.734   4.366  0.2038 -0.3512  0.3163
 1521SOL    HW116022   4.349   2.762   4.451  1.5583  0.5710 -0.5467
 1521SOL    HW216023   4.353   2.793   4.303 -1.1854  0.5419  0.2751
 1522SOL     OW16024   1.713   0.070   9.760  0.0981 -0.5803  0.4692
 1522SOL    HW116025   1.625   0.056   9.795  0.3535 -1.6309  0.6960
 1522SOL    HW216026   1.753   4.706   9.775 -0.5572 -1.4681 -2.8837
 1523SOL     OW16027   0.944   3.210   3.789 -0.2791  0.1816  0.2414
 1523SOL    HW116028   1.023   3.243   3.745 -0.5339 -2.1421 -1.9180
 1523SOL    HW216029   0.971   3.121   3.813 -1.2888 -0.5173 -1.2348
 1524SOL     OW16030   2.833   0.447  11.604  0.3570 -0.1001 -0.7483
 1524SOL    HW116031   2.847   0.424  11.696 -2.8343  1.5120  0.1454
 1524SOL    HW216032   2.923   0.460  11.572  0.7904 -0.5853  0.2885
 1525SOL     OW16033   3.479   1.209   8.911 -0.8057  0.1631  0.1655
 1525SOL    HW116034   3.493   1.273   8.841  0.1597  0.8368  0.9894
 1525SOL    HW216035   3.562   1.201   8.956 -0.7724  0.9076  0.2321
 1526SOL     OW16036   2.594   3.061   1.960  0.4711 -0.0798 -0.4139
 1526SOL    HW116037   2.527   3.101   1.904 -1.2687  1.2437  2.5896
 1526SOL    HW216038   2.575   2.967   1.962 -1.0544  0.1856 -2.1504
 1527SOL     OW16039   0.044   3.324   4.617  0.7558 -0.4155 -0.2257
 1527SOL    HW116040   0.079   3.399   4.667 -0.6727 -0.0292  0.1942
 1527SOL    HW216041   4.692   3.306   4.676  1.6560  0.3982  1.1629
 1528SOL     OW16042   3.725   4.385  11.969  0.8198  0.1642 -0.3258
 1528SOL    HW116043   3.634   4.402  11.945  0.7707 -0.4570 -0.5667
 1528SOL    HW216044   3.715   4.305  12.020  0.6917 -0.9507 -2.1045
 1529SOL     OW16045   4.242   3.673   4.558 -0.7775 -0.7564  0.1442
 1529SOL    HW116046   4.206   3.721   4.632  1.3909  0.6066  0.3293
 1529SOL    HW216047   4.201   3.587   4.563 -0.6601 -0.9614 -2.3237
 1530SOL     OW16048   1.093   1.108   6.678  0.2423  0.1180 -0.3395
 1530SOL    HW116049   1.049   1.093   6.594  0.3186  0.2392 -0.4007
 1530SOL    HW216050   1.031   1.173   6.711  0.3084 -0.7872  1.5372
 1531SOL     OW16051   0.668   3.671   1.478 -0.5003 -0.2673  0.2019
 1531SOL    HW116052   0.618   3.630   1.408 -0.8622  0.8092 -0.1761
 1531SOL    HW216053   0.602   3.734   1.508 -0.4518 -0.3437  0.4766
 1532SOL     OW16054   4.458   3.866   5.189  0.0025 -0.3731  0.4032
 1532SOL    HW116055   4.528   3.805   5.215  0.8926  0.3314 -0.3360
 1532SOL    HW216056   4.465   3.867   5.093 -2.4778  1.9406  0.2619
 1533SOL     OW16057   0.715   1.471   4.658  0.0596 -0.0715 -0.1269
 1533SOL    HW116058   0.726   1.406   4.727  1.8434  0.4625  0.0964
 1533SOL    HW216059   0.673   1.542   4.706  1.1892  1.8463 -1.9361
 1534SOL     OW16060   1.394   2.568   3.698 -0.1536  0.4410  0.4545
 1534SOL    HW116061   1.388   2.541   3.790  0.9020 -4.2705 -0.8330
 1534SOL    HW216062   1.300   2.570   3.680 -0.3473  2.1373  1.6545
 1535SOL     OW16063   0.938   0.950   4.906 -0.1724  0.2103 -0.1597
 1535SOL    HW116064   0.844   0.967   4.904 -0.1005  0.6517  0.2292
 1535SOL    HW216065   0.960   1.033   4.862  0.1885  0.7781  1.0981
 1536SOL     OW16066   0.446   0.886   2.862  0.5774 -0.2161 -0.6207
 1536SOL    HW116067   0.459   0.949   2.791  1.4423 -1.0685 -1.2203
 1536SOL    HW216068   0.530   0.842   2.875  0.9536 -0.5837 -4.1114
 1537SOL     OW16069   3.752   0.037   3.093  0.0679  0.2080 -0.3048
 1537SOL    HW116070   3.723   0.018   3.183  0.0418 -3.3137 -1.0563
 1537SOL    HW216071   3.758   0.132   3.087 -0.3620  0.2475 -0.0594
 1538SOL     OW16072   2.469   4.721  10.319  0.1160  0.5744  0.1928
 1538SOL    HW116073   2.519   0.079  10.307 -1.2161  1.5516  1.1406
 1538SOL    HW216074   2.492   4.670  10.241 -0.4595  1.1669 -0.3578
 1539SOL     OW16075   1.283   2.419   7.925 -0.5193 -0.3964  0.1846
 1539SOL    HW116076   1.248   2.339   7.964 -2.1199 -0.7108 -1.9004
 1539SOL    HW216077   1.274   2.471   8.005  1.1957  0.5288 -0.2145
 1540SOL     OW16078   4.552   4.409   8.131 -0.3093 -0.5810  0.4429
 1540SOL    HW116079   4.559   4.497   8.168 -1.0732 -0.3792  0.0825
 1540SOL    HW216080   4.614   4.358   8.184  0.6638  1.0521  0.8645
 1541SOL     OW16081   3.698   1.311  13.142 -0.3277  0.4730 -0.1763
 1541SOL    HW116082   3.681   1.377  13.076 -0.3190  1.0374  0.3911
 1541SOL    HW216083   3.755   1.251  13.093  1.1074  0.6941  1.2253
 1542SOL     OW16084   3.727   2.038  13.489  0.2107 -0.0415 -0.4764
 1542SOL    HW116085   3.643   2.025  13.444 -0.4752  1.6333  0.3459
 1542SOL    HW216086   3.753   2.127  13.467 -2.7167  0.7265 -0.7910
 1543SOL     OW16087   3.546   4.706   4.155  0.2331  0.2429  0.4312
 1543SOL    HW116088   3.587   0.055   4.104 -0.9646 -0.1952 -1.1312
 1543SOL    HW216089   3.522   0.037   4.231  0.2480  0.3655  0.3518
 1544SOL     OW16090   3.570   2.562  16.330  0.1192  0.4562 -0.5708
 1544SOL    HW116091   3.565   2.652  16.361  0.9848 -0.2970  1.7529
 1544SOL    HW216092   3.570   2.563  16.235 -0.4977  0.1707 -0.5752
 1545SOL     OW16093   2.678   0.608  14.820 -0.4421  0.4535  0.6203
 1545SOL    HW116094   2.688   0.633  14.728 -1.0089 -2.3301 -0.2049
 1545SOL    HW216095   2.765   0.612  14.861 -0.4633  0.2328  0.6869
 1546SOL     OW16096   4.644   2.831   7.878 -0.5995 -0.0755 -0.3531
 1546SOL    HW116097   4.675   2.771   7.946 -0.7684  1.4604  1.0901
 1546SOL    HW216098   4.696   2.908   7.901 -1.5910  0.9313 -1.4467
 1547SOL     OW16099   2.221   1.614   0.472 -0.2233 -0.4496  0.0311
 1547SOL    HW116100   2.292   1.552   0.456  0.4692 -0.7629  4.2984
 1547SOL    HW216101   2.257   1.702   0.460  1.4487 -1.1508  0.0135
 1548SOL     OW16102   4.453   0.152  17.373  0.2252  0.6377 -0.4767
 1548SOL    HW116103   4.548   0.144  17.379 -0.1996 -4.5158 -0.6957
 1548SOL    HW216104   4.435   0.072  17.324  1.7585  0.5650 -0.9154
 1549SOL     OW16105   3.048   0.357  16.852  0.1522 -0.1985  0.1157
 1549SOL    HW116106   3.131   0.405  16.847  0.4581 -0.6690  0.6722
 1549SOL    HW216107   3.002   0.407  16.784 -1.7178  0.8229  2.1429
 1550SOL     OW16108   3.248   3.007   2.432  0.1434 -0.4262  0.5128
 1550SOL    HW116109   3.178   3.042   2.377 -1.6022 -0.9139  2.4388
 1550SOL    HW216110   3.191   2.951   2.484 -0.7439 -0.3375 -0.3567
 1551SOL     OW16111   3.309   1.773   5.595  0.6202 -0.6999  0.7001
 1551SOL    HW116112   3.362   1.851   5.613  0.6257 -0.5248 -0.0632
 1551SOL    HW216113   3.263   1.812   5.520 -0.1804  0.6592  1.8985
 1552SOL     OW16114   3.182   0.708   8.711  0.4253 -0.2235  0.2285
 1552SOL    HW116115   3.157   0.680   8.799 -0.4825 -1.5443 -0.4460
 1552SOL    HW216116   3.261   0.654   8.709 -1.6930 -3.2270 -2.2139
 1553SOL     OW16117   1.276   3.435   8.517  0.1402 -0.1959 -0.0467
 1553SOL    HW116118   1.338   3.481   8.460  0.2265 -1.1653 -0.7214
 1553SOL    HW216119   1.315   3.441   8.604  2.7787  2.4150 -1.3983
 1554SOL     OW16120   0.676   2.030   4.294 -0.7484  0.5333  0.1472
 1554SOL    HW116121   0.732   2.088   4.242 -0.2150  0.2902  0.4542
 1554SOL    HW216122   0.622   2.095   4.339  0.0346 -0.3424  2.2963
 1555SOL     OW16123   4.224   3.030   7.417  0.1526 -0.1892 -0.4464
 1555SOL    HW116124   4.164   2.956   7.425  0.0287  0.0005  0.3708
 1555SOL    HW216125   4.223   3.063   7.326  0.8901 -0.5049 -0.5689
 1556SOL     OW16126   3.223   0.582   6.368  0.1016 -0.1160  0.3127
 1556SOL    HW116127   3.168   0.642   6.419  0.8786  0.5714  0.3278
 1556SOL    HW216128   3.184   0.584   6.280  0.2353 -0.9873  0.2332
 1557SOL     OW16129   3.705   2.676  14.825 -0.1823 -0.1391 -0.1479
 1557SOL    HW116130   3.670   2.733  14.757 -1.7992 -0.5445  0.3522
 1557SOL    HW216131   3.793   2.666  14.788 -0.6925 -0.1284 -1.3427
 1558SOL     OW16132   3.825   0.799   2.522  0.2735 -0.0734 -0.2292
 1558SOL    HW116133   3.786   0.882   2.550 -1.6686 -1.7796  2.1494
 1558SOL    HW216134   3.899   0.825   2.467  1.6254 -1.1375  1.0669
 1559SOL     OW16135   2.412   1.287   2.088 -0.0157  0.1844 -0.3611
 1559SOL    HW116136   2.364   1.214   2.127  1.7209 -0.7000  0.1622
 1559SOL    HW216137   2.500   1.255   2.067 -0.2495  0.2605 -1.4768
 1560SOL     OW16138   1.872   4.021  17.262 -0.0044  0.0492  0.1251
 1560SOL    HW116139   1.863   4.049  17.171  0.9362  0.0631  0.0389
 1560SOL    HW216140   1.837   3.932  17.260 -0.3776  0.1897  0.2415
 1561SOL     OW16141   4.317   0.450  15.529  0.6766 -0.0630  0.4363
 1561SOL    HW116142   4.386   0.410  15.477  0.8019  0.2999  0.3212
 1561SOL    HW216143   4.243   0.400  15.495  1.3646 -0.8389  0.0860
 1562SOL     OW16144   3.410   1.108   2.823 -0.4729  0.3231 -0.4704
 1562SOL    HW116145   3.389   1.200   2.808  0.7131  0.7157  0.2693
 1562SOL    HW216146   3.412   1.111   2.919  0.0241  1.8331 -0.5332
 1563SOL     OW16147   2.303   1.102   5.643  0.1135  0.5927  0.1595
 1563SOL    HW116148   2.395   1.103   5.616  0.5784 -2.2342  1.7638
 1563SOL    HW216149   2.288   1.196   5.625  0.8273 -0.1602 -4.5109
 1564SOL     OW16150   0.145   2.901  16.342 -0.1055 -0.2173  0.2821
 1564SOL    HW116151   0.076   2.938  16.397 -1.0741  0.3192 -1.2725
 1564SOL    HW216152   0.086   2.882  16.269  0.8032 -1.2379 -0.1718
 1565SOL     OW16153   2.112   1.447  10.429 -0.5129  0.4006  0.0581
 1565SOL    HW116154   2.049   1.517  10.412 -1.4706 -0.7754 -1.2134
 1565SOL    HW216155   2.128   1.420  10.339 -2.0074 -0.9076  0.1768
 1566SOL     OW16156   2.875   4.113   3.725  0.3530 -0.0090  0.2059
 1566SOL    HW116157   2.933   4.169   3.673  1.0575 -0.4911  0.4686
 1566SOL    HW216158   2.935   4.093   3.798 -0.0800 -1.6534  0.1058
 1567SOL     OW16159   2.607   0.193   8.783  0.4031  0.5720 -0.3231
 1567SOL    HW116160   2.537   0.225   8.727 -0.0196 -0.4600 -0.3839
 1567SOL    HW216161   2.563   0.125   8.834  1.7780  0.9024  1.3449
 1568SOL     OW16162   3.561   2.195   3.768 -0.1195  0.5271 -0.3726
 1568SOL    HW116163   3.530   2.134   3.835  3.0743  0.7231  1.2618
 1568SOL    HW216164   3.584   2.274   3.816  0.8568 -0.4104  0.6920
 1569SOL     OW16165   2.674   0.997  16.494 -0.3458  0.2238  0.7120
 1569SOL    HW116166   2.599   1.004  16.553 -0.3864  1.3972  0.5159
 1569SOL    HW216167   2.691   0.903  16.487 -0.1396  0.2794  0.4815
 1570SOL     OW16168   0.441   3.722  11.843  0.5140  0.1617  0.6235
 1570SOL    HW116169   0.536   3.726  11.835  0.5957  0.3107  1.7258
 1570SOL    HW216170   0.413   3.813  11.831 -3.1762 -1.1990 -1.0032
 1571SOL     OW16171   0.592   4.685   5.626  0.1297 -0.6447 -0.1676
 1571SOL    HW116172   0.571   0.035   5.686  0.7045 -0.7858  0.1949
 1571SOL    HW216173   0.544   4.619   5.675 -1.9690  1.4947  0.6740
 1572SOL     OW16174   3.922   1.276  15.157  0.6394 -0.7937 -1.1853
 1572SOL    HW116175   3.942   1.350  15.214 -3.0679  0.8613 -2.0591
 1572SOL    HW216176   3.855   1.315  15.101  0.5698 -2.3471 -2.1849
 1573SOL     OW16177   4.235   4.459   4.341  0.0864  0.0463 -0.5067
 1573SOL    HW116178   4.170   4.500   4.285 -0.4228 -0.2451 -0.1242
 1573SOL    HW216179   4.304   4.457   4.274 -2.0241  2.2690 -2.7406
 1574SOL     OW16180   2.120   1.654  16.360 -1.0012  0.2616  0.7120
 1574SOL    HW116181   2.191   1.627  16.302 -0.1725  1.7893  1.0107
 1574SOL    HW216182   2.126   1.587  16.428 -0.2034 -0.5636 -0.1830
 1575SOL     OW16183   3.416   3.234   7.181 -0.3967  0.2069  0.3765
 1575SOL    HW116184   3.344   3.234   7.244 -0.6786  0.2560  0.0616
 1575SOL    HW216185   3.370   3.182   7.114  2.1737 -0.2539 -1.0084
 1576SOL     OW16186   4.481   0.050   0.794  0.0334 -0.1346 -0.1324
 1576SOL    HW116187   4.411   0.025   0.855 -0.3865 -0.7460 -0.8732
 1576SOL    HW216188   4.441   0.137   0.786  1.4947  0.5687  0.2199
 1577SOL     OW16189   4.380   2.873   6.729  0.3840  0.2238  0.1885
 1577SOL    HW116190   4.367   2.962   6.762  1.3916  1.3355 -2.3968
 1577SOL    HW216191   4.470   2.851   6.752  0.7735  1.7742  0.1372
 1578SOL     OW16192   0.182   3.590   9.096  0.1352 -0.6207  0.1161
 1578SOL    HW116193   0.141   3.601   9.182  0.6882 -1.2145  0.4556
 1578SOL    HW216194   0.115   3.543   9.047  0.2969  0.4228 -1.1024
 1579SOL     OW16195   3.625   1.514   4.240  0.1877 -0.2922 -0.3125
 1579SOL    HW116196   3.713   1.544   4.263 -0.1463 -1.5837  2.6832
 1579SOL    HW216197   3.616   1.447   4.308 -0.0001 -0.9654 -1.0006
 1580SOL     OW16198   3.958   3.589   8.740 -0.0576  0.0698 -0.4085
 1580SOL    HW116199   3.984   3.572   8.831 -1.3951 -0.3699 -0.0984
 1580SOL    HW216200   3.909   3.671   8.743  0.7470  0.4979  1.2263
 1581SOL     OW16201   4.104   3.507  10.853 -0.2540 -0.1335  0.1762
 1581SOL    HW116202   4.168   3.565  10.894 -0.2020  0.3224 -0.5425
 1581SOL    HW216203   4.129   3.503  10.761  0.6685 -2.2251  0.5193
 1582SOL     OW16204   3.995   3.167   3.467 -0.5038  0.7774 -0.1688
 1582SOL    HW116205   3.947   3.121   3.536  2.4282 -1.0426  0.6781
 1582SOL    HW216206   3.994   3.116   3.387  0.3061  0.5179 -0.0117
 1583SOL     OW16207   2.227   4.261   8.097  0.4878 -0.1580  0.1580
 1583SOL    HW116208   2.186   4.180   8.130  2.7459 -0.8136  1.4061
 1583SOL    HW216209   2.231   4.314   8.177 -0.5914 -2.1177  1.5276
 1584SOL     OW16210   0.547   2.834   6.387  0.0802 -0.1609 -0.2266
 1584SOL    HW116211   0.509   2.746   6.396  0.1524 -0.2083 -0.3895
 1584SOL    HW216212   0.575   2.851   6.477 -0.8561 -0.0549  0.0455
 1585SOL     OW16213   0.269   0.153   7.554  0.5023 -0.4118 -0.0578
 1585SOL    HW116214   0.349   0.104   7.573  0.8031  0.7120  1.5571
 1585SOL    HW216215   0.262   0.200   7.637  0.3408  0.6166 -0.6512
 1586SOL     OW16216   1.667   2.031   9.048 -0.3677  0.2554  0.2183
 1586SOL    HW116217   1.580   2.002   9.074 -0.7484 -0.0699 -1.4350
 1586SOL    HW216218   1.654   2.125   9.049 -2.2241  0.0108 -1.9370
 1587SOL     OW16219   2.055   2.955  16.258  0.2515 -0.4167 -0.3222
 1587SOL    HW116220   2.019   3.020  16.199 -0.7613 -0.0655  0.6874
 1587SOL    HW216221   1.982   2.895  16.245 -1.1750  1.4749 -0.9954
 1588SOL     OW16222   1.831   3.939   4.806 -0.0551 -0.5179  0.0887
 1588SOL    HW116223   1.784   3.876   4.860  1.0852 -1.3244  0.1580
 1588SOL    HW216224   1.810   3.897   4.722 -1.2717 -3.8341  2.0509
 1589SOL     OW16225   2.633   4.460   2.309  0.3096 -0.1347 -0.1477
 1589SOL    HW116226   2.686   4.480   2.387  1.1888  0.0900 -0.8041
 1589SOL    HW216227   2.688   4.388   2.279 -1.5594 -0.6152 -2.3363
 1590SOL     OW16228   3.478   2.463  15.661  0.3809 -0.0835 -0.3822
 1590SOL    HW116229   3.408   2.521  15.632  1.4602  1.7851  0.7385
 1590SOL    HW216230   3.490   2.410  15.582  0.8625 -0.9840  0.2874
 1591SOL     OW16231   3.974   0.951  16.589 -0.0094 -0.0283 -0.1475
 1591SOL    HW116232   4.004   1.020  16.529 -1.8330  0.2495 -0.7308
 1591SOL    HW216233   4.055   0.901  16.599 -0.3061  0.3294  3.8925
 1592SOL     OW16234   1.957   3.610  16.133  0.7085  0.4487 -0.4143
 1592SOL    HW116235   2.004   3.602  16.216 -0.3641 -1.2828  0.0040
 1592SOL    HW216236   1.962   3.705  16.119 -1.4826  0.7102  0.6673
 1593SOL     OW16237   0.062   2.284  12.335 -0.2966  0.3564 -0.2259
 1593SOL    HW116238   0.087   2.203  12.379 -1.3603  0.6886  0.9714
 1593SOL    HW216239   0.113   2.349  12.383  2.5271  0.5120 -3.3948
 1594SOL     OW16240   2.687   1.293  14.460 -0.0583  0.5180  0.2836
 1594SOL    HW116241   2.615   1.241  14.424  0.6663 -0.9741  0.9459
 1594SOL    HW216242   2.653   1.381  14.474  1.4197  1.2230 -0.6200
 1595SOL     OW16243   0.839   2.982   8.862  0.4854  0.2061 -0.4579
 1595SOL    HW116244   0.797   3.068   8.861  1.8537  0.9410  2.1708
 1595SOL    HW216245   0.897   2.979   8.786 -0.0584 -2.4111 -0.7569
 1596SOL     OW16246   1.353   0.085   7.494 -0.1863 -0.6268 -0.4660
 1596SOL    HW116247   1.264   0.120   7.505  0.2001  0.0672  0.4418
 1596SOL    HW216248   1.360   0.032   7.574 -1.1468 -1.3115 -0.8334
 1597SOL     OW16249   2.927   3.691  12.278  0.0409 -0.2832 -0.1987
 1597SOL    HW116250   2.954   3.728  12.362  3.2828 -0.4219 -1.1564
 1597SOL    HW216251   2.882   3.765  12.237 -1.7573 -0.3223  1.6893
 1598SOL     OW16252   2.764   3.597   2.023 -0.0309  0.3008  0.3811
 1598SOL    HW116253   2.731   3.537   2.090  1.0532  2.3860  2.7313
 1598SOL    HW216254   2.722   3.562   1.944 -2.6873  2.3692  0.8797
 1599SOL     OW16255   2.935   0.226   6.711 -0.1399  0.4363  0.3162
 1599SOL    HW116256   2.840   0.218   6.711 -0.0382 -0.7765  0.7938
 1599SOL    HW216257   2.951   0.315   6.679 -0.1299 -0.0098 -0.8859
 1600SOL     OW16258   4.662   2.581  16.218  0.3796  0.3138  0.1678
 1600SOL    HW116259   4.650   2.672  16.192  0.9128  1.1011  2.6625
 1600SOL    HW216260   4.632   2.597  16.308 -1.3883 -1.5641 -0.0835
 1601SOL     OW16261   0.044   3.587   8.810 -0.0913 -0.0386  0.2515
 1601SOL    HW116262   0.032   3.663   8.867 -2.0680  0.6116 -1.0423
 1601SOL    HW216263   4.712   3.519   8.851 -0.9730  1.0547  0.9050
 1602SOL     OW16264   2.404   3.413   0.949  0.2009 -0.1100 -0.5572
 1602SOL    HW116265   2.396   3.489   1.006 -3.6915  0.6060 -2.0513
 1602SOL    HW216266   2.394   3.350   1.020  1.2199  1.3514  0.8460
 1603SOL     OW16267   3.376   2.555   4.374 -0.2684  0.1079 -0.1076
 1603SOL    HW116268   3.360   2.572   4.467  2.6014  2.3662 -0.0167
 1603SOL    HW216269   3.342   2.632   4.328 -2.5212 -0.0683  1.2615
 1604SOL     OW16270   3.621   2.399   7.759  0.1958  0.0046  0.4648
 1604SOL    HW116271   3.636   2.457   7.833 -0.6433  1.0509 -0.1837
 1604SOL    HW216272   3.622   2.311   7.797  0.2423 -0.8534 -1.5298
 1605SOL     OW16273   4.469   2.577   8.395  0.3642 -0.0330  0.3060
 1605SOL    HW116274   4.455   2.513   8.464  1.2661 -1.2333 -0.6372
 1605SOL    HW216275   4.565   2.581   8.396  0.3819 -0.4007 -0.1332
 1606SOL     OW16276   4.047   4.081   4.664 -0.1684 -0.6270  0.1096
 1606SOL    HW116277   3.991   4.154   4.639  0.9723  0.0638 -0.4311
 1606SOL    HW216278   4.103   4.074   4.586  0.1914  1.6507  0.1657
 1607SOL     OW16279   4.495   1.572  10.372  0.4568  1.0555  0.0121
 1607SOL    HW116280   4.490   1.501  10.437  2.5724 -0.7877 -1.8509
 1607SOL    HW216281   4.446   1.533  10.300 -3.4993 -1.0578  3.7846
 1608SOL     OW16282   4.526   3.828   8.128 -0.0283  0.5645 -1.3184
 1608SOL    HW116283   4.527   3.857   8.219 -1.9433  1.1543 -1.4912
 1608SOL    HW216284   4.563   3.903   8.081  0.8837  0.3250 -0.9748
 1609SOL     OW16285   0.653   1.410  14.166  0.1204 -0.5838 -0.2745
 1609SOL    HW116286   0.679   1.361  14.245  1.2568 -1.9490 -1.5017
 1609SOL    HW216287   0.558   1.413  14.176  0.2165 -0.9719  0.7882
 1610SOL     OW16288   0.770   0.806   9.184 -0.4188 -0.1808 -0.7048
 1610SOL    HW116289   0.682   0.831   9.210 -0.0697  0.5151 -0.1885
 1610SOL    HW216290   0.781   0.865   9.110  0.6640 -1.1694 -1.3519
 1611SOL     OW16291   1.980   3.763   0.608 -0.1727  0.8153  0.2302
 1611SOL    HW116292   2.001   3.835   0.549  1.9325  1.4873  1.7850
 1611SOL    HW216293   1.953   3.810   0.688 -1.3332  1.2434 -0.4083
 1612SOL     OW16294   2.385   4.291   4.246 -0.3662  0.0155 -0.0914
 1612SOL    HW116295   2.418   4.206   4.274  0.6186  0.3634 -0.1765
 1612SOL    HW216296   2.412   4.299   4.154  0.7602  0.7309  0.2946
 1613SOL     OW16297   1.092   2.950   4.153  0.5671 -0.3589  0.0938
 1613SOL    HW116298   1.094   2.892   4.229  0.6819  0.1758  0.5008
 1613SOL    HW216299   1.182   2.983   4.152  0.5843 -0.2979  2.7451
 1614SOL     OW16300   1.564   1.024  16.797  0.2552 -0.1202  0.0725
 1614SOL    HW116301   1.566   1.028  16.702  2.6670  3.3403  0.2970
 1614SOL    HW216302   1.597   0.936  16.815  1.9801  0.3373 -0.9329
 1615SOL     OW16303   0.020   3.849   2.392  0.0870  0.5967 -0.4424
 1615SOL    HW116304   4.688   3.914   2.437  0.1994  1.7530 -1.9864
 1615SOL    HW216305   4.671   3.801   2.348  0.3207 -0.4581  0.3315
 1616SOL     OW16306   4.458   1.405   5.374 -0.2529 -0.3488  0.4133
 1616SOL    HW116307   4.447   1.399   5.279 -0.3046 -0.4344  0.4251
 1616SOL    HW216308   4.546   1.368   5.386  0.0628  0.2134 -0.1658
 1617SOL     OW16309   0.269   3.933   0.977 -0.1374 -0.0829 -0.0012
 1617SOL    HW116310   0.194   3.984   1.006  0.4698  0.1924  1.0893
 1617SOL    HW216311   0.234   3.846   0.997  1.7200 -0.1525  2.9738
 1618SOL     OW16312   3.942   0.507   5.953 -0.1855  0.5603 -0.2427
 1618SOL    HW116313   3.888   0.545   5.884  3.0034  2.8242 -1.4770
 1618SOL    HW216314   4.000   0.579   5.975  0.2969  0.7641 -2.1446
 1619SOL     OW16315   3.054   3.015  15.667  0.1459  0.0900 -0.2421
 1619SOL    HW116316   3.006   3.043  15.589 -0.4758  0.0956  0.1493
 1619SOL    HW216317   3.138   3.041  15.628 -0.4973  1.5803 -0.6391
 1620SOL     OW16318   4.084   2.809   8.730 -0.1053  0.0137  0.0777
 1620SOL    HW116319   4.121   2.812   8.642  1.0511  1.4320  0.6173
 1620SOL    HW216320   4.131   2.880   8.772 -1.8433  0.5752  1.0731
 1621SOL     OW16321   1.833   2.191   9.443 -0.6382 -0.2194 -0.0181
 1621SOL    HW116322   1.800   2.280   9.460 -1.0027 -0.6185  1.3214
 1621SOL    HW216323   1.924   2.207   9.419 -1.1781 -2.1982 -3.3480
 1622SOL     OW16324   0.113   0.979  15.526  0.1208  0.1483  0.1084
 1622SOL    HW116325   0.048   0.930  15.577  1.1550  0.4322  1.6963
 1622SOL    HW216326   0.173   1.002  15.597 -0.7494  0.2921  0.7975
 1623SOL     OW16327   0.460   2.861   6.873  0.1639  0.0581  0.0768
 1623SOL    HW116328   0.530   2.863   6.808 -0.8983  0.5914 -1.0361
 1623SOL    HW216329   0.394   2.868   6.804  0.2917 -0.2332 -0.0725
 1624SOL     OW16330   2.874   3.675   3.518  0.6470  0.0458  0.4710
 1624SOL    HW116331   2.953   3.696   3.468  0.4577 -1.6544 -0.5517
 1624SOL    HW216332   2.875   3.735   3.593 -2.2029  1.2251 -0.4507
 1625SOL     OW16333   3.050   4.124  14.841  0.0234  0.2535 -0.7041
 1625SOL    HW116334   3.079   4.079  14.762 -0.8297  0.0660 -0.9070
 1625SOL    HW216335   3.072   4.055  14.904 -1.9960 -0.1412 -0.4215
 1626SOL     OW16336   3.467   3.664  15.186  0.0350 -0.2137 -0.4169
 1626SOL    HW116337   3.541   3.715  15.220 -1.1854  0.6215  0.9893
 1626SOL    HW216338   3.398   3.676  15.252  0.9896  1.4043  0.3088
 1627SOL     OW16339   1.498   2.419   1.059  0.2166 -0.1983  0.2101
 1627SOL    HW116340   1.407   2.440   1.081  0.2497 -0.2080  0.3624
 1627SOL    HW216341   1.550   2.415   1.140  0.0526 -1.3797  0.2510
 1628SOL     OW16342   1.971   2.564   7.618 -0.0546 -0.0813  0.2130
 1628SOL    HW116343   1.950   2.493   7.679 -0.2761  0.2628  0.5350
 1628SOL    HW216344   1.880   2.585   7.599  1.4318  3.1312 -3.3286
 1629SOL     OW16345   3.365   3.793  16.532  0.5944 -0.1427  0.2654
 1629SOL    HW116346   3.433   3.822  16.471  2.2237  0.7965  2.5507
 1629SOL    HW216347   3.418   3.807  16.610 -1.4491  4.3741  0.8803
 1630SOL     OW16348   0.296   1.377   6.600  0.3656 -0.7191 -0.0472
 1630SOL    HW116349   0.330   1.341   6.519 -0.4886 -1.4945 -0.0516
 1630SOL    HW216350   0.279   1.468   6.576 -1.2550 -1.1663 -0.5907
 1631SOL     OW16351   1.383   1.758   2.218  0.2470 -0.0117  0.3266
 1631SOL    HW116352   1.301   1.806   2.231 -0.8468 -2.0445  0.8657
 1631SOL    HW216353   1.439   1.836   2.223  1.4455 -0.8970  0.6772
 1632SOL     OW16354   3.915   3.272   2.543 -0.6089 -0.0642  0.3722
 1632SOL    HW116355   3.882   3.207   2.481 -0.3269 -0.1316  0.2902
 1632SOL    HW216356   3.838   3.327   2.555 -1.8149 -1.7783  0.5761
 1633SOL     OW16357   0.799   3.430   6.642  0.0261  0.7991  0.2072
 1633SOL    HW116358   0.774   3.466   6.557 -1.8885  1.5376  1.0813
 1633SOL    HW216359   0.858   3.497   6.675 -1.2964  1.8808  0.4027
 1634SOL     OW16360   1.653   0.628   2.573  0.3312  0.1161  0.4253
 1634SOL    HW116361   1.684   0.625   2.664  0.3441  1.9686  0.4819
 1634SOL    HW216362   1.738   0.648   2.533  0.1175 -0.2315 -0.1934
 1635SOL     OW16363   1.984   1.249  10.710  0.1428 -0.3959 -0.2716
 1635SOL    HW116364   2.007   1.183  10.645 -0.9485  0.1091 -1.1816
 1635SOL    HW216365   2.003   1.334  10.670 -0.2879  0.0587  0.4953
 1636SOL     OW16366   1.512   4.092  11.117 -0.1612 -0.2706 -0.2890
 1636SOL    HW116367   1.539   4.172  11.161  0.0184 -0.5893  0.1830
 1636SOL    HW216368   1.432   4.078  11.167 -1.2860  0.7177 -1.7985
 1637SOL     OW16369   0.189   1.401   4.948 -0.2938  0.2189  0.7537
 1637SOL    HW116370   0.170   1.495   4.949  2.3489  0.8526 -4.2455
 1637SOL    HW216371   0.163   1.386   4.857  2.6400 -1.4222  0.1815
 1638SOL     OW16372   1.436   2.488   4.685 -0.5901 -0.0582  0.2277
 1638SOL    HW116373   1.395   2.417   4.636  2.5134 -0.3956 -1.8424
 1638SOL    HW216374   1.498   2.443   4.741 -2.3576 -1.0448  1.3980
 1639SOL     OW16375   3.337   2.425   4.099  0.1906  0.1441 -0.5082
 1639SOL    HW116376   3.394   2.489   4.140  0.7833  0.3457 -1.6674
 1639SOL    HW216377   3.308   2.457   4.014 -0.0245  2.7089  0.5558
 1640SOL     OW16378   1.544   4.290   5.473 -0.1227 -0.0044  0.1312
 1640SOL    HW116379   1.467   4.281   5.417  0.8210  1.4757 -1.3997
 1640SOL    HW216380   1.602   4.235   5.421 -0.4533  0.8251 -1.1142
 1641SOL     OW16381   3.806   0.943   4.280  0.5783  0.1897 -0.3000
 1641SOL    HW116382   3.824   1.018   4.223 -1.3969  0.6367 -0.3544
 1641SOL    HW216383   3.790   0.871   4.220  2.3703 -1.0689  0.7494
 1642SOL     OW16384   3.694   3.126   5.273 -0.4196  0.3044 -0.4669
 1642SOL    HW116385   3.637   3.135   5.197 -0.4283  2.3410 -0.2185
 1642SOL    HW216386   3.677   3.218   5.293  4.0889  0.7924  0.9848
 1643SOL     OW16387   3.492   4.596  13.678  0.1815  0.0798 -0.0402
 1643SOL    HW116388   3.461   4.686  13.684 -0.2641 -0.1020  0.3904
 1643SOL    HW216389   3.585   4.598  13.701 -0.3968  1.1424  2.2004
 1644SOL     OW16390   4.538   0.189   9.204  0.0349 -0.0469  0.1536
 1644SOL    HW116391   4.449   0.188   9.238 -1.4953 -0.9417 -3.8611
 1644SOL    HW216392   4.590   0.138   9.266 -1.7042 -0.3447  1.3569
 1645SOL     OW16393   0.293   1.999  11.865  0.0291 -0.0342 -0.0237
 1645SOL    HW116394   0.274   2.074  11.808 -0.2669 -0.2917 -0.2668
 1645SOL    HW216395   0.380   1.977  11.832  0.7593  0.4218  1.6539
 1646SOL     OW16396   3.148   1.148   7.643 -0.3270 -0.3300  0.1060
 1646SOL    HW116397   3.222   1.107   7.597 -0.8081 -1.4313  0.3014
 1646SOL    HW216398   3.078   1.088   7.616  1.9909 -1.7591 -2.7556
 1647SOL     OW16399   4.572   4.701   8.184  0.7951  0.0045 -0.2455
 1647SOL    HW116400   4.554   4.694   8.277  0.8048  1.0067 -0.1638
 1647SOL    HW216401   4.485   4.681   8.149 -0.1942  0.7339  1.8335
 1648SOL     OW16402   2.485   1.397   7.128  0.5936  0.5818 -0.2810
 1648SOL    HW116403   2.452   1.391   7.217  0.8148  1.3732 -0.1460
 1648SOL    HW216404   2.475   1.305   7.102  2.6178  0.5001 -0.8187
 1649SOL     OW16405   0.837   0.513   5.205  0.7299 -0.6795  0.3495
 1649SOL    HW116406   0.886   0.591   5.176 -1.6070  0.5436 -0.2618
 1649SOL    HW216407   0.846   0.464   5.124 -0.6097  1.7978 -1.3054
 1650SOL     OW16408   1.419   2.239   2.613 -0.6084  0.5052 -0.1374
 1650SOL    HW116409   1.419   2.151   2.651 -1.3311 -0.2166 -1.8028
 1650SOL    HW216410   1.514   2.253   2.611 -0.1698 -2.2905  1.1168
 1651SOL     OW16411   3.133   0.158   1.722  0.2822  0.3581  0.0919
 1651SOL    HW116412   3.135   0.081   1.665 -0.2136 -0.4836  1.2394
 1651SOL    HW216413   3.109   0.105   1.797  1.2020 -0.4598 -0.1959
 1652SOL     OW16414   4.675   1.997  10.715  0.3291 -0.0112  0.5348
 1652SOL    HW116415   4.645   1.925  10.660  1.1592 -0.0290  0.1031
 1652SOL    HW216416   4.616   2.068  10.693 -1.2430 -0.5171  3.0505
 1653SOL     OW16417   3.627   1.466  12.611 -0.1084  0.5606  0.0849
 1653SOL    HW116418   3.698   1.412  12.575 -0.0832  1.6584 -1.5129
 1653SOL    HW216419   3.669   1.538  12.659  1.2925 -1.2820  1.6244
 1654SOL     OW16420   0.878   2.299   2.700  0.5639  0.3111  0.4310
 1654SOL    HW116421   0.846   2.389   2.706 -0.0114  0.3909 -3.8514
 1654SOL    HW216422   0.854   2.276   2.610 -0.8369 -1.5687  1.2946
 1655SOL     OW16423   2.629   0.023   8.368  0.3719  0.7053 -0.6362
 1655SOL    HW116424   2.582   0.005   8.449  0.4453  0.2159 -0.7034
 1655SOL    HW216425   2.712   4.697   8.367  0.2540  0.5230 -1.6525
 1656SOL     OW16426   3.063   0.892   7.505  0.1685 -0.2167 -0.4787
 1656SOL    HW116427   3.049   0.798   7.504  0.8885 -0.2955 -3.8732
 1656SOL    HW216428   3.117   0.903   7.427  0.0464  2.2648 -0.2257
 1657SOL     OW16429   4.425   0.733  15.289  0.2239 -0.0469  0.0231
 1657SOL    HW116430   4.501   0.675  15.282 -0.6395 -1.1339 -0.3799
 1657SOL    HW216431   4.353   0.697  15.236  2.5662 -0.5803 -2.7636
 1658SOL     OW16432   4.080   4.466   5.036  0.3426  0.2298  0.1859
 1658SOL    HW116433   4.025   4.433   4.964 -1.1059  1.5950  0.6771
 1658SOL    HW216434   4.061   4.400   5.103 -0.6426  1.0861  0.7394
 1659SOL     OW16435   3.823   3.370   7.324 -0.3759 -0.2357  0.6452
 1659SOL    HW116436   3.850   3.356   7.415  0.6746 -0.4216  0.2913
 1659SOL    HW216437   3.799   3.279   7.310  0.6416 -0.0893 -2.0306
 1660SOL     OW16438   1.160   1.441   8.465  0.2294 -0.2992 -0.2171
 1660SOL    HW116439   1.222   1.437   8.392 -0.8957  1.5137 -1.2735
 1660SOL    HW216440   1.081   1.392   8.443  0.0075  0.5791 -1.3548
 1661SOL     OW16441   1.106   4.324   5.590 -0.5426 -0.7413 -0.5291
 1661SOL    HW116442   1.069   4.366   5.512 -2.3935  3.8755  2.8550
 1661SOL    HW216443   1.050   4.364   5.657 -2.2224 -3.6051 -0.2451
 1662SOL     OW16444   0.172   4.336   3.039 -0.1103  0.4351  0.5599
 1662SOL    HW116445   0.111   4.395   3.083 -0.3663  1.2120 -0.8052
 1662SOL    HW216446   0.127   4.328   2.955 -3.0368  1.3254  2.0418
 1663SOL     OW16447   1.143   0.308   4.465  0.1915 -0.1757  0.4998
 1663SOL    HW116448   1.080   0.270   4.403  1.5579 -1.8777  0.1668
 1663SOL    HW216449   1.193   0.228   4.481  0.1130 -0.3491 -0.1162
 1664SOL     OW16450   3.815   0.032   7.573 -0.0626  0.0738 -0.4751
 1664SOL    HW116451   3.757   0.108   7.567  0.6479  0.5162 -1.6591
 1664SOL    HW216452   3.890   0.081   7.608 -0.3400 -0.9855  1.6330
 1665SOL     OW16453   1.515   2.053  17.587  0.2238 -0.1498  0.0922
 1665SOL    HW116454   1.449   2.071  17.654 -0.6467  0.6110 -0.9725
 1665SOL    HW216455   1.566   2.131  17.608  0.5353 -0.6199  1.0795
 1666SOL     OW16456   0.735   4.094   4.026  0.3437 -0.1997 -0.0443
 1666SOL    HW116457   0.800   4.039   3.983  0.2394 -0.9790  0.8125
 1666SOL    HW216458   0.656   4.071   3.976 -1.0276  1.4691  1.3384
 1667SOL     OW16459   0.730   4.161  14.547 -0.2883  0.2586  0.2611
 1667SOL    HW116460   0.798   4.209  14.594 -1.4098  1.4643  0.6445
 1667SOL    HW216461   0.721   4.214  14.468  1.6660  1.7114  1.0211
 1668SOL     OW16462   2.888   0.393   0.726 -0.2364 -0.0936  0.1720
 1668SOL    HW116463   2.971   0.365   0.686  0.8351 -1.7014  3.5325
 1668SOL    HW216464   2.862   0.308   0.762  1.3920 -0.4261  0.5849
 1669SOL     OW16465   3.299   0.306   1.918  0.3330 -0.2987  0.9959
 1669SOL    HW116466   3.340   0.224   1.945  0.8524 -0.9527 -1.8699
 1669SOL    HW216467   3.253   0.283   1.838 -0.1333  2.9478  0.3440
 1670SOL     OW16468   3.763   0.532   3.061  0.4192 -0.2380 -0.5103
 1670SOL    HW116469   3.711   0.597   3.013  3.0365  0.7107 -2.0416
 1670SOL    HW216470   3.824   0.501   2.994  0.2130 -0.2230 -0.7071
 1671SOL     OW16471   0.238   0.823  11.576 -0.1386  0.4382  0.5184
 1671SOL    HW116472   0.152   0.798  11.541  0.4097 -0.2002 -0.3643
 1671SOL    HW216473   0.208   0.823  11.667 -1.9418  1.7572 -0.0527
 1672SOL     OW16474   1.036   1.401   3.661  0.3956 -0.2396  0.1868
 1672SOL    HW116475   1.090   1.413   3.583 -0.9315  2.8402 -0.2384
 1672SOL    HW216476   1.092   1.429   3.733  0.1278  0.1934  0.2287
 1673SOL     OW16477   3.832   2.963  14.057 -0.3481  0.1286 -0.0865
 1673SOL    HW116478   3.893   3.016  14.107 -0.8833 -0.7419  1.4881
 1673SOL    HW216479   3.793   3.023  13.993  0.5244 -1.8379 -2.4879
 1674SOL     OW16480   2.583   0.416   4.726 -0.5194  0.1252  0.0871
 1674SOL    HW116481   2.516   0.395   4.791  0.4591 -2.1144  0.3741
 1674SOL    HW216482   2.611   0.332   4.690  0.2694  0.4588 -0.0858
 1675SOL     OW16483   1.636   3.040   7.805 -0.4038 -0.0732  0.3898
 1675SOL    HW116484   1.701   3.086   7.752 -0.5691  2.6336  2.5656
 1675SOL    HW216485   1.556   3.071   7.762 -0.5268  0.1840  0.8168
 1676SOL     OW16486   3.446   4.217   5.338  0.2530  0.2109 -0.3107
 1676SOL    HW116487   3.523   4.205   5.394  0.0576 -0.0758 -0.1078
 1676SOL    HW216488   3.384   4.178   5.399 -0.4662 -1.2622 -1.9744
 1677SOL     OW16489   2.028   2.689  15.762 -0.3581  0.1858 -0.1178
 1677SOL    HW116490   2.011   2.676  15.668 -0.7763  2.4212 -0.3538
 1677SOL    HW216491   2.096   2.755  15.745  2.1999 -2.0637  1.3083
 1678SOL     OW16492   0.698   0.726   7.717  0.1281 -0.0340 -0.7561
 1678SOL    HW116493   0.677   0.734   7.624 -2.0133 -1.9336 -0.4416
 1678SOL    HW216494   0.781   0.773   7.720  0.4959 -0.8298  1.3617
 1679SOL     OW16495   3.170   3.006  12.382 -0.0697  0.7620 -0.1740
 1679SOL    HW116496   3.142   3.095  12.362  0.7408  1.2200  0.7150
 1679SOL    HW216497   3.217   3.022  12.464  2.1871  0.5029 -1.4301
 1680SOL     OW16498   2.490   3.880   9.884 -0.1988 -0.1942 -0.0406
 1680SOL    HW116499   2.544   3.951   9.920 -1.7918  0.2919  1.3660
 1680SOL    HW216500   2.485   3.817   9.956 -1.2285 -1.2878 -1.1014
 1681SOL     OW16501   2.400   2.407  17.436 -0.1736  0.4091  0.1850
 1681SOL    HW116502   2.334   2.365  17.491 -1.1432 -0.7542 -1.8756
 1681SOL    HW216503   2.387   2.497  17.468 -1.9954 -0.1039  0.8208
 1682SOL     OW16504   1.062   2.055  15.594 -0.3108  1.0071  0.1665
 1682SOL    HW116505   1.013   2.120  15.545 -0.2677  0.6454 -0.3606
 1682SOL    HW216506   1.153   2.076  15.576 -0.5934  2.0723  0.0138
 1683SOL     OW16507   2.572   1.623   2.531 -0.0749 -0.4613 -0.6933
 1683SOL    HW116508   2.502   1.689   2.537 -1.3785 -1.8516 -0.5668
 1683SOL    HW216509   2.546   1.557   2.596 -1.4614  0.7586 -0.0168
 1684SOL     OW16510   3.029   3.818   6.779 -0.0351 -0.0845 -0.6399
 1684SOL    HW116511   3.119   3.789   6.796 -0.6905 -0.1927  2.6619
 1684SOL    HW216512   3.002   3.886   6.841 -1.4228 -0.2083 -1.1075
 1685SOL     OW16513   3.076   2.749  17.652 -0.6542 -0.0709  0.1125
 1685SOL    HW116514   3.157   2.771  17.606 -0.4558  0.2583  0.6108
 1685SOL    HW216515   3.082   2.654  17.651 -1.7176 -0.1130 -4.1783
 1686SOL     OW16516   1.020   0.079   0.605 -0.5944  0.8814  0.3923
 1686SOL    HW116517   0.928   0.104   0.607 -0.2683  1.9478  2.2300
 1686SOL    HW216518   1.071   0.148   0.561 -0.3665  1.4267  1.5084
 1687SOL     OW16519   2.130   3.543   1.714 -1.1032 -0.2929 -0.3152
 1687SOL    HW116520   2.107   3.615   1.774 -2.0445 -0.0659 -0.9571
 1687SOL    HW216521   2.154   3.600   1.641 -0.6455  0.5040  0.4544
 1688SOL     OW16522   0.866   0.051   4.481  0.4379  0.1958 -0.2257
 1688SOL    HW116523   0.875   0.141   4.451 -1.3419  0.6850  0.6969
 1688SOL    HW216524   0.886   4.721   4.402 -0.8073 -1.4457  0.5299
 1689SOL     OW16525   0.532   1.946   2.075 -0.0985 -0.3349 -0.2719
 1689SOL    HW116526   0.509   2.008   2.005  2.3039  2.9495  1.8418
 1689SOL    HW216527   0.602   1.888   2.045  0.7255  0.0741  0.8605
 1690SOL     OW16528   1.992   3.269  17.403  0.0950 -0.1148  0.5229
 1690SOL    HW116529   2.011   3.285  17.311 -1.4120 -1.2426  0.0246
 1690SOL    HW216530   2.066   3.214  17.428  0.9530  0.6695 -0.2603
 1691SOL     OW16531   4.407   0.889   4.916  0.1774 -0.3882 -0.3437
 1691SOL    HW116532   4.474   0.902   4.849  0.6222  0.9767  0.3721
 1691SOL    HW216533   4.418   0.806   4.962 -0.2237 -0.7734 -0.9408
 1692SOL     OW16534   3.568   4.240   9.492  0.6376 -0.2600 -0.1164
 1692SOL    HW116535   3.661   4.219   9.479  0.7432  0.7479 -0.9421
 1692SOL    HW216536   3.535   4.207   9.408 -1.1667  1.1513  0.0406
 1693SOL     OW16537   2.485   0.475  11.895 -0.2270 -0.6798 -0.1205
 1693SOL    HW116538   2.499   0.500  11.804 -2.6829  3.9025  0.7880
 1693SOL    HW216539   2.394   0.454  11.875 -0.0882 -0.8678 -0.5508
 1694SOL     OW16540   1.930   1.177  14.265 -0.9078 -0.2750 -0.4363
 1694SOL    HW116541   1.885   1.103  14.224 -0.2938 -0.8597 -0.0357
 1694SOL    HW216542   2.013   1.151  14.226  0.3243  2.3669  0.4407
 1695SOL     OW16543   0.778   3.253  11.690  0.3503 -0.4715 -0.0056
 1695SOL    HW116544   0.711   3.311  11.726  0.7277 -0.9914  1.5126
 1695SOL    HW216545   0.856   3.306  11.705 -0.6402  1.5098 -1.8053
 1696SOL     OW16546   2.726   0.461   8.905 -0.3617 -0.8308  0.1586
 1696SOL    HW116547   2.648   0.412   8.881  1.2907 -2.8494 -1.0772
 1696SOL    HW216548   2.789   0.423   8.843  1.4025 -0.7191  1.8665
 1697SOL     OW16549   1.668   2.885   7.229  0.8194  0.1928 -0.5332
 1697SOL    HW116550   1.634   2.796   7.241 -0.7638  0.6228 -1.7709
 1697SOL    HW216551   1.761   2.872   7.243  0.2801 -0.4924  2.5165
 1698SOL     OW16552   0.344   4.221   2.437 -0.0042  0.1878  0.4829
 1698SOL    HW116553   0.302   4.136   2.449  1.4994 -0.5078  0.8739
 1698SOL    HW216554   0.301   4.256   2.359 -2.7377  0.0401  1.9514
 1699SOL     OW16555   3.862   4.137   8.613 -0.1539  0.1303  0.3101
 1699SOL    HW116556   3.892   4.215   8.567  1.0214 -0.3289  0.2714
 1699SOL    HW216557   3.933   4.075   8.594  1.6989  2.4020 -0.1754
 1700SOL     OW16558   1.395   2.307   9.321  0.0503 -0.3589 -0.2610
 1700SOL    HW116559   1.469   2.258   9.285 -0.1851 -0.7357 -0.2222
 1700SOL    HW216560   1.321   2.248   9.307 -0.6354  0.7373 -1.2391
 1701SOL     OW16561   0.077   1.654  10.450  0.0724 -0.3038  0.1200
 1701SOL    HW116562   4.705   1.641  10.431  0.3442 -2.4910  0.2781
 1701SOL    HW216563   0.110   1.566  10.431  0.6562 -0.1772  0.5880
 1702SOL     OW16564   1.609   2.476   8.585 -0.4104  0.1918  0.4391
 1702SOL    HW116565   1.670   2.422   8.535 -2.2156  2.5938 -4.3910
 1702SOL    HW216566   1.661   2.475   8.665 -0.4469 -2.1135  0.4464
 1703SOL     OW16567   3.002   2.083   5.865 -0.1609 -0.9268  0.1111
 1703SOL    HW116568   3.044   2.004   5.900  0.8485 -0.0934  0.7698
 1703SOL    HW216569   2.911   2.054   5.875 -1.1595  2.5033  0.9949
 1704SOL     OW16570   0.399   3.902   0.361 -0.5754  0.4643 -0.4384
 1704SOL    HW116571   0.323   3.843   0.358 -0.0131 -0.2861  0.5482
 1704SOL    HW216572   0.382   3.943   0.276  0.5472 -0.4247 -1.0951
 1705SOL     OW16573   3.395   0.327   0.494  0.1320  0.4594 -0.7903
 1705SOL    HW116574   3.404   0.241   0.454  0.7439 -0.1816  0.7134
 1705SOL    HW216575   3.437   0.306   0.577  0.3846  3.6554 -0.1035
 1706SOL     OW16576   1.857   2.414   3.780 -0.0095 -0.2574  0.2804
 1706SOL    HW116577   1.859   2.500   3.737 -1.7514 -0.3544  0.0044
 1706SOL    HW216578   1.831   2.433   3.871  1.2689 -0.1575  0.6248
 1707SOL     OW16579   2.870   0.538   8.283  0.1964  0.1804  0.4202
 1707SOL    HW116580   2.839   0.488   8.360 -3.6426 -0.7910 -1.7534
 1707SOL    HW216581   2.911   0.467   8.233 -0.9901 -0.5320  0.4528
 1708SOL     OW16582   1.796   3.357   6.682 -0.0497 -0.0252  0.2787
 1708SOL    HW116583   1.843   3.331   6.603  0.8522 -1.3835  1.2550
 1708SOL    HW216584   1.718   3.394   6.641  0.3974  1.7174  1.0023
 1709SOL     OW16585   3.060   0.419   6.151  0.3888 -0.4517 -0.2011
 1709SOL    HW116586   3.141   0.394   6.107  1.3634  1.8118  0.3087
 1709SOL    HW216587   3.061   0.373   6.236  1.4116  1.9900  1.1027
 1710SOL     OW16588   0.284   1.299   2.137  0.2239  0.1365  0.1843
 1710SOL    HW116589   0.279   1.377   2.082  1.2201 -0.5760 -0.9056
 1710SOL    HW216590   0.357   1.258   2.091 -0.1797 -2.3537  1.7781
 1711SOL     OW16591   2.294   0.616   9.474 -0.3537 -0.3275 -0.4267
 1711SOL    HW116592   2.210   0.602   9.429  0.9917 -1.3629 -2.6207
 1711SOL    HW216593   2.316   0.708   9.460 -0.5340 -0.2447 -0.1676
 1712SOL     OW16594   0.379   2.474  16.878 -0.2458  0.2404 -0.3979
 1712SOL    HW116595   0.385   2.566  16.854  0.7902 -0.2743 -2.1508
 1712SOL    HW216596   0.309   2.443  16.819 -0.5467  0.3865 -0.1199
 1713SOL     OW16597   0.371   0.569   4.160 -0.0553 -0.1072  0.0921
 1713SOL    HW116598   0.417   0.559   4.076  0.8954  1.3680  0.4465
 1713SOL    HW216599   0.411   0.500   4.213  1.4527  0.9786  0.3638
 1714SOL     OW16600   1.107   4.697   5.432 -0.4658 -0.0449 -0.0712
 1714SOL    HW116601   1.103   4.709   5.527 -0.1697 -0.7972  0.0327
 1714SOL    HW216602   1.045   0.045   5.411 -2.7471 -1.8647  0.6178
 1715SOL     OW16603   1.052   1.096  13.679  0.5579 -0.1981 -0.5341
 1715SOL    HW116604   1.005   1.142  13.749  1.0662  0.7285 -0.8020
 1715SOL    HW216605   1.122   1.160  13.669  1.0097 -1.0326 -2.5928
 1716SOL     OW16606   1.033   3.707  14.913 -0.5727  0.0616  0.3935
 1716SOL    HW116607   1.114   3.757  14.919 -1.6089  1.5691  1.9829
 1716SOL    HW216608   0.964   3.770  14.932  0.1293  0.9388  0.0131
 1717SOL     OW16609   3.356   4.235   1.362 -0.2705 -0.1352 -0.0503
 1717SOL    HW116610   3.443   4.195   1.365  0.7782  2.1860  0.5310
 1717SOL    HW216611   3.339   4.216   1.270 -0.6779 -2.6960  0.5592
 1718SOL     OW16612   4.162   2.523  15.845 -0.3752  0.3858  0.9743
 1718SOL    HW116613   4.218   2.510  15.769 -2.8129  0.7677 -0.8739
 1718SOL    HW216614   4.188   2.453  15.906  1.8732  2.7771  2.7344
 1719SOL     OW16615   0.864   3.254   8.724 -0.4616  0.0617 -0.4425
 1719SOL    HW116616   0.792   3.303   8.686  0.8073  0.8365 -1.8282
 1719SOL    HW216617   0.860   3.281   8.816  1.8831 -1.6606  0.1839
 1720SOL     OW16618   0.969   3.866   1.713 -0.2469 -0.1635 -0.6524
 1720SOL    HW116619   1.023   3.849   1.790 -2.1182  1.9170  1.1290
 1720SOL    HW216620   1.032   3.834   1.648  1.5599  2.2097 -0.0395
 1721SOL     OW16621   0.228   1.386   7.442  0.6218 -0.1587  0.4777
 1721SOL    HW116622   0.196   1.341   7.521 -0.9517  1.4395  0.7583
 1721SOL    HW216623   0.256   1.321   7.378  1.6343  2.0832 -1.3774
 1722SOL     OW16624   1.280   1.359  11.755  0.0148 -0.4445  0.4025
 1722SOL    HW116625   1.219   1.306  11.702  0.1537 -0.4853  0.2856
 1722SOL    HW216626   1.216   1.380  11.824  0.2593  0.6476  0.2887
 1723SOL     OW16627   1.373   1.132   3.843  0.1633  0.2696  0.3562
 1723SOL    HW116628   1.448   1.107   3.789  0.5818 -0.3385  1.2270
 1723SOL    HW216629   1.299   1.107   3.788  0.1285  2.1045 -0.4253
 1724SOL     OW16630   4.604   3.014   4.832  0.2446  0.1125 -0.5609
 1724SOL    HW116631   4.572   2.960   4.903  0.4745 -2.3309 -2.3278
 1724SOL    HW216632   4.691   3.042   4.860 -1.1058  3.4861  0.3485
 1725SOL     OW16633   3.821   1.403  14.132  0.0899 -0.2280  0.1114
 1725SOL    HW116634   3.815   1.312  14.103 -1.4253 -0.1639  0.1873
 1725SOL    HW216635   3.848   1.446  14.051 -2.9130  1.1323 -0.1775
 1726SOL     OW16636   3.222   0.091  16.659 -0.2732 -0.2943 -0.1539
 1726SOL    HW116637   3.218   0.151  16.733 -0.0335  0.9185 -1.1299
 1726SOL    HW216638   3.189   0.146  16.588  2.4894  0.7391 -0.6145
 1727SOL     OW16639   4.664   3.402   4.374  0.0018  0.2951  0.0681
 1727SOL    HW116640   0.011   3.373   4.433 -0.8713 -0.8476  0.5209
 1727SOL    HW216641   4.601   3.451   4.427  0.6432 -0.2925  1.3597
 1728SOL     OW16642   2.714   0.493  13.957 -0.2572 -0.0536 -0.2697
 1728SOL    HW116643   2.625   0.498  13.922 -0.6101  1.5880  0.8824
 1728SOL    HW216644   2.764   0.531  13.884 -1.8248  0.3717 -1.1213
 1729SOL     OW16645   3.961   0.046   4.508  0.1283 -0.3434  0.2830
 1729SOL    HW116646   3.938   0.078   4.421  2.1007 -0.0490 -0.1305
 1729SOL    HW216647   4.053   0.021   4.494 -0.2855 -2.2313  0.9743
 1730SOL     OW16648   1.760   1.764   0.447 -0.0864  0.2469  0.4552
 1730SOL    HW116649   1.825   1.694   0.456 -0.9024 -0.4102  1.2472
 1730SOL    HW216650   1.779   1.809   0.530  0.7083  0.4225  0.1744
 1731SOL     OW16651   0.657   0.978   4.892 -0.0273 -0.2885  0.1971
 1731SOL    HW116652   0.624   0.896   4.855 -0.0397 -0.4533  0.5761
 1731SOL    HW216653   0.617   0.978   4.979  1.8238  0.9796  1.0494
 1732SOL     OW16654   2.657   2.573   7.132  0.2786  0.0518 -0.1643
 1732SOL    HW116655   2.617   2.657   7.152  0.2408 -0.2474  1.0258
 1732SOL    HW216656   2.750   2.595   7.141  0.3618 -0.3452 -0.0533
 1733SOL     OW16657   2.628   4.127   2.765  0.6519 -0.5425 -0.7562
 1733SOL    HW116658   2.682   4.070   2.709 -1.7052 -2.3653 -1.1912
 1733SOL    HW216659   2.549   4.123   2.710  0.0568 -0.7849  0.1154
 1734SOL     OW16660   0.717   2.005   3.367 -0.0301 -0.2908 -0.1022
 1734SOL    HW116661   0.676   1.987   3.283 -0.8944  0.4073  0.1847
 1734SOL    HW216662   0.711   1.913   3.395  2.1331 -0.0664  1.1305
 1735SOL     OW16663   2.814   0.080   3.454 -0.9901 -0.1326  1.0336
 1735SOL    HW116664   2.799   0.012   3.519 -0.0496 -1.1551  0.1776
 1735SOL    HW216665   2.779   0.045   3.373 -2.2174  0.7599  1.1840
 1736SOL     OW16666   4.017   2.871   7.465  0.0622  0.4497 -0.1132
 1736SOL    HW116667   3.925   2.896   7.472 -0.2491 -0.6350 -0.3549
 1736SOL    HW216668   4.010   2.780   7.492 -0.4175  1.0300  1.7808
 1737SOL     OW16669   1.276   1.910   1.972 -0.3948 -0.0172 -0.3631
 1737SOL    HW116670   1.279   1.938   1.881 -2.8768  1.1673 -0.1100
 1737SOL    HW216671   1.349   1.850   1.987 -0.0900  1.1196  2.6314
 1738SOL     OW16672   1.087   1.620  12.898  0.4304 -0.3095  0.1646
 1738SOL    HW116673   1.166   1.586  12.939  0.4797 -0.3676  0.0197
 1738SOL    HW216674   1.071   1.693  12.958  0.9624  0.1111 -0.2063
 1739SOL     OW16675   0.663   1.279   7.672  0.4200  0.0993  0.0216
 1739SOL    HW116676   0.643   1.198   7.720 -0.8362  0.4357  0.0518
 1739SOL    HW216677   0.744   1.303   7.717  0.2290  0.3752  0.2135
 1740SOL     OW16678   4.696   4.570   8.839 -0.7669  0.4046 -0.3734
 1740SOL    HW116679   0.028   4.529   8.907 -1.9025 -1.0581 -0.3530
 1740SOL    HW216680   4.711   4.529   8.754  3.4977 -2.5855  1.7853
 1741SOL     OW16681   3.482   2.393   6.633 -0.1105  0.8472 -0.0509
 1741SOL    HW116682   3.474   2.299   6.645  2.9910  0.6305  0.1179
 1741SOL    HW216683   3.393   2.426   6.646 -0.7476 -0.7147 -0.5225
 1742SOL     OW16684   1.896   2.705   8.054 -0.0836  0.1889  0.4663
 1742SOL    HW116685   1.972   2.655   8.025 -0.4442 -0.2598  0.2922
 1742SOL    HW216686   1.833   2.637   8.076  0.7430 -1.0796 -1.1510
 1743SOL     OW16687   2.947   2.406  14.767  0.7602 -0.0971 -0.0108
 1743SOL    HW116688   2.876   2.415  14.702  0.0958 -1.0839  0.5714
 1743SOL    HW216689   2.930   2.329  14.822  0.4980  0.3633  0.5445
 1744SOL     OW16690   1.777   1.775  13.039 -0.4931  0.2992 -0.2682
 1744SOL    HW116691   1.819   1.794  13.123 -1.1152 -0.6366  0.2614
 1744SOL    HW216692   1.859   1.764  12.992 -1.4113  0.9308 -2.0217
 1745SOL     OW16693   3.951   0.435   2.887  0.8410  0.2891  0.5107
 1745SOL    HW116694   3.944   0.529   2.869 -0.1696 -0.1907 -1.6703
 1745SOL    HW216695   4.023   0.399   2.834 -0.6989 -0.7468 -0.8871
 1746SOL     OW16696   4.108   3.631  13.926  0.2605 -0.0475 -0.3382
 1746SOL    HW116697   4.152   3.705  13.884  1.2637 -0.7751 -0.5560
 1746SOL    HW216698   4.186   3.587  13.960  1.5454  0.4243 -2.6628
 1747SOL     OW16699   3.180   3.194   7.309  0.2794 -0.5212  0.8391
 1747SOL    HW116700   3.162   3.111   7.354 -0.6707 -0.0647  1.2920
 1747SOL    HW216701   3.143   3.263   7.363  1.2341  3.0235 -3.0003
 1748SOL     OW16702   2.923   2.898   6.175 -0.8427  1.1239 -0.2764
 1748SOL    HW116703   2.890   2.815   6.142 -1.0400  1.1895 -0.2393
 1748SOL    HW216704   2.994   2.904   6.111 -0.8737 -0.2154 -0.4300
 1749SOL     OW16705   2.588   2.337   4.023 -0.1191  0.3141  0.2789
 1749SOL    HW116706   2.601   2.243   4.011  0.4141  0.2065  1.7431
 1749SOL    HW216707   2.671   2.359   4.066 -1.2887 -0.0259  2.7180
 1750SOL     OW16708   3.485   3.824   5.250 -0.8259 -0.0146  0.2790
 1750SOL    HW116709   3.423   3.839   5.179  1.1412 -0.1532 -1.4475
 1750SOL    HW216710   3.424   3.783   5.312 -0.2261 -0.7358  0.3873
 1751SOL     OW16711   2.170   1.771   7.458  0.5089  0.2123 -0.3298
 1751SOL    HW116712   2.128   1.848   7.420  0.6422  0.1133 -0.6845
 1751SOL    HW216713   2.224   1.742   7.385 -0.0237 -0.4646 -0.4609
 1752SOL     OW16714   0.491   0.316   2.141 -0.0257 -0.1943  0.5329
 1752SOL    HW116715   0.523   0.399   2.176 -0.2366  0.6595 -1.3282
 1752SOL    HW216716   0.574   0.270   2.152  0.0028 -0.0160  1.0661
 1753SOL     OW16717   0.094   4.717   1.771 -0.0901 -0.1193 -0.2565
 1753SOL    HW116718   0.136   4.632   1.753  3.3068  1.0500  2.1796
 1753SOL    HW216719   0.081   4.720   1.866  0.4732 -0.6230 -0.1595
 1754SOL     OW16720   4.186   4.581   5.384  0.1506  0.0548  0.0535
 1754SOL    HW116721   4.213   4.672   5.393  0.2457  0.1190 -0.9791
 1754SOL    HW216722   4.238   4.557   5.308  0.3986 -0.0026  0.2433
 1755SOL     OW16723   3.862   4.035  10.121 -0.0216 -0.0323 -0.0387
 1755SOL    HW116724   3.845   4.086  10.042  0.6151 -0.0530 -0.1892
 1755SOL    HW216725   3.957   4.035  10.112 -0.2399 -1.6941 -2.5919
 1756SOL     OW16726   0.924   2.313   9.207  0.0229 -0.3273  0.0813
 1756SOL    HW116727   0.975   2.342   9.130  0.1467  0.9862  0.6644
 1756SOL    HW216728   0.885   2.393   9.241  0.9812  0.3903 -0.4804
 1757SOL     OW16729   0.709   4.246   1.747 -0.0439  0.3250  0.5801
 1757SOL    HW116730   0.718   4.203   1.661  1.5509  2.5045 -0.3342
 1757SOL    HW216731   0.704   4.336   1.715 -0.7992  0.5013  1.2186
 1758SOL     OW16732   2.867   2.944   5.157 -0.0233  0.2241  0.1273
 1758SOL    HW116733   2.831   3.019   5.204  2.1702  1.2505  0.1455
 1758SOL    HW216734   2.795   2.923   5.097 -0.8530  1.5869  0.6403
 1759SOL     OW16735   2.879   0.771   2.646 -0.4610  0.4862  0.2100
 1759SOL    HW116736   2.874   0.861   2.677 -0.1610  0.7777 -0.6050
 1759SOL    HW216737   2.894   0.734   2.733 -0.1300  1.4344  0.5448
 1760SOL     OW16738   3.801   2.909   8.258 -0.2485 -0.6187 -0.5646
 1760SOL    HW116739   3.832   2.997   8.236  0.1598 -0.3851  0.9390
 1760SOL    HW216740   3.865   2.866   8.201  1.4762  0.3050  0.6545
 1761SOL     OW16741   1.435   1.066   7.015 -0.5892  0.2063  0.0063
 1761SOL    HW116742   1.391   0.981   7.013 -0.9863  0.4061  0.2822
 1761SOL    HW216743   1.418   1.102   6.928  0.7044  1.7750  0.4108
 1762SOL     OW16744   2.611   4.336  10.952 -0.2246 -0.3818  0.0705
 1762SOL    HW116745   2.631   4.337  11.046 -0.6541 -0.2160  0.1619
 1762SOL    HW216746   2.574   4.424  10.944  1.3882  0.3834  0.9526
 1763SOL     OW16747   3.353   1.629  14.937  0.7340 -0.9424 -0.3157
 1763SOL    HW116748   3.339   1.560  14.871  0.1144  0.7424 -1.9610
 1763SOL    HW216749   3.367   1.703  14.877 -0.2177 -1.3740 -1.0772
 1764SOL     OW16750   1.486   3.448   2.803 -0.0127  0.2370  0.9796
 1764SOL    HW116751   1.409   3.411   2.760  0.3546  1.5101 -0.7888
 1764SOL    HW216752   1.553   3.380   2.806 -0.7195 -0.4957  0.2117
 1765SOL     OW16753   2.947   4.016   1.409 -0.1420  0.2254  0.0422
 1765SOL    HW116754   2.936   4.002   1.503 -1.1207 -1.5317 -0.3334
 1765SOL    HW216755   2.941   4.111   1.423 -0.3971  0.2753 -0.4072
 1766SOL     OW16756   3.942   0.557   4.637  0.2635 -0.0311  0.0525
 1766SOL    HW116757   3.912   0.470   4.663  0.4607 -0.6245 -1.6717
 1766SOL    HW216758   3.990   0.548   4.554 -0.7124  2.3274 -0.7419
 1767SOL     OW16759   3.134   1.640  12.968  0.0174 -0.5629  0.2663
 1767SOL    HW116760   3.193   1.594  12.909 -2.4277 -1.4496 -1.4863
 1767SOL    HW216761   3.048   1.611  12.938 -0.5453 -0.2390  1.5490
 1768SOL     OW16762   4.549   2.784   9.924  0.4736 -0.1509 -0.4727
 1768SOL    HW116763   4.571   2.784  10.017  2.7392 -1.7993 -0.9818
 1768SOL    HW216764   4.600   2.707   9.897  0.1717 -1.1094  1.7301
 1769SOL     OW16765   3.147   1.800  13.189  0.0831  0.0371 -0.9365
 1769SOL    HW116766   3.115   1.721  13.231  1.4956  0.3272  0.6673
 1769SOL    HW216767   3.160   1.755  13.105  0.4523 -2.6139  0.5649
 1770SOL     OW16768   0.395   0.340  13.879  0.4671 -0.3153 -0.3721
 1770SOL    HW116769   0.446   0.309  13.804  0.9055 -0.0036 -0.2078
 1770SOL    HW216770   0.468   0.391  13.914  0.0705  0.1655 -0.2495
 1771SOL     OW16771   4.530   0.768   7.954 -0.4332  0.3154  0.4528
 1771SOL    HW116772   4.539   0.856   7.990  1.6253 -0.2123  1.2090
 1771SOL    HW216773   4.563   0.713   8.025  0.2342 -0.5663 -0.5277
 1772SOL     OW16774   3.426   0.634   5.827 -0.6860 -0.7380  0.3804
 1772SOL    HW116775   3.424   0.600   5.917  1.1949  1.2601  1.1858
 1772SOL    HW216776   3.397   0.556   5.781 -1.0816 -1.8885  2.5726
 1773SOL     OW16777   4.207   2.856   2.193  0.2236 -0.4245  0.5539
 1773SOL    HW116778   4.200   2.911   2.271  1.3173  1.0614 -0.4097
 1773SOL    HW216779   4.213   2.771   2.239  0.4535 -1.4684 -1.4132
 1774SOL     OW16780   4.513   1.062  15.793  0.2382 -0.0725 -0.2644
 1774SOL    HW116781   4.577   1.115  15.745 -0.7054  1.1205 -0.2178
 1774SOL    HW216782   4.526   0.974  15.759 -0.7865 -0.4336  0.2663
 1775SOL     OW16783   4.527   2.153   7.990  0.3298 -0.3175 -0.3554
 1775SOL    HW116784   4.515   2.068   7.946  0.2347 -1.5625  2.0849
 1775SOL    HW216785   4.621   2.147   8.003  0.4591  2.7304  0.1214
 1776SOL     OW16786   2.443   3.205   7.919 -0.0833  0.4292 -0.8106
 1776SOL    HW116787   2.451   3.179   7.827  0.3220  0.1275 -0.6903
 1776SOL    HW216788   2.530   3.241   7.939 -1.1933  1.8380  1.4976
 1777SOL     OW16789   0.445   0.600  16.741  0.1455 -0.6052  0.1922
 1777SOL    HW116790   0.431   0.597  16.647  0.4449 -0.5272  0.1476
 1777SOL    HW216791   0.540   0.595  16.741  0.2158  0.8444 -0.1802
 1778SOL     OW16792   1.352   2.314   5.624 -0.5202  0.3578 -0.0856
 1778SOL    HW116793   1.281   2.352   5.675  0.2832  0.5039  0.9347
 1778SOL    HW216794   1.367   2.389   5.566 -0.0759 -1.2982 -2.0881
 1779SOL     OW16795   4.542   1.029   9.013 -0.0488  0.0441  0.1352
 1779SOL    HW116796   4.478   1.027   9.084  0.9093 -4.3192  0.8976
 1779SOL    HW216797   4.616   1.049   9.070 -0.3845 -1.7527  1.1758
 1780SOL     OW16798   0.426   4.160  11.759 -0.3180  0.4534  0.2433
 1780SOL    HW116799   0.369   4.148  11.835 -1.4499 -1.1014 -0.8638
 1780SOL    HW216800   0.423   4.074  11.718  1.0749  1.2715 -1.5913
 1781SOL     OW16801   0.359   2.387   1.577 -0.3981  0.8656  0.2257
 1781SOL    HW116802   0.325   2.305   1.614  0.1597  1.1006  1.2644
 1781SOL    HW216803   0.440   2.359   1.535 -0.7053 -0.0063  0.2159
 1782SOL     OW16804   2.218   3.121  17.449 -0.4839  0.5290  0.1139
 1782SOL    HW116805   2.311   3.141  17.465 -0.3162 -1.8671  2.1084
 1782SOL    HW216806   2.225   3.036  17.492 -1.1243 -0.2274 -1.2907
 1783SOL     OW16807   0.240   1.803  10.239 -0.0365 -0.4260 -0.1221
 1783SOL    HW116808   0.298   1.841  10.306 -0.0465 -1.6598  0.5860
 1783SOL    HW216809   0.174   1.765  10.297  0.3409  1.8816  1.8134
 1784SOL     OW16810   0.729   4.296   3.452 -0.3824  0.5062  0.3055
 1784SOL    HW116811   0.715   4.224   3.391  2.5800  0.5043 -0.3221
 1784SOL    HW216812   0.809   4.336   3.418 -0.6815  1.1761  0.3709
 1785SOL     OW16813   2.575   3.819   1.645 -0.0862 -0.0976  0.2565
 1785SOL    HW116814   2.615   3.839   1.561 -1.8877 -1.3368 -0.8978
 1785SOL    HW216815   2.620   3.883   1.700  0.3031 -0.7714  0.7218
 1786SOL     OW16816   1.703   3.533   0.757  0.2383 -0.0561 -0.2124
 1786SOL    HW116817   1.653   3.514   0.677 -0.4361  1.2897 -0.1132
 1786SOL    HW216818   1.771   3.466   0.761 -1.1329 -1.3716  1.2200
 1787SOL     OW16819   3.307   0.604  16.479  0.0074  0.2261  0.1072
 1787SOL    HW116820   3.312   0.664  16.404 -1.0890 -1.6968 -1.4810
 1787SOL    HW216821   3.396   0.613  16.514  0.0436 -0.5285  0.1895
 1788SOL     OW16822   3.773   0.813   5.884 -0.0126 -0.0964 -0.5647
 1788SOL    HW116823   3.807   0.871   5.816 -1.0864  0.3890 -0.6859
 1788SOL    HW216824   3.767   0.730   5.835 -0.8504  0.2969 -1.1328
 1789SOL     OW16825   1.859   1.430   7.499 -0.1225  0.2147 -0.6660
 1789SOL    HW116826   1.864   1.488   7.424 -1.1377 -0.4229 -1.2341
 1789SOL    HW216827   1.853   1.345   7.455 -1.8868  0.0923 -0.2146
 1790SOL     OW16828   3.804   0.677   8.813 -0.2599  0.2114 -0.0670
 1790SOL    HW116829   3.842   0.764   8.802  1.3930 -0.3373  1.4446
 1790SOL    HW216830   3.744   0.689   8.887  0.1618  0.3949  0.2401
 1791SOL     OW16831   1.016   4.180   6.108  0.0554 -0.1117  0.0413
 1791SOL    HW116832   0.961   4.121   6.159  2.3452  0.7705  3.5857
 1791SOL    HW216833   1.080   4.215   6.171  0.6472 -0.2204 -0.5011
 1792SOL     OW16834   1.800   0.448   5.805  0.3798  0.0961 -0.2518
 1792SOL    HW116835   1.782   0.355   5.789  1.6545 -0.2291  0.2429
 1792SOL    HW216836   1.881   0.446   5.854  0.3171  1.5771 -0.0894
 1793SOL     OW16837   2.465   2.840  11.405  0.1315 -0.0162 -0.1923
 1793SOL    HW116838   2.425   2.850  11.491  0.6484 -2.1908  0.2839
 1793SOL    HW216839   2.541   2.899  11.411  0.5249 -0.4199 -1.2549
 1794SOL     OW16840   2.940   2.706   3.965 -0.0071  0.2697  0.2066
 1794SOL    HW116841   2.883   2.669   3.898 -2.7087  2.9156  1.0477
 1794SOL    HW216842   2.961   2.793   3.929 -0.7389  0.0312 -0.8102
 1795SOL     OW16843   3.840   0.345  12.788 -0.4739 -0.0677 -0.0400
 1795SOL    HW116844   3.762   0.400  12.800  0.8504  1.5833  1.0714
 1795SOL    HW216845   3.882   0.384  12.711  0.2530 -1.2550 -0.2475
 1796SOL     OW16846   1.219   4.303   0.430 -0.0542 -0.5473 -0.3418
 1796SOL    HW116847   1.268   4.350   0.497 -3.2234 -0.0856  1.6584
 1796SOL    HW216848   1.280   4.296   0.357 -0.6181 -2.3669 -0.6338
 1797SOL     OW16849   2.888   1.955   5.137 -0.3906 -0.1288 -0.9665
 1797SOL    HW116850   2.963   1.942   5.078  0.4562 -1.3238  0.3877
 1797SOL    HW216851   2.834   2.001   5.072  0.5143  1.6203 -0.4859
 1798SOL     OW16852   2.967   2.242   5.614 -0.2324 -0.3775  0.5408
 1798SOL    HW116853   2.995   2.166   5.564 -2.4844 -0.0659 -1.1785
 1798SOL    HW216854   2.987   2.208   5.701  0.0681 -0.6750  0.3556
 1799SOL     OW16855   1.204   3.751   8.370 -0.3448 -0.4728 -0.4272
 1799SOL    HW116856   1.181   3.754   8.462  0.6581 -0.0251 -0.1903
 1799SOL    HW216857   1.262   3.826   8.380 -0.2933 -0.4210 -1.1086
 1800SOL     OW16858   1.584   1.810  17.454  0.0807  0.0395 -0.0642
 1800SOL    HW116859   1.548   1.886  17.500  1.5736  1.3337 -1.0022
 1800SOL    HW216860   1.571   1.827  17.361 -0.4671 -1.8488 -0.3285
 1801SOL     OW16861   1.961   1.537  15.096 -0.1391 -0.9902 -0.7877
 1801SOL    HW116862   1.936   1.614  15.045  0.3073  0.8154  1.6988
 1801SOL    HW216863   1.876   1.497  15.109 -0.3139 -0.7221 -1.0914
 1802SOL     OW16864   4.689   0.686  16.938  0.3499  0.3827 -0.5518
 1802SOL    HW116865   4.635   0.678  17.016  0.7420 -0.9524 -0.4144
 1802SOL    HW216866   0.054   0.657  16.968  0.6762  1.5486 -0.3562
 1803SOL     OW16867   1.107   0.434   3.243  0.7084 -0.0230  0.2147
 1803SOL    HW116868   1.068   0.498   3.303 -2.4845 -0.5721 -1.2600
 1803SOL    HW216869   1.025   0.408   3.201  1.0448 -0.5855 -0.0762
 1804SOL     OW16870   3.472   2.913   2.509 -0.0654 -0.0290  0.0564
 1804SOL    HW116871   3.386   2.944   2.481  0.4358 -0.4556 -2.0114
 1804SOL    HW216872   3.478   2.847   2.439 -1.4797 -1.6548  1.4959
 1805SOL     OW16873   3.880   0.512   6.578 -0.7815 -0.3600 -0.1404
 1805SOL    HW116874   3.875   0.587   6.519  1.3528 -1.6805 -2.0030
 1805SOL    HW216875   3.812   0.534   6.641  1.0279  1.4627  1.1519
 1806SOL     OW16876   4.015   3.371  10.124  0.0078  0.1560  0.2953
 1806SOL    HW116877   3.998   3.430  10.050 -1.1036  0.4837  0.8215
 1806SOL    HW216878   4.084   3.317  10.084 -2.2186 -1.3886 -1.4692
 1807SOL     OW16879   3.181   3.266  10.206  0.3376  0.2425  0.2022
 1807SOL    HW116880   3.228   3.308  10.278  1.9233  0.8045 -1.1805
 1807SOL    HW216881   3.095   3.307  10.219 -0.0179 -0.9944  1.8324
 1808SOL     OW16882   0.770   0.702   5.945  0.6910 -0.3532  0.5209
 1808SOL    HW116883   0.745   0.611   5.929  1.7189 -1.1399  3.3684
 1808SOL    HW216884   0.711   0.745   5.883  0.5947  0.1482  0.9655
 1809SOL     OW16885   1.829   1.414   4.311  0.0958  0.3740 -0.2179
 1809SOL    HW116886   1.843   1.390   4.219 -0.4617 -0.6055 -0.0480
 1809SOL    HW216887   1.877   1.342   4.351 -0.2091  0.5035  0.3813
 1810SOL     OW16888   1.844   1.502   6.397 -0.1864  0.0531  0.3468
 1810SOL    HW116889   1.856   1.512   6.491 -1.8740  1.2075  0.4459
 1810SOL    HW216890   1.930   1.471   6.371  0.6057  0.5889  2.3819
 1811SOL     OW16891   4.182   0.296   3.341  0.2431  0.2387 -0.2825
 1811SOL    HW116892   4.276   0.299   3.360  1.0280 -3.1177 -3.6054
 1811SOL    HW216893   4.193   0.314   3.248  0.8242  2.2016  0.1646
 1812SOL     OW16894   4.457   2.049   7.012  0.0306  0.6994  0.2180
 1812SOL    HW116895   4.441   2.058   7.106  2.4911  0.1882  0.6940
 1812SOL    HW216896   4.373   2.061   6.968  0.4179  1.2242 -0.3798
 1813SOL     OW16897   0.380   0.349   5.325  0.0543  0.1434 -0.0317
 1813SOL    HW116898   0.415   0.288   5.260  2.2021  1.3083  0.0140
 1813SOL    HW216899   0.387   0.294   5.403  0.6694 -0.8182 -0.7668
 1814SOL     OW16900   0.405   1.871   2.591  0.2014  0.2550  0.1604
 1814SOL    HW116901   0.492   1.903   2.567 -0.7731  1.4982 -1.7369
 1814SOL    HW216902   0.361   1.844   2.511  1.8169  1.1624 -1.0378
 1815SOL     OW16903   0.408   1.405   1.230 -0.3310  0.2835  0.1592
 1815SOL    HW116904   0.374   1.487   1.194  2.0529  0.3634 -1.9004
 1815SOL    HW216905   0.431   1.354   1.152 -0.8571  2.1431 -1.2173
 1816SOL     OW16906   4.287   0.974   5.173 -0.4381 -0.5328  0.4065
 1816SOL    HW116907   4.332   0.979   5.258  1.3444  0.3657 -0.5736
 1816SOL    HW216908   4.350   0.936   5.112  0.3114 -0.1388  0.9246
 1817SOL     OW16909   4.475   3.697   4.069 -0.6753  0.7152 -0.7688
 1817SOL    HW116910   4.415   3.697   4.143 -1.4720 -1.8343 -1.4136
 1817SOL    HW216911   4.425   3.634   4.018 -0.5286  0.1637 -0.2233
 1818SOL     OW16912   1.639   4.493  11.056  0.1556 -0.6762 -0.2253
 1818SOL    HW116913   1.716   4.497  11.114 -0.9030 -0.5003  1.1791
 1818SOL    HW216914   1.589   4.415  11.080 -0.8049 -0.8449 -2.7958
 1819SOL     OW16915   1.337   0.524  11.194  0.2872 -0.1882  0.2036
 1819SOL    HW116916   1.264   0.570  11.154  1.0717 -1.3483 -2.5512
 1819SOL    HW216917   1.396   0.599  11.204  1.4725 -1.0901 -0.1234
 1820SOL     OW16918   3.520   4.710   8.854  0.3154 -0.1209 -0.0947
 1820SOL    HW116919   3.439   4.667   8.879  0.7900 -0.4673  0.8542
 1820SOL    HW216920   3.586   4.658   8.900 -0.9523 -0.2906  1.4880
 1821SOL     OW16921   4.647   3.508   8.144  0.1747 -0.5602 -0.5175
 1821SOL    HW116922   4.607   3.500   8.058 -1.9097 -0.6733  0.4782
 1821SOL    HW216923   0.011   3.529   8.106  0.4361 -2.0934 -0.7999
 1822SOL     OW16924   1.689   2.050   5.815  0.5333  0.2173  0.3415
 1822SOL    HW116925   1.664   2.024   5.726  0.2481 -0.4955  0.6319
 1822SOL    HW216926   1.775   2.006   5.816  0.7639  0.7033  1.4785
 1823SOL     OW16927   3.149   4.506   7.322 -0.7229  0.1417  0.4543
 1823SOL    HW116928   3.179   4.424   7.363 -0.4604  0.8103  1.6012
 1823SOL    HW216929   3.228   4.558   7.337  0.8778 -2.2622  0.3863
 1824SOL     OW16930   4.241   3.163   6.045 -0.3915  0.2035  0.4821
 1824SOL    HW116931   4.236   3.219   6.123  0.3161  2.9191 -1.3980
 1824SOL    HW216932   4.162   3.186   5.996  1.3461  0.3434 -2.2566
 1825SOL     OW16933   2.115   3.105   8.847 -0.0213  0.1132  0.4087
 1825SOL    HW116934   2.165   3.178   8.809  3.0092 -2.1029  0.1155
 1825SOL    HW216935   2.057   3.151   8.908 -0.0346  0.9789 -0.2607
 1826SOL     OW16936   3.040   0.266   6.385  0.1466 -0.5479 -0.1600
 1826SOL    HW116937   3.024   0.327   6.457  0.4652  0.4900 -0.9744
 1826SOL    HW216938   2.958   0.218   6.383 -0.9589  1.3581 -0.3500
 1827SOL     OW16939   3.527   0.202   7.972 -0.0492 -0.1053 -0.2934
 1827SOL    HW116940   3.545   0.111   7.947  3.8431  0.2816  1.2115
 1827SOL    HW216941   3.611   0.247   7.973 -1.0897  1.8157 -0.8465
 1828SOL     OW16942   0.153   3.315   2.597 -0.1690 -0.3920  0.0915
 1828SOL    HW116943   0.246   3.295   2.608 -0.5005 -1.7255  0.5671
 1828SOL    HW216944   0.137   3.404   2.627  1.2027 -0.0484 -0.2052
 1829SOL     OW16945   0.816   0.129   6.009 -0.4249 -0.1028 -0.4948
 1829SOL    HW116946   0.848   0.042   5.985  0.1213 -1.1258  3.8498
 1829SOL    HW216947   0.753   0.102   6.076  0.0221 -1.7873 -0.7646
 1830SOL     OW16948   2.246   4.365   0.957  0.4299 -0.2266 -0.3573
 1830SOL    HW116949   2.267   4.430   0.889  1.5764 -0.6628 -0.4184
 1830SOL    HW216950   2.154   4.390   0.969  1.3193  2.6473  0.6684
 1831SOL     OW16951   0.116   2.287  11.207 -0.0798  0.5992 -0.1236
 1831SOL    HW116952   0.173   2.323  11.139 -0.2620 -1.0096 -1.1388
 1831SOL    HW216953   0.058   2.226  11.161  1.1568  0.1060 -1.0255
 1832SOL     OW16954   3.696   3.384   9.338  0.0375  0.5122  0.0723
 1832SOL    HW116955   3.601   3.396   9.329 -0.2966 -2.8648 -0.9132
 1832SOL    HW216956   3.720   3.394   9.246  3.9098 -1.6914  0.8710
 1833SOL     OW16957   0.510   3.815  17.638  0.2707  0.5230  0.2195
 1833SOL    HW116958   0.500   3.728  17.676 -0.5223  0.5133 -0.0147
 1833SOL    HW216959   0.592   3.845  17.677 -0.4015 -0.1674  2.1094
 1834SOL     OW16960   2.236   2.652   2.214 -0.2423  0.2689  0.9943
 1834SOL    HW116961   2.159   2.644   2.270 -1.3113  0.9969 -0.3791
 1834SOL    HW216962   2.278   2.567   2.227 -0.3310  0.0325 -0.2805
 1835SOL     OW16963   0.137   4.498   9.421 -0.0386 -0.5081  0.0198
 1835SOL    HW116964   0.174   4.410   9.414  2.5781  0.5712  0.4186
 1835SOL    HW216965   0.083   4.498   9.342 -1.0524 -1.1414  0.7119
 1836SOL     OW16966   0.785   1.535   2.893  0.2128 -0.0126  0.2535
 1836SOL    HW116967   0.724   1.468   2.924 -0.2864 -0.9512 -2.7465
 1836SOL    HW216968   0.725   1.588   2.841  0.0955  0.9368  1.3571
 1837SOL     OW16969   0.057   1.740   8.805  0.1024  0.1726  0.2426
 1837SOL    HW116970   4.718   1.814   8.812  0.0151 -0.0628  2.0028
 1837SOL    HW216971   0.122   1.776   8.745 -0.1365  0.6622  0.2783
 1838SOL     OW16972   4.206   2.339   2.511  0.3092 -0.2188 -0.2728
 1838SOL    HW116973   4.158   2.329   2.429 -1.0429 -0.6785  0.5745
 1838SOL    HW216974   4.248   2.253   2.507 -3.3754 -2.0891  1.4892
 1839SOL     OW16975   4.369   3.983   1.260 -0.2126  0.0798  0.1720
 1839SOL    HW116976   4.396   4.066   1.300 -0.4544  0.1386  0.2181
 1839SOL    HW216977   4.278   4.003   1.238 -1.2668 -0.6785  3.9091
 1840SOL     OW16978   4.544   1.180   4.066 -0.0901 -0.3738  0.4673
 1840SOL    HW116979   4.461   1.212   4.030  0.1411  1.4445  1.5197
 1840SOL    HW216980   4.605   1.204   3.997 -1.6484  2.5233  0.0948
 1841SOL     OW16981   1.213   0.591   9.475 -0.5986  0.4051  0.0085
 1841SOL    HW116982   1.244   0.680   9.460 -3.1875  1.2624 -0.2513
 1841SOL    HW216983   1.288   0.534   9.456 -2.1496 -1.8763  0.7450
 1842SOL     OW16984   1.949   1.770   4.952 -0.1402  0.2618  0.4870
 1842SOL    HW116985   1.963   1.687   4.906  2.6713  0.7759  0.4376
 1842SOL    HW216986   2.021   1.780   5.014  1.4639 -0.6865 -1.2376
 1843SOL     OW16987   4.023   2.344   5.738  0.0655 -0.2431  0.1041
 1843SOL    HW116988   3.979   2.412   5.687  1.4876 -1.0763 -2.2493
 1843SOL    HW216989   3.952   2.281   5.746  0.9905 -0.8580  3.6292
 1844SOL     OW16990   0.894   1.227   2.958 -0.1051  0.2947 -0.2280
 1844SOL    HW116991   0.887   1.225   2.862 -1.9860  1.3097 -0.1184
 1844SOL    HW216992   0.803   1.255   2.971  0.6313  2.1239  0.9509
 1845SOL     OW16993   0.564   2.283   1.436 -0.0793  0.8401  0.2363
 1845SOL    HW116994   0.654   2.315   1.441 -0.1543  1.0568  0.1941
 1845SOL    HW216995   0.586   2.191   1.420 -1.1475  0.6928 -0.4736
 1846SOL     OW16996   1.864   0.353   6.185 -0.3017 -0.0663  0.5314
 1846SOL    HW116997   1.825   0.437   6.211  1.7789  1.3013 -0.7408
 1846SOL    HW216998   1.903   0.369   6.099 -2.2458  1.7867 -0.0313
 1847SOL     OW16999   2.557   2.217   6.378  0.2004 -0.2363  0.7316
 1847SOL    HW117000   2.540   2.242   6.469 -2.4701 -1.0363  0.4531
 1847SOL    HW217001   2.623   2.284   6.359 -0.6864  0.9784  1.9031
 1848SOL     OW17002   2.836   3.096  13.463 -0.1383  0.0285 -1.1203
 1848SOL    HW117003   2.920   3.137  13.485 -0.4901  0.8899 -1.3974
 1848SOL    HW217004   2.827   3.025  13.527 -0.8449 -0.9436 -2.3092
 1849SOL     OW17005   3.818   1.076   9.280  0.6864  0.0260  0.2770
 1849SOL    HW117006   3.792   1.090   9.372  0.2272 -1.3000  0.3549
 1849SOL    HW217007   3.848   0.985   9.286 -1.0502 -0.6358 -1.1590
 1850SOL     OW17008   0.888   2.302  16.178 -0.2068  0.5594  0.1446
 1850SOL    HW117009   0.798   2.272  16.160 -0.3037  2.3315 -2.4338
 1850SOL    HW217010   0.936   2.306  16.095 -0.9350 -0.5988 -0.3335
 1851SOL     OW17011   4.125   2.012   0.148  0.1864 -0.8085 -0.2454
 1851SOL    HW117012   4.137   1.988   0.240 -1.2488  1.2457  0.4854
 1851SOL    HW217013   4.055   2.078   0.146  1.3070  0.3641 -1.0228
 1852SOL     OW17014   1.453   2.048   4.323  0.3543 -0.4217  0.1913
 1852SOL    HW117015   1.385   1.980   4.323  0.2414 -0.2993 -0.8425
 1852SOL    HW217016   1.483   2.045   4.232 -0.5983 -0.1303 -0.1339
 1853SOL     OW17017   0.956   2.815   6.362 -0.4771 -0.0819  0.0995
 1853SOL    HW117018   0.948   2.848   6.452  1.9879  0.2969  0.1751
 1853SOL    HW217019   0.873   2.779   6.330  0.7909 -3.1159  0.3181
 1854SOL     OW17020   4.620   4.489   2.335 -0.1259  0.4889  0.0193
 1854SOL    HW117021   4.603   4.458   2.425  2.0429 -1.3531 -0.1990
 1854SOL    HW217022   4.529   4.498   2.307 -0.8488 -1.7374  1.5850
 1855SOL     OW17023   1.445   1.907  11.833  0.2816 -0.0245  0.4100
 1855SOL    HW117024   1.399   1.828  11.804  4.1673 -2.2070  0.2682
 1855SOL    HW217025   1.522   1.861  11.864  0.4401  1.6285  2.4622
 1856SOL     OW17026   1.058   3.164   5.411 -0.4528 -0.0654  0.0778
 1856SOL    HW117027   0.967   3.183   5.388  0.0504  0.4688 -1.4683
 1856SOL    HW217028   1.058   3.193   5.502 -2.7880 -0.5343  0.2308
 1857SOL     OW17029   1.672   3.397   7.923 -0.2168 -0.1585  0.0371
 1857SOL    HW117030   1.634   3.342   7.991  1.7167 -1.7538 -0.1554
 1857SOL    HW217031   1.741   3.341   7.887  0.8414  0.6307  0.8441
 1858SOL     OW17032   3.672   2.875   3.239 -0.2707 -0.3387 -0.8673
 1858SOL    HW117033   3.619   2.928   3.180 -0.9891 -0.4215 -0.2959
 1858SOL    HW217034   3.657   2.925   3.319  1.5742 -0.0121 -0.7186
 1859SOL     OW17035   0.411   3.318   0.547 -0.1536  0.0714 -0.0531
 1859SOL    HW117036   0.360   3.241   0.570 -0.2087  0.2792  0.5354
 1859SOL    HW217037   0.437   3.344   0.636 -0.7541  1.1885 -0.2082
 1860SOL     OW17038   0.829   1.230  17.066 -0.1503 -0.1896  0.2293
 1860SOL    HW117039   0.923   1.244  17.074 -0.3940  1.1691  0.6247
 1860SOL    HW217040   0.819   1.238  17.161 -2.2884  2.3325 -0.2331
 1861SOL     OW17041   0.219   0.970   7.173  0.6226  0.1301 -0.0090
 1861SOL    HW117042   0.188   0.932   7.255  2.4715 -0.8439  0.2462
 1861SOL    HW217043   0.231   1.059   7.204 -1.4874  0.6506 -0.7261
 1862SOL     OW17044   3.969   2.199   0.061  0.1927 -0.0837 -0.2871
 1862SOL    HW117045   3.963   2.159  17.663 -0.9711 -1.9299  0.6649
 1862SOL    HW217046   3.886   2.172   0.099 -0.1244  2.5114  0.9131
 1863SOL     OW17047   2.099   3.088  11.150  0.1455  0.0111  0.2803
 1863SOL    HW117048   2.151   3.025  11.198  1.1612 -0.0589 -0.9061
 1863SOL    HW217049   2.139   3.106  11.065  0.7428 -3.7497 -0.2228
 1864SOL     OW17050   1.176   3.995   7.878 -0.3176 -0.1075 -0.4651
 1864SOL    HW117051   1.263   3.955   7.889  0.5099  1.8029 -0.1755
 1864SOL    HW217052   1.178   4.041   7.794 -0.6629 -1.2336 -1.0873
 1865SOL     OW17053   2.533   1.583   8.788 -0.3629 -0.5499  0.6804
 1865SOL    HW117054   2.612   1.636   8.788 -0.2570 -0.7127  1.5913
 1865SOL    HW217055   2.506   1.605   8.877 -1.7367 -3.0735  0.8901
 1866SOL     OW17056   1.628   4.076   7.632  0.5626 -0.2608 -0.4031
 1866SOL    HW117057   1.602   4.099   7.721 -2.0900 -1.1144 -0.9493
 1866SOL    HW217058   1.723   4.082   7.627  0.5489  1.2293  0.9166
 1867SOL     OW17059   4.156   2.163  11.478  0.8384 -0.1219 -0.4773
 1867SOL    HW117060   4.251   2.160  11.472  0.8022 -0.3387 -0.9379
 1867SOL    HW217061   4.135   2.190  11.388  0.6117 -1.1968 -0.7416
 1868SOL     OW17062   3.610   2.768   4.162  0.2801 -0.2957  0.6011
 1868SOL    HW117063   3.621   2.768   4.067  2.7425 -2.9962  0.8888
 1868SOL    HW217064   3.517   2.790   4.167  0.2446 -0.0187 -1.3796
 1869SOL     OW17065   2.438   3.910   5.554 -0.6599  0.2389 -0.1669
 1869SOL    HW117066   2.410   3.907   5.645 -0.6760  1.4246 -0.1361
 1869SOL    HW217067   2.426   4.004   5.537  2.6913  0.5186 -1.0506
 1870SOL     OW17068   0.081   2.879   8.409  0.2966 -0.5603 -0.7841
 1870SOL    HW117069   0.175   2.865   8.406  0.1696 -1.9187  1.4553
 1870SOL    HW217070   0.073   2.968   8.446 -2.1219 -0.9921 -0.2844
 1871SOL     OW17071   3.074   3.958  16.277  0.3771  0.0298 -0.0079
 1871SOL    HW117072   3.087   3.864  16.263 -0.2630  0.0081 -0.4686
 1871SOL    HW217073   3.028   3.975  16.195 -0.9586 -0.1649  0.7046
 1872SOL     OW17074   2.651   0.510   3.871 -0.0629 -0.0351 -0.0848
 1872SOL    HW117075   2.681   0.450   3.940  3.4792  2.9137  0.9197
 1872SOL    HW217076   2.584   0.568   3.909 -1.3303 -2.3829  1.2921
 1873SOL     OW17077   4.200   3.522   8.253 -0.2004 -0.5099 -0.1776
 1873SOL    HW117078   4.224   3.450   8.311  0.7416 -0.6116 -0.7024
 1873SOL    HW217079   4.156   3.577   8.318  1.2796  0.4142  0.0495
 1874SOL     OW17080   0.102   4.615   7.497 -0.0182 -0.1245  0.7066
 1874SOL    HW117081   0.100   4.674   7.421 -1.0278  0.8626  1.5135
 1874SOL    HW217082   0.126   4.674   7.569  1.1632 -1.0645  1.0719
 1875SOL     OW17083   2.144   3.199   9.207 -0.6162  0.1299 -0.1132
 1875SOL    HW117084   2.128   3.281   9.162 -0.5202  0.4117  0.3628
 1875SOL    HW217085   2.125   3.223   9.298  0.4235  2.8487 -0.6163
 1876SOL     OW17086   4.620   1.040  15.350  0.0562  0.5713 -0.2916
 1876SOL    HW117087   4.697   1.016  15.403 -0.8143 -0.7709  0.3707
 1876SOL    HW217088   4.629   0.978  15.278 -0.3837  1.2236 -0.8987
 1877SOL     OW17089   1.457   2.741   4.777  0.0242 -0.2699  0.6464
 1877SOL    HW117090   1.483   2.788   4.698  1.6845  2.2297  2.6875
 1877SOL    HW217091   1.443   2.654   4.739 -0.7700 -0.1350  0.6330
 1878SOL     OW17092   0.137   2.966   5.425 -0.0324  0.1777 -0.1698
 1878SOL    HW117093   0.148   2.895   5.361 -1.3904 -0.5025  0.3519
 1878SOL    HW217094   0.231   2.985   5.432 -0.0457  0.1374  0.1117
 1879SOL     OW17095   3.588   2.541   8.137 -0.1290  0.0007  0.3022
 1879SOL    HW117096   3.618   2.624   8.175  1.1085 -1.5231  2.6877
 1879SOL    HW217097   3.650   2.477   8.171  0.3945  0.6931  0.6719
 1880SOL     OW17098   0.972   3.725   7.619 -0.1398 -0.0423  0.0659
 1880SOL    HW117099   1.054   3.699   7.662 -0.3526 -1.6763 -0.4995
 1880SOL    HW217100   0.928   3.741   7.702 -1.0564 -2.3374  0.0345
 1881SOL     OW17101   0.311   0.081  13.656  0.0271 -0.5285 -0.0633
 1881SOL    HW117102   0.258   0.144  13.705 -0.8740  0.3723 -2.2000
 1881SOL    HW217103   0.297   0.002  13.708 -0.3178 -1.5984 -1.7825
 1882SOL     OW17104   2.919   3.220   4.243 -0.3153  0.2597  0.0578
 1882SOL    HW117105   2.877   3.204   4.158 -1.1209 -0.6208  0.6218
 1882SOL    HW217106   2.998   3.168   4.233  1.6648  3.5437 -1.5602
 1883SOL     OW17107   0.234   3.266   7.596 -0.2956 -0.3623 -0.2246
 1883SOL    HW117108   0.170   3.308   7.539  0.7144 -0.2768 -1.2954
 1883SOL    HW217109   0.194   3.180   7.607  0.2557 -0.4490  1.0591
 1884SOL     OW17110   2.724   3.075   3.695  0.5241 -0.4013  0.2810
 1884SOL    HW117111   2.806   3.113   3.663 -0.3434 -0.7964 -2.3173
 1884SOL    HW217112   2.706   3.005   3.633  0.3738 -0.9119  0.8994
 1885SOL     OW17113   3.578   0.102  10.268 -0.2172 -0.4747 -0.3585
 1885SOL    HW117114   3.503   0.049  10.294 -0.4151  0.0115  0.0535
 1885SOL    HW217115   3.641   0.078  10.335  0.2592 -1.1524 -1.0493
 1886SOL     OW17116   1.228   3.133  13.832  0.3286  0.8231  0.0328
 1886SOL    HW117117   1.207   3.090  13.915  2.3643 -3.4640 -1.6672
 1886SOL    HW217118   1.287   3.077  13.782 -1.7599 -1.4352  0.1306
 1887SOL     OW17119   0.426   3.165   4.105 -0.7845 -0.1170 -0.0316
 1887SOL    HW117120   0.394   3.075   4.096 -2.5710  0.5201 -0.1481
 1887SOL    HW217121   0.377   3.213   4.039  1.4382  3.4121  0.9342
 1888SOL     OW17122   2.083   3.285   9.496 -0.5251 -0.2860 -0.1035
 1888SOL    HW117123   2.140   3.222   9.540  1.0187  1.9361  1.0929
 1888SOL    HW217124   2.141   3.361   9.497  0.1217 -0.7949  1.9789
 1889SOL     OW17125   1.549   2.090   3.622 -0.1309  0.2457 -0.4131
 1889SOL    HW117126   1.482   2.075   3.555 -0.5902 -0.1332  0.1411
 1889SOL    HW217127   1.557   2.186   3.625 -0.4464  0.2688 -0.2725
 1890SOL     OW17128   2.371   0.050   3.838  0.0018 -0.0559 -0.2166
 1890SOL    HW117129   2.390   0.140   3.866  1.6661 -0.0540 -1.4106
 1890SOL    HW217130   2.357   4.721   3.919  0.1852  1.3082  0.6670
 1891SOL     OW17131   4.617   2.362   2.165 -0.0740  0.1286 -0.8722
 1891SOL    HW117132   4.531   2.347   2.125 -0.4196 -1.1723  0.3793
 1891SOL    HW217133   4.655   2.278   2.140  0.4836  1.2227 -3.7516
 1892SOL     OW17134   3.229   4.640   8.004 -0.4151 -0.3785  0.8723
 1892SOL    HW117135   3.201   4.678   7.920  0.9649  1.3223  1.1655
 1892SOL    HW217136   3.161   4.677   8.059 -0.7075  0.7588 -0.2515
 1893SOL     OW17137   2.511   3.762  17.033 -0.0104  0.1284  0.4181
 1893SOL    HW117138   2.542   3.721  16.952 -0.4835  1.1084 -0.2691
 1893SOL    HW217139   2.556   3.846  17.049 -1.9575  1.0655  0.9902
 1894SOL     OW17140   4.261   1.351   8.962 -0.1313  0.3957  0.5809
 1894SOL    HW117141   4.323   1.323   8.894  3.1271  0.9891  3.2675
 1894SOL    HW217142   4.284   1.297   9.038 -0.6016  0.2936  0.6466
 1895SOL     OW17143   3.573   3.754   3.582 -0.1549  0.4033  0.2005
 1895SOL    HW117144   3.613   3.737   3.667  1.2288  0.2145 -0.4865
 1895SOL    HW217145   3.614   3.831   3.543 -0.1938  0.4371  0.2269
 1896SOL     OW17146   1.205   3.474   5.905  0.2682  0.3318 -0.2377
 1896SOL    HW117147   1.271   3.489   5.837  1.2043  1.0713  0.8179
 1896SOL    HW217148   1.202   3.379   5.906  2.9057  0.2626  0.9457
 1897SOL     OW17149   1.368   1.676   0.167 -0.0142  0.0466 -0.1288
 1897SOL    HW117150   1.406   1.589   0.174 -2.1227 -0.9752 -1.3210
 1897SOL    HW217151   1.393   1.696   0.257 -2.1510  0.2122  0.4181
 1898SOL     OW17152   1.055   3.843  11.823  0.0132 -0.3268 -0.4706
 1898SOL    HW117153   1.004   3.903  11.769  0.6316  0.3504 -0.3101
 1898SOL    HW217154   1.071   3.895  11.902  1.8847 -3.9194  1.4878
 1899SOL     OW17155   4.717   1.175   3.074  0.2214 -0.2519 -0.4306
 1899SOL    HW117156   4.711   1.136   2.986  0.1013 -2.9803  0.8003
 1899SOL    HW217157   4.636   1.226   3.074 -1.1069 -2.4156  1.9800
 1900SOL     OW17158   3.624   3.747  12.055  0.5670 -0.9223 -0.0536
 1900SOL    HW117159   3.614   3.744  11.960 -0.3083  1.6214 -0.0523
 1900SOL    HW217160   3.537   3.719  12.082  0.7223 -0.2389  1.1612
 1901SOL     OW17161   1.105   0.174   6.451  0.5294  0.2531 -0.3648
 1901SOL    HW117162   1.150   0.137   6.527 -0.1725  0.9572  0.3994
 1901SOL    HW217163   1.079   0.262   6.481  2.8322  0.9565 -0.4587
 1902SOL     OW17164   4.699   0.419   4.449 -0.0538 -0.6301  0.3469
 1902SOL    HW117165   4.712   0.504   4.408  1.6217 -0.0076  2.1948
 1902SOL    HW217166   4.678   0.362   4.374 -1.8601 -0.9194  1.0524
 1903SOL     OW17167   1.023   3.260   6.589 -0.7017 -0.3483  0.1579
 1903SOL    HW117168   0.935   3.300   6.593 -0.7913 -0.6323  0.9620
 1903SOL    HW217169   1.022   3.239   6.682  1.2131 -0.4907  0.1411
 1904SOL     OW17170   0.686   0.331   1.653 -0.1960 -0.1158 -0.7362
 1904SOL    HW117171   0.612   0.391   1.668 -0.8488 -0.5898 -2.0553
 1904SOL    HW217172   0.660   0.280   1.730 -1.0735  1.3369 -0.0510
 1905SOL     OW17173   3.863   1.971  15.528  0.4661  0.4164  0.1447
 1905SOL    HW117174   3.854   2.067  15.528  0.1144  0.3837  0.2137
 1905SOL    HW217175   3.861   1.963  15.432  3.7553 -0.8122  0.1614
 1906SOL     OW17176   3.252   2.275  15.118 -0.1286  0.0588 -0.3589
 1906SOL    HW117177   3.202   2.206  15.161 -0.1589 -0.5164 -1.3056
 1906SOL    HW217178   3.234   2.349  15.175 -0.8217  0.7676 -1.5019
 1907SOL     OW17179   0.137   1.447  14.643 -0.1302  0.3324 -0.2129
 1907SOL    HW117180   0.173   1.495  14.569  0.3760 -0.0028 -0.1808
 1907SOL    HW217181   0.192   1.369  14.636  1.5348  1.6032 -1.3533
 1908SOL     OW17182   0.749   0.673   7.319  0.0141  0.3937  0.7200
 1908SOL    HW117183   0.763   0.746   7.379 -3.0357  1.7273 -0.1790
 1908SOL    HW217184   0.804   0.605   7.358  0.9313  0.8662  0.2498
 1909SOL     OW17185   4.401   4.314  13.053  0.2147 -0.6474  0.4832
 1909SOL    HW117186   4.392   4.218  13.056  0.1923 -0.6434  0.5452
 1909SOL    HW217187   4.308   4.330  13.065  0.6827  0.9995  1.8812
 1910SOL     OW17188   1.274   1.079  10.876 -0.1182  0.0504 -0.4955
 1910SOL    HW117189   1.286   1.139  10.802  1.4971  0.2637 -0.0689
 1910SOL    HW217190   1.197   1.030  10.845 -0.2129  0.7331 -1.3384
 1911SOL     OW17191   3.521   1.405   6.166  0.1143 -0.3975 -0.1028
 1911SOL    HW117192   3.574   1.363   6.098 -1.7857 -1.6283 -0.8165
 1911SOL    HW217193   3.587   1.418   6.235  0.3561  0.1828 -0.4443
 1912SOL     OW17194   4.038   4.301   3.658 -0.2245 -0.2601 -0.0138
 1912SOL    HW117195   4.097   4.251   3.602 -1.7395 -1.6770 -0.3352
 1912SOL    HW217196   4.103   4.355   3.703  0.4125 -1.7945  0.9109
 1913SOL     OW17197   1.693   2.897   9.403 -0.2537 -0.5223 -0.3158
 1913SOL    HW117198   1.622   2.927   9.460  1.7603 -0.1350  1.9778
 1913SOL    HW217199   1.741   2.836   9.459  1.3237 -0.7739 -1.9618
 1914SOL     OW17200   2.840   1.981   0.274  0.1024  0.5826  0.1594
 1914SOL    HW117201   2.879   1.913   0.328 -0.0976  1.1502  1.0190
 1914SOL    HW217202   2.878   2.057   0.318 -2.0893  1.5982  0.3089
 1915SOL     OW17203   0.300   3.289  12.744 -0.4362 -0.6021 -0.0587
 1915SOL    HW117204   0.382   3.286  12.694 -0.1668  0.6988  0.3226
 1915SOL    HW217205   0.346   3.310  12.825  0.8222 -0.3929 -0.8354
 1916SOL     OW17206   1.461   1.765   7.778 -0.5199 -0.1256  0.5141
 1916SOL    HW117207   1.508   1.782   7.697  3.0652  1.2818  2.8982
 1916SOL    HW217208   1.381   1.730   7.738 -1.3684  1.6568  0.6371
 1917SOL     OW17209   3.489   1.997   3.994  0.3686  0.0517  0.2211
 1917SOL    HW117210   3.453   1.935   4.057  0.4479  0.2438  0.4580
 1917SOL    HW217211   3.562   2.040   4.040  1.1656  0.7358 -1.6782
 1918SOL     OW17212   2.412   1.924   9.361 -0.4861 -0.2380  0.2030
 1918SOL    HW117213   2.323   1.903   9.332  0.0668  0.7488 -2.2719
 1918SOL    HW217214   2.416   2.006   9.311  0.0969 -0.1973  0.3174
 1919SOL     OW17215   1.788   3.458   1.580  0.2211  0.3604  0.9377
 1919SOL    HW117216   1.865   3.406   1.559  0.1121 -0.0165  1.4787
 1919SOL    HW217217   1.826   3.542   1.607  0.1375  1.7539 -3.2347
 1920SOL     OW17218   0.539   2.812  14.429 -0.4116  0.4513 -1.0725
 1920SOL    HW117219   0.571   2.888  14.477  0.6173 -0.1294 -0.8464
 1920SOL    HW217220   0.615   2.772  14.387 -0.7924 -1.9050  0.4640
 1921SOL     OW17221   0.558   3.805   3.468  0.3465  0.4403 -0.4026
 1921SOL    HW117222   0.622   3.865   3.505  1.7136  0.1893 -2.4179
 1921SOL    HW217223   0.604   3.721   3.463 -1.5485 -0.6208 -0.2188
 1922SOL     OW17224   1.905   2.277  11.912  0.0227 -0.6432 -0.3410
 1922SOL    HW117225   1.848   2.246  11.982 -0.0560 -3.3120 -1.5451
 1922SOL    HW217226   1.849   2.330  11.857  1.8612  0.3769 -1.2371
 1923SOL     OW17227   2.144   3.359   6.812 -0.0581  0.4325 -0.2348
 1923SOL    HW117228   2.234   3.389   6.802  0.0461  0.5976  1.1248
 1923SOL    HW217229   2.137   3.289   6.747  1.8552  0.5497 -0.5840
 1924SOL     OW17230   2.718   1.652   6.175 -0.2121 -0.5284  0.0916
 1924SOL    HW117231   2.792   1.592   6.176 -1.9508 -2.7191 -2.2568
 1924SOL    HW217232   2.693   1.670   6.085  1.7422  2.5425  0.1941
 1925SOL     OW17233   1.506   1.386  10.494 -0.1045 -0.7490  0.3137
 1925SOL    HW117234   1.488   1.375  10.401 -0.9229  3.3736 -0.0062
 1925SOL    HW217235   1.445   1.455  10.519  2.2599  0.6965  2.0738
 1926SOL     OW17236   1.294   2.179   7.146 -0.0230 -0.2839 -0.3381
 1926SOL    HW117237   1.239   2.222   7.080 -0.0180 -0.0519 -0.1918
 1926SOL    HW217238   1.322   2.101   7.099 -0.1996 -0.4505 -0.1637
 1927SOL     OW17239   0.590   3.800   8.456  0.5411 -0.6112 -0.0392
 1927SOL    HW117240   0.670   3.775   8.410  0.0754 -0.9893 -0.6420
 1927SOL    HW217241   0.532   3.837   8.390  0.4299 -1.3214 -0.3337
 1928SOL     OW17242   3.255   3.229   0.978 -0.3309  0.0230  0.5378
 1928SOL    HW117243   3.229   3.251   0.889 -0.7522 -1.3561  0.3094
 1928SOL    HW217244   3.273   3.135   0.978 -2.3016 -0.3457  0.4463
 1929SOL     OW17245   2.305   3.846   1.285 -0.0262  0.1650 -0.0671
 1929SOL    HW117246   2.384   3.866   1.335 -1.0882 -1.6886  2.3310
 1929SOL    HW217247   2.325   3.795   1.206  3.8089  1.0289  0.3447
 1930SOL     OW17248   1.244   3.750   4.124  0.5158  0.1507 -0.3265
 1930SOL    HW117249   1.163   3.711   4.156  0.1224  2.3205  1.3363
 1930SOL    HW217250   1.263   3.696   4.047 -1.9811 -0.9307 -0.1807
 1931SOL     OW17251   0.307   2.180  11.366  0.1319  0.2102 -0.3046
 1931SOL    HW117252   0.358   2.258  11.390  1.2876  0.1297 -2.4872
 1931SOL    HW217253   0.244   2.228  11.312  0.0432 -1.6484 -1.8563
 1932SOL     OW17254   4.696   0.222  10.223 -0.1713  0.5038  0.0442
 1932SOL    HW117255   4.607   0.210  10.192 -0.8418  0.9370  1.8313
 1932SOL    HW217256   4.695   0.310  10.261  1.1716  0.2527  0.6657
 1933SOL     OW17257   4.658   2.829   6.759 -0.6193 -0.1293 -0.3585
 1933SOL    HW117258   0.015   2.796   6.802 -1.0174  0.9011  1.1862
 1933SOL    HW217259   4.693   2.912   6.727 -2.6310 -0.1308 -2.5324
 1934SOL     OW17260   4.360   1.501  10.109 -0.0771 -0.7314  0.0693
 1934SOL    HW117261   4.377   1.418  10.065 -2.1102 -0.7309 -0.7244
 1934SOL    HW217262   4.281   1.529  10.063  0.4534 -0.1568 -0.4996
 1935SOL     OW17263   2.484   1.474  10.838  0.4492  0.7836  0.4292
 1935SOL    HW117264   2.420   1.505  10.774  0.9834 -0.9685 -0.9098
 1935SOL    HW217265   2.570   1.467  10.796  0.2201 -1.0053  0.2962
 1936SOL     OW17266   3.120   1.562   4.188  0.1476  0.3619  0.2015
 1936SOL    HW117267   3.144   1.645   4.231  1.3080  0.2393 -0.1978
 1936SOL    HW217268   3.043   1.598   4.145 -1.4267 -1.9134  1.1750
 1937SOL     OW17269   4.311   3.067   5.225 -0.0655 -0.3540  0.1278
 1937SOL    HW117270   4.291   3.153   5.190 -1.9081 -0.4470  0.9889
 1937SOL    HW217271   4.330   3.084   5.318 -1.8852  0.6932  0.2875
 1938SOL     OW17272   3.686   4.301   4.019 -0.0704 -0.1793 -0.4157
 1938SOL    HW117273   3.603   4.335   4.052 -0.6388 -1.0315 -0.9500
 1938SOL    HW217274   3.734   4.382   4.001 -1.0923  0.0979 -1.9748
 1939SOL     OW17275   0.878   1.232  13.850  0.1862 -0.3140  0.3205
 1939SOL    HW117276   0.794   1.188  13.833 -0.0615  0.8602 -1.4792
 1939SOL    HW217277   0.850   1.323  13.846 -0.5662 -0.5621 -0.1644
 1940SOL     OW17278   0.779   1.218   8.852  0.0677 -0.5006 -0.5583
 1940SOL    HW117279   0.842   1.290   8.850  0.3662 -0.8130 -2.1781
 1940SOL    HW217280   0.700   1.269   8.836 -0.1334  0.0618  2.1819
 1941SOL     OW17281   1.691   0.004  17.429 -0.3282  0.2766 -0.3197
 1941SOL    HW117282   1.695   4.649  17.373 -0.5159 -0.2083  0.3264
 1941SOL    HW217283   1.632   4.693  17.498  1.0426  0.6057  1.0046
 1942SOL     OW17284   1.428   3.670   4.323 -0.5663  0.1082 -0.5511
 1942SOL    HW117285   1.394   3.581   4.329 -0.7788  0.2340  0.1211
 1942SOL    HW217286   1.366   3.705   4.260  1.0919 -1.7640 -3.2312
 1943SOL     OW17287   1.807   0.628   5.195  0.3512  0.0659 -0.4246
 1943SOL    HW117288   1.724   0.659   5.160 -0.4043  0.4272  1.6430
 1943SOL    HW217289   1.859   0.708   5.192  0.2271  0.1928  0.7566
 1944SOL     OW17290   1.625   4.643   2.121 -0.5144 -0.9227  0.4464
 1944SOL    HW117291   1.669   0.002   2.148 -0.9755 -0.5193 -0.0277
 1944SOL    HW217292   1.696   4.585   2.149  0.6371 -0.6209 -1.8608
 1945SOL     OW17293   1.343   1.907   7.074 -0.4277 -0.6327  0.0064
 1945SOL    HW117294   1.279   1.837   7.086 -1.6906  0.6013  0.4911
 1945SOL    HW217295   1.352   1.903   6.979  0.2064 -1.8438  0.1209
 1946SOL     OW17296   2.449   0.004  16.769  0.2673  0.2753  0.1758
 1946SOL    HW117297   2.460   4.648  16.714 -0.2811  1.1808 -1.2067
 1946SOL    HW217298   2.362   0.037  16.748 -0.3735 -0.7453  1.2221
 1947SOL     OW17299   3.520   2.852  15.783 -0.5817  0.5789 -0.0614
 1947SOL    HW117300   3.574   2.904  15.842  2.1845 -1.5706 -0.6751
 1947SOL    HW217301   3.443   2.847  15.841 -0.3679 -0.6925  0.1191
 1948SOL     OW17302   4.713   1.614   8.348  0.0062 -0.2216  0.4372
 1948SOL    HW117303   4.632   1.613   8.399  0.2137 -0.1901  0.7612
 1948SOL    HW217304   4.707   1.700   8.307  1.2637  0.8286  2.5020
 1949SOL     OW17305   3.637   2.186   8.136  0.4336  0.2756 -0.2330
 1949SOL    HW117306   3.588   2.114   8.177  2.1531 -2.1651 -2.3938
 1949SOL    HW217307   3.583   2.256   8.171  0.3813  0.4649 -0.7067
 1950SOL     OW17308   1.084   1.960   9.086  0.8365 -0.0797 -0.1745
 1950SOL    HW117309   1.067   1.985   9.177 -0.5723 -0.6220 -0.2924
 1950SOL    HW217310   1.172   1.997   9.073  1.4635 -1.5561 -0.2637
 1951SOL     OW17311   1.086   1.399  10.670 -0.3338 -0.1542 -0.3112
 1951SOL    HW117312   0.995   1.381  10.645 -0.4508  0.1735 -0.1117
 1951SOL    HW217313   1.100   1.489  10.641 -1.4162 -0.0509 -0.5201
 1952SOL     OW17314   1.732   2.458   2.858  0.4684 -0.2772 -0.3602
 1952SOL    HW117315   1.820   2.495   2.859 -0.4125  1.7830  1.4307
 1952SOL    HW217316   1.683   2.540   2.860 -1.0083 -1.1137 -2.3961
 1953SOL     OW17317   1.463   0.149  12.058 -0.1720  0.3904 -0.3344
 1953SOL    HW117318   1.450   0.223  11.999 -0.1443  0.1622 -0.6265
 1953SOL    HW217319   1.379   0.103  12.059  0.7774 -1.3085  2.4628
 1954SOL     OW17320   4.656   4.417   5.267 -0.4990  0.5121  0.0697
 1954SOL    HW117321   4.685   4.475   5.337 -0.7830 -1.7993  2.0813
 1954SOL    HW217322   4.581   4.467   5.235 -0.0379  0.5219 -0.9881
 1955SOL     OW17323   1.086   2.192  14.410  0.2966  0.4541  0.0002
 1955SOL    HW117324   1.123   2.247  14.341 -1.8071  1.6852 -0.1515
 1955SOL    HW217325   1.019   2.137  14.370  1.6831 -1.4654  0.3024
 1956SOL     OW17326   1.535   3.396  12.554  0.1321  0.0569  0.5768
 1956SOL    HW117327   1.622   3.372  12.522 -1.1517 -0.2648 -2.6983
 1956SOL    HW217328   1.530   3.367  12.645 -1.7556  0.1614  0.4954
 1957SOL     OW17329   3.475   0.367  11.449 -0.1989  0.0109  0.2161
 1957SOL    HW117330   3.463   0.293  11.508 -2.0404  0.3964  0.3307
 1957SOL    HW217331   3.538   0.319  11.396 -0.2157 -1.1020  1.2205
 1958SOL     OW17332   2.631   3.039   4.667 -0.0496  0.1345  0.0468
 1958SOL    HW117333   2.567   3.101   4.703  0.7926  1.1629 -0.2442
 1958SOL    HW217334   2.638   3.075   4.579 -1.9128 -0.9636 -0.5472
 1959SOL     OW17335   2.882   1.243   9.905 -0.4670  0.0779  0.0558
 1959SOL    HW117336   2.842   1.161   9.874 -1.3416  0.5641 -0.0929
 1959SOL    HW217337   2.865   1.243   9.999 -0.2488 -0.6234  0.0996
 1960SOL     OW17338   0.685   2.130   2.233 -0.0800 -0.2895 -0.2408
 1960SOL    HW117339   0.776   2.139   2.206 -0.6220  3.6353 -0.8048
 1960SOL    HW217340   0.654   2.061   2.175 -0.2591 -0.0531 -0.4293
 1961SOL     OW17341   2.179   0.604  12.395 -0.3773 -0.0042 -0.8898
 1961SOL    HW117342   2.265   0.641  12.372 -1.0420  1.7316 -0.5491
 1961SOL    HW217343   2.121   0.638  12.327  0.1182  0.1066 -1.2571
 1962SOL     OW17344   3.673   4.062   8.813  0.5333 -0.3522  0.0096
 1962SOL    HW117345   3.602   4.083   8.752 -0.7131  0.6266  1.8213
 1962SOL    HW217346   3.744   4.087   8.753 -0.8746 -1.0081 -1.9580
 1963SOL     OW17347   0.161   1.425   8.238 -0.4881  0.4357 -0.0477
 1963SOL    HW117348   0.137   1.337   8.268  0.8377  0.1252  0.0664
 1963SOL    HW217349   0.089   1.469   8.284  1.1043  1.0901  1.7887
 1964SOL     OW17350   4.659   3.178   5.715  0.0391 -0.0435 -0.8221
 1964SOL    HW117351   4.600   3.155   5.787  2.0599  0.0772  0.8891
 1964SOL    HW217352   4.707   3.250   5.757 -0.4496  0.1692 -0.6284
 1965SOL     OW17353   0.963   2.427  16.461  0.0464  0.6568 -0.4763
 1965SOL    HW117354   0.966   2.396  16.370  1.3281  2.3273 -1.0093
 1965SOL    HW217355   1.035   2.488  16.450 -0.2941  1.4704  1.8347
 1966SOL     OW17356   0.581   2.159  15.856 -0.3006  0.0886  0.3789
 1966SOL    HW117357   0.665   2.120  15.831 -0.4068 -0.0440  0.2287
 1966SOL    HW217358   0.544   2.204  15.781 -0.6453  1.3698  1.3193
 1967SOL     OW17359   3.096   3.854   9.226  0.0128 -0.4625  0.6058
 1967SOL    HW117360   3.173   3.836   9.280  0.2660  3.4594  1.5507
 1967SOL    HW217361   3.065   3.765   9.210 -2.0254  0.1519  1.2072
 1968SOL     OW17362   1.873   0.277  15.904 -0.6066 -0.0404 -0.0753
 1968SOL    HW117363   1.854   0.361  15.946  3.0353  1.8121 -2.1221
 1968SOL    HW217364   1.913   0.308  15.823 -1.6707  1.0174 -0.1932
 1969SOL     OW17365   3.049   4.390   3.438  0.2662  0.0686  0.2774
 1969SOL    HW117366   3.056   4.351   3.351  0.2708 -0.8678  0.7000
 1969SOL    HW217367   3.114   4.459   3.435  1.3297 -0.8496  1.8709
 1970SOL     OW17368   2.351   4.181   5.545  0.4032 -0.5432  0.2643
 1970SOL    HW117369   2.284   4.159   5.609 -0.3967 -0.3677 -0.5162
 1970SOL    HW217370   2.309   4.240   5.482  0.9119 -0.2001  0.2499
 1971SOL     OW17371   1.759   1.324   5.114 -0.4600  0.4042 -0.2385
 1971SOL    HW117372   1.671   1.285   5.114  0.2636 -1.2209 -0.6173
 1971SOL    HW217373   1.788   1.268   5.186 -3.1824 -0.1396  0.4396
 1972SOL     OW17374   2.607   2.489   5.793  0.2283  0.3525 -0.5875
 1972SOL    HW117375   2.651   2.566   5.829  3.3403 -1.2630 -0.9844
 1972SOL    HW217376   2.668   2.469   5.722  1.7120 -1.0888  1.0667
 1973SOL     OW17377   3.067   0.162   0.718  0.0176  0.0833  0.3046
 1973SOL    HW117378   3.117   0.228   0.669  0.4095 -0.3572  0.1034
 1973SOL    HW217379   3.082   0.187   0.809  1.6644  1.9821 -0.4776
 1974SOL     OW17380   2.230   0.245   3.074  0.3325  0.1390  0.3058
 1974SOL    HW117381   2.324   0.260   3.087  0.2500 -0.0286  1.0748
 1974SOL    HW217382   2.191   0.296   3.144  1.4075  1.5711 -0.1331
 1975SOL     OW17383   2.157   0.545   8.011  0.7471 -0.5749 -0.3553
 1975SOL    HW117384   2.221   0.501   7.954 -0.9738 -0.4500 -2.3814
 1975SOL    HW217385   2.157   0.637   7.984 -0.2226 -0.3996  0.2595
 1976SOL     OW17386   3.125   2.255  15.426 -0.1824 -0.3774  0.7580
 1976SOL    HW117387   3.106   2.289  15.513  0.2772 -2.1422  1.5444
 1976SOL    HW217388   3.177   2.328  15.393 -2.9708  0.9870 -0.6403
 1977SOL     OW17389   1.531   0.107   3.176 -1.0001  0.5133 -0.2113
 1977SOL    HW117390   1.501   0.172   3.112  0.3268  1.8938  0.5743
 1977SOL    HW217391   1.447   0.066   3.193 -0.6134 -0.5770 -0.9478
 1978SOL     OW17392   2.294   4.525   5.986 -0.2357 -0.1170  0.1785
 1978SOL    HW117393   2.241   4.463   6.036 -3.5221 -0.1742 -3.3107
 1978SOL    HW217394   2.227   4.571   5.935  0.4638  1.6260  0.8228
 1979SOL     OW17395   2.697   2.054   4.920  0.2226  0.4008 -0.1420
 1979SOL    HW117396   2.730   1.972   4.883 -2.6992 -1.1036  0.5457
 1979SOL    HW217397   2.639   2.077   4.848 -0.9078 -0.5167  0.4667
 1980SOL     OW17398   4.398   4.179   5.619  0.6724 -0.1097 -0.2988
 1980SOL    HW117399   4.429   4.099   5.575  1.0075  0.1947 -0.6187
 1980SOL    HW217400   4.319   4.182   5.565 -0.0832 -4.4238  0.5317
 1981SOL     OW17401   2.051   3.378   7.272 -0.5239  0.4833  0.7433
 1981SOL    HW117402   2.043   3.429   7.192  0.5276  0.6922  0.7717
 1981SOL    HW217403   1.996   3.305   7.242  1.7273  0.3646 -3.1225
 1982SOL     OW17404   2.675   1.536   9.547 -0.2839 -0.5496  0.1753
 1982SOL    HW117405   2.671   1.598   9.474 -0.0708  0.4653  1.0321
 1982SOL    HW217406   2.727   1.461   9.517 -0.2407  0.0202 -1.1326
 1983SOL     OW17407   1.899   2.654   4.359  0.1736  0.6223 -0.3776
 1983SOL    HW117408   1.980   2.615   4.326  0.5795  0.4199  0.8744
 1983SOL    HW217409   1.865   2.594   4.425  0.1088  1.1712  0.0859
 1984SOL     OW17410   2.162   3.408  12.260  0.9269  0.5903  0.1501
 1984SOL    HW117411   2.220   3.431  12.187 -0.3891  0.7832 -0.8280
 1984SOL    HW217412   2.096   3.477  12.263 -0.8760 -1.0429 -2.5658
 1985SOL     OW17413   1.703   3.302   6.236  0.2658 -0.4389  0.0984
 1985SOL    HW117414   1.765   3.282   6.305 -0.8714  0.5137  1.3962
 1985SOL    HW217415   1.623   3.293   6.287  0.6360  1.2132  0.9640
 1986SOL     OW17416   0.777   0.938   8.932  0.6642  0.4948 -0.0660
 1986SOL    HW117417   0.865   0.899   8.929 -0.5247 -2.0984 -2.1117
 1986SOL    HW217418   0.793   1.028   8.905  1.5894  0.4327  0.2619
 1987SOL     OW17419   1.756   0.942  12.205 -0.1902  0.4192  0.1000
 1987SOL    HW117420   1.683   1.004  12.212 -1.3886 -0.9295 -0.4913
 1987SOL    HW217421   1.812   1.004  12.159 -0.0567  1.2911  1.4206
 1988SOL     OW17422   2.491   2.003   4.307  0.4355 -0.1484 -0.4124
 1988SOL    HW117423   2.402   1.988   4.274  0.3533 -0.3972 -0.0804
 1988SOL    HW217424   2.537   2.006   4.224  0.4626  0.8183 -0.3533
 1989SOL     OW17425   3.237   1.202   5.247  0.2266  0.5860  0.0887
 1989SOL    HW117426   3.154   1.156   5.247  0.3264  0.4099 -0.4255
 1989SOL    HW217427   3.293   1.125   5.237 -0.6763 -0.0785  0.2126
 1990SOL     OW17428   2.055   3.647   4.312  0.2993  0.0109 -0.6008
 1990SOL    HW117429   1.985   3.581   4.311 -0.3628  0.7285 -1.8565
 1990SOL    HW217430   2.045   3.688   4.226 -1.5498 -2.3505 -1.5264
 1991SOL     OW17431   4.442   1.474   5.645 -0.3702 -0.3065  0.0310
 1991SOL    HW117432   4.446   1.455   5.551  3.6530 -0.6547  0.2582
 1991SOL    HW217433   4.467   1.392   5.686  1.0745 -0.0059 -0.2406
 1992SOL     OW17434   0.380   2.422  12.036 -0.4655  0.3725  0.1605
 1992SOL    HW117435   0.426   2.402  11.954 -0.5429 -2.7192  0.8577
 1992SOL    HW217436   0.291   2.386  12.028 -0.7991  1.1550  0.3467
 1993SOL     OW17437   4.052   2.214   3.215  0.1618 -0.1749  0.1896
 1993SOL    HW117438   3.960   2.204   3.194  0.4916 -1.0377 -0.8472
 1993SOL    HW217439   4.086   2.169   3.138  0.0505 -1.1851  0.7339
 1994SOL     OW17440   4.261   3.180   3.880  0.1378 -0.2152 -0.0749
 1994SOL    HW117441   4.352   3.207   3.865 -0.1646  0.0678 -1.4382
 1994SOL    HW217442   4.260   3.102   3.824 -0.9829  0.0090 -0.3635
 1995SOL     OW17443   0.077   4.682   6.762  0.3648  0.0690 -0.1604
 1995SOL    HW117444   0.140   4.638   6.706  0.2829 -1.7313  1.1443
 1995SOL    HW217445   0.038   0.028   6.706 -0.8675 -0.2518  0.3000
 1996SOL     OW17446   1.521   4.630   1.884 -0.0586 -0.3491  0.4827
 1996SOL    HW117447   1.515   4.720   1.850  0.7768 -0.7739 -0.7879
 1996SOL    HW217448   1.578   4.646   1.959 -0.0330  2.4366 -0.1099
 1997SOL     OW17449   1.687   1.072   9.698  0.3995  0.1824 -0.2660
 1997SOL    HW117450   1.695   1.005   9.630 -0.2536  1.0776 -1.2289
 1997SOL    HW217451   1.593   1.085   9.696  0.3299 -0.0732  1.0399
 1998SOL     OW17452   2.756   3.072   5.888  0.3458  0.2137  0.1482
 1998SOL    HW117453   2.804   3.122   5.954  0.9429 -1.1698  0.7660
 1998SOL    HW217454   2.817   3.082   5.816  0.0125 -1.8348 -0.4305
 1999SOL     OW17455   3.397   0.897   5.811  0.4458  0.5027  0.3547
 1999SOL    HW117456   3.441   0.904   5.896  0.0298  1.0060  0.5303
 1999SOL    HW217457   3.395   0.802   5.799  1.0490  0.5403  0.0091
 2000SOL     OW17458   2.495   1.135   8.048  0.9024  0.5011 -0.1378
 2000SOL    HW117459   2.496   1.100   8.138  4.8155 -1.7546 -1.0504
 2000SOL    HW217460   2.561   1.203   8.062 -1.0911  1.8216  2.8168
 2001SOL     OW17461   3.550   3.049   4.535 -0.1635 -0.1478  0.4021
 2001SOL    HW117462   3.471   2.998   4.523 -0.3529  0.5288 -1.2347
 2001SOL    HW217463   3.523   3.131   4.493  1.2164 -0.2838 -0.7527
 2002SOL     OW17464   0.727   1.531   8.636  0.0885  0.0313 -0.6409
 2002SOL    HW117465   0.674   1.596   8.681  2.1408  1.1938  0.0989
 2002SOL    HW217466   0.671   1.458   8.609 -0.2368 -0.1067  0.4112
 2003SOL     OW17467   0.046   2.816   3.098  0.1492  0.3858 -0.5808
 2003SOL    HW117468   0.008   2.899   3.129 -2.7370 -1.0440 -0.2838
 2003SOL    HW217469   0.076   2.843   3.011  1.3853  2.3223  0.4447
 2004SOL     OW17470   3.366   0.387  17.359  0.4468  0.1337  0.2987
 2004SOL    HW117471   3.441   0.394  17.300 -0.0989 -1.8693 -0.6001
 2004SOL    HW217472   3.398   0.327  17.427  0.7308  0.8151  0.7705
 2005SOL     OW17473   4.558   2.436  13.636  0.4915 -0.4318 -0.5864
 2005SOL    HW117474   4.611   2.417  13.714 -1.3214  2.3935  1.3051
 2005SOL    HW217475   4.585   2.362  13.581 -0.4799 -0.6932 -0.7043
 2006SOL     OW17476   2.854   0.993  12.777  0.4909  0.3332 -0.3001
 2006SOL    HW117477   2.820   1.018  12.691  1.5465  2.2374 -0.1619
 2006SOL    HW217478   2.947   0.994  12.755  0.2330  2.4297 -1.2749
 2007SOL     OW17479   4.208   3.436   6.654  0.4278  0.0481 -0.2938
 2007SOL    HW117480   4.262   3.447   6.732 -0.8676  1.8629  0.3442
 2007SOL    HW217481   4.260   3.383   6.594 -3.4261 -1.8481 -1.9336
 2008SOL     OW17482   3.566   2.671   6.662  0.3358 -0.3953 -0.2998
 2008SOL    HW117483   3.484   2.682   6.710  1.1153 -0.6097  1.0955
 2008SOL    HW217484   3.549   2.578   6.647  0.1136 -0.7336  1.9903
 2009SOL     OW17485   1.444   3.558   2.046 -0.1609  0.1380 -0.0515
 2009SOL    HW117486   1.377   3.569   1.979 -0.9901  2.6129  1.1706
 2009SOL    HW217487   1.505   3.506   1.994 -1.6773 -1.3562 -0.3107
 2010SOL     OW17488   4.410   2.930   7.128 -0.1318  0.0122  0.0498
 2010SOL    HW117489   4.443   2.860   7.184 -0.3036  0.0543  0.2022
 2010SOL    HW217490   4.488   2.985   7.115  0.3397 -1.0467 -1.6355
 2011SOL     OW17491   0.555   1.611  16.010  0.2908 -0.5664 -0.2140
 2011SOL    HW117492   0.502   1.673  15.960 -0.1262  0.8168  1.9353
 2011SOL    HW217493   0.628   1.609  15.947 -0.4032 -1.7113 -0.9916
 2012SOL     OW17494   2.729   0.019   3.760  0.2524  0.0197 -0.8559
 2012SOL    HW117495   2.670   4.665   3.768 -0.2276  0.3956 -0.8563
 2012SOL    HW217496   2.662   0.087   3.750  0.1882  0.2740  1.3878
 2013SOL     OW17497   1.033   1.923   6.896 -0.0438  0.4001 -0.4200
 2013SOL    HW117498   0.987   1.881   6.969 -2.2921  2.2390 -0.7773
 2013SOL    HW217499   0.957   1.942   6.841 -0.2510 -0.1215 -0.3176
 2014SOL     OW17500   3.091   0.146   7.424  0.2083  0.3820  0.9003
 2014SOL    HW117501   3.051   0.232   7.423  0.2376  0.4247  2.9557
 2014SOL    HW217502   3.168   0.159   7.369 -0.1747 -0.3677  0.1889
 2015SOL     OW17503   0.023   3.343  14.228  0.0667 -0.5187  0.0136
 2015SOL    HW117504   0.095   3.280  14.233 -0.9585 -1.7266 -0.3753
 2015SOL    HW217505   0.081   3.420  14.225  0.0728 -0.4946  0.8998
 2016SOL     OW17506   2.860   3.488  10.664 -0.4888 -0.0580 -0.6185
 2016SOL    HW117507   2.847   3.511  10.756 -1.1587 -2.4225 -0.1186
 2016SOL    HW217508   2.771   3.457  10.645 -1.0982  2.0133 -1.1488
 2017SOL     OW17509   3.669   0.797   8.322 -0.1746  0.1619  0.2060
 2017SOL    HW117510   3.584   0.775   8.358 -0.2413  0.5668  0.2972
 2017SOL    HW217511   3.653   0.774   8.230  0.0482 -1.1515  0.5020
 2018SOL     OW17512   1.586   2.270   0.764 -0.0197 -0.0719  0.5163
 2018SOL    HW117513   1.522   2.205   0.794 -1.8943  2.3924  1.8369
 2018SOL    HW217514   1.598   2.326   0.841  1.3517 -0.7514  0.7939
 2019SOL     OW17515   0.693   1.965   2.961 -0.8184 -0.0871  0.3573
 2019SOL    HW117516   0.622   1.994   2.905 -0.2879  0.8590  0.1822
 2019SOL    HW217517   0.644   1.935   3.038 -0.4581 -5.2199 -1.3870
 2020SOL     OW17518   0.995   4.349  17.362  0.0321  0.3295  0.3520
 2020SOL    HW117519   1.026   4.259  17.348  2.7657  1.0695  1.6488
 2020SOL    HW217520   1.080   4.391  17.355  0.0637 -0.0817 -1.7799
 2021SOL     OW17521   2.628   3.458  10.334  0.1787 -0.0187  0.6816
 2021SOL    HW117522   2.572   3.474  10.258  1.1866 -0.4343 -0.1382
 2021SOL    HW217523   2.666   3.545  10.335  3.7219 -1.5724 -0.0645
 2022SOL     OW17524   1.144   4.526  13.691  0.2836 -0.1083 -0.2227
 2022SOL    HW117525   1.086   4.507  13.765  0.7911 -0.1610  0.1635
 2022SOL    HW217526   1.218   4.466  13.700 -0.6476 -1.4753 -1.6402
 2023SOL     OW17527   3.398   4.205  14.038  0.2239 -0.4431 -0.1874
 2023SOL    HW117528   3.321   4.159  14.003 -0.0104  0.5961 -1.0491
 2023SOL    HW217529   3.397   4.272  13.970 -0.0587  0.6184  0.8726
 2024SOL     OW17530   0.785   2.466   0.005 -0.4155 -0.3016  0.2526
 2024SOL    HW117531   0.861   2.416   0.036 -0.0469  0.0036 -0.1718
 2024SOL    HW217532   0.827   2.549  17.671 -0.1033 -0.3829  0.5300
 2025SOL     OW17533   1.120   2.451   6.437 -0.1613 -0.4405 -0.0686
 2025SOL    HW117534   1.094   2.360   6.429 -0.5127 -0.2583 -1.0081
 2025SOL    HW217535   1.054   2.491   6.492 -0.9883 -0.8651 -0.7578
 2026SOL     OW17536   1.862   2.222   4.944 -0.3428 -0.1194  0.4160
 2026SOL    HW117537   1.854   2.157   4.873 -0.8673  2.9452 -2.3337
 2026SOL    HW217538   1.853   2.169   5.023 -4.3704  0.9697  0.6600
 2027SOL     OW17539   0.354   1.363  13.788 -0.1227 -0.1343  0.2755
 2027SOL    HW117540   0.357   1.314  13.871  0.5701  0.0512  0.3569
 2027SOL    HW217541   0.311   1.441  13.823  1.6908  0.9959 -0.0174
 2028SOL     OW17542   2.288   1.383  14.156  0.2949  0.8424  0.0182
 2028SOL    HW117543   2.329   1.412  14.075  2.3847  0.8774  1.0842
 2028SOL    HW217544   2.324   1.454  14.208  0.0648 -0.4933  2.0099
 2029SOL     OW17545   0.546   2.718   8.655 -0.4081 -0.0935 -0.5342
 2029SOL    HW117546   0.456   2.752   8.656  0.2838  1.7318 -0.4281
 2029SOL    HW217547   0.547   2.677   8.568  0.5054  1.0802 -1.0831
 2030SOL     OW17548   1.946   0.280  10.233  0.2694 -0.6169  0.3323
 2030SOL    HW117549   1.860   0.283  10.192  1.3237  1.9962 -1.6664
 2030SOL    HW217550   1.934   0.224  10.309 -1.9479 -1.1511 -0.4128
 2031SOL     OW17551   1.041   2.890  10.593  0.4828  0.0887 -0.3064
 2031SOL    HW117552   1.118   2.936  10.626 -0.3583  2.4505 -1.6207
 2031SOL    HW217553   0.977   2.955  10.622  0.3136 -0.0476 -0.3717
 2032SOL     OW17554   0.305   0.235  15.454  0.4932 -0.4240 -0.6390
 2032SOL    HW117555   0.254   0.252  15.374  1.5568  0.1952 -1.1816
 2032SOL    HW217556   0.396   0.233  15.423  0.7351  2.1515 -0.0884
 2033SOL     OW17557   3.189   3.285   4.539 -0.3374 -0.3611  0.4963
 2033SOL    HW117558   3.104   3.326   4.520  0.4147  0.6372 -0.6897
 2033SOL    HW217559   3.193   3.289   4.635 -0.1067  1.0260  0.4269
 2034SOL     OW17560   0.840   4.028   8.210  0.2208 -0.4789 -0.0992
 2034SOL    HW117561   0.900   3.959   8.182  0.7870 -0.6643  1.5540
 2034SOL    HW217562   0.758   3.995   8.174 -0.2492  1.5180 -0.8471
 2035SOL     OW17563   1.763   0.938  16.058  0.1289 -0.1649  0.7380
 2035SOL    HW117564   1.851   0.904  16.044  0.2775  0.2231  0.7493
 2035SOL    HW217565   1.708   0.880  16.004  0.0716 -0.7739  1.4559
 2036SOL     OW17566   1.629   3.032   3.987 -0.2570  0.1188  0.2757
 2036SOL    HW117567   1.724   3.041   3.999 -0.2574  0.9656 -0.4487
 2036SOL    HW217568   1.626   2.940   4.015 -0.5961  0.2906  0.7962
 2037SOL     OW17569   1.504   1.973   5.336 -0.9442 -0.0600  0.0053
 2037SOL    HW117570   1.530   2.048   5.390  1.2524 -1.1844  0.5356
 2037SOL    HW217571   1.567   1.903   5.352 -0.1443  0.8312  0.8126
 2038SOL     OW17572   0.195   3.819   7.029  0.7775 -0.0335 -0.3782
 2038SOL    HW117573   0.157   3.846   7.112  0.8519 -1.6721  0.1846
 2038SOL    HW217574   0.159   3.887   6.972 -2.7184  0.5403  2.5618
 2039SOL     OW17575   2.557   2.873   3.841  0.0024 -0.2028  0.4419
 2039SOL    HW117576   2.590   2.871   3.930 -0.5957  0.0668  0.6672
 2039SOL    HW217577   2.613   2.937   3.798  0.9844  0.4384  2.6880
 2040SOL     OW17578   3.123   1.629  15.083  0.2803 -0.2674  0.5783
 2040SOL    HW117579   3.193   1.631  15.017  0.2618  0.0947  0.5646
 2040SOL    HW217580   3.052   1.602  15.025 -1.7064  1.5960  2.1343
 2041SOL     OW17581   2.580   1.394   7.790 -0.1932 -0.1618 -0.2929
 2041SOL    HW117582   2.552   1.455   7.722 -2.9115 -0.5202  0.4956
 2041SOL    HW217583   2.591   1.310   7.745 -0.5129 -0.5560  0.3517
 2042SOL     OW17584   2.426   2.750  13.702  0.6351  0.5426 -0.4900
 2042SOL    HW117585   2.492   2.775  13.637  2.1413  0.2923  0.9465
 2042SOL    HW217586   2.419   2.831  13.753 -1.0176 -0.3960  0.7832
 2043SOL     OW17587   2.260   2.332   8.733 -0.2341  0.0750 -0.0259
 2043SOL    HW117588   2.211   2.414   8.727 -1.8085 -0.7689  1.0781
 2043SOL    HW217589   2.226   2.292   8.653  1.2809 -0.2861 -0.4911
 2044SOL     OW17590   3.433   1.082   9.343 -0.0869 -0.0476 -0.3574
 2044SOL    HW117591   3.419   0.988   9.332 -0.8788  0.0245 -0.0112
 2044SOL    HW217592   3.440   1.078   9.439 -0.1830  0.5211 -0.3269
 2045SOL     OW17593   4.216   1.877   2.983 -0.1782 -0.2636  0.0163
 2045SOL    HW117594   4.174   1.795   3.005  1.1719 -0.8888  0.2731
 2045SOL    HW217595   4.232   1.892   2.890 -3.9634  0.1274 -0.5407
 2046SOL     OW17596   3.410   3.172   3.221 -0.2625 -0.6563 -0.2611
 2046SOL    HW117597   3.439   3.229   3.151 -1.3868  0.3589  0.0969
 2046SOL    HW217598   3.492   3.144   3.262  0.6145 -2.2606 -3.0920
 2047SOL     OW17599   0.425   3.867   7.793 -0.1449  0.0160 -0.4880
 2047SOL    HW117600   0.512   3.908   7.796 -0.4207  0.6559 -1.1130
 2047SOL    HW217601   0.445   3.778   7.820  0.4458  1.4693  3.7698
 2048SOL     OW17602   1.782   4.089  10.541  0.0786  0.2983  0.7889
 2048SOL    HW117603   1.693   4.103  10.574 -1.1842 -2.5134 -1.3764
 2048SOL    HW217604   1.828   4.091  10.625  1.7500 -1.0519 -0.0803
 2049SOL     OW17605   4.430   2.539   9.584 -0.5278  0.1554 -0.5338
 2049SOL    HW117606   4.503   2.483   9.558 -1.0437 -0.7072 -0.1215
 2049SOL    HW217607   4.374   2.512   9.511  0.2870  3.9619 -2.5397
 2050SOL     OW17608   4.189   0.607   7.961  0.3932 -0.4420 -0.4996
 2050SOL    HW117609   4.190   0.562   8.046 -3.0805  2.2747  0.9673
 2050SOL    HW217610   4.232   0.686   7.995 -0.2402 -1.2962  2.2754
 2051SOL     OW17611   2.124   3.056   3.625 -0.2203 -0.0030 -0.4361
 2051SOL    HW117612   2.111   3.139   3.670 -0.0388  0.1834 -0.7279
 2051SOL    HW217613   2.189   3.015   3.682 -0.5776 -1.7264 -1.2772
 2052SOL     OW17614   2.209   3.847  12.600  0.1310  0.4043 -0.2247
 2052SOL    HW117615   2.206   3.857  12.505 -2.0594  1.4050 -0.0471
 2052SOL    HW217616   2.211   3.751  12.608 -2.5027  0.1927 -2.0853
 2053SOL     OW17617   3.677   4.704  10.541  0.3065 -0.2795 -0.0868
 2053SOL    HW117618   3.712   4.659  10.618  0.6298  1.5841  0.8687
 2053SOL    HW217619   3.633   4.628  10.504  0.7024 -1.1282  1.1714
 2054SOL     OW17620   1.312   1.803   4.272 -0.5817  0.1804  0.2852
 2054SOL    HW117621   1.322   1.809   4.177 -2.7126 -1.7500 -0.0593
 2054SOL    HW217622   1.239   1.745   4.293 -0.5470  0.5136  1.3086
 2055SOL     OW17623   0.893   2.647  10.618 -0.0338 -0.4746  0.6394
 2055SOL    HW117624   0.870   2.630  10.527 -2.0282 -2.6748  1.5776
 2055SOL    HW217625   0.936   2.733  10.612  1.6028 -1.3129  0.4679
 2056SOL     OW17626   4.435   0.586  14.436  0.2817 -0.2572 -0.0860
 2056SOL    HW117627   4.467   0.601  14.525  0.5403 -1.1595 -0.0317
 2056SOL    HW217628   4.473   0.656  14.382  1.4672 -0.5593  0.3627
 2057SOL     OW17629   2.864   2.486   5.019 -0.2566  0.0499  0.5866
 2057SOL    HW117630   2.904   2.569   5.043  1.2454  0.3005 -2.8066
 2057SOL    HW217631   2.874   2.493   4.924  2.4427  0.7780  0.9203
 2058SOL     OW17632   4.710   1.886   6.192  0.1608  0.4970 -0.3552
 2058SOL    HW117633   4.667   1.827   6.130  0.3329  0.0683 -0.0565
 2058SOL    HW217634   4.669   1.851   6.271 -2.6377 -2.3761 -3.0369
 2059SOL     OW17635   3.178   2.772   8.184 -0.2724 -0.3861 -0.2128
 2059SOL    HW117636   3.236   2.723   8.242  1.2574  2.7883  0.9503
 2059SOL    HW217637   3.184   2.860   8.221  0.6695 -1.5007  2.3076
 2060SOL     OW17638   1.045   4.268   2.203 -0.3973 -0.4798 -0.0962
 2060SOL    HW117639   1.081   4.313   2.279  1.5331 -0.1756 -1.1906
 2060SOL    HW217640   0.994   4.343   2.175  0.7899  0.3107 -0.1115
 2061SOL     OW17641   4.121   2.874   3.838 -0.3673  0.1264 -0.3867
 2061SOL    HW117642   4.128   2.908   3.927  0.0337 -1.3043  0.1334
 2061SOL    HW217643   4.120   2.784   3.872  1.4107  1.1434  2.4107
 2062SOL     OW17644   1.753   1.029   3.186  0.7168 -0.6008  0.0780
 2062SOL    HW117645   1.768   0.965   3.256  1.7913 -1.1337 -0.6382
 2062SOL    HW217646   1.824   1.007   3.125  0.8151 -1.3064  0.4409
 2063SOL     OW17647   0.516   4.215   2.801  0.3443  0.2487  0.0767
 2063SOL    HW117648   0.544   4.194   2.712  2.3303 -0.8357  0.9513
 2063SOL    HW217649   0.420   4.212   2.793  0.2683  0.7758  0.7433
 2064SOL     OW17650   0.271   3.613  14.516  0.1076  0.3182  0.1279
 2064SOL    HW117651   0.361   3.621  14.548  0.1719 -0.3065  0.0905
 2064SOL    HW217652   0.282   3.575  14.428 -1.3554  1.0017 -0.3525
 2065SOL     OW17653   1.962   0.708   9.335 -0.2479 -0.0548 -0.2087
 2065SOL    HW117654   1.892   0.712   9.270 -1.6115  1.3704  1.3388
 2065SOL    HW217655   2.004   0.788   9.303  1.2880 -0.3199  1.0914
 2066SOL     OW17656   3.083   1.536  15.456  0.1673  0.0155 -0.2825
 2066SOL    HW117657   3.108   1.571  15.542  0.4794  0.2139 -0.4552
 2066SOL    HW217658   2.993   1.512  15.478  0.8061 -0.1536  2.1771
 2067SOL     OW17659   0.255   2.988  13.267  0.0625 -0.1394 -0.3880
 2067SOL    HW117660   0.296   2.915  13.222 -2.8412 -1.2347 -1.2437
 2067SOL    HW217661   0.289   3.065  13.223 -2.1796  1.2739  0.3274
 2068SOL     OW17662   4.528   1.549   6.323 -0.5483 -0.4907  0.0568
 2068SOL    HW117663   4.558   1.636   6.349 -1.4405 -0.5300  1.1975
 2068SOL    HW217664   4.535   1.501   6.405 -0.1962  1.7581  1.3405
 2069SOL     OW17665   1.855   3.157   6.026 -0.2410 -0.5297 -0.2846
 2069SOL    HW117666   1.841   3.062   6.037 -2.2878  0.0227  1.9307
 2069SOL    HW217667   1.950   3.159   6.021 -0.2733 -1.4445 -1.3047
 2070SOL     OW17668   0.555   1.920   9.346  0.0684  0.2890 -0.6846
 2070SOL    HW117669   0.622   1.852   9.341 -0.9032 -0.6213 -1.2693
 2070SOL    HW217670   0.604   1.981   9.291 -1.4672 -0.2862 -2.6676
 2071SOL     OW17671   0.640   3.916   8.042 -0.4824  0.8708  0.4143
 2071SOL    HW117672   0.634   3.824   8.017 -1.6132  1.5358 -1.7874
 2071SOL    HW217673   0.599   3.959   7.967  1.4375  0.2178 -1.0184
 2072SOL     OW17674   0.241   2.576   4.274  0.6652  0.3471  0.2160
 2072SOL    HW117675   0.207   2.537   4.354  0.0702 -1.8538 -1.1222
 2072SOL    HW217676   0.160   2.614   4.241  0.8314  0.9931  0.5344
 2073SOL     OW17677   3.879   3.711   2.861 -0.3100 -0.5040 -0.2978
 2073SOL    HW117678   3.898   3.800   2.830 -0.8317  0.2200  1.5047
 2073SOL    HW217679   3.901   3.722   2.953  2.2272  0.0065 -0.9414
 2074SOL     OW17680   1.061   2.342   4.220  0.0622 -0.7948 -0.5332
 2074SOL    HW117681   1.045   2.271   4.158 -2.5443 -1.0859  0.4355
 2074SOL    HW217682   1.091   2.410   4.160  1.3462 -0.7377  0.1719
 2075SOL     OW17683   1.704   3.382   4.633 -0.5989 -0.4110 -1.1475
 2075SOL    HW117684   1.669   3.354   4.548 -1.9894  1.7910 -1.2905
 2075SOL    HW217685   1.633   3.346   4.686  0.5370 -0.2160  0.5314
 2076SOL     OW17686   0.367   2.677   5.349 -0.6564  0.4308 -0.2184
 2076SOL    HW117687   0.289   2.683   5.293 -1.1612 -0.6037  0.3800
 2076SOL    HW217688   0.322   2.662   5.432  1.3863  0.6427  0.9016
 2077SOL     OW17689   1.051   3.782   2.339 -0.6151  0.3228  0.2403
 2077SOL    HW117690   1.001   3.851   2.295 -0.0483  1.9089  2.1038
 2077SOL    HW217691   1.131   3.833   2.348  0.0878 -0.6307 -0.5326
 2078SOL     OW17692   0.931   3.504  17.624 -0.1113 -0.3608 -0.1608
 2078SOL    HW117693   0.929   3.499   0.031  0.5970 -0.5071 -0.1548
 2078SOL    HW217694   1.022   3.491  17.599  0.2197 -0.7748  1.2786
 2079SOL     OW17695   3.227   0.510  17.002 -0.1404  0.3639 -0.2929
 2079SOL    HW117696   3.314   0.506  16.962  0.0125 -0.9731  0.1777
 2079SOL    HW217697   3.200   0.598  16.975 -2.3166 -0.4290 -0.6416
 2080SOL     OW17698   2.468   2.882   9.379 -0.0191 -0.5833  0.4041
 2080SOL    HW117699   2.561   2.881   9.404 -0.2366 -0.4588  1.2250
 2080SOL    HW217700   2.482   2.861   9.287 -0.7699 -1.1049  0.4119
 2081SOL     OW17701   3.320   3.552   5.004  0.1373 -0.1036 -0.0743
 2081SOL    HW117702   3.242   3.600   5.032 -0.2754 -0.6501 -0.2831
 2081SOL    HW217703   3.315   3.467   5.047  1.0509  1.2793  2.7984
 2082SOL     OW17704   4.307   2.172   5.361 -0.5544  0.1650  0.0421
 2082SOL    HW117705   4.326   2.128   5.278  1.1520  0.3445  0.3537
 2082SOL    HW217706   4.213   2.158   5.372 -0.4101 -1.2129 -0.4980
 2083SOL     OW17707   0.831   2.183   5.040  0.0071 -0.3360  0.2404
 2083SOL    HW117708   0.919   2.207   5.068 -0.3416 -0.3716  1.3814
 2083SOL    HW217709   0.808   2.119   5.108  1.3228 -0.6901  0.3563
 2084SOL     OW17710   0.379   0.237  14.545 -0.7866  0.2417 -0.1444
 2084SOL    HW117711   0.450   0.245  14.609 -1.5790 -0.0849  0.7727
 2084SOL    HW217712   0.439   0.206  14.477  0.1776  1.3582  0.1881
 2085SOL     OW17713   4.453   0.148   2.247 -0.1032  0.6944  0.7465
 2085SOL    HW117714   4.537   0.128   2.290 -0.1038 -3.0205 -0.9941
 2085SOL    HW217715   4.401   0.090   2.303  1.0444  1.1296  2.2818
 2086SOL     OW17716   4.127   0.970   7.856  0.0073 -0.5538 -0.2106
 2086SOL    HW117717   4.138   0.992   7.948 -1.1982  0.0045 -0.1954
 2086SOL    HW217718   4.214   0.945   7.826  0.9088 -0.2982  2.2204
 2087SOL     OW17719   2.773   4.140  16.870  0.2013 -0.0893  0.1154
 2087SOL    HW117720   2.868   4.145  16.875  0.1699  0.4091  0.1849
 2087SOL    HW217721   2.760   4.228  16.835 -1.6361  0.1817  1.4585
 2088SOL     OW17722   1.153   3.814   9.578  0.8717 -0.0128  0.1785
 2088SOL    HW117723   1.159   3.832   9.484  1.1043  1.0979  0.4127
 2088SOL    HW217724   1.062   3.843   9.586  0.4721 -1.5332  1.1317
 2089SOL     OW17725   1.502   4.662   9.162  0.1485  0.2316  0.2156
 2089SOL    HW117726   1.417   4.707   9.167 -0.0371 -0.0522 -0.3411
 2089SOL    HW217727   1.534   4.681   9.074 -0.6023  0.7989  0.0659
 2090SOL     OW17728   3.232   3.156  17.306 -0.1937 -0.3515  0.5133
 2090SOL    HW117729   3.300   3.211  17.343  0.9715 -0.7352 -1.0514
 2090SOL    HW217730   3.176   3.155  17.383 -0.2829  0.2247  0.4584
 2091SOL     OW17731   2.342   0.964   8.613  0.3796  0.8167 -0.3834
 2091SOL    HW117732   2.296   0.951   8.530  1.7530 -0.6363 -0.9280
 2091SOL    HW217733   2.354   1.058   8.622  1.0045  0.5290  1.9441
 2092SOL     OW17734   4.666   3.142   4.097 -0.0894  0.0918  0.4863
 2092SOL    HW117735   4.611   3.219   4.106  1.5949  1.3687 -0.0407
 2092SOL    HW217736   4.610   3.094   4.036 -0.0770  1.0417 -0.2749
 2093SOL     OW17737   0.397   0.609   7.017  0.4396  0.0274 -0.5465
 2093SOL    HW117738   0.395   0.615   6.921 -1.4380  0.8214 -0.4413
 2093SOL    HW217739   0.313   0.646   7.042  0.7598 -0.7435  1.6410
 2094SOL     OW17740   1.173   2.177   2.734 -0.4788 -0.2826 -0.4345
 2094SOL    HW117741   1.245   2.215   2.684  0.3398 -0.7167  0.4237
 2094SOL    HW217742   1.209   2.098   2.775  2.5359  0.7854 -1.0376
 2095SOL     OW17743   0.041   1.555   7.983 -0.3646  0.7596 -0.2532
 2095SOL    HW117744   0.074   1.529   8.069 -1.2045 -1.5458 -0.6327
 2095SOL    HW217745   4.671   1.529   7.992  0.6040 -2.1313  1.2001
 2096SOL     OW17746   2.772   4.470   1.584 -0.5384  0.1714 -0.0961
 2096SOL    HW117747   2.768   4.413   1.661  1.0759 -0.4042 -0.4591
 2096SOL    HW217748   2.796   4.552   1.628 -0.6982  0.3286 -0.3036
 2097SOL     OW17749   2.849   4.485   1.198 -0.2884 -0.0252  0.4516
 2097SOL    HW117750   2.799   4.563   1.172  1.1744  0.4877 -0.8100
 2097SOL    HW217751   2.934   4.520   1.224  0.5480 -0.4341 -1.7140
 2098SOL     OW17752   3.556   1.547   6.869 -0.1369  0.1450  0.3063
 2098SOL    HW117753   3.524   1.457   6.872  0.8732 -0.1856  1.0665
 2098SOL    HW217754   3.522   1.572   6.783 -0.3011  1.5856  0.8058
 2099SOL     OW17755   4.071   0.749   4.441 -0.2151  0.1738  0.4107
 2099SOL    HW117756   4.147   0.801   4.467  1.8330 -2.5854 -0.0828
 2099SOL    HW217757   4.000   0.813   4.445  1.4085  1.9196  1.1520
 2100SOL     OW17758   2.717   3.562   1.210 -0.0355  0.1977 -0.1083
 2100SOL    HW117759   2.789   3.607   1.255 -0.9244  2.9504 -1.4146
 2100SOL    HW217760   2.735   3.474   1.241 -1.5375  0.5130  1.6806
 2101SOL     OW17761   0.977   0.492   9.578 -0.2332 -0.3030 -0.1324
 2101SOL    HW117762   0.985   0.409   9.532  0.8598 -0.8562  1.0489
 2101SOL    HW217763   1.052   0.538   9.542 -2.1305  1.2708 -2.0355
 2102SOL     OW17764   2.372   4.385   3.217  0.0585 -0.3387 -0.7792
 2102SOL    HW117765   2.383   4.479   3.204  0.7785 -0.3795 -0.4577
 2102SOL    HW217766   2.440   4.354   3.157  0.6546  0.4212 -0.4923
 2103SOL     OW17767   2.455   4.197   1.488  0.0837  0.3862 -0.6135
 2103SOL    HW117768   2.366   4.164   1.491  0.1361  0.3771  1.0754
 2103SOL    HW217769   2.480   4.163   1.402  0.5404  0.9883 -0.7202
 2104SOL     OW17770   4.553   3.458   3.111 -0.3847  0.9546  0.2708
 2104SOL    HW117771   4.483   3.501   3.160  1.0815  2.0918  1.3444
 2104SOL    HW217772   4.514   3.448   3.024  2.2230  1.7720 -0.9739
 2105SOL     OW17773   2.050   2.750   2.623 -0.1870  0.0373  0.5951
 2105SOL    HW117774   2.049   2.703   2.707 -0.5858 -2.4648 -0.7985
 2105SOL    HW217775   1.957   2.764   2.607  0.2124  0.0747 -1.7416
 2106SOL     OW17776   0.001   1.227   3.825  0.1337  0.0124 -0.2590
 2106SOL    HW117777   0.080   1.173   3.823 -0.3687 -0.7104 -0.5304
 2106SOL    HW217778   4.658   1.184   3.769 -1.8292  2.7121 -0.0304
 2107SOL     OW17779   4.107   3.659   7.374 -0.1510 -0.0104  0.1287
 2107SOL    HW117780   4.071   3.666   7.285  0.1825  0.7791  0.0529
 2107SOL    HW217781   4.199   3.680   7.360  0.1871 -1.5437  0.0259
 2108SOL     OW17782   1.394   1.323  14.965  0.4390  0.3378 -0.4167
 2108SOL    HW117783   1.353   1.357  14.885 -1.4159  0.5866  0.6605
 2108SOL    HW217784   1.424   1.409  14.996  0.6224 -0.0631  0.5201
 2109SOL     OW17785   1.060   0.795   4.614  0.0809 -0.4931 -0.4405
 2109SOL    HW117786   1.094   0.709   4.590  0.2192 -0.5950  0.1021
 2109SOL    HW217787   1.119   0.858   4.572 -0.4801 -1.1501 -2.1967
 2110SOL     OW17788   3.079   0.885   4.016  0.5254  0.1461 -0.0926
 2110SOL    HW117789   3.087   0.796   4.049 -0.9029 -0.0532 -0.2698
 2110SOL    HW217790   3.015   0.923   4.076 -0.1464 -1.9833  0.5343
 2111SOL     OW17791   3.754   3.775   5.457  0.2611 -0.1799 -0.4411
 2111SOL    HW117792   3.796   3.690   5.443  0.4426 -0.1135 -0.3106
 2111SOL    HW217793   3.818   3.812   5.518  0.0110 -0.2707 -0.1239
 2112SOL     OW17794   0.321   4.533   7.185  0.2778  0.4332  0.4659
 2112SOL    HW117795   0.252   4.467   7.189 -1.8435  2.6845  1.7432
 2112SOL    HW217796   0.303   4.580   7.103  1.1136 -0.7285 -0.3719
 2113SOL     OW17797   0.682   2.299  15.449  0.3163 -0.2684 -0.0312
 2113SOL    HW117798   0.661   2.392  15.438  1.7688  0.2527  1.5525
 2113SOL    HW217799   0.625   2.284  15.525  0.3602  0.9276  0.2507
 2114SOL     OW17800   0.570   1.632  12.855 -0.5313 -0.0218 -0.0205
 2114SOL    HW117801   0.577   1.666  12.944  1.5335  0.3302 -0.3109
 2114SOL    HW217802   0.486   1.588  12.852 -0.4994 -0.1337  0.9687
 2115SOL     OW17803   0.938   4.556   0.915  0.1905  0.6470  0.0110
 2115SOL    HW117804   0.960   4.517   0.831 -2.1074  1.9829 -1.2194
 2115SOL    HW217805   0.992   4.634   0.926 -0.5918  1.1065  0.6064
 2116SOL     OW17806   1.713   0.810   7.698  0.2853 -0.8488 -0.0628
 2116SOL    HW117807   1.786   0.860   7.735 -0.4780 -0.6810  1.2025
 2116SOL    HW217808   1.683   0.870   7.629 -1.5763 -1.1879  0.4560
 2117SOL     OW17809   2.263   3.698   2.664 -0.1354  0.3584 -0.1297
 2117SOL    HW117810   2.286   3.719   2.755 -0.1869 -0.9407  0.1897
 2117SOL    HW217811   2.201   3.626   2.678  2.5696 -2.1083 -0.7929
 2118SOL     OW17812   4.659   2.546   5.111  0.1857  0.2352 -0.0830
 2118SOL    HW117813   4.649   2.454   5.137  1.3455  0.1443  0.0698
 2118SOL    HW217814   4.567   2.561   5.095  0.0727  1.4487  1.7155
 2119SOL     OW17815   2.786   1.784   9.112  0.4669 -0.2721 -0.4784
 2119SOL    HW117816   2.735   1.760   9.190 -0.0690 -0.4209 -0.8683
 2119SOL    HW217817   2.870   1.819   9.141 -0.2387 -0.4235  1.7252
 2120SOL     OW17818   0.902   3.980   7.891  0.2655 -0.1471  0.2905
 2120SOL    HW117819   0.916   3.889   7.868  0.3519 -0.6932  2.4772
 2120SOL    HW217820   0.995   3.999   7.884  0.8502 -1.9687  3.2111
 2121SOL     OW17821   1.813   4.655  12.578 -0.0226 -0.2468 -0.3234
 2121SOL    HW117822   1.848   4.566  12.566  0.9281  0.0595  0.1959
 2121SOL    HW217823   1.818   4.692  12.490 -0.6372 -1.4902 -0.8856
 2122SOL     OW17824   0.170   1.065   8.580 -0.2393  0.1795 -0.2980
 2122SOL    HW117825   0.215   1.017   8.650 -0.2948  1.9734  0.9734
 2122SOL    HW217826   0.083   1.072   8.620 -1.5470 -0.4141 -3.0793
 2123SOL     OW17827   3.403   0.072   1.950  0.0083 -0.9206  0.4394
 2123SOL    HW117828   3.417   0.039   1.862  0.8738 -1.4741  0.7814
 2123SOL    HW217829   3.374   4.712   1.991 -1.1860  0.6742  2.7837
 2124SOL     OW17830   1.165   4.079   4.201  0.1478 -0.1098  0.2112
 2124SOL    HW117831   1.173   3.992   4.160  0.7274  0.6500 -1.2713
 2124SOL    HW217832   1.234   4.125   4.155 -0.6963 -0.0039 -0.9308
 2125SOL     OW17833   0.477   0.446   7.858  0.1368 -0.2971 -0.5755
 2125SOL    HW117834   0.384   0.463   7.841  0.7500  1.8409 -1.7664
 2125SOL    HW217835   0.470   0.351   7.855  0.9042 -0.4106  1.1391
 2126SOL     OW17836   1.600   2.504  13.377 -0.7047  0.4027 -0.4260
 2126SOL    HW117837   1.522   2.448  13.374 -0.4061  0.0417 -1.2412
 2126SOL    HW217838   1.588   2.559  13.300 -1.8308  0.1626 -0.4292
 2127SOL     OW17839   0.547   4.241   8.150  0.1894 -0.2732  0.4415
 2127SOL    HW117840   0.512   4.231   8.239  1.7864 -0.7359  1.0239
 2127SOL    HW217841   0.639   4.255   8.174 -0.0277 -0.7463  1.5561
 2128SOL     OW17842   1.473   3.390   2.432  0.1226  0.4728 -0.1909
 2128SOL    HW117843   1.401   3.361   2.488  1.0467 -1.3636  0.0359
 2128SOL    HW217844   1.430   3.394   2.347  0.6006  1.5599 -0.3857
 2129SOL     OW17845   1.769   2.315   3.379  0.2095  0.0258 -0.1319
 2129SOL    HW117846   1.806   2.266   3.452 -1.9443 -0.1002  0.8485
 2129SOL    HW217847   1.833   2.325   3.308 -1.4257  0.2277 -1.5757
 2130SOL     OW17848   4.028   1.780   8.631 -0.7361 -0.1032 -0.0152
 2130SOL    HW117849   4.000   1.731   8.708 -0.5690  1.1592  0.8482
 2130SOL    HW217850   3.947   1.828   8.615  0.0123  0.0785 -3.1976
 2131SOL     OW17851   2.053   2.284   5.562 -0.5312 -0.1809 -0.5564
 2131SOL    HW117852   2.012   2.370   5.549 -0.3873  0.0335  0.4357
 2131SOL    HW217853   2.003   2.243   5.632 -1.5094  1.4961 -0.2540
 2132SOL     OW17854   0.589   1.961   3.724  0.4914  0.1130 -0.0165
 2132SOL    HW117855   0.571   2.039   3.776 -0.0631 -0.8512  1.2651
 2132SOL    HW217856   0.541   1.982   3.644  1.1789 -1.3579 -0.8259
 2133SOL     OW17857   4.300   1.295  15.289 -0.3614  0.5118 -0.2558
 2133SOL    HW117858   4.284   1.258  15.376 -0.7808 -0.8276 -0.9140
 2133SOL    HW217859   4.234   1.364  15.279 -0.7469 -0.1367 -2.1060
 2134SOL     OW17860   0.307   1.268   7.159 -0.3649 -0.1447  0.1698
 2134SOL    HW117861   0.376   1.284   7.095 -1.1350 -0.1370 -0.6536
 2134SOL    HW217862   0.224   1.283   7.113 -0.4154 -2.1281 -0.3605
 2135SOL     OW17863   2.508   0.664  15.043 -0.7351  0.0789  0.0868
 2135SOL    HW117864   2.571   0.658  14.972  2.1197  1.4930  2.5104
 2135SOL    HW217865   2.429   0.685  14.993 -0.4242 -0.3949 -0.5996
 2136SOL     OW17866   0.919   0.274   1.189 -0.5627  0.4248 -0.1114
 2136SOL    HW117867   0.852   0.228   1.138  0.7940 -1.4456 -0.2240
 2136SOL    HW217868   0.868   0.307   1.262 -0.3576 -2.5270  1.3858
 2137SOL     OW17869   1.024   3.351   8.474  0.6280  0.3253  0.2963
 2137SOL    HW117870   0.997   3.345   8.566 -0.9731 -0.9803 -0.2519
 2137SOL    HW217871   1.118   3.369   8.470  0.6692 -0.4340 -2.4948
 2138SOL     OW17872   1.201   4.689   5.843 -0.0206  0.1888  0.1957
 2138SOL    HW117873   1.261   4.629   5.887  2.3519  1.3726 -1.4251
 2138SOL    HW217874   1.239   4.698   5.756  0.2764  0.6529  0.3692
 2139SOL     OW17875   4.352   0.695  13.197 -0.0507  0.0123 -0.1561
 2139SOL    HW117876   4.318   0.629  13.137  1.7098 -0.4124 -0.6976
 2139SOL    HW217877   4.274   0.737  13.234 -0.6954 -0.2105 -1.2583
 2140SOL     OW17878   0.849   2.216   5.368  0.4927  0.5738  0.5423
 2140SOL    HW117879   0.765   2.170   5.378  2.1709 -2.9732 -1.5552
 2140SOL    HW217880   0.815   2.304   5.384  2.2582  1.4314 -0.4867
 2141SOL     OW17881   2.850   2.296   6.821 -0.1148 -0.7707  0.7243
 2141SOL    HW117882   2.843   2.213   6.775  3.7403 -0.7769  0.1695
 2141SOL    HW217883   2.897   2.274   6.902  2.3538  0.7144 -0.3102
 2142SOL     OW17884   1.007   1.359  14.191 -0.3365  0.0240 -0.0201
 2142SOL    HW117885   1.063   1.434  14.172 -0.8555  0.8850  1.8939
 2142SOL    HW217886   0.956   1.397  14.263  2.3195 -0.2029  2.0118
 2143SOL     OW17887   0.120   3.190  10.023  0.0595  0.5156  0.7242
 2143SOL    HW117888   0.123   3.159  10.113  1.9016 -2.4047 -0.3139
 2143SOL    HW217889   0.179   3.131   9.975 -1.3816 -0.6097  0.3546
 2144SOL     OW17890   0.172   2.587   0.539  1.0546  0.2369 -0.2358
 2144SOL    HW117891   0.076   2.583   0.538  1.0790 -0.6869  2.5761
 2144SOL    HW217892   0.201   2.525   0.605 -0.8470 -1.2602 -0.7770
 2145SOL     OW17893   2.204   1.559   0.122 -0.2036 -0.4091  0.5462
 2145SOL    HW117894   2.299   1.554   0.128 -0.2508 -0.2898  1.3661
 2145SOL    HW217895   2.183   1.532   0.032  1.9504  0.2741 -0.1616
 2146SOL     OW17896   2.498   3.773  13.232 -0.0643  0.2598  0.7149
 2146SOL    HW117897   2.410   3.794  13.262 -0.0975 -0.4680  1.1373
 2146SOL    HW217898   2.530   3.848  13.181 -1.2156 -0.1170 -0.5545
 2147SOL     OW17899   2.667   3.645  14.976 -0.0121  0.8339  0.5042
 2147SOL    HW117900   2.642   3.694  15.055  0.9261 -0.5610  1.6721
 2147SOL    HW217901   2.592   3.587  14.964  1.0493 -1.0303  2.8414
 2148SOL     OW17902   1.628   4.294   2.177  0.4230  0.2126  0.2335
 2148SOL    HW117903   1.684   4.268   2.251 -0.6091 -0.5702  0.7326
 2148SOL    HW217904   1.600   4.211   2.139  1.9373 -1.1874  2.1615
 2149SOL     OW17905   1.143   4.567  15.494  0.2413  0.2122 -0.6211
 2149SOL    HW117906   1.086   4.558  15.571  0.3873  0.5805 -0.4731
 2149SOL    HW217907   1.180   4.479  15.502 -0.8818 -0.0966  1.3344
 2150SOL     OW17908   0.818   1.572   5.621 -0.8054 -0.4748  0.0091
 2150SOL    HW117909   0.816   1.641   5.687 -2.2161  0.6982 -1.2686
 2150SOL    HW217910   0.812   1.500   5.684 -3.8915  0.9300  1.3043
 2151SOL     OW17911   3.196   3.811   2.609  0.0646 -0.2727 -0.0934
 2151SOL    HW117912   3.238   3.865   2.541  1.7435 -0.5444  0.7373
 2151SOL    HW217913   3.179   3.887   2.664  0.4690  0.2299 -0.6528
 2152SOL     OW17914   4.422   1.118   2.319  0.2422  0.4044  0.2952
 2152SOL    HW117915   4.348   1.174   2.295  2.4186  2.5759 -1.4351
 2152SOL    HW217916   4.403   1.087   2.407 -1.4577  1.0462  0.1518
 2153SOL     OW17917   1.717   2.495   8.184 -0.3557  0.4223  0.5994
 2153SOL    HW117918   1.761   2.485   8.268  0.4267 -3.9671 -0.3051
 2153SOL    HW217919   1.682   2.407   8.169  1.1555 -0.1883  0.6999
 2154SOL     OW17920   3.781   1.907   3.004  0.3083 -0.1386  0.3509
 2154SOL    HW117921   3.696   1.931   2.969 -0.1425 -1.6392  0.3857
 2154SOL    HW217922   3.825   1.865   2.929  1.2505  0.2298  0.6894
 2155SOL     OW17923   2.327   1.291  11.744 -0.2297  0.5706 -0.0951
 2155SOL    HW117924   2.407   1.311  11.793  0.1627 -0.0306 -0.4947
 2155SOL    HW217925   2.263   1.346  11.789 -1.3712 -0.0543 -0.9715
 2156SOL     OW17926   0.711   3.638   5.820 -0.4254  0.3088  0.3471
 2156SOL    HW117927   0.691   3.721   5.778 -0.5987  0.2174  0.2476
 2156SOL    HW217928   0.792   3.654   5.869  0.1996  1.7079 -1.1418
 2157SOL     OW17929   3.655   2.697   2.792 -0.5699  0.1603  0.3500
 2157SOL    HW117930   3.560   2.712   2.799 -0.6964 -1.4262  2.2158
 2157SOL    HW217931   3.679   2.668   2.880  1.4168 -0.0517 -0.2794
 2158SOL     OW17932   3.364   4.244   3.672  0.0941  0.0931 -0.3251
 2158SOL    HW117933   3.394   4.235   3.581  0.2593  0.8829 -0.3509
 2158SOL    HW217934   3.438   4.201   3.715 -0.5941 -1.8926 -1.1272
 2159SOL     OW17935   2.391   0.711   0.645 -0.5659  0.5767 -0.3719
 2159SOL    HW117936   2.299   0.684   0.643 -0.3696 -0.1318  0.2540
 2159SOL    HW217937   2.433   0.646   0.701  0.7660  0.8074 -1.1014
 2160SOL     OW17938   1.215   2.482   6.818 -0.2995  0.3815  0.4218
 2160SOL    HW117939   1.197   2.568   6.780  0.8419  0.4546  0.0475
 2160SOL    HW217940   1.308   2.492   6.837 -0.1050 -0.3680 -0.1362
 2161SOL     OW17941   0.494   1.142   2.035  0.3583 -0.3238  0.1711
 2161SOL    HW117942   0.496   1.219   1.978  0.0819  0.0487  0.6659
 2161SOL    HW217943   0.459   1.069   1.983 -2.1131  0.5705  0.5470
 2162SOL     OW17944   4.128   0.166   6.417  0.2721  1.0733 -0.1029
 2162SOL    HW117945   4.037   0.189   6.436 -0.6721 -0.8791 -2.2467
 2162SOL    HW217946   4.127   0.081   6.463 -1.4645  0.5623 -1.1174
 2163SOL     OW17947   1.439   0.226   9.948 -0.5949 -0.0368 -0.1960
 2163SOL    HW117948   1.433   0.132   9.969  1.8414 -0.1998 -0.2720
 2163SOL    HW217949   1.379   0.238   9.874 -1.0557  0.9692  0.3399
 2164SOL     OW17950   2.190   2.193   0.322  0.4642 -0.2698  0.1803
 2164SOL    HW117951   2.099   2.209   0.346  1.3126  0.0807  3.1335
 2164SOL    HW217952   2.216   2.181   0.413 -1.0367 -0.6916  0.5570
 2165SOL     OW17953   2.018   3.735   1.093  0.4845 -0.1472  0.2038
 2165SOL    HW117954   1.924   3.724   1.085  0.5069  0.2996 -0.7149
 2165SOL    HW217955   2.041   3.654   1.138 -0.8844  0.1668  1.4397
 2166SOL     OW17956   0.487   3.876  14.699  0.1516  0.1086  0.0823
 2166SOL    HW117957   0.448   3.949  14.651  1.0922 -0.2758 -1.2840
 2166SOL    HW217958   0.410   3.837  14.738  0.5015  1.5833  2.2196
 2167SOL     OW17959   4.670   1.748   5.949  0.1018  0.4325 -0.1291
 2167SOL    HW117960   0.005   1.681   5.911 -0.3648 -0.3285  0.4959
 2167SOL    HW217961   4.597   1.747   5.886 -0.2051 -1.4529  0.2584
 2168SOL     OW17962   1.842   1.973   6.996 -0.7854 -0.0121  0.3069
 2168SOL    HW117963   1.877   1.922   6.923  1.4970  0.9773  0.7022
 2168SOL    HW217964   1.778   1.908   7.024 -0.7511  0.2044  0.8822
 2169SOL     OW17965   3.841   0.059   3.627 -0.0090  0.0639 -0.0996
 2169SOL    HW117966   3.751   0.031   3.648 -0.4095  0.5191 -1.2105
 2169SOL    HW217967   3.830   0.154   3.627  2.4112  0.3254 -0.0175
 2170SOL     OW17968   4.515   3.348   4.762 -0.8691 -0.1455 -0.2791
 2170SOL    HW117969   4.425   3.329   4.789 -0.0189  0.3246  2.8576
 2170SOL    HW217970   4.516   3.435   4.722 -2.3068 -0.6393 -1.4020
 2171SOL     OW17971   4.289   1.181   9.160 -0.2386  0.0580 -0.1070
 2171SOL    HW117972   4.367   1.150   9.206 -1.8333 -2.1505  1.1239
 2171SOL    HW217973   4.229   1.199   9.232  2.1981 -0.6981  2.0884
 2172SOL     OW17974   0.524   4.240   4.405 -0.1054  0.1993  0.0288
 2172SOL    HW117975   0.511   4.333   4.426 -0.9453 -0.0588  0.6804
 2172SOL    HW217976   0.613   4.225   4.437 -1.7374 -0.7608  4.1158
 2173SOL     OW17977   3.951   1.711   7.873 -0.2369  0.5953 -0.4504
 2173SOL    HW117978   3.862   1.747   7.876 -1.0776 -1.7153  1.9184
 2173SOL    HW217979   3.946   1.669   7.788  1.1259  0.8731 -0.6688
 2174SOL     OW17980   4.003   4.242  16.490  0.3161  0.5908  0.1810
 2174SOL    HW117981   4.071   4.246  16.558 -0.3174 -0.0963  0.8579
 2174SOL    HW217982   3.927   4.251  16.547 -0.4920  1.0904 -0.9889
 2175SOL     OW17983   3.164   0.062   2.793  0.0789 -0.0887 -0.0221
 2175SOL    HW117984   3.073   0.088   2.780  0.7375  2.7197  0.8916
 2175SOL    HW217985   3.207   0.049   2.709  0.4402  4.1951 -0.5062
 2176SOL     OW17986   2.557   2.566   4.406  0.2963  0.3608  0.6212
 2176SOL    HW117987   2.570   2.473   4.391 -1.0039  0.1353  0.9065
 2176SOL    HW217988   2.471   2.574   4.449 -0.3116  1.9113 -0.8823
 2177SOL     OW17989   3.596   0.349   9.216 -0.0043  0.3633 -0.1138
 2177SOL    HW117990   3.653   0.352   9.138 -1.1978  0.8305 -0.9774
 2177SOL    HW217991   3.530   0.412   9.187  0.1748  0.2662 -0.7391
 2178SOL     OW17992   0.769   4.420   8.787  0.5490 -0.1696 -0.4055
 2178SOL    HW117993   0.724   4.440   8.705  0.4406 -0.5441 -0.4355
 2178SOL    HW217994   0.857   4.410   8.750  0.6900 -1.9171  0.4160
 2179SOL     OW17995   3.556   2.958   6.593  0.4584  0.5719 -0.1234
 2179SOL    HW117996   3.548   2.867   6.562  1.0492  0.3194  0.4682
 2179SOL    HW217997   3.470   2.983   6.560  0.6222 -0.4586 -1.3264
 2180SOL     OW17998   1.480   1.968   8.574  0.0073 -0.0335  0.0494
 2180SOL    HW117999   1.523   1.953   8.490 -1.5931  0.0500 -0.7728
 2180SOL    HW218000   1.392   1.965   8.536  0.2196 -0.8454 -0.3861
 2181SOL     OW18001   1.767   4.434  12.900  0.1457 -0.1142  0.2880
 2181SOL    HW118002   1.851   4.428  12.855 -1.0234 -1.0700 -1.7931
 2181SOL    HW218003   1.759   4.527  12.922  0.1239 -0.8048  3.2171
 2182SOL     OW18004   4.256   2.912  15.226  0.1665  0.3747  0.5044
 2182SOL    HW118005   4.214   2.877  15.304  0.3493 -1.3410 -0.1545
 2182SOL    HW218006   4.318   2.976  15.261 -1.9083  1.0115  2.9338
 2183SOL     OW18007   0.669   0.430   5.437  0.2044  0.2500 -0.0551
 2183SOL    HW118008   0.718   0.442   5.356  0.6001  2.9432  0.5852
 2183SOL    HW218009   0.658   0.335   5.434  1.0628  0.1421  0.1596
 2184SOL     OW18010   1.878   3.320   8.196  0.1417 -0.4091 -0.0629
 2184SOL    HW118011   1.960   3.270   8.196  0.0788 -0.5055 -0.7701
 2184SOL    HW218012   1.825   3.258   8.146 -2.7312 -0.3479  2.8675
 2185SOL     OW18013   3.580   0.887   8.014  0.2369 -0.0167  0.7714
 2185SOL    HW118014   3.498   0.877   7.967  1.2603 -1.5515 -0.6684
 2185SOL    HW218015   3.577   0.981   8.033 -1.0524  0.7874 -3.4809
 2186SOL     OW18016   3.844   0.759  15.259  0.6534  0.2652  0.3146
 2186SOL    HW118017   3.843   0.751  15.354 -1.7613  0.2955  0.2796
 2186SOL    HW218018   3.779   0.827  15.240 -0.7899 -0.6960  1.8396
 2187SOL     OW18019   2.523   3.331  15.494  0.2715 -0.1676 -0.3594
 2187SOL    HW118020   2.501   3.361  15.582  1.7531  0.3259 -0.1704
 2187SOL    HW218021   2.512   3.409  15.440  0.1652 -1.4677 -2.2074
 2188SOL     OW18022   3.570   0.685  15.816 -0.2068 -0.4796 -0.2495
 2188SOL    HW118023   3.657   0.714  15.789 -0.6023  0.8989 -0.0322
 2188SOL    HW218024   3.590   0.600  15.855 -0.9395 -0.4609  0.1702
 2189SOL     OW18025   1.281   2.525  11.346  0.1673  0.7734 -0.0655
 2189SOL    HW118026   1.331   2.481  11.277 -0.8176  2.5525 -1.9254
 2189SOL    HW218027   1.248   2.455  11.403 -0.5161  0.6723 -0.5752
 2190SOL     OW18028   2.175   1.805  12.281 -0.0049 -0.4991  0.0135
 2190SOL    HW118029   2.159   1.746  12.355 -0.2801 -2.8958 -1.9673
 2190SOL    HW218030   2.093   1.851  12.300  1.8552  1.8905  2.2857
 2191SOL     OW18031   3.721   4.398   5.453  0.1521  0.1816 -0.9370
 2191SOL    HW118032   3.780   4.460   5.410 -1.1775  1.2913 -1.1665
 2191SOL    HW218033   3.675   4.458   5.512 -1.1249 -1.2563 -0.4668
 2192SOL     OW18034   0.924   2.047   8.539  0.0810 -0.2438  0.4991
 2192SOL    HW118035   0.829   2.047   8.551  0.0059  0.2185 -0.1252
 2192SOL    HW218036   0.948   2.038   8.631 -0.4868 -0.0958  0.6637
 2193SOL     OW18037   0.791   3.618   3.267 -0.2857 -0.3483 -0.1684
 2193SOL    HW118038   0.723   3.551   3.257 -0.0810 -0.5397 -0.2838
 2193SOL    HW218039   0.868   3.565   3.287 -0.1394  0.4961  1.5307
 2194SOL     OW18040   4.633   1.700   5.679  0.7165 -0.0675  0.7283
 2194SOL    HW118041   4.582   1.620   5.665  0.8009 -0.2314  1.3371
 2194SOL    HW218042   4.580   1.766   5.634 -0.5691 -0.4212  1.7313
 2195SOL     OW18043   4.704   3.744   5.452 -0.2513 -0.2503 -0.6303
 2195SOL    HW118044   4.620   3.699   5.458 -0.7198  0.9692  2.0935
 2195SOL    HW218045   4.718   3.737   5.358 -0.4302 -0.5719 -0.6353
 2196SOL     OW18046   0.774   4.274   4.213  0.3443  0.0129 -0.5781
 2196SOL    HW118047   0.836   4.216   4.257  1.0799  0.6973 -0.7036
 2196SOL    HW218048   0.757   4.215   4.140 -0.0919  1.6689 -1.8274
 2197SOL     OW18049   1.654   3.961   6.252 -0.1523 -0.2260 -0.0673
 2197SOL    HW118050   1.714   3.911   6.308 -2.7514 -1.5542  1.5588
 2197SOL    HW218051   1.601   4.005   6.318  0.2499 -0.1489  0.2018
 2198SOL     OW18052   4.681   3.858   2.033 -0.3474 -0.0540  0.0568
 2198SOL    HW118053   4.642   3.809   2.105 -0.2457  3.7142  2.6412
 2198SOL    HW218054   0.007   3.927   2.079 -0.7113 -1.6733  2.8612
 2199SOL     OW18055   3.917   4.627  16.607 -0.0790  0.5552  0.0640
 2199SOL    HW118056   3.977   4.604  16.535 -1.4316 -4.0115  0.4135
 2199SOL    HW218057   3.838   4.608  16.555  0.6096 -2.4282  0.0828
 2200SOL     OW18058   3.581   1.243   7.355  0.0005  0.2888  0.6322
 2200SOL    HW118059   3.664   1.200   7.379  0.3331  0.1618 -0.7419
 2200SOL    HW218060   3.606   1.301   7.283 -0.2264 -0.0345  0.2894
 2201SOL     OW18061   3.858   2.852   7.004 -0.3737 -0.4822  0.8647
 2201SOL    HW118062   3.779   2.862   6.951  0.2285 -0.7761 -0.0757
 2201SOL    HW218063   3.866   2.933   7.056  0.8027 -1.1390  1.7065
 2202SOL     OW18064   1.446   4.718   6.085 -0.2977 -0.4419  0.2870
 2202SOL    HW118065   1.367   4.715   6.140  0.6587  2.3180  1.8291
 2202SOL    HW218066   1.430   4.646   6.025  0.5826  0.6561 -1.2697
 2203SOL     OW18067   3.294   0.349   2.684  0.0926 -0.1724  0.7453
 2203SOL    HW118068   3.198   0.349   2.684  0.0926 -0.5918  0.5432
 2203SOL    HW218069   3.309   0.300   2.765 -1.4010  1.3608  1.9398
 2204SOL     OW18070   2.490   0.165   5.522 -0.3260  0.0900  0.1036
 2204SOL    HW118071   2.460   0.089   5.571 -0.4016 -0.4384 -0.7596
 2204SOL    HW218072   2.411   0.198   5.479 -1.9156 -3.0086  0.6229
 2205SOL     OW18073   4.563   0.966  14.313  0.2576  0.3276  0.1570
 2205SOL    HW118074   4.582   0.890  14.259  1.7821 -1.1335  2.7563
 2205SOL    HW218075   4.497   1.012  14.260  1.9255 -0.3985 -2.5413
 2206SOL     OW18076   1.922   0.550  10.155 -0.5711  0.1915  0.1280
 2206SOL    HW118077   1.932   0.455  10.156  2.6893  0.5558  0.9133
 2206SOL    HW218078   1.950   0.576  10.067 -1.4849  0.1960 -0.1675
 2207SOL     OW18079   1.577   0.871   2.752 -0.1811 -0.1180  0.0761
 2207SOL    HW118080   1.601   0.794   2.804  1.0210  0.1791 -0.0247
 2207SOL    HW218081   1.499   0.832   2.714 -0.3477  0.1118  0.1834
 2208SOL     OW18082   4.688   0.861   5.996  0.0167  0.0313  0.0766
 2208SOL    HW118083   4.620   0.793   5.995  0.3633 -0.3673  2.1767
 2208SOL    HW218084   4.715   0.851   6.088 -0.0589  1.8497  0.2876
 2209SOL     OW18085   2.211   2.849  13.211  0.1125 -0.7715  0.5125
 2209SOL    HW118086   2.141   2.819  13.153 -0.3423  0.5916  0.3519
 2209SOL    HW218087   2.183   2.935  13.242 -0.1772 -0.9064  0.6270
 2210SOL     OW18088   3.331   2.625  17.257 -0.3565 -0.0235  0.1652
 2210SOL    HW118089   3.287   2.591  17.178  1.4266 -1.8020 -0.0706
 2210SOL    HW218090   3.286   2.708  17.246 -2.1968 -0.8089  1.7563
 2211SOL     OW18091   1.840   0.495   3.999  0.0605  0.2683 -0.1106
 2211SOL    HW118092   1.781   0.420   4.000 -2.2622  2.0838 -0.1195
 2211SOL    HW218093   1.825   0.542   4.081 -1.9633  2.7381 -1.9045
 2212SOL     OW18094   0.502   2.409  11.406  0.2124  0.3234  0.0519
 2212SOL    HW118095   0.474   2.501  11.412 -2.9370 -0.6151 -0.4168
 2212SOL    HW218096   0.598   2.407  11.409  0.2777  0.5660 -1.5304
 2213SOL     OW18097   3.530   2.446   5.461 -0.0259 -0.3280 -0.1433
 2213SOL    HW118098   3.568   2.532   5.475 -0.3306 -0.4203  1.2359
 2213SOL    HW218099   3.466   2.466   5.392  0.7720  1.1061 -0.4658
 2214SOL     OW18100   3.591   0.153   5.695 -0.0157  0.2360 -0.7808
 2214SOL    HW118101   3.648   0.078   5.716 -0.3160  0.1375 -0.3238
 2214SOL    HW218102   3.530   0.138   5.768 -0.6809 -0.5312 -1.4971
 2215SOL     OW18103   2.761   1.338   6.445  0.4542  0.6323  0.0621
 2215SOL    HW118104   2.671   1.346   6.413 -0.0046  0.2374  1.2509
 2215SOL    HW218105   2.809   1.390   6.380 -1.3542  1.3732 -0.6808
 2216SOL     OW18106   1.852   4.483  11.212 -0.4871  0.4084 -0.3242
 2216SOL    HW118107   1.919   4.551  11.206 -0.2338  0.1081 -0.8777
 2216SOL    HW218108   1.873   4.433  11.291  0.6274  0.5990 -0.5114
 2217SOL     OW18109   2.528   2.443   2.358 -0.2074  0.0590 -0.8310
 2217SOL    HW118110   2.528   2.377   2.288  0.0168 -1.1169  0.2631
 2217SOL    HW218111   2.480   2.397   2.427  0.9777 -1.3746 -0.9581
 2218SOL     OW18112   3.150   2.341  10.066  0.7725  0.9284  0.3294
 2218SOL    HW118113   3.061   2.322  10.035  0.2372  1.1492  1.7143
 2218SOL    HW218114   3.156   2.249  10.091 -0.8828  0.5359 -0.7220
 2219SOL     OW18115   1.119   3.447  16.181 -0.6530 -0.0088 -0.4107
 2219SOL    HW118116   1.081   3.361  16.195  1.4577 -0.7439  0.7106
 2219SOL    HW218117   1.100   3.493  16.263 -0.0853 -1.4691  0.5189
 2220SOL     OW18118   1.237   2.104   9.350 -0.1670  0.1086 -0.3653
 2220SOL    HW118119   1.294   2.028   9.365  1.7986  2.1837  2.6604
 2220SOL    HW218120   1.147   2.072   9.360 -0.1092 -0.2243 -0.8943
 2221SOL     OW18121   1.180   3.818  12.168 -0.0504 -0.0798 -0.1434
 2221SOL    HW118122   1.266   3.775  12.166  0.1380  0.1955  2.7794
 2221SOL    HW218123   1.210   3.908  12.179  1.7589 -0.7781  0.5987
 2222SOL     OW18124   0.413   2.524   7.647 -0.3258 -0.2099  0.1163
 2222SOL    HW118125   0.422   2.579   7.570  0.3059  1.3870  1.3345
 2222SOL    HW218126   0.320   2.504   7.659  0.2376 -3.0173 -0.0448
 2223SOL     OW18127   0.474   2.834  15.731 -0.2143 -0.4496 -0.5489
 2223SOL    HW118128   0.483   2.836  15.635 -2.3412 -0.2230 -0.7495
 2223SOL    HW218129   0.454   2.743  15.754 -0.5553  0.2431  1.8302
 2224SOL     OW18130   0.243   1.637   3.212  0.0752  0.2669  0.2356
 2224SOL    HW118131   0.179   1.570   3.187 -0.7295  1.5624 -1.1915
 2224SOL    HW218132   0.269   1.606   3.299 -1.1546  0.0544  0.5326
 2225SOL     OW18133   3.874   4.056   3.370 -0.0888 -0.9001  1.1902
 2225SOL    HW118134   3.939   4.118   3.403  1.0760 -1.8910  0.7550
 2225SOL    HW218135   3.914   4.027   3.287  1.8957  2.9503  0.7832
 2226SOL     OW18136   4.645   3.321   6.507  0.1142 -0.2731  0.2580
 2226SOL    HW118137   4.648   3.408   6.545 -2.0428  0.4217 -1.1764
 2226SOL    HW218138   4.565   3.326   6.455  1.6391 -0.2543 -2.0584
 2227SOL     OW18139   0.918   4.597   7.665  0.0222  0.7270  0.4482
 2227SOL    HW118140   0.845   4.644   7.625 -0.6150 -1.0179 -0.4189
 2227SOL    HW218141   0.970   4.667   7.707 -0.4371  1.3731 -0.0652
 2228SOL     OW18142   2.774   4.521   4.105  0.1084 -0.1097 -0.4748
 2228SOL    HW118143   2.765   4.425   4.108 -0.2150 -0.0698 -0.1961
 2228SOL    HW218144   2.793   4.541   4.196  1.5586  0.2085 -0.8567
 2229SOL     OW18145   2.272   2.318   5.293  0.4580 -0.6121 -0.0913
 2229SOL    HW118146   2.261   2.242   5.236  3.0627  0.0534 -1.4887
 2229SOL    HW218147   2.364   2.332   5.269  0.3413 -1.1549 -0.8371
 2230SOL     OW18148   1.709   2.273   8.953 -0.3964  0.3684 -0.2125
 2230SOL    HW118149   1.704   2.225   8.871  1.8022 -1.4402  0.6917
 2230SOL    HW218150   1.674   2.358   8.928  0.8411  0.4511 -1.6357
 2231SOL     OW18151   2.742   3.243   7.515  0.1336 -0.4681 -0.3857
 2231SOL    HW118152   2.833   3.218   7.501  0.6171  0.1352  1.6240
 2231SOL    HW218153   2.745   3.327   7.561 -0.2718 -0.4995 -0.3030
 2232SOL     OW18154   2.113   1.676   6.126 -0.6841  0.2264 -0.5470
 2232SOL    HW118155   2.127   1.592   6.169 -0.6077  0.6708  0.2977
 2232SOL    HW218156   2.200   1.716   6.128  0.5058 -2.5765  1.5070
 2233SOL     OW18157   1.690   3.674   5.769 -0.0031  0.1456  0.0011
 2233SOL    HW118158   1.783   3.696   5.765 -0.2516  0.8705 -1.8022
 2233SOL    HW218159   1.681   3.688   5.863 -1.5196  0.9512 -0.2680
 2234SOL     OW18160   0.440   3.533   8.461 -0.0984 -0.2186  0.4621
 2234SOL    HW118161   0.361   3.528   8.407  0.4872 -0.3180 -0.3828
 2234SOL    HW218162   0.447   3.629   8.459 -0.4547 -0.2152 -0.3768
 2235SOL     OW18163   2.484   3.596   4.062  0.1631 -1.2460  0.2825
 2235SOL    HW118164   2.526   3.537   3.999  0.0142 -1.8161  0.7185
 2235SOL    HW218165   2.554   3.655   4.089 -0.6573 -0.0579 -0.1860
 2236SOL     OW18166   2.410   4.217   0.593  0.3827 -0.2524 -0.3877
 2236SOL    HW118167   2.425   4.211   0.688  4.0803 -0.5542 -0.9724
 2236SOL    HW218168   2.417   4.124   0.570 -1.6986 -0.6311  0.5388
 2237SOL     OW18169   0.892   3.105   7.445 -0.2382 -0.2537 -0.2028
 2237SOL    HW118170   0.884   3.032   7.506 -1.2027 -1.1621 -1.3971
 2237SOL    HW218171   0.983   3.090   7.418 -0.5339 -1.5523 -0.5013
 2238SOL     OW18172   0.527   3.757  11.420  0.5693  0.4966 -0.1525
 2238SOL    HW118173   0.555   3.679  11.469 -0.2758  0.5737  0.4596
 2238SOL    HW218174   0.568   3.744  11.335  0.9642  0.4855  0.0372
 2239SOL     OW18175   1.929   4.585   1.803 -0.5856 -0.3076 -0.1800
 2239SOL    HW118176   1.999   4.600   1.866 -0.4389 -1.3996 -0.0772
 2239SOL    HW218177   1.903   4.498   1.834  3.2273 -0.7687  1.7424
 2240SOL     OW18178   2.361   1.543  12.620 -0.1287 -0.6298 -0.4842
 2240SOL    HW118179   2.316   1.530  12.704 -1.2629  0.2030 -0.9737
 2240SOL    HW218180   2.441   1.587  12.650  0.4310 -1.0336 -1.4041
 2241SOL     OW18181   3.811   3.820   8.580 -0.0970  0.2708  0.1939
 2241SOL    HW118182   3.816   3.897   8.637  1.3785  0.7926 -0.6312
 2241SOL    HW218183   3.719   3.828   8.557 -0.1009  0.1803  0.1793
 2242SOL     OW18184   2.493   1.518   8.054 -0.0804 -0.6026  0.3591
 2242SOL    HW118185   2.518   1.484   7.968 -1.0588 -3.3932  1.1774
 2242SOL    HW218186   2.574   1.526   8.104 -0.6318  3.9568  0.4515
 2243SOL     OW18187   1.488   1.043   7.772 -0.3006 -0.0484  0.1383
 2243SOL    HW118188   1.489   0.951   7.798  0.5059  0.1888  0.9393
 2243SOL    HW218189   1.476   1.038   7.677  1.8777  1.3897 -0.2345
 2244SOL     OW18190   3.906   2.660   4.552  0.1398 -0.1814  0.3446
 2244SOL    HW118191   3.887   2.721   4.480  0.0720  1.5300  1.7957
 2244SOL    HW218192   3.964   2.600   4.506 -1.2452 -0.8057 -0.5702
 2245SOL     OW18193   3.821   4.410   0.341 -0.6383  0.2725 -0.3439
 2245SOL    HW118194   3.900   4.399   0.288  0.1165 -0.0289  0.8371
 2245SOL    HW218195   3.844   4.364   0.421  0.7952  0.2647 -0.7643
 2246SOL     OW18196   3.649   3.172   3.379  0.1665  0.0463  0.2198
 2246SOL    HW118197   3.673   3.255   3.421  0.4798 -0.4930  1.1025
 2246SOL    HW218198   3.600   3.129   3.449 -0.7366  0.9414  0.1370
 2247SOL     OW18199   1.016   0.826   1.408 -0.0905 -0.1841  0.5085
 2247SOL    HW118200   1.001   0.864   1.321 -0.1721  0.2895  0.7286
 2247SOL    HW218201   1.023   0.737   1.376  0.0290  0.4567 -1.2369
 2248SOL     OW18202   1.514   2.679   4.283 -0.3869  0.0777 -0.0265
 2248SOL    HW118203   1.491   2.589   4.261 -1.0725  0.4429 -0.7881
 2248SOL    HW218204   1.458   2.688   4.360  0.9179  1.0808  0.8022
 2249SOL     OW18205   4.568   3.703   2.244 -0.2258 -0.0941 -0.3103
 2249SOL    HW118206   4.482   3.686   2.206  0.4050 -1.4958 -1.1444
 2249SOL    HW218207   4.593   3.618   2.281 -1.1463  0.5397  1.7499
 2250SOL     OW18208   2.142   0.524  15.722 -0.1912 -0.6948 -0.4686
 2250SOL    HW118209   2.200   0.524  15.799 -1.7893 -0.2836  0.7285
 2250SOL    HW218210   2.210   0.528  15.655 -0.4508  0.8642 -0.6412
 2251SOL     OW18211   0.525   1.523   2.120  0.5764  0.2997  0.0615
 2251SOL    HW118212   0.481   1.558   2.197 -0.3738 -0.4499 -0.1566
 2251SOL    HW218213   0.619   1.536   2.136  1.2227 -2.4015 -1.5299
 2252SOL     OW18214   3.087   1.866   2.679  0.1923  0.0896  0.2276
 2252SOL    HW118215   3.130   1.945   2.645 -1.0143 -0.4961 -2.6574
 2252SOL    HW218216   3.062   1.826   2.596  1.0626 -0.1161  0.0587
 2253SOL     OW18217   0.415   0.041   8.631  0.1474 -0.2040  0.1758
 2253SOL    HW118218   0.339   0.037   8.689  0.9526 -0.1364  1.2513
 2253SOL    HW218219   0.469   4.695   8.674 -0.1785 -1.5025 -1.4566
 2254SOL     OW18220   2.516   2.676   2.246  0.5679  0.1225  0.0700
 2254SOL    HW118221   2.586   2.661   2.183 -0.6638 -2.1862 -0.7340
 2254SOL    HW218222   2.507   2.593   2.293  1.2946 -0.7637 -1.3453
 2255SOL     OW18223   2.121   1.641  12.529  0.0799 -0.0794  0.2341
 2255SOL    HW118224   2.209   1.619  12.559  0.6403  0.7330 -0.8518
 2255SOL    HW218225   2.066   1.630  12.606 -0.1340  2.2509  0.3876
 2256SOL     OW18226   1.174   0.854  13.748  0.3763 -0.0501  0.0250
 2256SOL    HW118227   1.130   0.826  13.828 -0.2512 -0.7159 -0.5520
 2256SOL    HW218228   1.143   0.944  13.736 -1.8271 -0.9668 -1.1657
 2257SOL     OW18229   4.658   0.706  14.279 -0.0906  0.4671 -0.3107
 2257SOL    HW118230   0.018   0.721  14.325  0.3816 -2.0677 -0.3639
 2257SOL    HW218231   4.676   0.626  14.230 -2.6588 -0.5771  0.4539
 2258SOL     OW18232   2.971   4.653   7.519  0.0967  0.2988  0.6027
 2258SOL    HW118233   2.986   0.013   7.472  2.1039  0.5449  1.6776
 2258SOL    HW218234   3.024   4.605   7.455  0.5798  0.7048  0.7054
 2259SOL     OW18235   4.677   0.155  17.022 -0.3736 -0.0816  0.1051
 2259SOL    HW118236   4.693   0.085  16.959 -1.4986 -0.8488  0.6790
 2259SOL    HW218237   4.668   0.095  17.096  1.5919 -0.7652 -0.2032
 2260SOL     OW18238   3.424   4.567  12.289  0.2256  0.1262 -0.1197
 2260SOL    HW118239   3.468   4.483  12.287 -2.0893 -1.0521 -1.9701
 2260SOL    HW218240   3.496   4.630  12.291 -0.2689  0.7073 -0.5629
 2261SOL     OW18241   1.547   1.361   7.500 -0.4322  0.1576  0.1758
 2261SOL    HW118242   1.632   1.405   7.509  0.9002 -2.4660  0.3960
 2261SOL    HW218243   1.582   1.286   7.451 -0.5546  0.2466 -0.0489
 2262SOL     OW18244   0.065   2.529   7.498  0.1098 -0.5866 -0.3960
 2262SOL    HW118245   4.704   2.493   7.467 -0.4814 -0.5016  1.0665
 2262SOL    HW218246   0.124   2.454   7.496 -1.3387 -1.6521 -3.0651
 2263SOL     OW18247   0.094   3.398   3.080  0.3061 -0.1211 -0.0185
 2263SOL    HW118248   0.093   3.313   3.124  2.3611  0.0039  0.2722
 2263SOL    HW218249   0.004   3.427   3.097  0.4808 -0.5427  1.6061
 2264SOL     OW18250   0.688   0.568   6.777  0.0673  0.6385  0.1493
 2264SOL    HW118251   0.766   0.539   6.824 -0.8610 -0.2676  1.1487
 2264SOL    HW218252   0.734   0.615   6.708 -2.2651  0.0850 -1.7693
 2265SOL     OW18253   1.331   4.560   3.717  0.5737  0.0329 -0.4101
 2265SOL    HW118254   1.307   4.534   3.628 -0.6850 -0.2922  0.0327
 2265SOL    HW218255   1.248   4.547   3.762  0.3743  1.4938 -0.3779
 2266SOL     OW18256   1.368   2.625   2.792  0.2881  0.3515 -0.6917
 2266SOL    HW118257   1.375   2.716   2.764 -1.3591 -0.2192 -2.9457
 2266SOL    HW218258   1.388   2.651   2.882  2.0770  1.5535 -1.4459
 2267SOL     OW18259   3.737   2.187   2.822 -0.1617 -0.7054 -0.3750
 2267SOL    HW118260   3.785   2.200   2.741 -1.7816  0.7212 -1.0927
 2267SOL    HW218261   3.664   2.125   2.813 -0.1100 -0.4981 -2.1159
 2268SOL     OW18262   4.127   0.675   6.757  0.1201 -0.3275  0.2936
 2268SOL    HW118263   4.045   0.687   6.805 -0.5941 -1.0584 -0.7460
 2268SOL    HW218264   4.190   0.726   6.809 -1.5623  0.2027  1.8130
 2269SOL     OW18265   2.493   0.235   3.156  0.5138 -0.3566  0.0607
 2269SOL    HW118266   2.570   0.236   3.099 -0.2823 -0.4646 -1.0150
 2269SOL    HW218267   2.504   0.324   3.192 -1.4160  0.3364 -1.0286
 2270SOL     OW18268   2.141   0.430   4.790  0.1421  0.4903 -0.2132
 2270SOL    HW118269   2.211   0.476   4.836  0.4089  0.7737 -0.8871
 2270SOL    HW218270   2.094   0.508   4.759 -0.3030  0.8300  1.3237
 2271SOL     OW18271   4.449   3.631  12.815  0.0399  0.2820 -0.2130
 2271SOL    HW118272   4.536   3.601  12.789 -0.1385 -0.3617 -0.0740
 2271SOL    HW218273   4.397   3.586  12.748 -0.4185  2.7800 -1.5230
 2272SOL     OW18274   1.288   4.712  14.737  0.2032 -0.2239 -0.2082
 2272SOL    HW118275   1.213   0.045  14.718 -0.3732 -1.2258 -0.8285
 2272SOL    HW218276   1.340   0.064  14.769 -0.9783  0.8970 -0.9260
 2273SOL     OW18277   1.217   4.072   7.085  0.3241  0.0381  0.1177
 2273SOL    HW118278   1.231   4.036   7.173  1.4457 -1.7592 -0.8127
 2273SOL    HW218279   1.197   4.163   7.109 -2.2886 -0.3428 -0.5826
 2274SOL     OW18280   4.023   3.477  16.105  0.4892  0.3098  0.6266
 2274SOL    HW118281   3.931   3.459  16.125  0.3352  1.3027  0.8146
 2274SOL    HW218282   4.028   3.569  16.133  2.4929  0.7415 -1.1155
 2275SOL     OW18283   3.761   1.472   8.014 -0.0988 -0.1150 -0.0942
 2275SOL    HW118284   3.726   1.504   7.931 -0.6913  1.5069  0.7751
 2275SOL    HW218285   3.768   1.551   8.068 -0.9160  0.1831 -0.4210
 2276SOL     OW18286   3.592   2.667   0.034 -0.3512  0.1329  1.5327
 2276SOL    HW118287   3.568   2.581  17.688 -2.2675  1.1883  0.2609
 2276SOL    HW218288   3.528   2.717  17.672 -2.8902 -1.6249  2.9366
 2277SOL     OW18289   1.094   3.703   0.014 -0.1373 -0.2224 -0.0156
 2277SOL    HW118290   1.050   3.781   0.047  0.8777  0.5752 -0.5353
 2277SOL    HW218291   1.043   3.633   0.055  0.5915 -1.0826 -0.5754
 2278SOL     OW18292   3.232   2.499   5.524 -0.1085  0.3001  0.1412
 2278SOL    HW118293   3.166   2.431   5.524 -0.6307  0.8077  0.7097
 2278SOL    HW218294   3.296   2.469   5.589 -0.0001 -0.8006 -0.4734
 2279SOL     OW18295   2.800   4.686   2.880 -0.0477 -0.9437 -0.4326
 2279SOL    HW118296   2.865   0.034   2.866  1.1321 -2.0967 -0.6399
 2279SOL    HW218297   2.717   4.718   2.843  0.3855  1.4315  0.6625
 2280SOL     OW18298   3.235   4.632  12.082  0.2763  0.6127 -0.0829
 2280SOL    HW118299   3.291   4.653  12.157 -0.0192  2.8459 -0.4812
 2280SOL    HW218300   3.153   4.595  12.116  1.0618 -0.1442  1.0024
 2281SOL     OW18301   4.544   2.962   1.137 -0.3452 -0.3314  0.1505
 2281SOL    HW118302   4.548   2.910   1.056  1.9482  0.0953 -0.0128
 2281SOL    HW218303   4.622   2.932   1.184  0.5773 -0.5678 -1.5167
 2282SOL     OW18304   1.471   3.314   6.383 -0.1827 -0.7365  0.0179
 2282SOL    HW118305   1.433   3.381   6.440  2.5363  0.2268  0.6753
 2282SOL    HW218306   1.394   3.265   6.352 -0.1619 -0.4087 -0.5466
 2283SOL     OW18307   3.100   1.015   3.257  0.6588 -0.6558 -0.0296
 2283SOL    HW118308   3.069   0.926   3.276  0.9076 -0.7219  0.0655
 2283SOL    HW218309   3.192   1.013   3.283  0.5240 -0.7303  0.4427
 2284SOL     OW18310   4.244   3.671   6.927 -0.2700  0.6203  0.0699
 2284SOL    HW118311   4.213   3.737   6.866  1.5824  2.6610  1.3552
 2284SOL    HW218312   4.217   3.709   7.010 -1.1850  0.0179  0.0524
 2285SOL     OW18313   2.202   0.237   3.444  0.2141  0.0260  0.5327
 2285SOL    HW118314   2.186   0.300   3.514  1.8837  1.8169 -0.6677
 2285SOL    HW218315   2.288   0.207   3.475  0.5246 -1.2915 -1.5859
 2286SOL     OW18316   0.058   1.233   7.036  0.4120 -0.4406  0.0326
 2286SOL    HW118317   0.023   1.307   6.986  0.1620  0.4260  1.5019
 2286SOL    HW218318   4.704   1.202   7.086 -0.5241  0.4088 -0.8564
 2287SOL     OW18319   4.414   4.577   0.616  0.3759 -0.3505  0.3792
 2287SOL    HW118320   4.416   4.612   0.527  2.6487  0.4195  0.7395
 2287SOL    HW218321   4.468   4.640   0.663 -0.0251  0.2340  0.0685
 2288SOL     OW18322   0.790   1.201   1.821  0.2291 -0.5335  0.1428
 2288SOL    HW118323   0.838   1.247   1.890 -0.7688  2.3956 -1.1394
 2288SOL    HW218324   0.765   1.115   1.856 -0.3593  0.8091  2.9711
 2289SOL     OW18325   0.025   1.538   7.260 -0.0013  0.0449 -0.1804
 2289SOL    HW118326   0.043   1.515   7.351 -0.0328  1.1515  0.1057
 2289SOL    HW218327   0.111   1.535   7.217  0.2928 -1.3166  0.5029
 2290SOL     OW18328   2.350   4.526   6.935  0.2808 -0.1147  0.2443
 2290SOL    HW118329   2.335   4.456   6.872 -0.0798 -0.4349  0.6918
 2290SOL    HW218330   2.426   4.566   6.893 -0.3186 -0.0857 -0.8032
 2291SOL     OW18331   0.192   3.985   7.887 -0.2817 -0.2971  0.5019
 2291SOL    HW118332   0.266   3.930   7.860 -2.6244 -1.3886 -3.6819
 2291SOL    HW218333   0.238   4.049   7.941  0.7024 -0.0861 -0.5909
 2292SOL     OW18334   4.062   1.527   6.093 -0.0709 -0.0061  0.5976
 2292SOL    HW118335   4.102   1.501   6.010 -0.0806 -1.3688  1.0117
 2292SOL    HW218336   4.128   1.489   6.151 -2.3555  1.8492  4.4695
 2293SOL     OW18337   3.386   3.324   7.778 -0.2262 -0.4512 -0.0040
 2293SOL    HW118338   3.460   3.374   7.813  0.1472 -0.6683 -0.4867
 2293SOL    HW218339   3.418   3.314   7.689 -1.3192 -0.9234 -0.3414
 2294SOL     OW18340   3.104   3.981   7.712  0.0619  0.1012 -0.4183
 2294SOL    HW118341   3.083   4.068   7.677  0.5389  0.1195 -0.6508
 2294SOL    HW218342   3.199   3.975   7.707  0.0532 -1.3271  1.1484
 2295SOL     OW18343   1.089   1.448  11.902 -0.8974 -0.0221  0.4967
 2295SOL    HW118344   0.997   1.424  11.901 -0.4036 -1.9642  0.9651
 2295SOL    HW218345   1.087   1.543  11.912  1.5583 -0.0737  1.5021
 2296SOL     OW18346   3.857   0.942   7.452  0.7592  0.2339 -0.1420
 2296SOL    HW118347   3.865   0.889   7.373  1.5514  1.0640 -0.6273
 2296SOL    HW218348   3.881   0.877   7.519  1.0195  0.7922  0.3060
 2297SOL     OW18349   2.168   2.157   7.705  0.2083  1.0628  0.4105
 2297SOL    HW118350   2.138   2.193   7.622  1.0856  1.6639  0.3528
 2297SOL    HW218351   2.245   2.113   7.666 -0.1499  1.4459 -0.7350
 2298SOL     OW18352   0.775   2.603  16.366  0.1234  0.5370  0.2693
 2298SOL    HW118353   0.694   2.594  16.417  0.2048  1.1723  0.5111
 2298SOL    HW218354   0.820   2.540  16.422 -0.9450  1.2756  1.9604
 2299SOL     OW18355   4.677   3.845  17.037 -0.5745  0.3641 -0.0230
 2299SOL    HW118356   4.703   3.785  16.966 -1.9149 -0.4982  0.2051
 2299SOL    HW218357   4.640   3.777  17.093  0.6530 -0.6644 -0.4597
 2300SOL     OW18358   2.235   4.182   9.589  0.5055  0.0179 -0.4344
 2300SOL    HW118359   2.154   4.182   9.640  2.0787 -0.1856  2.0593
 2300SOL    HW218360   2.207   4.209   9.502 -0.1369  2.3567  0.5101
 2301SOL     OW18361   3.012   2.143  14.605  0.4713  0.5513 -0.7371
 2301SOL    HW118362   2.952   2.152  14.532 -0.0619 -0.3982 -0.4237
 2301SOL    HW218363   3.053   2.229  14.600  2.4574 -0.3716 -0.3101
 2302SOL     OW18364   4.608   0.853   7.108  0.2019  0.2400  0.0027
 2302SOL    HW118365   4.697   0.887   7.113 -0.6494  2.7254 -1.8037
 2302SOL    HW218366   4.562   0.932   7.133  0.6682  0.9616 -1.4071
 2303SOL     OW18367   3.193   3.459   4.321  0.0467  0.7839 -1.1075
 2303SOL    HW118368   3.248   3.445   4.245  0.7598 -1.5902 -0.1303
 2303SOL    HW218369   3.204   3.380   4.374  2.1095  0.8472 -1.4734
 2304SOL     OW18370   0.406   0.137  10.278  0.5998  0.1172  0.2864
 2304SOL    HW118371   0.459   0.211  10.250  0.2676  1.1309  2.3014
 2304SOL    HW218372   0.469   0.068  10.258 -0.5581  0.1268 -3.4461
 2305SOL     OW18373   0.272   2.105   4.517 -0.4520 -0.1749 -0.0350
 2305SOL    HW118374   0.231   2.076   4.599 -2.9145 -1.9180 -1.9103
 2305SOL    HW218375   0.270   2.021   4.471  0.9885  0.3707 -1.1001
 2306SOL     OW18376   2.387   1.362   1.049 -0.5491  0.4045 -0.0444
 2306SOL    HW118377   2.410   1.442   1.096 -0.1118 -0.1909  0.7462
 2306SOL    HW218378   2.421   1.371   0.960  0.3749 -0.9271  0.1962
 2307SOL     OW18379   1.770   0.760   5.586  0.0546 -0.0719 -0.6613
 2307SOL    HW118380   1.720   0.682   5.559  1.2270 -0.9048 -0.4009
 2307SOL    HW218381   1.759   0.821   5.513 -0.5971  0.5092 -0.0737
 2308SOL     OW18382   2.971   2.380   6.527  0.5992 -0.2735  0.5371
 2308SOL    HW118383   2.981   2.297   6.479 -2.5005 -1.4642  1.9850
 2308SOL    HW218384   2.968   2.332   6.610  0.7164 -0.0791  0.6522
 2309SOL     OW18385   2.310   3.682  11.452  0.2274  0.0927 -0.2506
 2309SOL    HW118386   2.375   3.612  11.451 -0.1890 -0.2835 -1.4891
 2309SOL    HW218387   2.233   3.650  11.405  1.0268 -2.6081  0.2700
 2310SOL     OW18388   4.125   1.139  15.038  0.0946 -0.2841  0.0673
 2310SOL    HW118389   4.058   1.184  15.090  0.0226 -0.4858  0.1522
 2310SOL    HW218390   4.102   1.046  15.042 -1.9319  0.1661 -1.0292
 2311SOL     OW18391   1.588   2.000   5.051 -0.3029  0.2903  0.0979
 2311SOL    HW118392   1.555   1.994   5.140  0.9624 -0.3539  0.5213
 2311SOL    HW218393   1.682   2.005   5.069 -0.1108 -0.9196 -0.5796
 2312SOL     OW18394   0.917   4.585   6.027  0.0979  0.4121  0.0154
 2312SOL    HW118395   0.971   4.507   6.016 -0.8009 -0.1377 -0.4609
 2312SOL    HW218396   0.837   4.548   6.064  0.3484 -0.5165 -0.3833
 2313SOL     OW18397   2.002   2.909   9.228  0.2303  0.0451 -0.1795
 2313SOL    HW118398   2.014   2.985   9.172 -3.0061  0.9263  0.3227
 2313SOL    HW218399   1.924   2.928   9.281 -0.5098 -1.5822 -0.6528
 2314SOL     OW18400   0.932   0.986   5.666  0.4003 -0.4404 -0.1459
 2314SOL    HW118401   1.007   1.045   5.664 -0.0137  0.0888 -0.0528
 2314SOL    HW218402   0.869   1.029   5.608  0.2601 -0.4935 -0.0309
 2315SOL     OW18403   3.071   4.119   3.031 -0.6899 -1.1203 -0.3773
 2315SOL    HW118404   2.983   4.153   3.049 -0.4337 -1.0966  0.8242
 2315SOL    HW218405   3.077   4.024   3.037 -0.8885 -1.2681 -2.3901
 2316SOL     OW18406   4.405   2.236   1.160 -0.6103 -0.4045 -0.2359
 2316SOL    HW118407   4.470   2.286   1.209  1.2714 -1.2686 -1.8710
 2316SOL    HW218408   4.372   2.309   1.109  0.2623 -0.2050 -0.5194
 2317SOL     OW18409   1.584   3.092  11.373  0.5797 -0.2345 -0.5007
 2317SOL    HW118410   1.549   3.040  11.301  0.7551 -0.6256 -0.3078
 2317SOL    HW218411   1.676   3.092  11.346  0.6182 -4.0934 -0.3292
 2318SOL     OW18412   2.775   3.978   4.150  0.0784  0.3873 -0.3965
 2318SOL    HW118413   2.742   4.052   4.201 -1.1729  1.9113 -3.4192
 2318SOL    HW218414   2.736   3.907   4.200  0.9230 -1.1477 -1.9329
 2319SOL     OW18415   1.642   0.941   6.408 -0.7944  0.8502  0.1040
 2319SOL    HW118416   1.720   0.980   6.446 -0.2464 -1.2135  1.1119
 2319SOL    HW218417   1.630   1.013   6.347 -1.9303  0.0034 -0.6982
 2320SOL     OW18418   3.076   1.200   2.950 -0.1915  0.2225  0.0798
 2320SOL    HW118419   3.078   1.133   3.019 -0.8505  2.3494  2.1410
 2320SOL    HW218420   3.119   1.149   2.881 -0.2848  0.6263 -0.2741
 2321SOL     OW18421   3.047   3.008   4.690 -0.0133  0.1117 -0.0073
 2321SOL    HW118422   2.969   2.983   4.739  0.1986 -0.7926 -0.1176
 2321SOL    HW218423   2.994   3.057   4.628 -1.3047  1.6008  2.3047
 2322SOL     OW18424   0.307   3.674   1.666 -0.3069  0.3101 -0.2811
 2322SOL    HW118425   0.256   3.713   1.737  0.5811 -0.1202  0.5796
 2322SOL    HW218426   0.364   3.609   1.707 -2.3290 -0.4918  1.2594
 2323SOL     OW18427   0.922   4.324   2.895  0.1100 -0.0377 -0.0534
 2323SOL    HW118428   0.898   4.266   2.823  0.7528  0.6135 -0.7872
 2323SOL    HW218429   0.840   4.315   2.944  1.1217  0.8510  1.8120
 2324SOL     OW18430   1.398   4.595   6.786  0.1822  0.1589  0.3960
 2324SOL    HW118431   1.415   4.664   6.722 -2.8984 -0.5744 -1.2353
 2324SOL    HW218432   1.341   4.534   6.740 -0.0559  0.7400 -0.0844
 2325SOL     OW18433   2.328   0.069   1.591  0.0732 -0.7593  0.1254
 2325SOL    HW118434   2.410   0.042   1.549  0.8847  0.1759  1.1191
 2325SOL    HW218435   2.290   0.117   1.518 -1.5989 -0.2695  1.3168
 2326SOL     OW18436   0.908   3.550   1.497  0.4253  0.2625 -0.4715
 2326SOL    HW118437   0.823   3.594   1.490  0.3583  0.3043  0.6969
 2326SOL    HW218438   0.909   3.488   1.424  1.0783  2.1759 -2.0840
 2327SOL     OW18439   2.684   1.824   0.536 -0.5944  0.2149 -0.6617
 2327SOL    HW118440   2.660   1.898   0.480  2.5259  1.0678 -0.8514
 2327SOL    HW218441   2.776   1.814   0.510 -0.0833 -1.6979  1.8572
 2328SOL     OW18442   4.477   1.694   3.512  0.0743  0.2239 -0.7091
 2328SOL    HW118443   4.440   1.616   3.469 -0.2982  1.1941 -2.1557
 2328SOL    HW218444   4.517   1.740   3.438  0.9098 -0.2796 -0.5681
 2329SOL     OW18445   2.563   0.268   7.852  0.0267  0.0240 -0.1749
 2329SOL    HW118446   2.621   0.208   7.807 -1.9386 -2.6703  0.8549
 2329SOL    HW218447   2.592   0.266   7.943 -1.1291 -0.1319  0.1984
 2330SOL     OW18448   0.173   1.850  16.807 -0.3660  0.3662 -0.2442
 2330SOL    HW118449   0.114   1.924  16.821 -1.4421 -0.1059 -2.3605
 2330SOL    HW218450   0.198   1.864  16.715 -1.8915  1.0019 -0.5565
 2331SOL     OW18451   3.631   0.707   6.269  0.1455  0.4109 -0.3257
 2331SOL    HW118452   3.712   0.705   6.319 -1.5885 -3.3297  2.3806
 2331SOL    HW218453   3.573   0.762   6.322 -0.5102 -0.7103  0.1506
 2332SOL     OW18454   2.764   3.685   4.049  0.1103  0.1387  0.4304
 2332SOL    HW118455   2.775   3.686   4.144  3.5420 -0.9449  0.0429
 2332SOL    HW218456   2.855   3.672   4.024 -0.5378 -0.1189 -1.7858
 2333SOL     OW18457   1.095   2.061  11.108  0.4490 -1.0276 -0.3039
 2333SOL    HW118458   1.011   2.084  11.148  1.1915  1.7487 -0.3576
 2333SOL    HW218459   1.087   1.966  11.115  0.6420 -0.8507  2.2135
 2334SOL     OW18460   3.173   0.224   5.582 -0.4217  0.3643 -0.4878
 2334SOL    HW118461   3.144   0.148   5.532  2.7376 -0.3707 -1.1779
 2334SOL    HW218462   3.227   0.265   5.514  0.5127  1.6387  1.0214
 2335SOL     OW18463   1.604   4.379  12.660  0.6658 -0.1678  0.0376
 2335SOL    HW118464   1.671   4.414  12.718 -1.0930 -0.1971  2.0935
 2335SOL    HW218465   1.651   4.298  12.639  1.4812  0.0207  1.2013
 2336SOL     OW18466   0.783   0.852  13.178 -0.8171  0.3483 -0.2956
 2336SOL    HW118467   0.800   0.807  13.095  0.6695 -0.1479  0.2629
 2336SOL    HW218468   0.851   0.804  13.227 -0.4819  2.2751  1.1036
 2337SOL     OW18469   1.161   2.185   0.488  0.0074  0.1296 -0.7739
 2337SOL    HW118470   1.110   2.215   0.564  0.0668 -0.8301 -0.3509
 2337SOL    HW218471   1.239   2.240   0.497  0.4467 -0.6003 -0.0711
 2338SOL     OW18472   1.534   1.163   2.694 -0.3310 -0.2150  0.0072
 2338SOL    HW118473   1.572   1.076   2.709 -0.4523 -0.0797  1.0935
 2338SOL    HW218474   1.555   1.178   2.601  0.2260 -1.3981 -0.0646
 2339SOL     OW18475   1.549   0.129   4.809  0.2896  0.1486  0.1497
 2339SOL    HW118476   1.598   0.197   4.854  0.5639  0.2902 -0.3635
 2339SOL    HW218477   1.481   0.175   4.760 -1.6016 -2.2105  0.5193
 2340SOL     OW18478   4.304   0.695   1.537 -0.3865  0.2972  0.1439
 2340SOL    HW118479   4.357   0.615   1.527 -0.3645  0.1021  1.8438
 2340SOL    HW218480   4.300   0.712   1.631  0.9741  1.8370 -0.0739
 2341SOL     OW18481   0.977   3.625   5.943  0.5832 -0.2986 -0.0095
 2341SOL    HW118482   0.993   3.709   5.899 -1.5377 -1.1779 -2.4607
 2341SOL    HW218483   1.050   3.569   5.914  0.3322 -0.5805 -0.0941
 2342SOL     OW18484   2.186   1.093   4.304  0.5227  0.3471  0.3980
 2342SOL    HW118485   2.224   1.108   4.218  1.3988  0.8666  0.8754
 2342SOL    HW218486   2.267   1.115   4.350  0.7924  0.5968 -0.1929
 2343SOL     OW18487   3.194   3.755   0.287  0.0395  0.4194  0.2738
 2343SOL    HW118488   3.209   3.781   0.377 -1.3928 -1.6092  1.0998
 2343SOL    HW218489   3.212   3.840   0.247  2.5615  0.0548  0.6470
 2344SOL     OW18490   1.240   1.703   6.548  0.1411  0.0848  0.3800
 2344SOL    HW118491   1.216   1.781   6.499  0.0244 -0.4390 -0.4018
 2344SOL    HW218492   1.167   1.696   6.610  1.7218  2.9614  2.5253
 2345SOL     OW18493   0.227   0.577   5.315  0.2780  0.1150  0.7578
 2345SOL    HW118494   0.285   0.501   5.319 -0.2256 -0.4216 -2.1596
 2345SOL    HW218495   0.287   0.646   5.344 -2.0923  2.6951 -0.5190
 2346SOL     OW18496   0.835   0.148   7.790 -0.2207  0.0750  0.3657
 2346SOL    HW118497   0.840   0.145   7.694 -1.7371 -0.0856  0.3053
 2346SOL    HW218498   0.771   0.078   7.797 -0.5141  0.4178  1.1018
 2347SOL     OW18499   0.023   3.272  11.373 -0.5512  0.3482 -0.1637
 2347SOL    HW118500   0.053   3.200  11.318  1.3799  1.7316 -0.9287
 2347SOL    HW218501   0.016   3.230  11.459  1.0114  1.0443  0.3001
 2348SOL     OW18502   1.616   2.234   8.232  0.0094 -1.0103  0.0940
 2348SOL    HW118503   1.666   2.181   8.170 -1.2575 -1.4586 -0.5451
 2348SOL    HW218504   1.557   2.162   8.255  1.9043 -2.2493  1.0753
 2349SOL     OW18505   1.122   2.928   4.676 -0.4472 -0.0953  0.3051
 2349SOL    HW118506   1.043   2.887   4.712  0.9421 -0.5741  2.8519
 2349SOL    HW218507   1.082   2.995   4.620 -0.8461  1.1084  2.0103
 2350SOL     OW18508   4.108   3.691   3.646 -0.0828 -0.3355 -0.3378
 2350SOL    HW118509   4.084   3.778   3.677 -1.9624 -0.7136 -0.7848
 2350SOL    HW218510   4.203   3.700   3.636 -0.1624  0.1113 -0.6417
 2351SOL     OW18511   0.006   3.772   0.079  0.0063  0.4336  0.3718
 2351SOL    HW118512   4.640   3.805   0.099  1.3330  2.5337  2.6088
 2351SOL    HW218513   0.007   3.701   0.144  1.8539 -0.1157 -0.2452
 2352SOL     OW18514   1.820   2.313   2.131  0.4139 -0.2125 -0.1506
 2352SOL    HW118515   1.804   2.406   2.145 -1.6215 -0.7797  1.3691
 2352SOL    HW218516   1.734   2.284   2.102  1.2542 -1.5774 -1.2645
 2353SOL     OW18517   3.203   0.934   6.446  0.0298  0.2428 -0.0903
 2353SOL    HW118518   3.282   0.884   6.426 -1.1102 -1.8050  0.5928
 2353SOL    HW218519   3.229   1.026   6.446 -1.0787  0.5604  2.6108
 2354SOL     OW18520   2.444   3.098   5.510  0.5968 -0.9400  0.0981
 2354SOL    HW118521   2.428   3.191   5.491 -0.8110 -1.3477 -0.7241
 2354SOL    HW218522   2.420   3.091   5.602 -1.4138  3.0926 -0.1248
 2355SOL     OW18523   4.715   3.729   6.430 -0.1269  0.3456  0.0933
 2355SOL    HW118524   0.024   3.710   6.341 -0.5252 -0.3760  0.1135
 2355SOL    HW218525   4.624   3.705   6.410  0.0229  1.2643 -1.7839
 2356SOL     OW18526   1.016   1.220  13.321  0.4383 -0.2296  0.2760
 2356SOL    HW118527   1.076   1.155  13.356 -0.4200 -0.9999  0.3041
 2356SOL    HW218528   0.954   1.213  13.394  2.3251 -0.6033  1.8533
 2357SOL     OW18529   2.182   4.512  14.973 -0.0134  0.1724 -0.0293
 2357SOL    HW118530   2.245   4.553  14.913 -0.3895  0.6404 -0.1057
 2357SOL    HW218531   2.188   4.423  14.937  4.9133  0.4098  0.1935
 2358SOL     OW18532   2.214   1.200   7.669 -0.0336  0.0991  0.3823
 2358SOL    HW118533   2.169   1.115   7.665  0.6855 -0.2294 -0.5885
 2358SOL    HW218534   2.202   1.215   7.763 -0.6450  1.0276  0.1454
 2359SOL     OW18535   3.226   3.779   4.505 -0.4931  0.5362 -0.4746
 2359SOL    HW118536   3.253   3.719   4.435  0.3277  0.7320 -0.3207
 2359SOL    HW218537   3.133   3.756   4.506 -0.3975  0.0392 -2.2566
 2360SOL     OW18538   4.046   2.810  11.989  0.2753 -0.3494  0.5315
 2360SOL    HW118539   4.084   2.752  11.922  1.0774  1.3297 -0.4640
 2360SOL    HW218540   3.977   2.755  12.027 -3.3153  2.4216 -2.0190
 2361SOL     OW18541   1.835   1.653   3.171 -0.3546  0.2175 -0.1150
 2361SOL    HW118542   1.826   1.578   3.112  2.4823  0.0663 -0.3272
 2361SOL    HW218543   1.783   1.721   3.129 -2.1441 -1.4840 -0.7117
 2362SOL     OW18544   0.186   4.630   4.109  0.2607  0.2038 -0.1407
 2362SOL    HW118545   0.106   4.641   4.160 -0.3076 -4.3622  0.0125
 2362SOL    HW218546   0.172   4.700   4.045 -2.0346  0.1602  0.2821
 2363SOL     OW18547   1.043   0.222   1.694  0.6103 -0.3655  0.5147
 2363SOL    HW118548   1.120   0.259   1.651  1.5516 -1.2081  1.4710
 2363SOL    HW218549   0.973   0.281   1.667  1.1589 -0.0138 -0.1420
 2364SOL     OW18550   0.488   3.869  12.142  0.5471 -0.2769  0.3251
 2364SOL    HW118551   0.502   3.780  12.173 -0.2859 -1.2735 -2.2031
 2364SOL    HW218552   0.433   3.910  12.209  1.8486  3.5515 -0.9380
 2365SOL     OW18553   0.871   4.271   8.096  0.5471 -0.3725  0.3605
 2365SOL    HW118554   0.811   4.197   8.100 -1.5857  1.3446 -0.2747
 2365SOL    HW218555   0.944   4.239   8.043  0.5727 -0.0705  0.2136
 2366SOL     OW18556   2.821   2.517   4.751  0.0888  0.3456  0.1874
 2366SOL    HW118557   2.803   2.431   4.713 -0.1489 -0.4426  2.0639
 2366SOL    HW218558   2.754   2.575   4.717  2.1623  3.3063  1.1564
 2367SOL     OW18559   2.689   4.176  17.242  0.4571  0.6041  0.9166
 2367SOL    HW118560   2.697   4.264  17.206 -0.0052  0.3163  0.0852
 2367SOL    HW218561   2.611   4.190  17.296  1.0376 -1.6179  2.3305
 2368SOL     OW18562   2.464   0.034  10.603 -0.0323 -0.4515 -0.4872
 2368SOL    HW118563   2.411   0.110  10.583 -1.0041 -1.0052  0.0108
 2368SOL    HW218564   2.487   0.006  10.514  1.1236 -0.3406 -0.2311
 2369SOL     OW18565   1.236   4.473   1.691  0.1034  0.3437 -0.1330
 2369SOL    HW118566   1.199   4.437   1.771 -2.0964 -0.1180 -1.3579
 2369SOL    HW218567   1.207   4.564   1.690 -0.7571  0.0739  1.4961
 2370SOL     OW18568   1.378   0.663   8.742  0.8390 -0.9656 -0.0912
 2370SOL    HW118569   1.428   0.606   8.685  0.9673  0.8990 -1.8524
 2370SOL    HW218570   1.365   0.612   8.822  0.9692  0.0246  0.5763
 2371SOL     OW18571   1.888   0.109   2.641 -0.3276  0.2446  0.4624
 2371SOL    HW118572   1.982   0.105   2.626 -0.7871 -0.0367 -2.2936
 2371SOL    HW218573   1.855   0.073   2.558  0.2200  0.4693  0.1498
 2372SOL     OW18574   1.845   0.752   1.907 -0.5624 -0.0164  0.4596
 2372SOL    HW118575   1.930   0.787   1.934 -0.4681 -1.1351  1.6381
 2372SOL    HW218576   1.785   0.822   1.934  2.0108  1.6162  1.9473
 2373SOL     OW18577   3.739   4.153   4.411  0.3519 -0.1246 -0.1560
 2373SOL    HW118578   3.822   4.196   4.427  0.8674 -2.4258  3.3908
 2373SOL    HW218579   3.748   4.119   4.322 -1.0804  0.5308 -0.5533
 2374SOL     OW18580   0.680   3.039   6.225  0.0208  0.2257  0.1744
 2374SOL    HW118581   0.629   3.115   6.253 -1.3295 -0.1515 -1.2999
 2374SOL    HW218582   0.623   2.970   6.259 -0.0902 -0.3454 -1.1846
 2375SOL     OW18583   1.050   4.487   3.096  0.1083  0.2121 -0.0084
 2375SOL    HW118584   1.003   4.440   3.027  0.8384 -1.1926  0.4636
 2375SOL    HW218585   1.090   4.420   3.151  1.1959  1.5999  0.8990
 2376SOL     OW18586   1.786   0.503   7.718  0.0275  1.0278 -0.0331
 2376SOL    HW118587   1.781   0.599   7.713  0.1702  0.9346 -2.1745
 2376SOL    HW218588   1.862   0.478   7.666 -0.1444  0.6709 -0.1089
 2377SOL     OW18589   1.464   3.647   2.565  0.3926  0.9573 -0.5117
 2377SOL    HW118590   1.493   3.568   2.520  0.8875  0.2018  1.1444
 2377SOL    HW218591   1.447   3.619   2.655 -0.4024  1.5944 -0.4637
 2378SOL     OW18592   4.140   0.710   5.964  0.2267  0.2982 -0.1162
 2378SOL    HW118593   4.227   0.750   5.967  0.3368  0.0905 -0.5585
 2378SOL    HW218594   4.078   0.783   5.966 -0.4290 -0.2348 -0.9425
 2379SOL     OW18595   2.221   1.962   2.208  0.2046  0.2400  0.5997
 2379SOL    HW118596   2.290   1.925   2.152 -1.0652  0.2691 -0.9770
 2379SOL    HW218597   2.190   1.880   2.245  0.7180 -0.4275 -0.4442
 2380SOL     OW18598   2.475   2.190  17.286  0.6707  0.0641  0.8418
 2380SOL    HW118599   2.456   2.259  17.350 -0.0913  1.7713 -1.2048
 2380SOL    HW218600   2.552   2.151  17.326  1.4332  0.0117 -0.6875
 2381SOL     OW18601   1.563   3.504   6.742  0.4916  0.1485  0.2364
 2381SOL    HW118602   1.471   3.504   6.715  0.3449 -2.4394  0.7718
 2381SOL    HW218603   1.555   3.419   6.784  0.9189  0.2890  0.6043
 2382SOL     OW18604   1.753   4.702  15.621  0.4016 -0.1618  0.2215
 2382SOL    HW118605   1.675   4.714  15.674 -0.8630  0.6636 -1.8152
 2382SOL    HW218606   1.828   0.017  15.668 -0.4446  2.8118 -0.7505
 2383SOL     OW18607   4.526   1.029  13.636  0.0557  0.0005 -0.1227
 2383SOL    HW118608   4.590   1.091  13.602  2.6853 -2.3822  0.4745
 2383SOL    HW218609   4.539   0.952  13.581  0.5535 -1.1149  1.5373
 2384SOL     OW18610   3.948   4.340   3.067 -0.3146  0.4937 -0.1641
 2384SOL    HW118611   3.974   4.315   2.979 -0.8638  1.8125 -0.7095
 2384SOL    HW218612   3.855   4.362   3.057 -0.2645  1.8878  2.2301
 2385SOL     OW18613   0.652   1.818   4.476 -0.4140  0.2133  0.4953
 2385SOL    HW118614   0.669   1.898   4.426  0.3844  1.6133  2.9767
 2385SOL    HW218615   0.636   1.759   4.403  2.0256 -0.2903  0.3557
 2386SOL     OW18616   4.501   0.245   1.467 -0.2577  0.1755 -0.6597
 2386SOL    HW118617   4.438   0.217   1.534 -0.7666  0.5823 -0.9707
 2386SOL    HW218618   4.507   0.337   1.491 -0.2299  0.3055 -1.1669
 2387SOL     OW18619   1.750   2.556  17.604 -0.3033  0.0129  0.2408
 2387SOL    HW118620   1.697   2.595  17.535  0.0688 -1.0722 -0.6524
 2387SOL    HW218621   1.737   2.613  17.679  1.1318  0.6896 -0.0378
 2388SOL     OW18622   1.294   0.579  13.979  0.0095  0.2044  0.6108
 2388SOL    HW118623   1.301   0.564  14.073  1.1384  2.3231  0.8580
 2388SOL    HW218624   1.225   0.644  13.983  3.0770  3.4736 -0.2327
 2389SOL     OW18625   3.742   0.947   8.981 -0.0413 -0.0284 -0.5249
 2389SOL    HW118626   3.813   0.996   9.021  0.2295 -2.1349  1.5664
 2389SOL    HW218627   3.737   0.875   9.044  0.8641  1.3786  1.1350
 2390SOL     OW18628   2.836   2.076   8.987 -0.3576 -0.0010 -0.1836
 2390SOL    HW118629   2.926   2.068   9.019 -0.1601  0.6927 -0.5757
 2390SOL    HW218630   2.842   2.065   8.893 -1.0681  1.2700 -0.3805
 2391SOL     OW18631   1.060   4.124   7.508 -0.6915  0.2321 -0.4920
 2391SOL    HW118632   0.987   4.113   7.447 -0.3092  1.0236 -1.0822
 2391SOL    HW218633   1.031   4.187   7.574  0.0580 -2.4494  2.4549
 2392SOL     OW18634   0.727   3.344   3.784 -0.3004 -0.2502 -0.0681
 2392SOL    HW118635   0.668   3.299   3.845  1.6706 -0.6048  1.6061
 2392SOL    HW218636   0.810   3.301   3.805  0.6006  0.0298 -3.0823
 2393SOL     OW18637   2.292   4.580   5.017 -0.0073 -0.5559 -0.6785
 2393SOL    HW118638   2.208   4.614   5.050  1.1345 -0.2908  1.9035
 2393SOL    HW218639   2.342   4.662   5.019  2.3112 -2.0126  0.5214
 2394SOL     OW18640   2.913   1.917   5.424 -0.1492 -0.0089  0.4589
 2394SOL    HW118641   3.000   1.939   5.457  0.0684  1.4083 -1.0696
 2394SOL    HW218642   2.914   1.936   5.331  0.8791  1.9120  0.8710
 2395SOL     OW18643   3.870   3.835   5.691 -0.0363 -0.7028  0.3476
 2395SOL    HW118644   3.946   3.889   5.667  2.1086 -4.6162 -1.6069
 2395SOL    HW218645   3.819   3.882   5.757  1.7309  1.6180  0.0750
 2396SOL     OW18646   4.427   0.040   1.289  0.5897  0.0785 -0.1586
 2396SOL    HW118647   4.428   0.079   1.202  0.1182 -0.3183 -0.3390
 2396SOL    HW218648   4.461   0.116   1.338 -1.8308 -0.0760  1.7631
 2397SOL     OW18649   2.124   2.538   8.589  0.5561  0.2347  0.4401
 2397SOL    HW118650   2.056   2.599   8.616 -1.5762 -2.3772  0.9546
 2397SOL    HW218651   2.090   2.539   8.499 -0.4424 -0.7472  0.8078
 2398SOL     OW18652   0.688   0.565   2.132 -0.4749  0.4517  0.2424
 2398SOL    HW118653   0.630   0.571   2.208  1.5269 -0.4853  1.8360
 2398SOL    HW218654   0.643   0.635   2.084  0.5793  0.2601 -1.0423
 2399SOL     OW18655   2.507   3.957   7.509 -0.4577 -0.3867 -1.1682
 2399SOL    HW118656   2.531   4.009   7.432 -0.2570 -0.2823 -1.0374
 2399SOL    HW218657   2.563   4.007   7.569 -0.3488 -3.1847  1.0317
 2400SOL     OW18658   4.600   3.378   0.397 -0.0883 -0.0215 -0.4435
 2400SOL    HW118659   4.646   3.356   0.478  0.8635 -0.7023 -1.1658
 2400SOL    HW218660   4.522   3.422   0.431  0.0995  0.0086 -0.0465
 2401SOL     OW18661   0.742   2.997  11.736  0.4767 -0.1718 -0.1854
 2401SOL    HW118662   0.735   3.085  11.699 -0.8774 -0.5189 -0.7474
 2401SOL    HW218663   0.835   2.984  11.720  0.3170 -0.6270 -0.7242
 2402SOL     OW18664   1.873   4.452   4.162  0.0725  0.7617  0.2191
 2402SOL    HW118665   1.915   4.519   4.216  2.0932  1.0572 -1.6939
 2402SOL    HW218666   1.927   4.377   4.185  0.0444 -0.0486 -2.3309
 2403SOL     OW18667   1.201   2.656   6.280 -0.4297 -0.3209 -0.1138
 2403SOL    HW118668   1.132   2.714   6.311 -2.5892 -3.4563  0.9339
 2403SOL    HW218669   1.171   2.578   6.326 -2.0484 -1.1515 -2.5720
 2404SOL     OW18670   1.731   0.253   5.304  0.3609  0.2855 -0.4298
 2404SOL    HW118671   1.651   0.215   5.267  0.3631  0.0564 -0.2001
 2404SOL    HW218672   1.722   0.215   5.392  2.2870  0.3694 -0.2102
 2405SOL     OW18673   2.824   2.080   8.690 -0.5353 -0.3027 -0.4086
 2405SOL    HW118674   2.794   2.069   8.599  0.7412  0.5938 -0.9313
 2405SOL    HW218675   2.780   2.164   8.699 -1.4837 -1.1049  2.4713
 2406SOL     OW18676   2.315   0.649   4.968  0.0440  0.0617 -0.0510
 2406SOL    HW118677   2.291   0.737   4.939  1.8651  1.7177  3.5583
 2406SOL    HW218678   2.284   0.645   5.058 -4.0442 -0.8553 -1.4688
 2407SOL     OW18679   4.585   2.512  11.628 -0.7567  0.1509 -0.0583
 2407SOL    HW118680   4.506   2.471  11.663 -0.9367 -0.9128 -1.7624
 2407SOL    HW218681   4.637   2.437  11.598 -0.0909  0.2598  0.7953
 2408SOL     OW18682   3.455   0.641   2.783 -0.0094 -0.1172  0.0093
 2408SOL    HW118683   3.416   0.615   2.867 -0.0842 -0.8134 -0.2392
 2408SOL    HW218684   3.547   0.641   2.807 -0.5145  0.0137  1.9540
 2409SOL     OW18685   1.324   0.614  10.578 -0.2693  0.1802  0.2224
 2409SOL    HW118686   1.263   0.557  10.532  0.0867 -0.3504  0.4043
 2409SOL    HW218687   1.282   0.620  10.664 -0.7038  0.0606  0.0152
 2410SOL     OW18688   1.576   3.523   5.438 -0.0879  0.0576  0.0675
 2410SOL    HW118689   1.545   3.595   5.492  0.9298 -0.0687  0.8245
 2410SOL    HW218690   1.667   3.540   5.462  0.0616 -0.6361 -0.0009
 2411SOL     OW18691   3.529   0.030   8.429  0.1084 -0.3772  0.0118
 2411SOL    HW118692   3.470   0.073   8.368  1.4765 -0.1274 -1.1374
 2411SOL    HW218693   3.612   0.055   8.389  0.2150 -0.3970  0.2213
 2412SOL     OW18694   4.354   2.029   6.053  0.0085 -0.9770  0.7029
 2412SOL    HW118695   4.274   2.008   6.005 -0.2652  2.3565 -0.3284
 2412SOL    HW218696   4.339   2.117   6.089  1.4696 -1.4271  2.4054
 2413SOL     OW18697   3.926   1.125   8.216 -0.0359 -0.9549  0.0616
 2413SOL    HW118698   3.839   1.146   8.249 -0.3729  1.1034 -2.1379
 2413SOL    HW218699   3.909   1.040   8.176 -2.9276 -0.6376  0.6544
 2414SOL     OW18700   0.092   2.465   6.825  0.3179  0.1275 -0.3768
 2414SOL    HW118701   0.098   2.375   6.857 -0.4258  0.9924  2.2437
 2414SOL    HW218702   0.083   2.461   6.730 -4.2419 -0.9695  0.0970
 2415SOL     OW18703   0.049   1.351   7.658  0.3844 -0.3046  0.1595
 2415SOL    HW118704   0.003   1.434   7.671  0.4606 -0.4393  1.2854
 2415SOL    HW218705   0.014   1.288   7.720  1.2474 -2.4428 -1.5279
 2416SOL     OW18706   2.866   2.895   7.506  0.0934 -0.0242 -0.3007
 2416SOL    HW118707   2.911   2.914   7.424  2.0185  0.1264  0.7816
 2416SOL    HW218708   2.938   2.857   7.557 -0.5659  0.1384  0.7562
 2417SOL     OW18709   2.885   4.261  12.691 -0.2708 -0.2109  0.4202
 2417SOL    HW118710   2.908   4.258  12.598  0.0753  2.7743  0.4142
 2417SOL    HW218711   2.945   4.204  12.738 -0.9119 -0.7937  0.5244
 2418SOL     OW18712   0.671   4.053   5.977  0.0182 -0.1684 -0.5268
 2418SOL    HW118713   0.625   4.002   5.910  1.7878  0.9556 -2.5661
 2418SOL    HW218714   0.663   4.141   5.940 -1.5275  0.4095  1.1699
 2419SOL     OW18715   1.408   0.145   4.125 -0.3865  0.5142 -0.0477
 2419SOL    HW118716   1.388   0.160   4.217 -2.8364  0.0906 -0.5073
 2419SOL    HW218717   1.500   0.118   4.135  0.0768  2.2046  0.1995
 2420SOL     OW18718   0.343   2.046   5.894  0.6289 -0.3210  0.5221
 2420SOL    HW118719   0.399   2.069   5.968  2.8987  2.6303 -2.0972
 2420SOL    HW218720   0.276   1.994   5.939 -1.0423 -0.1271 -1.7069
 2421SOL     OW18721   1.845   2.973   1.600 -0.0331 -0.0777  0.8887
 2421SOL    HW118722   1.901   2.924   1.540 -1.9845  0.1425 -1.0855
 2421SOL    HW218723   1.812   2.891   1.637 -0.7962  1.0947  2.8095
 2422SOL     OW18724   3.531   4.630   2.684  0.2993 -0.1888 -0.5570
 2422SOL    HW118725   3.512   4.693   2.753  0.5003 -3.0106  2.0950
 2422SOL    HW218726   3.470   4.650   2.614 -0.3074 -1.9246 -0.5082
 2423SOL     OW18727   3.514   1.039   6.558  0.7631 -0.4470  0.3347
 2423SOL    HW118728   3.579   1.102   6.527  0.1787 -0.4187 -0.8488
 2423SOL    HW218729   3.529   1.053   6.651 -2.3495  1.5700  0.5717
 2424SOL     OW18730   1.456   0.470   9.823  0.4171 -0.3208  0.0395
 2424SOL    HW118731   1.528   0.531   9.818 -1.1257  1.6126  1.3019
 2424SOL    HW218732   1.458   0.432   9.911 -0.2217  1.0410  0.6351
 2425SOL     OW18733   0.397   2.356  16.376  0.2145  0.0005  0.3246
 2425SOL    HW118734   0.433   2.444  16.372 -1.8227  0.9030  1.5643
 2425SOL    HW218735   0.431   2.313  16.298 -0.4462 -0.0786  0.0770
 2426SOL     OW18736   3.881   2.473  13.149 -0.0533  0.5095  0.2471
 2426SOL    HW118737   3.894   2.475  13.055  2.7170  0.2368  0.6388
 2426SOL    HW218738   3.788   2.497  13.151 -0.0214  0.2336  4.6559
 2427SOL     OW18739   4.555   0.255   6.270 -0.0623  0.1074 -0.4052
 2427SOL    HW118740   4.535   0.265   6.363  0.3196  0.5844 -0.3737
 2427SOL    HW218741   4.503   0.177   6.247  1.4922 -0.0285 -3.4028
 2428SOL     OW18742   4.268   3.220   5.726 -0.5997  0.1467  0.8573
 2428SOL    HW118743   4.314   3.183   5.801  0.4995 -1.5570 -0.6793
 2428SOL    HW218744   4.177   3.216   5.758 -0.6194 -1.0536  0.6235
 2429SOL     OW18745   2.769   2.338  10.701 -0.2661 -0.3118  0.2978
 2429SOL    HW118746   2.817   2.319  10.620  3.3835  0.4568  2.2557
 2429SOL    HW218747   2.789   2.259  10.751  2.1463 -1.6187 -2.7114
 2430SOL     OW18748   3.371   2.496   7.078 -0.0918 -0.4471 -0.7256
 2430SOL    HW118749   3.391   2.431   7.145 -1.3741  0.0191  0.1119
 2430SOL    HW218750   3.275   2.492   7.073  0.0228 -1.0068 -2.5650
 2431SOL     OW18751   3.875   1.000  13.258 -0.2977  0.1101  0.4551
 2431SOL    HW118752   3.879   1.046  13.342 -1.1402  0.0060  0.5557
 2431SOL    HW218753   3.784   0.971  13.261 -0.9518  2.2498  1.5880
 2432SOL     OW18754   3.483   2.073   5.876  0.1858  0.0599  0.0542
 2432SOL    HW118755   3.433   2.012   5.930 -1.7933  0.8423 -0.8873
 2432SOL    HW218756   3.516   2.139   5.937 -2.5498 -0.1788  1.7403
 2433SOL     OW18757   2.074   0.724   8.256  0.0996  0.3871  0.3494
 2433SOL    HW118758   2.166   0.708   8.234 -0.2595  0.6673 -1.3729
 2433SOL    HW218759   2.043   0.714   8.165 -0.2545  0.2866  0.4817
 2434SOL     OW18760   2.095   3.729   8.380  0.1339 -0.2273  0.7792
 2434SOL    HW118761   2.155   3.664   8.418 -0.9634 -1.8263 -0.1895
 2434SOL    HW218762   2.017   3.730   8.435 -1.6095  3.3771 -1.7530
 2435SOL     OW18763   0.838   1.875   7.399 -0.3404  0.0503 -0.2595
 2435SOL    HW118764   0.763   1.826   7.435 -1.9365  3.2707  0.8474
 2435SOL    HW218765   0.805   1.962   7.422  1.4075  0.6703 -0.1114
 2436SOL     OW18766   0.181   3.740   0.360 -0.5762  0.3670 -0.6527
 2436SOL    HW118767   0.101   3.767   0.406 -1.6522 -1.3946 -1.4885
 2436SOL    HW218768   0.153   3.660   0.315  1.1285 -0.0665 -0.9393
 2437SOL     OW18769   1.256   3.513   3.974  0.1730 -0.3247 -0.3267
 2437SOL    HW118770   1.220   3.426   3.990  0.7687 -0.0537  2.5161
 2437SOL    HW218771   1.351   3.503   3.963 -0.0515 -0.7560 -1.9241
 2438SOL     OW18772   0.989   4.105  15.589 -0.3661 -0.2492 -0.4241
 2438SOL    HW118773   0.940   4.086  15.669  0.8738 -1.6996 -0.0057
 2438SOL    HW218774   0.919   4.122  15.525 -0.8776  2.6377  0.9237
 2439SOL     OW18775   3.109   2.773   5.229 -0.6717  0.0745 -0.2023
 2439SOL    HW118776   3.030   2.810   5.189  0.9236 -0.4637 -3.8157
 2439SOL    HW218777   3.146   2.742   5.146 -1.1545  0.0602 -0.4134
 2440SOL     OW18778   0.500   0.097   5.188 -0.0740 -0.1793  0.2780
 2440SOL    HW118779   0.503   0.044   5.108 -2.2830 -0.9929  0.7611
 2440SOL    HW218780   0.406   0.114   5.182  0.2658  0.4997 -3.1407
 2441SOL     OW18781   1.935   4.299   7.811  0.1834  0.0783 -0.6760
 2441SOL    HW118782   1.903   4.349   7.736 -0.8141  1.2488  0.5304
 2441SOL    HW218783   2.016   4.347   7.831 -1.0421  1.7084  0.4131
 2442SOL     OW18784   2.493   1.492   9.945  0.1824 -0.0130 -0.6839
 2442SOL    HW118785   2.488   1.587   9.937 -1.7876 -0.1193 -0.8367
 2442SOL    HW218786   2.579   1.491   9.904 -1.2282 -2.8090 -3.6142
 2443SOL     OW18787   4.716   0.703  16.386 -0.4661 -0.8161  0.1220
 2443SOL    HW118788   4.700   0.726  16.295  0.0809 -1.3537 -0.1051
 2443SOL    HW218789   0.033   0.785  16.415  0.6302 -0.2276 -3.0348
 2444SOL     OW18790   3.723   4.484   5.153  0.0587  0.1327  0.2299
 2444SOL    HW118791   3.708   4.457   5.063 -2.2297  0.9522  0.3448
 2444SOL    HW218792   3.633   4.459   5.176 -1.7668  4.2348 -2.4713
 2445SOL     OW18793   0.276   1.521   4.647  0.1848  0.2399 -0.2857
 2445SOL    HW118794   0.236   1.605   4.671  0.9702  1.1329 -2.1065
 2445SOL    HW218795   0.325   1.542   4.567  0.9332  0.8243  0.3175
 2446SOL     OW18796   4.026   2.621  12.777 -0.3244 -0.4759  0.4396
 2446SOL    HW118797   3.993   2.650  12.692 -1.0918 -1.1761  0.5032
 2446SOL    HW218798   3.957   2.655  12.835  0.3124  3.6174 -1.2032
 2447SOL     OW18799   1.539   0.059   8.161  0.2203 -0.0268 -0.6889
 2447SOL    HW118800   1.513   0.151   8.162 -0.7363 -0.3470  3.1471
 2447SOL    HW218801   1.587   0.046   8.243 -1.2105  0.8139  0.2832
 2448SOL     OW18802   3.841   4.502  16.821 -0.6103 -1.0010  0.1390
 2448SOL    HW118803   3.918   4.507  16.878 -1.0489  1.6474  0.5042
 2448SOL    HW218804   3.873   4.561  16.753 -2.6456 -0.0053  0.0412
 2449SOL     OW18805   0.371   1.859   2.291 -0.2517  0.1956 -0.2148
 2449SOL    HW118806   0.283   1.882   2.261  0.6976  1.2932 -2.1960
 2449SOL    HW218807   0.429   1.883   2.218  0.1016  0.4210  0.1430
 2450SOL     OW18808   1.175   1.017  13.446  0.3492 -0.3396 -0.2547
 2450SOL    HW118809   1.201   0.925  13.446  0.6789 -0.2473 -1.0955
 2450SOL    HW218810   1.118   1.016  13.523  0.0934 -2.9919 -0.4751
 2451SOL     OW18811   2.784   4.465   5.970  0.1509 -0.5750 -0.2351
 2451SOL    HW118812   2.750   4.550   5.943  0.5154 -0.0607  0.9168
 2451SOL    HW218813   2.703   4.414   5.964 -0.5756  0.0915  3.5754
 2452SOL     OW18814   3.462   1.741   0.638 -0.3491 -0.1881 -0.0945
 2452SOL    HW118815   3.543   1.790   0.655  0.7983 -1.7174 -1.0565
 2452SOL    HW218816   3.443   1.705   0.724  2.1279 -2.4135 -0.4584
 2453SOL     OW18817   2.324   0.208   7.727 -0.4399  0.3538  0.3191
 2453SOL    HW118818   2.320   0.204   7.632 -0.9926 -2.3629  0.4340
 2453SOL    HW218819   2.416   0.215   7.752  0.2053 -0.5177 -1.8212
 2454SOL     OW18820   1.073   0.356   4.075  0.2331 -0.4193  0.4194
 2454SOL    HW118821   1.057   0.446   4.104  1.1558 -0.6224  1.5471
 2454SOL    HW218822   1.088   0.358   3.980  0.7221 -1.2109  0.4821
 2455SOL     OW18823   1.633   2.516   5.839 -0.0216 -0.1380 -0.1862
 2455SOL    HW118824   1.683   2.569   5.901 -0.4917  1.2296 -0.9914
 2455SOL    HW218825   1.541   2.525   5.863  0.0721  1.1530 -0.3372
 2456SOL     OW18826   4.276   2.732   3.200 -0.0628  0.3333  0.1347
 2456SOL    HW118827   4.217   2.807   3.191  0.3787  0.5772 -0.7405
 2456SOL    HW218828   4.360   2.779   3.201 -0.2811  0.6729  1.6513
 2457SOL     OW18829   2.378   3.341   1.342 -0.2212 -0.0834 -0.0203
 2457SOL    HW118830   2.322   3.347   1.419  0.1792 -0.1138  0.2738
 2457SOL    HW218831   2.311   3.295   1.292 -0.4807 -0.5783  0.7902
 2458SOL     OW18832   4.618   4.419   7.434 -0.0662 -0.3658  0.6408
 2458SOL    HW118833   4.578   4.421   7.347  1.3302 -1.3763 -0.0261
 2458SOL    HW218834   4.676   4.495   7.431 -3.0654  1.9003 -0.3465
 2459SOL     OW18835   2.250   1.593  11.067  0.2371  0.9413  0.3109
 2459SOL    HW118836   2.191   1.518  11.073  1.6900 -0.2698 -0.3995
 2459SOL    HW218837   2.245   1.632  11.154  0.3011 -1.7135  1.5260
 2460SOL     OW18838   2.407   3.077   8.421  0.0197  0.0555 -0.7560
 2460SOL    HW118839   2.429   3.046   8.509 -2.4930 -0.6936 -0.3878
 2460SOL    HW218840   2.492   3.072   8.377  0.8123 -1.1343  0.9210
 2461SOL     OW18841   4.159   1.346   3.337  0.0432  0.7680 -0.2100
 2461SOL    HW118842   4.095   1.320   3.403 -3.1745  5.1466 -1.5869
 2461SOL    HW218843   4.095   1.366   3.269 -1.8363 -3.4692  0.3310
 2462SOL     OW18844   0.316   3.009   9.445  0.2820 -0.1058  0.1132
 2462SOL    HW118845   0.411   3.002   9.437  0.1089  0.0034 -2.0292
 2462SOL    HW218846   0.309   3.098   9.479  0.9299 -0.7965  2.0846
 2463SOL     OW18847   4.703   4.179   2.811  0.3872 -0.1079 -0.4493
 2463SOL    HW118848   4.651   4.246   2.856  3.1764 -1.7922  5.2981
 2463SOL    HW218849   4.668   4.094   2.837  3.0566 -0.7056  1.0585
 2464SOL     OW18850   3.003   0.461   2.644 -0.5600 -0.1850 -0.6758
 2464SOL    HW118851   2.989   0.384   2.589 -0.2773 -0.2143 -0.7082
 2464SOL    HW218852   2.948   0.527   2.601 -0.0111  0.4781 -0.3687
 2465SOL     OW18853   2.522   2.030   8.237  0.0680  0.2581 -0.2618
 2465SOL    HW118854   2.581   2.032   8.313 -0.0427  2.7528 -0.2462
 2465SOL    HW218855   2.469   2.100   8.275  1.5698  0.7659  0.9139
 2466SOL     OW18856   0.112   1.436   3.074 -0.0773 -0.1568  0.0432
 2466SOL    HW118857   0.037   1.379   3.094 -1.5236  0.5135 -3.4974
 2466SOL    HW218858   0.090   1.481   2.992  1.6393 -1.3581 -1.0832
 2467SOL     OW18859   4.479   0.921   4.337 -0.0703  0.2181 -0.0084
 2467SOL    HW118860   4.411   0.915   4.271 -0.4463 -1.5073  0.5379
 2467SOL    HW218861   4.528   0.841   4.318 -0.1093  0.4195 -0.9704
 2468SOL     OW18862   1.572   3.509  14.333 -0.3924  0.3050  0.2713
 2468SOL    HW118863   1.592   3.435  14.390  1.2125  0.9874  0.5856
 2468SOL    HW218864   1.483   3.534  14.357 -0.2235  1.3149 -0.1587
 2469SOL     OW18865   2.442   0.841   7.113  0.1694  0.1388  0.1553
 2469SOL    HW118866   2.494   0.861   7.035  0.9003 -0.8877  0.3752
 2469SOL    HW218867   2.503   0.840   7.187 -1.9693 -0.1373  1.8981
 2470SOL     OW18868   0.275   0.351   9.410 -0.3315 -0.0944  0.3970
 2470SOL    HW118869   0.347   0.301   9.450  0.5833  1.9814  1.3235
 2470SOL    HW218870   0.197   0.324   9.458 -2.7109  2.7716 -1.9207
 2471SOL     OW18871   0.733   0.323  15.722  0.3832 -0.2338  0.0234
 2471SOL    HW118872   0.779   0.243  15.696 -1.5586 -0.9019 -1.3643
 2471SOL    HW218873   0.804   0.385  15.703  0.5686 -0.5302 -0.2590
 2472SOL     OW18874   1.059   4.199   0.809 -0.0100 -0.4084 -0.1975
 2472SOL    HW118875   1.079   4.113   0.848 -1.1286 -0.4680  0.2512
 2472SOL    HW218876   1.133   4.205   0.749  0.1881  1.7772  0.2654
 2473SOL     OW18877   1.251   1.207   4.727  0.7153  0.4856 -0.1087
 2473SOL    HW118878   1.255   1.181   4.635 -2.3650 -2.5288  0.6180
 2473SOL    HW218879   1.161   1.187   4.753  1.7861 -0.4032  2.8438
 2474SOL     OW18880   0.149   0.852   5.032  0.0438  0.2117  0.2491
 2474SOL    HW118881   0.096   0.776   5.008 -1.2408  0.6869  1.5802
 2474SOL    HW218882   0.164   0.891   4.946  1.1064 -1.2124 -0.1982
 2475SOL     OW18883   1.111   3.850   6.139 -0.9280  0.4747 -0.0938
 2475SOL    HW118884   1.065   3.865   6.056  1.3530 -0.1202 -1.4594
 2475SOL    HW218885   1.104   3.755   6.149 -1.4408  0.4736 -0.4753
 2476SOL     OW18886   1.136   0.026   7.745  0.6343 -0.0460 -0.2604
 2476SOL    HW118887   1.213   4.692   7.758  0.7293 -0.1136 -1.1077
 2476SOL    HW218888   1.162   0.100   7.800  0.3545  0.3858 -0.7127
 2477SOL     OW18889   0.846   4.116  12.980  0.3629  0.2475  0.7889
 2477SOL    HW118890   0.897   4.053  13.031  0.5856 -0.9735 -0.9276
 2477SOL    HW218891   0.915   4.168  12.940  1.1527 -0.7175  0.9003
 2478SOL     OW18892   2.337   3.778  10.246  0.1454 -0.3261  0.1156
 2478SOL    HW118893   2.337   3.692  10.287 -1.5114  0.6863  2.2232
 2478SOL    HW218894   2.244   3.794  10.260  0.2986 -1.2203  2.1009
 2479SOL     OW18895   2.687   2.680   0.677 -0.6805  0.2396  0.2553
 2479SOL    HW118896   2.752   2.620   0.640 -1.1641 -2.5894  3.9976
 2479SOL    HW218897   2.675   2.756   0.619  2.1602  0.8822  0.5131
 2480SOL     OW18898   2.075   2.591  17.267  0.1384  0.4227  0.2231
 2480SOL    HW118899   2.043   2.523  17.326  2.1862 -2.2862 -1.7948
 2480SOL    HW218900   2.077   2.548  17.181  0.4633  1.8605 -0.4927
 2481SOL     OW18901   0.539   1.108  16.033 -0.0378  0.0589 -0.7007
 2481SOL    HW118902   0.589   1.028  16.016  0.3957 -0.0155  0.9277
 2481SOL    HW218903   0.536   1.120  16.128 -4.3939  0.7205 -0.9184
 2482SOL     OW18904   3.114   1.626   7.503  0.4667 -0.0804 -0.1584
 2482SOL    HW118905   3.173   1.552   7.519  0.4052  0.3329  2.0317
 2482SOL    HW218906   3.132   1.673   7.585  0.5879 -0.4504  0.0259
 2483SOL     OW18907   3.335   4.053   7.311  0.0046  0.0592 -0.5628
 2483SOL    HW118908   3.408   4.069   7.252 -0.9438  1.5759 -1.3429
 2483SOL    HW218909   3.371   4.000   7.382  1.7980  1.3360 -0.5347
 2484SOL     OW18910   0.932   1.626   7.688 -0.3134 -0.5925  0.1067
 2484SOL    HW118911   0.917   1.700   7.747  2.4260  0.2272 -0.2354
 2484SOL    HW218912   0.857   1.642   7.632 -0.5013 -3.1094 -0.3691
 2485SOL     OW18913   3.929   1.975  13.658 -0.0468  0.3097  0.4562
 2485SOL    HW118914   3.862   2.000  13.595 -1.5913 -1.8223  1.2556
 2485SOL    HW218915   3.874   1.953  13.733  0.7975 -1.2527  0.6303
 2486SOL     OW18916   4.512   2.948  11.921  0.5700  0.2820 -0.1127
 2486SOL    HW118917   4.524   2.949  12.016  0.3869 -0.0720 -0.0879
 2486SOL    HW218918   4.466   2.865  11.918 -1.6719  1.4258  2.5641
 2487SOL     OW18919   3.740   0.344   4.434 -0.7367  0.0562  0.2619
 2487SOL    HW118920   3.700   0.431   4.428  1.8618  1.0181 -3.1350
 2487SOL    HW218921   3.684   0.302   4.369  0.7067  0.5112 -1.2764
 2488SOL     OW18922   2.334   1.244  17.646 -0.0523 -0.2699  0.2476
 2488SOL    HW118923   2.300   1.314  17.590  1.3282 -0.9117 -1.3859
 2488SOL    HW218924   2.416   1.284  17.676  0.1102 -1.5211  1.4756
 2489SOL     OW18925   0.777   1.933   5.144  0.1339  0.2017 -0.8554
 2489SOL    HW118926   0.866   1.899   5.139 -1.1767 -3.1044 -1.8380
 2489SOL    HW218927   0.723   1.881   5.084 -1.6829 -0.6291  1.5372
 2490SOL     OW18928   0.159   4.060   3.009  0.4355  0.4203 -0.2839
 2490SOL    HW118929   0.216   3.994   3.049 -0.1801 -0.1075 -0.2884
 2490SOL    HW218930   0.199   4.136   3.052  1.1138  0.4046 -0.8807
 2491SOL     OW18931   1.199   1.708   0.863 -0.7074  0.3191 -0.7259
 2491SOL    HW118932   1.152   1.651   0.802  0.2684  1.1356 -2.2195
 2491SOL    HW218933   1.229   1.781   0.809 -3.4254 -0.9466 -3.9068
 2492SOL     OW18934   4.075   1.683  13.166 -0.7398 -0.5967  0.1587
 2492SOL    HW118935   4.152   1.729  13.198  0.1948 -2.1317  0.1280
 2492SOL    HW218936   4.100   1.669  13.074 -1.9845  2.4597 -0.6294
 2493SOL     OW18937   3.798   0.825   3.636  0.4127 -0.2412  0.1057
 2493SOL    HW118938   3.745   0.836   3.714 -1.9093 -0.9502 -1.3839
 2493SOL    HW218939   3.745   0.881   3.580 -0.2344 -1.2612 -0.3165
 2494SOL     OW18940   0.955   2.141   2.101  0.2869  0.2216  0.5334
 2494SOL    HW118941   1.044   2.136   2.066  0.7735  0.3267  1.7529
 2494SOL    HW218942   0.933   2.230   2.072 -0.8225 -0.4756 -0.7530
 2495SOL     OW18943   2.484   0.229   1.960  0.1114 -0.1210 -0.6146
 2495SOL    HW118944   2.520   0.252   1.874  0.9255  0.9073 -0.0084
 2495SOL    HW218945   2.426   0.158   1.932 -0.1717 -0.7098  1.5073
 2496SOL     OW18946   2.739   1.422   8.574  0.4414  0.0480  0.0607
 2496SOL    HW118947   2.668   1.373   8.533 -0.6189  1.3361  0.3365
 2496SOL    HW218948   2.700   1.510   8.566  0.5773 -0.0642 -1.7740
 2497SOL     OW18949   1.386   3.136   6.685 -0.2894  0.3677  0.0828
 2497SOL    HW118950   1.416   3.174   6.767  1.5254  1.8102 -1.2468
 2497SOL    HW218951   1.390   3.208   6.621  2.0536 -0.9873 -1.2761
 2498SOL     OW18952   4.353   3.604  16.006  0.1896 -0.0689 -0.2232
 2498SOL    HW118953   4.371   3.651  15.925  0.4504  0.4258  0.1218
 2498SOL    HW218954   4.272   3.635  16.046  0.1445 -1.6131  0.8995
 2499SOL     OW18955   1.560   3.289   8.678  0.0787 -0.0116 -0.2204
 2499SOL    HW118956   1.621   3.271   8.606 -0.1285 -0.3170 -0.3216
 2499SOL    HW218957   1.497   3.218   8.665  0.6086 -0.7729  1.5043
 2500SOL     OW18958   0.846   3.141   0.726  0.5074  0.1291 -0.5272
 2500SOL    HW118959   0.758   3.108   0.745  1.0232 -1.6167 -1.1833
 2500SOL    HW218960   0.817   3.215   0.673  0.9484  0.4241 -0.3556
 2501SOL     OW18961   3.743   4.442   4.859 -0.2805 -0.4487  0.1668
 2501SOL    HW118962   3.666   4.405   4.816 -0.4711  2.0011 -1.6114
 2501SOL    HW218963   3.748   4.527   4.815  0.9800 -1.0099 -0.7907
 2502SOL     OW18964   4.556   3.897   3.514  0.4005  0.5927 -0.0226
 2502SOL    HW118965   4.565   3.886   3.420 -1.3871 -2.7650  0.2136
 2502SOL    HW218966   4.643   3.867   3.538  0.0843  1.7522  2.6162
 2503SOL     OW18967   2.194   4.010   5.985 -0.0767 -0.2215 -0.6823
 2503SOL    HW118968   2.127   4.035   6.049 -0.8737 -0.1614 -1.5301
 2503SOL    HW218969   2.273   3.991   6.036 -0.5930  0.9473  0.5574
 2504SOL     OW18970   2.045   3.001   5.093  0.2302  0.0714 -0.5666
 2504SOL    HW118971   2.057   2.912   5.059  0.4826 -0.9167  2.0734
 2504SOL    HW218972   2.051   3.049   5.011  2.3432  1.9594  0.7110
 2505SOL     OW18973   2.061   2.964   6.756 -0.3117 -0.2056  0.4135
 2505SOL    HW118974   1.987   3.021   6.775  0.7313  1.1947  0.2993
 2505SOL    HW218975   2.062   2.916   6.839  1.9005  1.4136  1.3354
 2506SOL     OW18976   3.791   0.252  11.559 -0.0478 -0.0509  0.5937
 2506SOL    HW118977   3.733   0.327  11.571 -0.3971  0.2042 -2.7165
 2506SOL    HW218978   3.780   0.227  11.467  3.7844 -0.3877  0.2413
 2507SOL     OW18979   0.507   0.454   0.451  0.9123 -0.6622 -0.2293
 2507SOL    HW118980   0.599   0.478   0.460 -0.2675  3.7218 -0.0637
 2507SOL    HW218981   0.478   0.418   0.535  0.5961 -0.4753 -0.2587
 2508SOL     OW18982   1.043   1.634   2.956 -0.0140  0.7119 -0.7988
 2508SOL    HW118983   0.950   1.632   2.934 -0.4549  0.3559  1.0870
 2508SOL    HW218984   1.041   1.560   3.016 -3.0508  0.3520 -1.3344
 2509SOL     OW18985   4.138   2.577   7.622 -0.6223  0.8439 -0.1310
 2509SOL    HW118986   4.214   2.635   7.618  0.0826 -0.0637  0.1168
 2509SOL    HW218987   4.175   2.493   7.594  1.8083  1.2162  1.9874
 2510SOL     OW18988   1.400   1.571  15.823 -0.1045  0.2149  0.6928
 2510SOL    HW118989   1.475   1.627  15.804  0.1483 -0.1854  0.5211
 2510SOL    HW218990   1.446   1.508  15.878 -1.0523  1.0945  2.4916
 2511SOL     OW18991   1.827   3.297   0.490  0.8277  0.3248  0.2737
 2511SOL    HW118992   1.892   3.261   0.429  0.5474 -0.9804  0.7568
 2511SOL    HW218993   1.872   3.281   0.572  2.7657 -0.4317 -0.9304
 2512SOL     OW18994   2.072   3.117   0.624 -0.0406 -0.5858  0.5415
 2512SOL    HW118995   2.130   3.153   0.557  0.4506 -1.9450  0.2550
 2512SOL    HW218996   2.104   3.027   0.622  0.3953 -0.3858 -1.4516
 2513SOL     OW18997   3.700   2.714   1.845  0.1413 -0.2209  0.3133
 2513SOL    HW118998   3.774   2.749   1.795 -0.6182 -0.1203 -0.7300
 2513SOL    HW218999   3.746   2.655   1.905  2.6488  0.1249 -1.2557
 2514SOL     OW19000   4.176   3.581   6.409 -0.1223  0.1489  0.0226
 2514SOL    HW119001   4.191   3.565   6.502  0.3178 -0.9215 -0.2302
 2514SOL    HW219002   4.112   3.652   6.405 -1.1107 -0.6178  2.4368
 2515SOL     OW19003   1.902   0.632  10.703 -0.0946  0.3019  0.3520
 2515SOL    HW119004   1.995   0.652  10.691 -0.2173  0.5040 -0.2977
 2515SOL    HW219005   1.883   0.602  10.614  0.9348 -1.2774  0.6792
 2516SOL     OW19006   1.037   2.928  12.971  0.1242  0.0137  0.3991
 2516SOL    HW119007   1.014   3.011  12.929  0.0003 -0.6016 -0.7336
 2516SOL    HW219008   1.066   2.874  12.898 -0.7361  2.4587 -1.7416
 2517SOL     OW19009   0.725   0.492   9.465 -0.1750 -0.5023  0.2936
 2517SOL    HW119010   0.774   0.475   9.546 -0.3930 -1.1593  0.2841
 2517SOL    HW219011   0.788   0.472   9.396 -0.0166 -1.7520  0.8012
 2518SOL     OW19012   2.068   2.246   2.618 -0.1368 -0.3546  0.2716
 2518SOL    HW119013   2.138   2.243   2.554 -1.0656 -4.3607 -0.5508
 2518SOL    HW219014   1.997   2.263   2.557  1.6095  1.1413 -1.3263
 2519SOL     OW19015   0.788   3.409   1.721 -0.4192 -0.2401  0.0869
 2519SOL    HW119016   0.834   3.419   1.804  0.3565 -2.8401 -0.0502
 2519SOL    HW219017   0.780   3.502   1.699  1.4229 -0.1715 -0.3725
 2520SOL     OW19018   2.366   1.602  14.288  0.2669  0.1359 -0.5682
 2520SOL    HW119019   2.320   1.658  14.350 -1.7106 -0.3063 -1.6564
 2520SOL    HW219020   2.346   1.646  14.206 -3.9876  0.1239  0.4838
 2521SOL     OW19021   4.666   1.221   4.321 -0.1484 -0.0161 -0.0321
 2521SOL    HW119022   0.021   1.238   4.266 -0.2326  0.3738 -0.0293
 2521SOL    HW219023   4.606   1.182   4.257  1.4981  1.6576 -2.6207
 2522SOL     OW19024   2.299   0.336   9.887  0.5958 -0.0803  0.1948
 2522SOL    HW119025   2.226   0.361   9.831  1.2771 -1.1564 -1.1822
 2522SOL    HW219026   2.377   0.345   9.832  0.8791 -1.0568  0.4343
 2523SOL     OW19027   1.376   2.763  13.830  0.2446  0.0819  0.3822
 2523SOL    HW119028   1.427   2.832  13.788 -1.9552  2.3131  1.3980
 2523SOL    HW219029   1.291   2.806  13.839 -1.0104 -2.9850  3.1214
 2524SOL     OW19030   0.239   3.984   4.399 -0.1989  0.1787 -0.4876
 2524SOL    HW119031   0.216   4.076   4.384  0.3009  0.5539  1.0021
 2524SOL    HW219032   0.316   3.990   4.342 -0.1014 -0.0006 -0.3742
 2525SOL     OW19033   2.530   3.511   4.440  0.1758 -0.5212 -0.4752
 2525SOL    HW119034   2.464   3.540   4.504  0.7907 -0.8151  0.2963
 2525SOL    HW219035   2.478   3.485   4.364  0.1590 -0.0349 -0.6299
 2526SOL     OW19036   2.280   3.213   7.106  0.3105  0.5475  0.0242
 2526SOL    HW119037   2.343   3.261   7.052  0.6114  0.6418  0.4605
 2526SOL    HW219038   2.298   3.257   7.189  0.2559  0.3009  0.1644
 2527SOL     OW19039   2.377   0.440  14.873  0.0013  0.1530 -0.0681
 2527SOL    HW119040   2.411   0.462  14.960 -1.2148 -0.8257  0.6611
 2527SOL    HW219041   2.311   0.377  14.904  0.2125 -1.1031 -2.2327
 2528SOL     OW19042   0.159   2.858   9.745 -0.0278 -0.0723 -0.6457
 2528SOL    HW119043   0.190   2.807   9.670 -1.6028  0.5041 -1.6996
 2528SOL    HW219044   0.239   2.902   9.774 -0.0798 -1.7831  2.0630
 2529SOL     OW19045   1.684   0.549   7.081  0.7608 -0.1245 -0.1334
 2529SOL    HW119046   1.636   0.584   7.006 -0.9654  1.4338  1.7042
 2529SOL    HW219047   1.772   0.537   7.044 -0.5230 -0.6655 -2.9920
 2530SOL     OW19048   1.207   0.297   3.810 -0.1654 -0.1222  0.6032
 2530SOL    HW119049   1.287   0.305   3.758 -0.0287  2.2866  1.1769
 2530SOL    HW219050   1.162   0.377   3.781  0.8702 -1.0417 -3.5098
 2531SOL     OW19051   1.159   4.404   2.422  0.1630 -0.0028 -0.0813
 2531SOL    HW119052   1.237   4.415   2.476 -0.3926  0.4685  0.6237
 2531SOL    HW219053   1.137   4.497   2.422 -0.9418 -0.2698  1.4582
 2532SOL     OW19054   3.316   3.706  15.395 -0.1326 -0.4132 -0.5359
 2532SOL    HW119055   3.317   3.800  15.413  0.2861 -0.1850 -1.7965
 2532SOL    HW219056   3.321   3.675  15.486 -1.5013  0.0157 -0.3105
 2533SOL     OW19057   3.373   4.613   7.671 -0.2929 -0.9068 -0.4292
 2533SOL    HW119058   3.309   4.627   7.742 -1.3840 -0.9958 -1.3909
 2533SOL    HW219059   3.381   4.703   7.640 -1.8122 -0.3009  0.9232
 2534SOL     OW19060   2.526   2.022   2.590  0.0116  0.4072 -0.1150
 2534SOL    HW119061   2.616   2.016   2.557 -0.2269 -1.6172 -0.3997
 2534SOL    HW219062   2.502   1.929   2.584  1.1305  0.1459 -0.6677
 2535SOL     OW19063   4.680   2.565   2.685 -0.4896  0.6081  0.2527
 2535SOL    HW119064   0.003   2.639   2.644  0.0612 -0.2729 -0.7293
 2535SOL    HW219065   0.006   2.561   2.768  2.0129  0.5333 -1.1780
 2536SOL     OW19066   3.394   4.625   7.125  0.2567  0.5113  0.2091
 2536SOL    HW119067   3.440   4.644   7.206  1.3932 -0.5329 -0.1928
 2536SOL    HW219068   3.461   4.637   7.057  1.0445  0.4748  0.9804
 2537SOL     OW19069   1.217   3.425   7.921 -0.5659  0.2096 -0.0789
 2537SOL    HW119070   1.175   3.345   7.951 -1.4078  1.1120  1.1443
 2537SOL    HW219071   1.212   3.414   7.826  0.7267 -2.8431  0.2264
 2538SOL     OW19072   0.120   0.626   5.772 -0.4830  0.0274  0.0681
 2538SOL    HW119073   0.189   0.643   5.707 -1.3651 -2.6350 -1.5541
 2538SOL    HW219074   0.066   0.555   5.738  1.0482 -1.7889  1.4758
 2539SOL     OW19075   0.148   2.229   7.061 -0.1817  0.0061 -0.3250
 2539SOL    HW119076   0.220   2.269   7.111  0.0547  0.2618 -0.8668
 2539SOL    HW219077   0.075   2.290   7.074 -0.0569  0.3138 -1.0464
 2540SOL     OW19078   0.647   2.547   3.413 -0.2608  0.0427  0.1835
 2540SOL    HW119079   0.666   2.463   3.457 -0.4130  0.2493  0.6476
 2540SOL    HW219080   0.553   2.541   3.400 -0.2178  0.4705 -0.3216
 2541SOL     OW19081   0.400   0.947   6.950  0.2069  0.3471 -0.4205
 2541SOL    HW119082   0.391   1.017   6.886 -0.0463  0.1356 -0.6155
 2541SOL    HW219083   0.315   0.937   6.992 -0.4384  0.0396 -1.8138
 2542SOL     OW19084   2.061   3.124   4.839 -0.3528 -0.2047  0.1223
 2542SOL    HW119085   2.082   3.065   4.766 -0.3035  1.1155 -0.9355
 2542SOL    HW219086   2.008   3.185   4.788  0.4836  1.1334  0.8434
 2543SOL     OW19087   3.353   0.079   0.395 -0.0810 -0.4333 -0.3267
 2543SOL    HW119088   3.323   0.080   0.304  1.0054 -1.1979 -0.7036
 2543SOL    HW219089   3.345   4.706   0.411 -3.3450 -0.0732 -0.0233
 2544SOL     OW19090   1.175   3.577   9.298  0.7265  0.0469 -0.2918
 2544SOL    HW119091   1.093   3.596   9.344  0.4661 -0.1259 -0.6928
 2544SOL    HW219092   1.134   3.540   9.221 -0.0178  1.1780 -0.4411
 2545SOL     OW19093   0.074   4.081   8.982 -0.7390 -0.3809  0.0855
 2545SOL    HW119094   4.706   4.114   8.978 -0.0069  1.6089  0.1528
 2545SOL    HW219095   0.086   4.092   9.076 -1.9701 -0.7112  0.2874
 2546SOL     OW19096   2.060   1.043   5.377  0.3570 -0.6365  0.7301
 2546SOL    HW119097   2.110   1.123   5.362  1.8642 -2.0667 -2.0661
 2546SOL    HW219098   2.128   0.979   5.401 -0.0323 -0.5170  2.1459
 2547SOL     OW19099   4.055   4.513   2.189 -0.1318  0.3027  1.1002
 2547SOL    HW119100   3.993   4.452   2.149  0.8640  0.5658 -0.8461
 2547SOL    HW219101   4.009   4.532   2.271  0.0218 -1.8154  1.6719
 2548SOL     OW19102   0.589   2.409   3.827  0.2930 -0.1448  0.1596
 2548SOL    HW119103   0.592   2.313   3.837  0.1461 -0.1447  0.2004
 2548SOL    HW219104   0.513   2.416   3.770  0.1505 -0.9771  0.2440
 2549SOL     OW19105   1.047   3.582  11.908 -0.2343 -0.0914 -0.0517
 2549SOL    HW119106   1.071   3.665  11.867  0.7804 -0.5907 -0.4745
 2549SOL    HW219107   1.127   3.564  11.958 -0.0808 -0.4553 -0.4245
 2550SOL     OW19108   4.381   1.284   3.839  0.0527 -0.4296  0.1311
 2550SOL    HW119109   4.412   1.375   3.838 -1.5947  0.1554  4.0546
 2550SOL    HW219110   4.291   1.299   3.808  0.4529 -0.9236 -1.2643
 2551SOL     OW19111   1.677   3.958   3.031  0.1053 -0.2557 -0.0190
 2551SOL    HW119112   1.754   3.946   3.087  0.1013  1.4056  0.3551
 2551SOL    HW219113   1.670   4.053   3.037  3.7508 -0.1651  2.9111
 2552SOL     OW19114   4.540   0.009   4.743 -0.3887 -0.0942  0.0848
 2552SOL    HW119115   4.464   0.068   4.745 -1.1174 -1.0187 -0.4782
 2552SOL    HW219116   4.553   4.719   4.837  0.5157 -0.2647 -0.0561
 2553SOL     OW19117   4.200   0.865   6.931  0.5967 -0.1286  0.5879
 2553SOL    HW119118   4.281   0.865   6.880 -0.7831  0.8528 -1.6118
 2553SOL    HW219119   4.240   0.867   7.017  0.8331  1.9237  0.4364
 2554SOL     OW19120   2.018   0.017  15.765 -0.2272 -0.3701 -0.0990
 2554SOL    HW119121   2.102   4.703  15.735  0.2222  0.5729  0.0172
 2554SOL    HW219122   2.050   0.051  15.849 -0.1453  2.5946 -1.3160
 2555SOL     OW19123   1.985   1.807  10.044 -0.0978  0.2777  0.9497
 2555SOL    HW119124   2.066   1.774  10.005 -1.0031  0.5338 -1.1595
 2555SOL    HW219125   1.936   1.728  10.068 -1.3908  1.2210  1.4116
 2556SOL     OW19126   3.936   2.421   4.399  0.1783 -0.0812  0.4243
 2556SOL    HW119127   4.017   2.436   4.351 -0.5664 -2.0952 -1.4838
 2556SOL    HW219128   3.871   2.451   4.336  0.2110 -0.6652  0.1114
 2557SOL     OW19129   4.108   1.457   8.758  0.4183 -0.3974  0.0428
 2557SOL    HW119130   4.095   1.362   8.761  1.4810 -0.5463 -0.1253
 2557SOL    HW219131   4.175   1.451   8.827 -1.3031 -3.5290  1.4262
 2558SOL     OW19132   0.165   0.014  10.388 -0.0349 -0.7935 -0.2539
 2558SOL    HW119133   0.242   0.041  10.338 -1.0760  2.8309  0.1116
 2558SOL    HW219134   0.178   0.049  10.476 -2.8465 -0.8050  0.1710
 2559SOL     OW19135   0.209   1.772  10.676  0.1943  0.2776 -0.0621
 2559SOL    HW119136   0.155   1.711  10.626  1.6803  0.9216 -2.4294
 2559SOL    HW219137   0.201   1.850  10.622  0.7113 -0.1960 -0.8140
 2560SOL     OW19138   2.329   1.234   4.113 -0.4990 -0.0860  0.1176
 2560SOL    HW119139   2.353   1.250   4.021  0.9531 -0.0610  0.5001
 2560SOL    HW219140   2.416   1.205   4.141 -0.6151 -0.0993  0.4524
 2561SOL     OW19141   2.746   2.170   7.699  0.4871 -0.3131  0.2360
 2561SOL    HW119142   2.686   2.226   7.648  2.3004  1.2142 -0.1963
 2561SOL    HW219143   2.714   2.082   7.678  1.3569 -0.0749 -2.0699
 2562SOL     OW19144   0.975   1.592   0.793  0.1141  0.6649 -0.1092
 2562SOL    HW119145   0.881   1.605   0.779  0.1227 -0.0690 -0.8235
 2562SOL    HW219146   0.978   1.508   0.838  1.1437  1.6151  1.5867
 2563SOL     OW19147   1.601   3.295   3.877  0.4787  0.5337 -0.1092
 2563SOL    HW119148   1.696   3.284   3.877  0.7637  3.0963 -2.6885
 2563SOL    HW219149   1.579   3.206   3.905 -1.5826  0.7009 -1.2531
 2564SOL     OW19150   2.202   2.084  14.879  0.0505  0.0949  0.2216
 2564SOL    HW119151   2.144   2.103  14.953 -2.1890 -0.8990 -1.2599
 2564SOL    HW219152   2.288   2.085  14.921  0.3994 -0.2181 -0.4905
 2565SOL     OW19153   4.232   0.638   2.484 -0.1530  0.0494  0.5673
 2565SOL    HW119154   4.186   0.682   2.413  0.0024  1.1084  1.1256
 2565SOL    HW219155   4.303   0.595   2.436  0.7465  2.7872 -0.5280
 2566SOL     OW19156   0.486   4.664   4.954 -0.3269  0.0848  0.0151
 2566SOL    HW119157   0.430   4.589   4.938  2.3653 -1.0672 -4.0872
 2566SOL    HW219158   0.569   4.621   4.931 -0.2256  0.9280 -1.1900
 2567SOL     OW19159   2.107   4.173   3.095 -0.7409  0.1955  0.9443
 2567SOL    HW119160   2.192   4.132   3.077 -0.2247  1.9032 -0.5284
 2567SOL    HW219161   2.114   4.265   3.070 -1.5638 -0.4261 -1.5117
 2568SOL     OW19162   2.920   0.120   2.213 -0.0016 -0.5673 -0.7068
 2568SOL    HW119163   2.899   0.207   2.247  0.9806 -1.1644  1.3872
 2568SOL    HW219164   2.834   0.079   2.210 -0.3110  0.1388 -1.5376
 2569SOL     OW19165   2.500   1.170   6.739  0.2827 -0.0719 -0.7116
 2569SOL    HW119166   2.532   1.127   6.818 -2.7905 -2.6965 -0.8455
 2569SOL    HW219167   2.472   1.096   6.685 -0.4534 -0.0683 -0.3409
 2570SOL     OW19168   0.913   0.640   4.776 -0.0581  0.0714 -0.0500
 2570SOL    HW119169   0.959   0.710   4.729 -0.3158  0.2649 -0.0116
 2570SOL    HW219170   0.820   0.662   4.772  0.2167  0.9588 -1.9221
 2571SOL     OW19171   0.198   2.058  12.664  0.8425 -0.0957 -0.2291
 2571SOL    HW119172   0.210   2.055  12.569 -1.2815 -0.4090 -0.4787
 2571SOL    HW219173   0.137   1.985  12.670 -1.9117  2.2878  0.8815
 2572SOL     OW19174   2.764   1.484   5.295 -0.4797 -0.1422  0.0955
 2572SOL    HW119175   2.710   1.562   5.284 -0.2361 -0.0949 -0.8052
 2572SOL    HW219176   2.711   1.418   5.250 -0.8896 -2.1869  3.6273
 2573SOL     OW19177   3.726   2.640  14.312  0.2473  0.3506 -0.1748
 2573SOL    HW119178   3.822   2.637  14.308  0.3803  3.4436  0.1508
 2573SOL    HW219179   3.706   2.560  14.264  4.3779 -0.5508 -0.4138
 2574SOL     OW19180   2.693   4.330   7.963  0.1220 -0.0162 -0.2116
 2574SOL    HW119181   2.699   4.234   7.955 -2.9084 -0.4623  2.6714
 2574SOL    HW219182   2.598   4.334   7.975  0.1699 -1.9813  0.8812
 2575SOL     OW19183   1.217   4.300  15.462  0.2399  0.0660  0.2973
 2575SOL    HW119184   1.303   4.269  15.490  1.1854  3.2172  0.8512
 2575SOL    HW219185   1.157   4.229  15.487  2.4549 -1.5072  1.1690
 2576SOL     OW19186   0.214   2.048  13.854 -0.2693 -0.4634  0.0645
 2576SOL    HW119187   0.257   2.101  13.787 -1.6231  1.1325  0.4446
 2576SOL    HW219188   0.179   2.118  13.908  3.1256  0.4502  1.0604
 2577SOL     OW19189   3.343   1.471   7.473  0.1136 -0.3224 -0.2838
 2577SOL    HW119190   3.344   1.521   7.391  0.2434 -3.1008 -1.9570
 2577SOL    HW219191   3.412   1.406   7.457  0.9527  0.1952  1.2252
 2578SOL     OW19192   0.115   1.860   5.195 -0.1243 -0.2111  0.1427
 2578SOL    HW119193   0.197   1.834   5.152 -0.0609  0.2565 -0.0170
 2578SOL    HW219194   0.140   1.860   5.287 -0.5301  0.7002  0.2556
 2579SOL     OW19195   1.070   4.332  12.833  0.2616  0.9961  0.1560
 2579SOL    HW119196   1.049   4.410  12.885 -1.3001 -0.8924  2.3644
 2579SOL    HW219197   1.164   4.343  12.847 -0.0865  0.0993  3.2340
 2580SOL     OW19198   3.249   1.430  15.273  0.4719  0.6284  0.1853
 2580SOL    HW119199   3.221   1.471  15.355 -1.0744  0.6988 -0.3882
 2580SOL    HW219200   3.204   1.488  15.213  1.7004  1.0919 -0.3011
 2581SOL     OW19201   3.758   3.907  12.980 -0.1803 -0.0286  0.7044
 2581SOL    HW119202   3.695   3.853  13.026 -0.6212  0.6322  0.8866
 2581SOL    HW219203   3.745   3.909  12.885 -0.1005  0.4880  0.7028
 2582SOL     OW19204   3.742   2.915  14.334 -0.1542 -0.1466 -0.0133
 2582SOL    HW119205   3.754   2.945  14.244 -0.8002 -1.8453 -0.6574
 2582SOL    HW219206   3.722   2.824  14.311  0.4927 -0.0749 -0.8627
 2583SOL     OW19207   3.869   2.977  14.656 -0.7601  0.5946  0.5090
 2583SOL    HW119208   3.823   2.896  14.633  0.2057  0.0338  0.5402
 2583SOL    HW219209   3.842   3.036  14.585 -1.5687 -1.3310 -0.7910
 2584SOL     OW19210   0.066   4.074   9.245 -0.0443 -0.2293 -0.2070
 2584SOL    HW119211   0.002   4.109   9.306 -1.0090  2.2892 -2.6968
 2584SOL    HW219212   0.149   4.087   9.292  0.4032  0.5146 -1.2030
 2585SOL     OW19213   4.033   2.894   0.239 -0.1705  0.1581  0.0038
 2585SOL    HW119214   4.120   2.855   0.231  0.0858  0.6405  0.4323
 2585SOL    HW219215   3.982   2.814   0.225 -0.7916  0.5863 -0.1589
 2586SOL     OW19216   0.405   4.085   6.994 -0.4219 -0.2563 -0.0977
 2586SOL    HW119217   0.431   4.171   7.026  0.3070 -1.0008  1.2822
 2586SOL    HW219218   0.388   4.041   7.077  2.5110 -1.2460 -0.0497
 2587SOL     OW19219   4.703   2.661   3.892  0.0996 -0.5081 -0.8809
 2587SOL    HW119220   4.611   2.682   3.873  0.4245  0.0948 -1.7579
 2587SOL    HW219221   4.716   2.665   3.987 -2.0136  0.3535 -0.6284
 2588SOL     OW19222   4.280   3.597   7.798  0.3773  0.0383  0.3265
 2588SOL    HW119223   4.336   3.627   7.869  0.8356  0.4767 -0.2256
 2588SOL    HW219224   4.225   3.675   7.791 -0.7523 -1.0605 -3.3218
 2589SOL     OW19225   3.226   1.759   7.743  0.3330 -0.2688 -0.1439
 2589SOL    HW119226   3.259   1.827   7.684  3.2697 -1.6363 -0.0618
 2589SOL    HW219227   3.180   1.810   7.810  0.4569  1.5578 -1.4552
 2590SOL     OW19228   4.675   0.217   3.454 -0.9158  0.2392 -0.0861
 2590SOL    HW119229   4.684   0.284   3.522  0.3424  0.1466 -0.1483
 2590SOL    HW219230   0.043   0.229   3.420 -1.1877  0.0333 -0.8686
 2591SOL     OW19231   2.153   4.717  13.549 -0.5505  0.4663  0.1973
 2591SOL    HW119232   2.075   0.049  13.562 -1.3350 -0.8692  0.9323
 2591SOL    HW219233   2.207   0.037  13.616  1.5132 -1.4762 -0.2662
 2592SOL     OW19234   2.900   3.460   6.856  0.2802 -0.6519 -0.0185
 2592SOL    HW119235   2.814   3.484   6.822  0.9231 -0.3369 -1.4061
 2592SOL    HW219236   2.922   3.382   6.806  0.7643  0.2220 -1.1641
 2593SOL     OW19237   0.707   0.769   2.870 -0.1780  0.3094 -0.3597
 2593SOL    HW119238   0.792   0.736   2.843 -0.5458  0.4178 -1.6559
 2593SOL    HW219239   0.655   0.705   2.820  1.9377 -1.7626  0.0805
 2594SOL     OW19240   1.313   4.234   6.696 -0.2549  0.7383 -0.2961
 2594SOL    HW119241   1.245   4.167   6.707  1.2926 -0.2275  3.7239
 2594SOL    HW219242   1.359   4.210   6.777  0.5382  1.4597 -0.5319
 2595SOL     OW19243   1.968   3.907   7.414 -0.1155  0.2794 -0.2650
 2595SOL    HW119244   1.936   3.955   7.490 -2.8627 -1.4593 -0.3522
 2595SOL    HW219245   2.062   3.924   7.420 -0.3453  1.8857 -1.0629
 2596SOL     OW19246   4.245   4.104  13.623  0.1627  0.1588  0.0780
 2596SOL    HW119247   4.199   4.125  13.541 -2.1454 -2.2207  0.7418
 2596SOL    HW219248   4.211   4.165  13.689  1.0180 -0.1815  0.8303
 2597SOL     OW19249   2.440   3.075  16.001  0.4404 -0.0347  0.2222
 2597SOL    HW119250   2.462   3.046  16.089 -0.7705 -1.5305  0.0281
 2597SOL    HW219251   2.483   3.160  15.992  1.3368 -0.8054 -2.8375
 2598SOL     OW19252   4.444   2.078  16.168 -0.0776 -0.0273 -0.0107
 2598SOL    HW119253   4.446   2.174  16.174 -0.2568  0.0965 -1.7389
 2598SOL    HW219254   4.528   2.053  16.206  0.4839  2.3895  0.3431
 2599SOL     OW19255   1.729   1.372   2.244 -0.3228  0.1690 -0.1747
 2599SOL    HW119256   1.643   1.408   2.268 -0.6476  0.4420 -1.7149
 2599SOL    HW219257   1.780   1.374   2.324  2.3921 -3.1129 -1.8349
 2600SOL     OW19258   0.529   3.397  11.778 -0.1733  0.0056 -0.1136
 2600SOL    HW119259   0.457   3.338  11.799 -0.1357 -1.2473 -3.6506
 2600SOL    HW219260   0.526   3.447  11.860 -1.0021 -0.7044  0.2889
 2601SOL     OW19261   1.351   1.595  17.496  0.2174  0.1109 -0.2653
 2601SOL    HW119262   1.383   1.562  17.412  0.0219  1.5641 -0.9111
 2601SOL    HW219263   1.429   1.640  17.530 -0.0077 -0.4093  0.9183
 2602SOL     OW19264   4.186   4.562   3.939  0.2987  0.1745  0.6102
 2602SOL    HW119265   4.129   4.632   3.907  1.8462  0.2120 -2.0923
 2602SOL    HW219266   4.234   4.544   3.858 -0.5177  0.4747  0.0559
 2603SOL     OW19267   3.520   4.147  16.646  0.1931  0.3594 -0.3855
 2603SOL    HW119268   3.442   4.200  16.660 -0.9080 -1.5250  0.5217
 2603SOL    HW219269   3.494   4.113  16.560  0.0623 -2.6447  0.8291
 2604SOL     OW19270   1.622   3.173   9.638 -0.3571  0.0079  0.2464
 2604SOL    HW119271   1.612   3.121   9.718 -3.3788  1.5605  0.8650
 2604SOL    HW219272   1.555   3.124   9.589 -0.8634  0.0137  0.9328
 2605SOL     OW19273   2.027   4.092   9.707 -0.4190  1.0015  0.3466
 2605SOL    HW119274   1.946   4.075   9.755 -0.4609  2.3691  0.7375
 2605SOL    HW219275   2.097   4.052   9.759  0.2757  0.2459 -1.1713
 2606SOL     OW19276   3.368   0.601   4.351  0.7825  0.9534 -0.8818
 2606SOL    HW119277   3.369   0.515   4.394 -0.3147  1.2229 -0.3335
 2606SOL    HW219278   3.367   0.656   4.429 -0.6214 -1.6894  0.9713
 2607SOL     OW19279   3.456   3.873   4.379  0.2062  0.0989  0.2014
 2607SOL    HW119280   3.364   3.871   4.405  0.5035 -0.9522  1.2075
 2607SOL    HW219281   3.496   3.823   4.451 -1.3727 -2.2955 -0.5756
 2608SOL     OW19282   2.881   0.590   3.731 -0.2811  0.3018  0.3154
 2608SOL    HW119283   2.901   0.617   3.821  0.4756 -1.8738  0.7800
 2608SOL    HW219284   2.821   0.516   3.740  1.9919 -1.6590 -0.7465
 2609SOL     OW19285   1.993   2.220   6.350 -0.2366  0.2848  0.0552
 2609SOL    HW119286   2.080   2.253   6.330  0.2061 -0.2974  1.0570
 2609SOL    HW219287   2.024   2.153   6.411  0.5905 -0.3052 -1.0146
 2610SOL     OW19288   3.347   4.604   8.579  0.2424 -0.2032  0.0832
 2610SOL    HW119289   3.427   4.643   8.543  1.8209 -1.3292  2.4395
 2610SOL    HW219290   3.292   4.681   8.592  0.8973  0.3006 -0.1242
 2611SOL     OW19291   0.856   1.782   9.060 -0.3812 -0.4790 -0.1869
 2611SOL    HW119292   0.928   1.845   9.062  0.0698 -0.9917 -0.1231
 2611SOL    HW219293   0.902   1.704   9.029  0.2226  0.0892 -0.7205
 2612SOL     OW19294   1.974   1.090   2.692  0.1108 -0.5890  0.1821
 2612SOL    HW119295   1.989   1.005   2.734 -0.6552 -0.8449 -0.0730
 2612SOL    HW219296   1.915   1.120   2.760  0.8639 -0.2794  0.7057
 2613SOL     OW19297   2.691   1.943   7.057  0.1204 -0.1021 -0.6042
 2613SOL    HW119298   2.778   1.972   7.028 -1.5908  3.6043 -1.9379
 2613SOL    HW219299   2.696   1.849   7.040 -0.2895 -0.7356  2.8156
 2614SOL     OW19300   4.013   0.818  10.941  0.0448 -0.0993  0.2782
 2614SOL    HW119301   3.957   0.895  10.925 -0.0233  0.0387  1.1807
 2614SOL    HW219302   3.957   0.741  10.926 -0.8341 -0.0677  3.5230
 2615SOL     OW19303   1.739   0.151   2.193 -0.1724  0.2664 -0.0340
 2615SOL    HW119304   1.760   0.220   2.131  2.5119  0.0348  0.6293
 2615SOL    HW219305   1.706   0.202   2.267 -0.8528  0.0622 -0.1911
 2616SOL     OW19306   1.114   4.416   9.138  0.1015 -0.1612  0.7059
 2616SOL    HW119307   1.032   4.424   9.090 -0.3873  1.2462  1.7678
 2616SOL    HW219308   1.086   4.460   9.219 -2.7017 -2.8000  1.1775
 2617SOL     OW19309   3.653   1.722   2.108  0.1403 -0.4424  0.4081
 2617SOL    HW119310   3.694   1.637   2.122  2.2672  0.5299  0.1218
 2617SOL    HW219311   3.696   1.757   2.030 -1.4288 -1.4241 -0.8902
 2618SOL     OW19312   3.501   2.105  15.272  0.1606  0.4883  0.2075
 2618SOL    HW119313   3.415   2.082  15.238  0.3862 -1.5810  1.0395
 2618SOL    HW219314   3.565   2.043  15.237 -0.7725 -0.7300  0.6515
 2619SOL     OW19315   0.896   4.071  13.875 -0.2514 -1.0133  0.1267
 2619SOL    HW119316   0.976   4.117  13.901 -0.5356  0.6012 -1.8783
 2619SOL    HW219317   0.869   4.139  13.814  0.6574 -1.0235 -0.2840
 2620SOL     OW19318   1.457   4.256   8.789  0.4056 -0.1406 -0.3621
 2620SOL    HW119319   1.494   4.308   8.860  1.1580 -0.4526 -0.5279
 2620SOL    HW219320   1.532   4.198   8.775  0.3196 -0.1989 -0.5774
 2621SOL     OW19321   1.382   1.989   2.773 -0.3608 -0.0230 -0.2467
 2621SOL    HW119322   1.396   1.925   2.704 -2.3024  2.4432 -2.9129
 2621SOL    HW219323   1.457   1.976   2.831 -1.1373 -0.2964  0.7107
 2622SOL     OW19324   2.970   0.431   4.020  0.2970  0.1716  0.7640
 2622SOL    HW119325   2.996   0.357   4.075  1.9778  0.9044  0.9439
 2622SOL    HW219326   2.952   0.380   3.941 -1.1156  1.0549  0.5228
 2623SOL     OW19327   3.296   3.019   3.760  0.0624  0.0382 -0.0893
 2623SOL    HW119328   3.224   2.992   3.703  2.9875  0.2255 -3.8868
 2623SOL    HW219329   3.317   2.935   3.803 -0.7989 -0.4370 -0.5938
 2624SOL     OW19330   2.648   0.443  11.389  0.2709  0.2255  0.0821
 2624SOL    HW119331   2.658   0.481  11.476  1.4705 -0.0461  0.0532
 2624SOL    HW219332   2.557   0.412  11.392  0.1444  0.7053  1.2035
 2625SOL     OW19333   4.439   2.952   4.264 -0.3793  0.3691 -0.0903
 2625SOL    HW119334   4.530   2.964   4.292  0.2059 -3.1291 -0.5674
 2625SOL    HW219335   4.404   3.028   4.310 -1.5051 -1.0796  1.4035
 2626SOL     OW19336   3.946   3.200  16.206  0.0995  0.0558  0.8772
 2626SOL    HW119337   3.896   3.125  16.176  1.0206 -0.3865  0.4284
 2626SOL    HW219338   3.885   3.273  16.216 -0.1394 -0.1795  1.0924
 2627SOL     OW19339   3.340   3.332   6.470  0.3554 -0.1108 -0.0317
 2627SOL    HW119340   3.338   3.356   6.377  2.6593  0.8672  0.1881
 2627SOL    HW219341   3.255   3.369   6.494  0.5650  1.0905 -1.0970
 2628SOL     OW19342   0.370   1.607   2.355  0.7841  0.0586  0.2980
 2628SOL    HW119343   0.357   1.698   2.328  0.5467  0.0507  0.3874
 2628SOL    HW219344   0.284   1.577   2.326  0.2977 -1.2054  3.1004
 2629SOL     OW19345   3.198   4.373  12.985 -0.4635 -0.1611 -0.3126
 2629SOL    HW119346   3.245   4.452  13.012 -1.4570 -0.0528  1.1519
 2629SOL    HW219347   3.267   4.320  12.946  0.1866 -1.1974  2.2251
 2630SOL     OW19348   3.425   4.118   6.424  0.2354  0.3805  0.3753
 2630SOL    HW119349   3.349   4.145   6.475 -0.0290  0.2073  0.0710
 2630SOL    HW219350   3.424   4.023   6.432 -3.2127  0.4394  0.4505
 2631SOL     OW19351   4.088   1.142   3.134  0.0247 -0.3311  0.4141
 2631SOL    HW119352   4.181   1.166   3.128  0.2099 -0.4367  2.7375
 2631SOL    HW219353   4.102   1.058   3.179 -0.1234 -0.7419 -0.3024
 2632SOL     OW19354   3.119   3.746   3.426  0.2798 -0.1343 -0.7822
 2632SOL    HW119355   3.194   3.801   3.447  0.8079 -1.3344  0.4538
 2632SOL    HW219356   3.165   3.671   3.386  0.1499 -1.4746  1.5862
 2633SOL     OW19357   3.453   1.060   5.479  0.4536  0.1582 -0.2853
 2633SOL    HW119358   3.358   1.068   5.471  0.2182 -1.0580  1.4315
 2633SOL    HW219359   3.456   1.093   5.569  0.5849 -0.9965  0.1310
 2634SOL     OW19360   3.670   3.432   2.561 -0.3890  0.2744 -0.2545
 2634SOL    HW119361   3.667   3.526   2.548 -0.6241  0.6466  2.3553
 2634SOL    HW219362   3.613   3.391   2.495 -0.7626 -0.8477  0.7508
 2635SOL     OW19363   3.202   0.726   5.626 -0.4382 -0.9031 -0.5584
 2635SOL    HW119364   3.233   0.699   5.713 -1.5546  1.3318  0.5515
 2635SOL    HW219365   3.114   0.690   5.617  0.0755 -1.8081 -1.9632
 2636SOL     OW19366   4.392   0.893  16.542 -0.1938 -0.7375  0.9120
 2636SOL    HW119367   4.468   0.861  16.591 -0.2598 -2.0652  0.1678
 2636SOL    HW219368   4.316   0.858  16.589  0.7067 -0.4914  2.5638
 2637SOL     OW19369   1.721   2.934   6.661 -0.1262  0.4120 -0.1400
 2637SOL    HW119370   1.732   3.029   6.672 -0.4151  0.2227  1.7621
 2637SOL    HW219371   1.772   2.910   6.584  1.0541  1.5170  0.2823
 2638SOL     OW19372   2.462   3.913  11.355 -0.2381 -0.3537  0.4411
 2638SOL    HW119373   2.385   3.857  11.365  0.8188 -1.5619  1.6274
 2638SOL    HW219374   2.533   3.850  11.344 -0.9803 -1.1664  0.3081
 2639SOL     OW19375   0.612   0.852   8.087  0.3049 -0.2388  0.6651
 2639SOL    HW119376   0.670   0.907   8.034 -1.9610  1.3427 -0.1805
 2639SOL    HW219377   0.611   0.896   8.172 -0.1125 -2.0892  1.6244
 2640SOL     OW19378   0.940   2.044   3.186  0.4976 -0.0361  0.0715
 2640SOL    HW119379   0.879   1.996   3.242 -1.0971  0.5005 -1.1836
 2640SOL    HW219380   0.987   1.966   3.156  1.4086  0.2891  0.6589
 2641SOL     OW19381   3.232   1.174  15.348  0.2507  0.1727  0.7362
 2641SOL    HW119382   3.250   1.266  15.328  1.0388  0.1082  1.1454
 2641SOL    HW219383   3.318   1.139  15.371 -0.4107 -1.5146  0.6569
 2642SOL     OW19384   0.942   3.917   0.128  0.7359 -0.7003 -0.2160
 2642SOL    HW119385   0.953   4.010   0.112 -1.3461 -0.2235  1.1708
 2642SOL    HW219386   0.857   3.912   0.083  1.1895  2.6850 -1.4331
 2643SOL     OW19387   4.220   1.251   6.845  0.5415  0.4650 -0.1542
 2643SOL    HW119388   4.299   1.305   6.856 -0.2159  1.5841 -0.2313
 2643SOL    HW219389   4.257   1.172   6.805  0.9436  0.6317 -0.1089
 2644SOL     OW19390   0.613   0.036   2.687 -0.3873  0.0166 -0.2470
 2644SOL    HW119391   0.700   4.719   2.690  0.8312  2.7484 -1.0309
 2644SOL    HW219392   0.557   4.699   2.636 -2.2543  0.6927  1.0111
 2645SOL     OW19393   4.674   2.321   4.029 -0.0836 -0.2705 -0.0634
 2645SOL    HW119394   0.040   2.355   4.011  0.0103 -1.5289 -1.9430
 2645SOL    HW219395   4.629   2.337   3.946 -0.4552 -0.7454  0.0495
 2646SOL     OW19396   3.402   3.768   5.984 -0.1391 -0.6902 -0.0118
 2646SOL    HW119397   3.442   3.842   5.939 -0.6364 -1.4320 -1.6621
 2646SOL    HW219398   3.437   3.787   6.071 -1.3748  0.0360  0.3215
 2647SOL     OW19399   0.169   0.352  10.799 -0.0022  0.5547 -0.6618
 2647SOL    HW119400   0.139   0.358  10.889 -1.1979 -0.4958 -0.9980
 2647SOL    HW219401   0.149   0.442  10.775  2.3633  0.3860 -3.3165
 2648SOL     OW19402   4.711   1.935  10.186  0.0061  0.0348  0.3135
 2648SOL    HW119403   4.696   1.932  10.092  0.2176 -0.5767  0.2973
 2648SOL    HW219404   0.074   1.896  10.210 -0.6051 -1.2735  0.3814
 2649SOL     OW19405   1.361   0.639   6.177  0.3203  0.3585  0.2683
 2649SOL    HW119406   1.323   0.703   6.117 -0.4210 -0.4600 -0.1424
 2649SOL    HW219407   1.302   0.564   6.170  1.4946 -0.6943  1.6983
 2650SOL     OW19408   4.702   3.335   8.502  0.5752  0.3459 -0.0848
 2650SOL    HW119409   4.672   3.267   8.563  2.4031 -0.8235 -0.4831
 2650SOL    HW219410   4.660   3.414   8.537  0.1215 -0.8633  2.0919
 2651SOL     OW19411   2.903   3.845  12.507  0.2706  0.2248  0.0738
 2651SOL    HW119412   2.881   3.936  12.490 -1.0802 -0.0137  0.5454
 2651SOL    HW219413   2.838   3.813  12.570 -0.2279  1.5010  0.2153
 2652SOL     OW19414   4.644   1.114   6.722  0.1475 -0.5117 -0.3436
 2652SOL    HW119415   4.654   1.106   6.627  0.5427  2.1826 -0.5192
 2652SOL    HW219416   4.615   1.204   6.733  2.9999  0.3042  0.4668
 2653SOL     OW19417   4.240   2.345  10.096  0.0778 -0.3162 -0.4459
 2653SOL    HW119418   4.305   2.276  10.084  0.1523  0.1944 -2.9584
 2653SOL    HW219419   4.292   2.422  10.118  0.2037 -1.1479  2.1648
 2654SOL     OW19420   0.232   1.697   7.851 -0.2315 -0.4739 -0.3905
 2654SOL    HW119421   0.164   1.651   7.900  0.4598  0.2535  1.2422
 2654SOL    HW219422   0.237   1.642   7.773 -0.5617  0.3985 -1.0345
 2655SOL     OW19423   1.580   0.278   1.471  0.0817 -0.1364  0.6718
 2655SOL    HW119424   1.667   0.255   1.438 -0.5761 -1.3781 -0.2074
 2655SOL    HW219425   1.540   0.192   1.459  1.0031 -0.6101  0.9795
 2656SOL     OW19426   2.772   0.951   5.282 -0.4344  0.0519  0.1715
 2656SOL    HW119427   2.707   1.005   5.238 -0.1847  0.3670  0.1928
 2656SOL    HW219428   2.744   0.868   5.243 -0.0625  0.2348 -0.4807
 2657SOL     OW19429   2.275   2.842   5.881  0.3877 -0.1814 -0.2891
 2657SOL    HW119430   2.356   2.876   5.842 -0.1654 -0.5229 -1.7539
 2657SOL    HW219431   2.237   2.781   5.817  2.0064 -1.4457 -0.0349
 2658SOL     OW19432   0.980   1.206   4.773  0.2289  0.2951 -0.0973
 2658SOL    HW119433   0.897   1.226   4.730  1.3004  1.1417 -1.7908
 2658SOL    HW219434   1.003   1.288   4.817 -0.2616 -0.6873  1.9983
 2659SOL     OW19435   3.178   1.893  14.927 -0.1117 -0.2564 -0.2746
 2659SOL    HW119436   3.117   1.919  14.859  2.0472  0.6435 -1.8439
 2659SOL    HW219437   3.258   1.876  14.878  0.6885  1.3531  0.4921
 2660SOL     OW19438   2.779   0.489  16.984 -0.3974 -0.8962 -0.6043
 2660SOL    HW119439   2.818   0.507  16.899 -0.1554  0.8804 -0.1146
 2660SOL    HW219440   2.699   0.442  16.960 -1.0374  0.2312 -0.7003
 2661SOL     OW19441   1.241   2.593   2.209 -0.0255  0.6974  0.8383
 2661SOL    HW119442   1.306   2.524   2.200 -1.2781 -0.6655  2.1986
 2661SOL    HW219443   1.225   2.590   2.304  1.1312  0.6122  1.0343
 2662SOL     OW19444   3.647   3.334   0.759  0.4167  0.4259 -0.0680
 2662SOL    HW119445   3.598   3.252   0.745  2.3895 -0.0063 -4.7046
 2662SOL    HW219446   3.655   3.329   0.854 -1.4275  0.5076  0.0886
 2663SOL     OW19447   3.162   4.393  10.370  0.1901  0.0383 -0.1150
 2663SOL    HW119448   3.249   4.387  10.330 -0.8892  0.9074 -2.5811
 2663SOL    HW219449   3.171   4.431  10.458 -0.7840 -0.2100  0.0833
 2664SOL     OW19450   0.039   4.624  12.502  0.9664  0.4064  0.2275
 2664SOL    HW119451   4.677   4.578  12.489  0.8277  0.3828  1.1807
 2664SOL    HW219452   0.013   4.700  12.554 -0.7587  0.1074 -0.1924
 2665SOL     OW19453   0.611   2.780   8.343  0.3204 -0.4465  0.0604
 2665SOL    HW119454   0.586   2.703   8.290  1.7247 -1.7272  1.2802
 2665SOL    HW219455   0.706   2.788   8.340  0.3301 -0.1261  1.2838
 2666SOL     OW19456   2.219   1.985   1.328 -0.0809  0.2063 -0.2290
 2666SOL    HW119457   2.137   2.033   1.327  0.4440  1.1244  1.8413
 2666SOL    HW219458   2.271   2.042   1.272  0.7117 -1.3826 -1.1185
 2667SOL     OW19459   2.021   2.330   4.077  0.4086 -0.1889  0.5048
 2667SOL    HW119460   2.000   2.277   4.154  0.5285 -1.1123 -0.1045
 2667SOL    HW219461   1.930   2.357   4.064  0.2278 -1.6238 -1.1482
 2668SOL     OW19462   1.505   1.726   0.897  0.2378  0.4877 -0.3020
 2668SOL    HW119463   1.416   1.694   0.886  0.6034 -0.3290 -0.8319
 2668SOL    HW219464   1.550   1.644   0.877 -0.4708 -0.3712  1.6415
 2669SOL     OW19465   1.144   1.129  10.323 -0.1580 -0.4198 -0.1531
 2669SOL    HW119466   1.185   1.087  10.247  1.9613  0.2216  0.6409
 2669SOL    HW219467   1.131   1.222  10.304  0.1550 -0.4469 -0.5063
 2670SOL     OW19468   1.548   4.358   7.448 -0.1833  0.1132 -0.3213
 2670SOL    HW119469   1.508   4.425   7.392  2.8832  0.3544 -2.2640
 2670SOL    HW219470   1.559   4.288   7.384 -0.2939  0.0201 -0.2380
 2671SOL     OW19471   1.472   1.739  15.559  0.1244 -0.0050  0.4029
 2671SOL    HW119472   1.412   1.713  15.630 -0.4980  0.0083 -0.1169
 2671SOL    HW219473   1.553   1.708  15.600  0.0266  0.7145  1.1538
 2672SOL     OW19474   0.971   4.513   5.733  0.1932  0.0339 -0.3776
 2672SOL    HW119475   0.907   4.583   5.747  1.1980  1.3550 -2.4285
 2672SOL    HW219476   1.036   4.543   5.796 -1.8563  0.7496  1.4047
 2673SOL     OW19477   2.722   1.350   4.759  0.9918  0.0193  0.1622
 2673SOL    HW119478   2.803   1.315   4.796  2.1616  1.0280 -1.4853
 2673SOL    HW219479   2.755   1.342   4.669  2.5686 -0.3476  0.7714
 2674SOL     OW19480   2.246   3.805   6.635 -0.1566 -0.3759 -0.0360
 2674SOL    HW119481   2.328   3.806   6.684  1.1082 -1.2850 -2.1366
 2674SOL    HW219482   2.187   3.838   6.703  0.0176  0.8430 -0.4766
 2675SOL     OW19483   4.221   2.878   6.002  0.2054  0.0960 -0.6457
 2675SOL    HW119484   4.133   2.880   6.038 -0.1474  1.2902 -1.5439
 2675SOL    HW219485   4.255   2.964   6.027  1.5434 -0.8883  0.8781
 2676SOL     OW19486   4.326   3.395   8.491 -0.6994 -0.1821  0.2926
 2676SOL    HW119487   4.322   3.446   8.571  2.6394  0.9230 -0.2352
 2676SOL    HW219488   4.316   3.307   8.527 -0.8788 -0.4434 -0.3859
 2677SOL     OW19489   1.413   2.400   2.184 -0.7209 -0.4188 -0.2463
 2677SOL    HW119490   1.430   2.318   2.231  3.1780  0.0789 -0.7892
 2677SOL    HW219491   1.420   2.375   2.092  0.3611  1.7730 -0.7521
 2678SOL     OW19492   4.661   2.653  15.237 -0.0919 -0.6983 -0.4780
 2678SOL    HW119493   4.659   2.732  15.291  2.8623 -0.9613  0.0491
 2678SOL    HW219494   4.596   2.678  15.172 -0.2352  0.3082  0.0457
 2679SOL     OW19495   1.728   0.169   6.644  0.0240 -0.1739 -0.0012
 2679SOL    HW119496   1.814   0.132   6.626 -0.8954 -0.9814 -2.8299
 2679SOL    HW219497   1.734   0.257   6.609  0.6324  0.0270  0.6157
 2680SOL     OW19498   4.081   0.424   5.130 -0.0199  0.1938  0.6978
 2680SOL    HW119499   4.149   0.357   5.129 -1.9453 -1.8055  2.9136
 2680SOL    HW219500   4.008   0.391   5.077  0.2353 -0.2214  0.6031
 2681SOL     OW19501   2.913   1.917  15.125  0.0096  0.1981 -0.4941
 2681SOL    HW119502   2.879   1.844  15.177 -0.2006  0.6709  0.0279
 2681SOL    HW219503   2.842   1.981  15.120  1.4645  1.8884  0.5675
 2682SOL     OW19504   3.108   0.218   3.650  0.9203 -0.0196  0.0437
 2682SOL    HW119505   3.064   0.230   3.735 -0.7568  0.0683 -0.8419
 2682SOL    HW219506   3.043   0.226   3.581  2.0666 -0.2955 -1.0603
 2683SOL     OW19507   0.910   2.733  17.661 -0.4826  0.2284  0.2812
 2683SOL    HW119508   0.946   2.821  17.660 -1.0603  0.4832  1.7170
 2683SOL    HW219509   0.853   2.739  17.584  2.4546 -0.3365 -1.9080
 2684SOL     OW19510   1.873   0.901   5.813  0.2560 -0.4371  0.1000
 2684SOL    HW119511   1.913   0.970   5.760 -0.4982 -0.0667  0.0112
 2684SOL    HW219512   1.910   0.826   5.766  0.9508 -0.1716  0.2237
 2685SOL     OW19513   1.411   2.656  10.275 -0.3778 -0.1038  0.5106
 2685SOL    HW119514   1.318   2.653  10.296 -0.6790 -0.4574 -0.8450
 2685SOL    HW219515   1.451   2.634  10.359 -0.8231 -0.5389  0.6082
 2686SOL     OW19516   0.603   1.716   4.751 -0.1266  0.6302 -0.0082
 2686SOL    HW119517   0.521   1.741   4.793 -0.5655 -0.7231 -0.0356
 2686SOL    HW219518   0.590   1.761   4.668  1.6439 -2.0534 -1.7616
 2687SOL     OW19519   4.177   0.426  11.067 -0.2530 -0.4100  0.1198
 2687SOL    HW119520   4.247   0.405  11.005 -0.1307  0.4815 -0.0559
 2687SOL    HW219521   4.187   0.521  11.071 -0.2370 -0.4184  0.2773
 2688SOL     OW19522   4.632   3.798   0.494  0.0775  0.1169  0.0530
 2688SOL    HW119523   4.579   3.723   0.465 -2.2802  1.7377  0.1803
 2688SOL    HW219524   4.609   3.862   0.427 -1.4947  0.0765  0.5491
 2689SOL     OW19525   3.351   3.962   8.481  0.1487 -0.2874  1.0881
 2689SOL    HW119526   3.368   3.868   8.483 -0.3114 -0.4289 -1.5827
 2689SOL    HW219527   3.292   3.976   8.555  0.0253  1.8311  0.5994
 2690SOL     OW19528   0.038   0.638   4.921 -0.2870 -0.0491  0.1426
 2690SOL    HW119529   0.082   0.580   4.983  0.5740  0.2674 -0.1843
 2690SOL    HW219530   0.001   0.578   4.856  0.1225 -1.8087  1.5011
 2691SOL     OW19531   1.621   0.326   4.012 -0.2872  0.1863  0.0342
 2691SOL    HW119532   1.557   0.276   4.063 -0.2465  1.2000  1.0960
 2691SOL    HW219533   1.595   0.417   4.027 -0.8570 -0.1229  0.8966
 2692SOL     OW19534   3.119   2.550  13.034 -0.0435 -0.3159  0.0852
 2692SOL    HW119535   3.199   2.499  13.048  0.6268  0.7108 -0.0808
 2692SOL    HW219536   3.061   2.482  12.999 -0.2617 -0.6222  1.0405
 2693SOL     OW19537   4.460   1.116  11.050  0.3444 -0.1480  0.0074
 2693SOL    HW119538   4.408   1.056  10.996 -2.7588  1.0336  1.6193
 2693SOL    HW219539   4.449   1.198  11.003  2.4986  0.4104  0.5234
 2694SOL     OW19540   0.425   1.468   7.924  1.0845  0.0887 -0.1725
 2694SOL    HW119541   0.373   1.418   7.860 -1.6789  0.8927  1.4401
 2694SOL    HW219542   0.463   1.533   7.865  0.8636 -1.3265 -1.8862
 2695SOL     OW19543   3.983   2.616   9.596  0.4275  0.1933  0.2926
 2695SOL    HW119544   3.978   2.708   9.572  0.2254 -0.4621 -2.1426
 2695SOL    HW219545   4.058   2.618   9.656  0.7150  1.3965 -0.1235
 2696SOL     OW19546   1.793   2.648   2.451  0.1561 -0.3460 -0.0611
 2696SOL    HW119547   1.709   2.615   2.419  0.2544 -0.9371  0.3015
 2696SOL    HW219548   1.767   2.727   2.498 -1.3766  0.0954 -1.6222
 2697SOL     OW19549   3.717   4.552   8.305 -0.1894 -0.4768  0.3265
 2697SOL    HW119550   3.642   4.515   8.258  0.5104 -0.8675 -0.4792
 2697SOL    HW219551   3.781   4.481   8.297  0.3539  0.2627 -1.8372
 2698SOL     OW19552   4.443   3.170  14.418 -0.2845 -0.2471  0.0363
 2698SOL    HW119553   4.490   3.189  14.499  1.2318  0.4657 -1.0034
 2698SOL    HW219554   4.501   3.102  14.384 -0.8356  0.9361 -3.2335
 2699SOL     OW19555   4.695   1.733   3.282 -0.2655 -0.4940  0.1375
 2699SOL    HW119556   4.711   1.640   3.300  0.2183 -0.1464  1.5249
 2699SOL    HW219557   0.056   1.762   3.244  0.6359 -2.3002  0.6903
 2700SOL     OW19558   3.483   0.164   4.353 -0.2452  0.0757  0.7545
 2700SOL    HW119559   3.433   0.177   4.434 -0.3853  1.6329  0.4245
 2700SOL    HW219560   3.427   0.215   4.294  0.0021 -1.4596 -0.7994
 2701SOL     OW19561   3.024   2.556   6.319 -0.6600 -1.0929 -0.3168
 2701SOL    HW119562   3.025   2.644   6.356 -2.3989  0.0209 -2.9013
 2701SOL    HW219563   3.015   2.501   6.397 -0.1034 -0.2836  0.3184
 2702SOL     OW19564   0.776   0.803   3.121  0.2469  0.0591 -0.1226
 2702SOL    HW119565   0.739   0.809   3.033  3.9310  0.6663 -1.6345
 2702SOL    HW219566   0.847   0.867   3.111 -1.2262  1.6685 -0.3282
 2703SOL     OW19567   2.596   1.369   3.880  0.2808  0.8087  0.2777
 2703SOL    HW119568   2.610   1.454   3.921 -0.4910  0.6380  0.8845
 2703SOL    HW219569   2.645   1.391   3.800  0.4578 -0.9422 -0.0846
 2704SOL     OW19570   2.594   1.436   6.665 -0.2747  0.0327  0.2514
 2704SOL    HW119571   2.559   1.451   6.578 -1.4023 -0.5167  0.6042
 2704SOL    HW219572   2.577   1.344   6.685  2.7554 -0.6617 -0.5165
 2705SOL     OW19573   1.251   2.518   5.822  0.1712  0.2220 -0.0175
 2705SOL    HW119574   1.159   2.498   5.839  0.2089 -0.0226 -0.1013
 2705SOL    HW219575   1.266   2.610   5.841 -0.0712  0.2521  0.0326
 2706SOL     OW19576   1.904   3.019   3.979  0.1268 -0.8712  0.1969
 2706SOL    HW119577   1.867   2.941   3.937  1.0337 -0.5911 -1.1338
 2706SOL    HW219578   1.961   2.992   4.051  1.1456  0.4584 -0.1276
 2707SOL     OW19579   0.241   0.141   5.131  0.4433  0.0855  0.3324
 2707SOL    HW119580   0.253   0.228   5.093  2.4816 -0.4558 -0.2762
 2707SOL    HW219581   0.229   0.086   5.053 -1.2631 -0.6507  1.1193
 2708SOL     OW19582   4.412   3.874   5.742  0.0237  0.4509 -0.2722
 2708SOL    HW119583   4.497   3.835   5.760  0.0832  0.7934  0.2057
 2708SOL    HW219584   4.400   3.854   5.649  0.9434 -0.4667 -0.1935
 2709SOL     OW19585   0.163   4.453  14.557  0.0258  0.3914  0.2108
 2709SOL    HW119586   0.150   4.365  14.591  0.4272  0.0931 -0.4022
 2709SOL    HW219587   0.098   4.497  14.612 -0.4477 -2.7191  2.1142
 2710SOL     OW19588   0.173   4.130   3.746 -0.2539  0.5414  0.3815
 2710SOL    HW119589   0.080   4.154   3.756 -1.0194 -2.6519  1.0109
 2710SOL    HW219590   0.172   4.046   3.792  1.7274  0.6517  0.5866
 2711SOL     OW19591   3.660   0.193  10.714  0.2783 -0.0531  0.4940
 2711SOL    HW119592   3.749   0.182  10.747  1.2429  1.1790 -1.6248
 2711SOL    HW219593   3.660   0.134  10.639 -2.8445  0.8830 -0.2344
 2712SOL     OW19594   0.844   3.127   3.399 -0.5274  0.3436 -0.9940
 2712SOL    HW119595   0.922   3.104   3.449 -0.1439  0.2316 -1.6346
 2712SOL    HW219596   0.795   3.179   3.462 -0.1558  0.5735 -0.8915
 2713SOL     OW19597   3.122   3.857   3.109 -0.3540  0.1018  0.4606
 2713SOL    HW119598   3.108   3.781   3.053 -0.8033  0.4978  0.0382
 2713SOL    HW219599   3.093   3.822   3.193 -0.4915  0.4244  0.5476
 2714SOL     OW19600   3.199   2.501  17.081 -0.0770  0.1355 -0.0651
 2714SOL    HW119601   3.157   2.417  17.101 -0.6985  0.5024  0.1575
 2714SOL    HW219602   3.248   2.472  17.004  1.2935  1.5953  0.2654
 2715SOL     OW19603   1.031   3.446  16.766 -0.0813 -0.3341  0.3019
 2715SOL    HW119604   0.996   3.535  16.774 -0.1790 -0.1426 -2.1413
 2715SOL    HW219605   1.103   3.466  16.706 -1.1578  1.2873 -0.4433
 2716SOL     OW19606   1.332   1.761   6.236  0.2326  0.2254  0.3520
 2716SOL    HW119607   1.317   1.820   6.162 -0.8370  0.5901  0.8522
 2716SOL    HW219608   1.288   1.805   6.308 -0.9910 -3.4188  1.8545
 2717SOL     OW19609   2.529   0.947   3.317 -0.1763  0.1367 -0.4920
 2717SOL    HW119610   2.482   1.019   3.360 -1.8988 -0.0656 -2.0171
 2717SOL    HW219611   2.455   0.888   3.301  1.0132 -0.6193 -3.1110
 2718SOL     OW19612   1.550   0.497   1.316 -0.2491 -0.0126 -0.4341
 2718SOL    HW119613   1.515   0.414   1.347  0.6289 -0.5738 -0.9696
 2718SOL    HW219614   1.631   0.510   1.365 -1.0864  2.3390  0.3498
 2719SOL     OW19615   2.933   2.176   3.046 -0.6319 -0.3671  0.1707
 2719SOL    HW119616   3.011   2.139   3.086 -0.1890 -1.2778 -1.5438
 2719SOL    HW219617   2.966   2.185   2.956  0.0922  1.9981  0.6830
 2720SOL     OW19618   4.674   4.083   7.081 -0.4194 -0.3508  0.2001
 2720SOL    HW119619   4.579   4.098   7.086  0.0410  2.2392  1.0689
 2720SOL    HW219620   4.674   4.114   6.990 -0.5975 -2.2691 -0.4589
 2721SOL     OW19621   3.847   1.288   3.728  0.0987  0.0712 -0.2111
 2721SOL    HW119622   3.809   1.204   3.757  0.4646  0.2109  0.6842
 2721SOL    HW219623   3.838   1.333   3.812 -1.5103  0.0873 -0.3912
 2722SOL     OW19624   3.719   0.723   2.798  0.4295 -0.4606  0.1180
 2722SOL    HW119625   3.805   0.738   2.837  0.3989  1.4021 -0.5540
 2722SOL    HW219626   3.749   0.735   2.708 -1.9277  2.0259 -0.3290
 2723SOL     OW19627   1.563   0.116   2.562  0.3674 -0.3155  0.1104
 2723SOL    HW119628   1.482   0.102   2.514 -0.6540  0.2747  1.6383
 2723SOL    HW219629   1.610   0.043   2.522  0.2038 -0.3007 -0.1092
 2724SOL     OW19630   0.013   0.750   4.549 -0.7036  0.4704 -0.2008
 2724SOL    HW119631   0.044   0.833   4.584  0.5151  0.7172 -1.8538
 2724SOL    HW219632   4.640   0.753   4.563 -0.4747  3.5861  0.5887
 2725SOL     OW19633   1.128   0.811   3.292  0.5550  0.2303  0.1348
 2725SOL    HW119634   1.208   0.863   3.288 -0.0931  1.2337  0.1199
 2725SOL    HW219635   1.089   0.829   3.206  0.0111 -1.4950  0.0136
 2726SOL     OW19636   2.918   2.970   0.186  0.4147  0.7669 -0.4573
 2726SOL    HW119637   2.830   3.001   0.164 -0.8371 -2.8846 -0.6019
 2726SOL    HW219638   2.941   3.040   0.247 -1.2984  0.4470  0.5442
 2727SOL     OW19639   3.124   4.649   0.553 -0.4941 -0.0369 -0.3341
 2727SOL    HW119640   3.091   0.001   0.606 -0.9038 -0.6502  0.2594
 2727SOL    HW219641   3.064   4.662   0.479 -1.3700 -2.6522 -0.0598
 2728SOL     OW19642   3.628   2.091   2.183  0.4564 -0.2575 -0.6592
 2728SOL    HW119643   3.701   2.052   2.232 -0.0474  0.6392  0.8239
 2728SOL    HW219644   3.613   2.172   2.231 -0.1116 -0.2147 -0.9183
 2729SOL     OW19645   1.213   0.263   6.949  0.4731 -0.1007 -0.4379
 2729SOL    HW119646   1.282   0.236   7.010 -1.5908 -1.7278  1.1850
 2729SOL    HW219647   1.155   0.305   7.012 -1.1169 -0.5607 -1.5873
 2730SOL     OW19648   4.693   2.717  11.772 -0.2546  0.3435 -0.2734
 2730SOL    HW119649   4.630   2.652  11.740  0.9171  0.2484 -2.3505
 2730SOL    HW219650   4.633   2.773  11.822 -1.7439 -0.5103 -1.1047
 2731SOL     OW19651   2.857   4.594  13.643  0.5692 -0.2521  0.1650
 2731SOL    HW119652   2.899   4.514  13.611 -1.6033 -1.1242 -0.5320
 2731SOL    HW219653   2.775   4.557  13.677  1.0542  0.1527  1.7645
 2732SOL     OW19654   3.567   1.785   3.840  0.2035  0.1160 -0.3026
 2732SOL    HW119655   3.540   1.866   3.883  3.0423  0.6354  0.4866
 2732SOL    HW219656   3.485   1.739   3.826 -0.2216  0.6397  0.4880
 2733SOL     OW19657   0.088   4.521  12.037  0.3589 -0.1892  0.2342
 2733SOL    HW119658   0.011   4.485  12.082 -0.4113 -0.8115 -1.5713
 2733SOL    HW219659   0.143   4.553  12.109  0.3394 -0.7007  0.4746
 2734SOL     OW19660   2.380   2.357  15.432 -0.3042 -0.6043 -0.1191
 2734SOL    HW119661   2.359   2.350  15.525  2.6962  0.3146  0.6240
 2734SOL    HW219662   2.337   2.276  15.405 -1.2735 -0.5815  1.3333
 2735SOL     OW19663   3.334   3.639   3.667  0.1027  0.1759  0.6266
 2735SOL    HW119664   3.301   3.636   3.577  1.5681 -1.0375  0.1346
 2735SOL    HW219665   3.413   3.690   3.649 -0.3629  0.3989 -0.8069
 2736SOL     OW19666   1.153   3.271   4.976  0.4819 -0.6483 -0.7022
 2736SOL    HW119667   1.246   3.272   4.951  0.6163 -0.0971 -0.1799
 2736SOL    HW219668   1.151   3.195   5.034  0.4784 -1.9381 -2.3613
 2737SOL     OW19669   0.472   4.040   4.248  0.2385  0.4199 -0.2286
 2737SOL    HW119670   0.475   4.113   4.310  0.6052  0.0301  0.2161
 2737SOL    HW219671   0.564   4.013   4.247  0.6886  1.9176  1.9088
 2738SOL     OW19672   4.436   0.927   6.812  0.0739 -0.2492 -0.0219
 2738SOL    HW119673   4.488   0.989   6.762 -0.8785  0.2936 -0.3486
 2738SOL    HW219674   4.506   0.869   6.841  1.2161  1.6578  1.0562
 2739SOL     OW19675   0.015   1.536   3.572  0.4680  0.6012  0.0389
 2739SOL    HW119676   4.712   1.477   3.500 -1.2678  0.1501  1.0088
 2739SOL    HW219677   4.686   1.615   3.552 -1.5874 -0.9049 -0.7576
 2740SOL     OW19678   0.000   1.415   6.823  0.0775 -0.0178 -0.1218
 2740SOL    HW119679   0.054   1.424   6.744 -0.1227  2.0682 -0.0145
 2740SOL    HW219680   0.033   1.489   6.874 -1.8860  1.4705 -1.0517
 2741SOL     OW19681   4.365   1.397  11.198  0.1336 -0.5667  0.1692
 2741SOL    HW119682   4.332   1.413  11.287 -1.1529  2.3774 -0.8372
 2741SOL    HW219683   4.290   1.383  11.141  0.3939 -1.3915  0.0224
 2742SOL     OW19684   2.796   4.659   5.557  0.7041 -0.1072 -0.3357
 2742SOL    HW119685   2.759   0.023   5.580 -0.1512 -0.8548  1.0743
 2742SOL    HW219686   2.718   4.616   5.524 -2.0131  5.2575 -0.9427
 2743SOL     OW19687   2.916   1.096   2.620  0.0083  0.5035  0.1267
 2743SOL    HW119688   2.965   1.124   2.543  1.5612  1.9058  1.6074
 2743SOL    HW219689   2.989   1.079   2.681  0.7288 -1.5630 -1.3027
 2744SOL     OW19690   3.283   3.337   1.590  0.0083  0.1410 -0.2523
 2744SOL    HW119691   3.251   3.289   1.513 -0.1631 -0.4392  0.1835
 2744SOL    HW219692   3.253   3.280   1.660  0.9691 -0.3362 -0.2336
 2745SOL     OW19693   4.545   0.931   7.660  0.5811  0.2775 -0.6548
 2745SOL    HW119694   4.488   1.008   7.657  1.5653  1.0804  1.0824
 2745SOL    HW219695   4.484   0.858   7.649  0.4867  0.2950 -0.2259
 2746SOL     OW19696   4.604   2.232  13.471  0.3081  0.0719 -0.2058
 2746SOL    HW119697   4.658   2.301  13.430  1.4409  0.9884  2.8041
 2746SOL    HW219698   4.560   2.204  13.391 -2.2155 -0.3932  1.3691
 2747SOL     OW19699   0.967   4.013   6.959  0.1886  0.3656 -0.3641
 2747SOL    HW119700   1.042   4.061   6.995 -1.2577  0.5652  2.4288
 2747SOL    HW219701   0.990   3.925   6.989  0.7658  0.4458 -0.5696
 2748SOL     OW19702   0.531   0.130  15.298 -0.1499  0.2259  0.2048
 2748SOL    HW119703   0.576   0.055  15.336  0.5144  0.8909  0.7471
 2748SOL    HW219704   0.547   0.197  15.364 -2.0137  1.0574 -0.2045
 2749SOL     OW19705   2.520   4.378   5.949  0.5468  0.7204  0.2536
 2749SOL    HW119706   2.444   4.433   5.971 -3.8349 -3.6680 -3.8745
 2749SOL    HW219707   2.498   4.376   5.856 -0.4111  1.6365  0.4504
 2750SOL     OW19708   4.693   2.414   8.119  0.0903  0.4707 -0.0483
 2750SOL    HW119709   0.049   2.381   8.165  0.6570  1.8215 -0.0194
 2750SOL    HW219710   0.008   2.495   8.081  0.5176 -0.9884 -2.7717
 2751SOL     OW19711   1.832   0.784   3.927 -0.3578  0.0867 -0.8397
 2751SOL    HW119712   1.794   0.707   3.970 -1.8126  0.4616 -1.4509
 2751SOL    HW219713   1.837   0.839   4.005 -0.0454 -0.6996 -0.2981
 2752SOL     OW19714   3.191   3.429  11.470 -0.3448  0.3051  0.0235
 2752SOL    HW119715   3.097   3.415  11.483 -0.6589  0.7332 -1.7911
 2752SOL    HW219716   3.237   3.349  11.497  1.0546  1.2754  0.4676
 2753SOL     OW19717   1.463   2.705   5.325 -0.7124  0.4625 -0.0353
 2753SOL    HW119718   1.383   2.696   5.273  0.1063 -0.4122 -1.1558
 2753SOL    HW219719   1.515   2.630   5.296 -2.2436 -0.8014  0.5155
 2754SOL     OW19720   4.263   1.203  15.548  0.3283 -0.3739  0.0689
 2754SOL    HW119721   4.237   1.125  15.597  1.6111 -0.6488  0.3234
 2754SOL    HW219722   4.357   1.197  15.564  0.3775  2.3827  0.7099
 2755SOL     OW19723   3.120   1.908   7.938  0.2606 -0.2450 -0.3109
 2755SOL    HW119724   3.026   1.916   7.954  0.3956 -0.4993  0.6323
 2755SOL    HW219725   3.154   1.983   7.986 -1.2695 -0.3840  1.0110
 2756SOL     OW19726   0.694   3.581   0.401  0.2924  0.7407 -0.2027
 2756SOL    HW119727   0.635   3.547   0.334  0.1344  0.9398 -0.1637
 2756SOL    HW219728   0.740   3.654   0.362 -0.6911  0.8198 -1.2269
 2757SOL     OW19729   4.436   0.488   9.782  0.1248 -0.5294  0.0215
 2757SOL    HW119730   4.363   0.530   9.828  0.0757 -1.4787  0.8089
 2757SOL    HW219731   4.457   0.550   9.712  0.8735  2.3774  2.7997
 2758SOL     OW19732   4.094   0.534   8.267  0.4982 -0.9603  0.3876
 2758SOL    HW119733   4.035   0.604   8.294 -0.4987 -1.8709  0.5629
 2758SOL    HW219734   4.045   0.459   8.300 -1.5195  0.6798  1.0928
 2759SOL     OW19735   3.769   0.399   8.024 -0.0962 -0.0665  0.0570
 2759SOL    HW119736   3.740   0.490   8.017  2.8417  0.9085  0.7349
 2759SOL    HW219737   3.844   0.404   7.965 -1.2981 -0.0841 -1.4773
 2760SOL     OW19738   2.013   2.046   8.720  0.0986  0.4128 -0.2187
 2760SOL    HW119739   2.080   2.080   8.661 -1.5840  2.6738 -0.8425
 2760SOL    HW219740   1.962   1.984   8.669  0.9591  0.0660 -0.6486
 2761SOL     OW19741   0.266   3.731  12.764 -0.4168 -0.2464 -0.0101
 2761SOL    HW119742   0.208   3.766  12.831 -0.3308  2.0725 -1.1433
 2761SOL    HW219743   0.318   3.664  12.808  0.5764 -0.0327 -0.8379
 2762SOL     OW19744   3.937   1.673   9.609  0.1019 -0.5467 -0.0114
 2762SOL    HW119745   3.856   1.703   9.567  0.7375  0.1678 -0.7473
 2762SOL    HW219746   4.010   1.730   9.583 -0.1755 -0.1424  0.0963
 2763SOL     OW19747   3.116   0.193  16.422  0.8554 -0.2387 -0.0995
 2763SOL    HW119748   3.033   0.195  16.468  0.8960 -0.6780 -0.0072
 2763SOL    HW219749   3.090   0.198  16.330  0.9770 -1.0408 -0.1779
 2764SOL     OW19750   2.054   1.971  13.548  0.5717 -0.6962 -0.4844
 2764SOL    HW119751   1.996   2.009  13.614 -1.1463 -3.6792 -0.2533
 2764SOL    HW219752   2.041   2.032  13.476  0.0690  0.8275  0.8949
 2765SOL     OW19753   3.460   0.880   7.020 -0.0610  0.0572 -0.1894
 2765SOL    HW119754   3.434   0.898   7.111 -0.2055 -2.8943  0.3432
 2765SOL    HW219755   3.549   0.848   7.039 -0.9003 -1.7975  0.6141
 2766SOL     OW19756   2.681   0.834   3.127  0.1562 -0.5968 -0.1692
 2766SOL    HW119757   2.609   0.826   3.064  0.2892 -1.9284 -0.1505
 2766SOL    HW219758   2.636   0.882   3.197 -2.1101 -2.6348 -0.2314
 2767SOL     OW19759   2.038   0.107   8.828 -0.8251  0.3758 -0.2676
 2767SOL    HW119760   2.114   0.055   8.854 -1.0273  0.3760  0.3074
 2767SOL    HW219761   2.014   0.057   8.750  2.4290 -0.9603 -0.3915
 2768SOL     OW19762   4.692   0.933   5.241  0.1314 -0.0717 -0.5860
 2768SOL    HW119763   4.682   0.894   5.154  0.7179  1.0766 -1.1746
 2768SOL    HW219764   0.029   1.003   5.213 -0.1199  0.9884  1.4994
 2769SOL     OW19765   1.330   0.093   4.434  0.6896  0.3036 -0.4110
 2769SOL    HW119766   1.383   0.063   4.508  0.4545 -0.7995 -0.6940
 2769SOL    HW219767   1.314   0.010   4.390  0.0361 -0.5353  1.3926
 2770SOL     OW19768   4.189   3.328  15.896  0.3186  0.4237  0.1434
 2770SOL    HW119769   4.250   3.360  15.830  1.5116 -1.5394  0.3163
 2770SOL    HW219770   4.133   3.406  15.890 -1.3155 -0.8313 -1.1735
 2771SOL     OW19771   0.047   3.066   7.589  0.0315 -0.5272  0.2190
 2771SOL    HW119772   0.050   2.973   7.609  0.8620 -0.2685  1.3082
 2771SOL    HW219773   4.685   3.063   7.544 -0.5529  0.8569  1.1838
 2772SOL     OW19774   1.793   3.596   2.076  0.5632  0.2024  0.5594
 2772SOL    HW119775   1.747   3.574   1.995  1.0323 -1.0484  0.6318
 2772SOL    HW219776   1.752   3.534   2.136  1.2974 -2.0202 -1.2452
 2773SOL     OW19777   3.485   2.935   1.869 -0.2914  0.0537 -0.8890
 2773SOL    HW119778   3.568   2.889   1.882 -0.9683 -0.4657  1.6045
 2773SOL    HW219779   3.448   2.934   1.957 -1.3431 -2.3428 -1.3709
 2774SOL     OW19780   3.967   0.159   7.144 -0.1361 -0.0789  0.3696
 2774SOL    HW119781   4.053   0.192   7.170  0.5982 -0.3673 -1.7111
 2774SOL    HW219782   3.990   0.152   7.051  1.7874  1.1372  0.7718
 2775SOL     OW19783   1.664   1.294   9.504 -0.0083 -0.8467  0.1446
 2775SOL    HW119784   1.607   1.248   9.443 -0.1706 -2.5155  1.5690
 2775SOL    HW219785   1.712   1.218   9.536  0.8330 -0.2776  0.2486
 2776SOL     OW19786   3.627   3.625  16.206  0.1785 -0.0671 -0.1647
 2776SOL    HW119787   3.577   3.704  16.229  0.3671  0.5267 -1.8360
 2776SOL    HW219788   3.548   3.580  16.176 -0.0226  0.9263 -1.1220
 2777SOL     OW19789   0.297   3.818  16.917  0.0729  0.0982 -0.0974
 2777SOL    HW119790   0.347   3.748  16.958 -1.8070 -1.5925 -0.6891
 2777SOL    HW219791   0.354   3.891  16.942  0.2063  0.6925 -2.1712
 2778SOL     OW19792   2.687   3.114   8.340  0.7899 -0.1802 -0.1057
 2778SOL    HW119793   2.697   3.085   8.250  0.9673 -0.5868  0.0440
 2778SOL    HW219794   2.724   3.202   8.334 -0.6929  0.5195  0.9883
 2779SOL     OW19795   0.597   1.150   4.264 -0.3891 -0.8872 -0.3617
 2779SOL    HW119796   0.654   1.093   4.211  0.8793  0.4142 -0.4039
 2779SOL    HW219797   0.523   1.149   4.203 -0.8034 -1.9470  0.1613
 2780SOL     OW19798   4.678   2.434   6.582 -0.3488  0.8784  0.1778
 2780SOL    HW119799   4.719   2.361   6.534  0.6125  1.9595 -0.6309
 2780SOL    HW219800   4.593   2.394   6.599  1.6091 -2.8323  1.3030
 2781SOL     OW19801   2.929   2.306  13.057 -0.1267  0.1661  0.4214
 2781SOL    HW119802   2.893   2.237  13.113 -0.1508  0.2269  0.4802
 2781SOL    HW219803   2.991   2.251  13.009  0.5108 -0.3159  1.8211
 2782SOL     OW19804   4.172   4.219  12.868  0.2545  0.0414 -0.0133
 2782SOL    HW119805   4.094   4.275  12.859 -0.1508 -0.4594  0.4125
 2782SOL    HW219806   4.166   4.178  12.782  0.6163 -1.3897  0.6522
 2783SOL     OW19807   3.318   0.967   3.968  1.1035  0.6612 -0.8512
 2783SOL    HW119808   3.232   0.932   3.991  1.3111 -0.7681 -2.2498
 2783SOL    HW219809   3.336   0.942   3.878  0.9080  1.0498 -0.9968
 2784SOL     OW19810   3.335   4.223   2.831 -0.4988  0.7109  0.3428
 2784SOL    HW119811   3.420   4.261   2.809  0.3999 -0.9638  0.9767
 2784SOL    HW219812   3.337   4.222   2.927  0.0294 -1.0732  0.3075
 2785SOL     OW19813   2.400   1.583   9.662 -0.2052  0.7747 -0.2948
 2785SOL    HW119814   2.420   1.640   9.736  1.7342 -1.2485  0.7400
 2785SOL    HW219815   2.490   1.583   9.628 -0.9087 -0.0536 -2.1552
 2786SOL     OW19816   4.330   3.988   3.063  0.0807 -0.2071  0.7548
 2786SOL    HW119817   4.393   4.051   3.097  2.7423 -1.3878 -2.1086
 2786SOL    HW219818   4.384   3.941   3.000 -0.0145  1.0339 -0.2400
 2787SOL     OW19819   2.236   2.276   2.101  0.1666  0.6928  0.2026
 2787SOL    HW119820   2.331   2.289   2.101  0.0701  1.3794  0.3911
 2787SOL    HW219821   2.225   2.247   2.192 -0.7952  0.5714  0.0521
 2788SOL     OW19822   2.480   2.943  14.605  0.3941  0.6050  0.3151
 2788SOL    HW119823   2.495   3.032  14.637 -1.7566  0.6532  1.2570
 2788SOL    HW219824   2.547   2.893  14.651 -1.6455  1.4719  4.3052
 2789SOL     OW19825   0.737   4.302  13.150 -0.3047 -0.1150 -0.1348
 2789SOL    HW119826   0.751   4.217  13.110 -0.3557 -0.9811  1.6684
 2789SOL    HW219827   0.646   4.320  13.125  0.2329  2.3065 -0.3659
 2790SOL     OW19828   0.367   4.636   7.983 -0.0893 -0.6104 -0.1086
 2790SOL    HW119829   0.414   4.620   8.065 -0.2148  1.0446  0.2871
 2790SOL    HW219830   0.335   4.549   7.959  1.2928 -1.3285  0.6457
 2791SOL     OW19831   0.970   2.039   9.345  0.2129 -0.1808  0.6927
 2791SOL    HW119832   0.892   2.048   9.399  0.8036 -0.0047  1.5277
 2791SOL    HW219833   0.959   2.119   9.293  1.3488  0.2733  1.1404
 2792SOL     OW19834   0.554   2.850   5.440  0.5408  0.0714  0.4184
 2792SOL    HW119835   0.484   2.915   5.446  0.6566  0.2974 -0.6448
 2792SOL    HW219836   0.501   2.786   5.391  1.2274 -0.1025 -0.1021
 2793SOL     OW19837   3.503   1.711   7.117 -0.3862  0.3119 -0.1183
 2793SOL    HW119838   3.497   1.626   7.160  2.2457  0.1426 -0.0600
 2793SOL    HW219839   3.558   1.671   7.049 -2.6745 -0.6264 -1.4099
 2794SOL     OW19840   4.489   2.909   0.475  0.5377  0.2063  0.5123
 2794SOL    HW119841   4.458   2.996   0.448 -1.7650 -2.0943 -4.1605
 2794SOL    HW219842   4.417   2.874   0.526  1.1602 -0.1515  1.1433
 2795SOL     OW19843   1.288   0.211   4.744 -0.0953  0.4297  0.0061
 2795SOL    HW119844   1.216   0.238   4.801 -0.7532  1.1540 -1.1585
 2795SOL    HW219845   1.245   0.141   4.695  4.5559 -1.2925 -1.6471
 2796SOL     OW19846   2.686   4.020   1.792 -0.1675 -0.0979 -1.0884
 2796SOL    HW119847   2.615   4.083   1.781 -0.8739 -0.8455 -0.8663
 2796SOL    HW219848   2.721   4.042   1.879 -3.0122  1.6891 -0.3794
 2797SOL     OW19849   2.377   2.070   6.078 -0.1394  0.2686  0.1469
 2797SOL    HW119850   2.340   2.158   6.069  0.3507  0.4856  0.2175
 2797SOL    HW219851   2.448   2.084   6.141  0.4486  0.3653 -0.5389
 2798SOL     OW19852   2.009   2.795   3.580 -0.2382 -0.1617  0.3489
 2798SOL    HW119853   2.046   2.883   3.566 -1.2564  0.3476  0.8914
 2798SOL    HW219854   2.037   2.782   3.671  1.6105 -1.5848 -0.4099
 2799SOL     OW19855   2.040   0.389   5.962  0.7057  0.0582  0.7276
 2799SOL    HW119856   2.117   0.436   5.992 -0.9787  2.4919  1.2483
 2799SOL    HW219857   2.068   0.298   5.971 -0.0635 -0.3922 -1.4569
 2800SOL     OW19858   0.552   4.633   6.521 -0.0111 -0.0520 -0.3186
 2800SOL    HW119859   0.596   4.591   6.595  0.1893  3.1282  1.3843
 2800SOL    HW219860   0.466   4.592   6.517 -0.8492  1.5811  0.7027
 2801SOL     OW19861   4.063   4.100  12.640  0.2209 -0.2507  0.3314
 2801SOL    HW119862   4.004   4.030  12.613  0.1937 -0.3206  0.5646
 2801SOL    HW219863   4.102   4.114  12.554  0.9312  0.4654  0.7587
 2802SOL     OW19864   4.258   0.098  13.680  0.1082  0.1847 -0.2656
 2802SOL    HW119865   4.215   0.049  13.609 -1.4761  0.6430  0.3761
 2802SOL    HW219866   4.205   0.177  13.674 -0.8605 -0.4802 -0.5449
 2803SOL     OW19867   4.386   3.795   2.816  0.3307 -0.3599  0.2277
 2803SOL    HW119868   4.476   3.762   2.816 -0.1112 -1.5793 -0.3598
 2803SOL    HW219869   4.388   3.869   2.755 -0.2738  1.2784  2.2020
 2804SOL     OW19870   1.167   4.291   3.262 -0.4544 -0.5737 -0.0117
 2804SOL    HW119871   1.227   4.296   3.336 -1.1514 -1.0099  0.5951
 2804SOL    HW219872   1.229   4.283   3.190  1.7154  1.0158  1.7035
 2805SOL     OW19873   0.956   2.778   4.831 -0.4585  0.2416  0.3146
 2805SOL    HW119874   1.011   2.760   4.907  0.0316  0.2712 -0.0392
 2805SOL    HW219875   0.908   2.694   4.831  0.2207 -0.1483 -0.9888
 2806SOL     OW19876   0.640   4.208   1.990  0.1053  0.3794  0.2375
 2806SOL    HW119877   0.664   4.115   1.993  0.3474  0.3188 -4.3005
 2806SOL    HW219878   0.647   4.221   1.896  2.1775  0.4497  0.4139
 2807SOL     OW19879   1.097   2.466   8.783 -0.1331 -0.4521 -0.6291
 2807SOL    HW119880   1.097   2.421   8.867  1.3369 -0.9754 -0.9242
 2807SOL    HW219881   1.186   2.471   8.749  0.0145  1.3324  0.0243
 2808SOL     OW19882   3.846   0.348   4.983 -0.4214 -0.2731 -0.0046
 2808SOL    HW119883   3.857   0.305   4.898  2.1589 -1.5277  0.9665
 2808SOL    HW219884   3.776   0.295   5.022  1.1642 -0.9061  1.9859
 2809SOL     OW19885   1.667   3.269   5.147  0.4535 -0.1538  0.1188
 2809SOL    HW119886   1.574   3.254   5.159  0.4632  0.1062  0.5088
 2809SOL    HW219887   1.706   3.213   5.213  2.4703  0.8389 -0.2021
 2810SOL     OW19888   2.115   3.976   5.173 -0.4562  0.5494 -0.2640
 2810SOL    HW119889   2.104   4.013   5.086  0.9019  0.8236 -0.3100
 2810SOL    HW219890   2.205   3.994   5.198 -0.9607 -0.2703  2.1901
 2811SOL     OW19891   2.374   2.338   9.980 -0.1550 -0.8108  0.2601
 2811SOL    HW119892   2.422   2.318  10.060  1.1324  0.9936 -0.0509
 2811SOL    HW219893   2.326   2.259   9.957 -0.8094 -0.0879 -0.8520
 2812SOL     OW19894   2.555   3.588   8.204 -0.4277  0.7175  0.3057
 2812SOL    HW119895   2.474   3.550   8.172 -0.2848  0.1414  0.6211
 2812SOL    HW219896   2.529   3.674   8.238  0.4275  1.4729 -0.9735
 2813SOL     OW19897   1.648   1.842   3.128  0.1709 -0.0462 -0.4633
 2813SOL    HW119898   1.637   1.875   3.039 -0.4114  2.8473  0.6701
 2813SOL    HW219899   1.650   1.924   3.178  0.7422 -1.0760  1.1862
 2814SOL     OW19900   0.093   3.168   3.216  0.2652 -0.0293 -0.2361
 2814SOL    HW119901   0.175   3.166   3.266  1.0240 -0.4602 -1.4918
 2814SOL    HW219902   0.033   3.182   3.289 -0.4025  0.0918 -0.8038
 2815SOL     OW19903   0.129   2.958   5.697 -0.3486  0.1145 -0.1702
 2815SOL    HW119904   0.140   2.970   5.603  0.7496  0.2263 -0.0333
 2815SOL    HW219905   0.045   2.997   5.720  0.0553  1.5450 -1.1313
 2816SOL     OW19906   2.403   0.872   3.892 -0.0888 -0.2546  0.3405
 2816SOL    HW119907   2.394   0.860   3.987  0.2731  1.6478  0.6143
 2816SOL    HW219908   2.389   0.784   3.859  2.3137 -0.9083  1.0477
 2817SOL     OW19909   0.717   4.579   1.082 -0.1731 -0.4470  0.0763
 2817SOL    HW119910   0.774   4.580   1.005  1.0361 -1.8994  0.9369
 2817SOL    HW219911   0.702   4.486   1.101  1.2938 -0.3453  1.7977
 2818SOL     OW19912   1.456   3.062   5.950  0.7582  0.4875 -0.2642
 2818SOL    HW119913   1.492   3.114   6.022  0.1471  1.1926 -0.4676
 2818SOL    HW219914   1.471   3.117   5.873  0.5330 -0.7141 -1.1487
 2819SOL     OW19915   0.674   3.378   3.182 -0.2365 -0.5247  0.3845
 2819SOL    HW119916   0.620   3.360   3.104 -1.5225 -3.0029  1.8567
 2819SOL    HW219917   0.757   3.343   3.151 -0.1630  0.2412 -0.2786
 2820SOL     OW19918   3.269   1.302   9.094 -0.5595  0.1686 -0.7281
 2820SOL    HW119919   3.206   1.235   9.120 -1.8652  1.2818 -1.0680
 2820SOL    HW219920   3.304   1.257   9.017  1.5176  3.3950 -1.6400
 2821SOL     OW19921   0.423   4.382   2.016 -0.2239  0.1092  0.5008
 2821SOL    HW119922   0.498   4.329   1.988 -1.0217 -0.8173  0.1336
 2821SOL    HW219923   0.407   4.434   1.937  4.0887 -0.5229 -0.8102
 2822SOL     OW19924   4.533   3.980   0.266  0.4508 -0.0820 -0.4368
 2822SOL    HW119925   4.476   4.046   0.225 -1.4048 -1.1756  0.3642
 2822SOL    HW219926   4.616   4.024   0.249  1.3186 -1.7211 -0.3578
 2823SOL     OW19927   2.910   0.217   2.819 -0.5234 -0.0873 -0.0230
 2823SOL    HW119928   2.874   0.254   2.900  1.4446  0.5858  0.5496
 2823SOL    HW219929   2.916   0.298   2.769  0.6993 -1.5755 -2.2905
 2824SOL     OW19930   3.317   4.221   3.138  0.5824  0.1855  0.5139
 2824SOL    HW119931   3.259   4.297   3.146 -0.9226 -0.6906 -2.1770
 2824SOL    HW219932   3.243   4.160   3.142 -0.5412  1.5521  0.8472
 2825SOL     OW19933   1.956   0.086  12.136  0.1808 -0.1220 -0.4693
 2825SOL    HW119934   2.046   0.114  12.152  0.7099 -0.8134 -2.2223
 2825SOL    HW219935   1.928   0.100  12.226 -0.6959 -2.0730 -0.4314
 2826SOL     OW19936   4.290   3.098   8.577  0.5942  0.2286  0.2088
 2826SOL    HW119937   4.372   3.057   8.552  1.9237  3.0151  0.0309
 2826SOL    HW219938   4.291   3.074   8.670 -0.6181  1.0765  0.4501
 2827SOL     OW19939   0.839   4.521   6.330 -0.3232 -0.7587  0.4843
 2827SOL    HW119940   0.838   4.496   6.422  1.1376 -2.1070  0.1352
 2827SOL    HW219941   0.932   4.537   6.313 -0.6563 -0.0994 -0.7416
 2828SOL     OW19942   3.504   3.459   4.596 -0.4622 -0.3147  0.4134
 2828SOL    HW119943   3.491   3.551   4.619 -1.6117 -0.3717  0.0182
 2828SOL    HW219944   3.489   3.418   4.681  1.8485 -0.2179  0.8507
 2829SOL     OW19945   4.213   0.458   9.101 -0.6119  0.1588  0.3199
 2829SOL    HW119946   4.252   0.520   9.163  0.0103 -0.0379  0.1345
 2829SOL    HW219947   4.180   0.524   9.040 -0.1002  1.3616  1.3548
 2830SOL     OW19948   1.001   4.085   3.213  0.4195 -0.5142 -0.1286
 2830SOL    HW119949   1.014   4.003   3.261  0.3918 -0.5641 -0.2083
 2830SOL    HW219950   1.076   4.138   3.242  1.3781 -1.6444 -0.5794
 2831SOL     OW19951   2.574   1.556   3.184 -0.2808  0.2089  0.5784
 2831SOL    HW119952   2.574   1.495   3.258  4.2561  2.4330  2.4522
 2831SOL    HW219953   2.631   1.621   3.225  0.3576  0.3533 -0.5559
 2832SOL     OW19954   2.480   1.802   4.999 -0.5923  0.4922 -0.0935
 2832SOL    HW119955   2.405   1.859   5.017 -0.1359  0.7093  1.1552
 2832SOL    HW219956   2.522   1.840   4.922 -1.1699  1.9680  0.3145
 2833SOL     OW19957   3.930   0.777   5.098 -0.6123 -1.2107 -0.1638
 2833SOL    HW119958   3.958   0.867   5.117 -1.8962 -1.0712  1.0463
 2833SOL    HW219959   4.016   0.736   5.096 -0.8373 -1.6508 -1.0183
 2834SOL     OW19960   4.394   2.899   7.812  0.1860 -0.6205  0.0301
 2834SOL    HW119961   4.387   2.949   7.894 -0.9134 -1.1397  0.2551
 2834SOL    HW219962   4.481   2.861   7.825 -1.1063 -3.5770 -0.1422
 2835SOL     OW19963   0.193   3.646   5.129  0.1891  0.2450  0.3914
 2835SOL    HW119964   0.252   3.602   5.190  2.2000  1.2614 -0.8327
 2835SOL    HW219965   0.254   3.642   5.056  2.8313  0.0294  2.6161
 2836SOL     OW19966   2.685   4.705  15.594  0.5981  0.0939 -0.4210
 2836SOL    HW119967   2.762   0.028  15.559  1.8182 -0.2892  1.7779
 2836SOL    HW219968   2.621   4.708  15.523 -1.6473  1.4790  1.6554
 2837SOL     OW19969   1.771   1.037   2.859  0.3691  0.1518 -0.2052
 2837SOL    HW119970   1.712   0.982   2.808 -3.7597  2.8271  1.6710
 2837SOL    HW219971   1.706   1.054   2.927 -0.4710 -1.0287 -0.6938
 2838SOL     OW19972   4.251   1.482   6.288  0.1778  0.2503  0.1138
 2838SOL    HW119973   4.342   1.502   6.307  0.0329  1.4129 -0.4115
 2838SOL    HW219974   4.246   1.411   6.352  1.3926 -0.4405 -0.5867
 2839SOL     OW19975   4.507   4.329   0.485  0.2396  0.7596  0.0177
 2839SOL    HW119976   4.446   4.398   0.511  0.0554  0.0782  1.4091
 2839SOL    HW219977   4.471   4.309   0.399 -0.6574  1.8249  0.1412
 2840SOL     OW19978   2.639   0.609   2.781 -0.0928  0.1727 -0.3903
 2840SOL    HW119979   2.574   0.557   2.827  0.2448  0.0528 -0.0530
 2840SOL    HW219980   2.669   0.546   2.715  0.9890  0.2985 -0.0183
 2841SOL     OW19981   3.740   1.659  12.743 -0.5478  0.3574 -0.1118
 2841SOL    HW119982   3.749   1.717  12.668 -1.0536 -0.2079 -0.6076
 2841SOL    HW219983   3.775   1.724  12.804 -0.5331  0.4430 -0.2120
 2842SOL     OW19984   4.046   0.903   0.891 -0.1536  0.1147 -0.2839
 2842SOL    HW119985   4.100   0.896   0.970  0.7293 -0.3179 -0.9137
 2842SOL    HW219986   4.108   0.878   0.821  0.3588  0.9319 -0.1153
 2843SOL     OW19987   2.443   4.001  10.452 -0.6164  0.4102  0.1328
 2843SOL    HW119988   2.530   4.013  10.490 -0.6536 -0.3378  0.4628
 2843SOL    HW219989   2.393   3.995  10.533 -0.0738 -1.0235  0.3579
 2844SOL     OW19990   3.213   1.623   8.166 -0.2486  0.1157 -0.2830
 2844SOL    HW119991   3.156   1.666   8.102 -1.3146 -0.5882  0.1984
 2844SOL    HW219992   3.173   1.536   8.166 -2.4951  1.1549  0.6002
 2845SOL     OW19993   0.424   0.466   4.588  0.2998  0.0732  0.2525
 2845SOL    HW119994   0.428   0.478   4.683 -0.5017  1.9970  0.0330
 2845SOL    HW219995   0.361   0.537   4.577  3.0532  1.9881 -3.1691
 2846SOL     OW19996   0.682   4.527   3.107  0.1472 -0.3325 -0.1824
 2846SOL    HW119997   0.745   4.508   3.176 -0.8049 -1.0423  0.5009
 2846SOL    HW219998   0.654   4.439   3.081  1.4224 -0.6294 -0.5708
 2847SOL     OW19999   3.639   1.495  12.931 -0.0008  0.1866  0.0765
 2847SOL    HW120000   3.553   1.536  12.933 -0.1199 -0.0141 -1.0817
 2847SOL    HW220001   3.678   1.537  12.854 -0.9222 -1.0584 -1.0714
 2848SOL     OW20002   4.554   1.490  15.306 -0.0960 -0.1205  0.1415
 2848SOL    HW120003   4.491   1.440  15.254  0.1408 -0.2491 -0.0222
 2848SOL    HW220004   4.632   1.436  15.312  1.1525  1.6066 -0.5037
 2849SOL     OW20005   0.699   3.119   4.742  0.2839  0.2057 -0.0352
 2849SOL    HW120006   0.758   3.057   4.698  1.8803 -0.3017  2.8233
 2849SOL    HW220007   0.759   3.191   4.759 -0.0506 -0.0064  2.0084
 2850SOL     OW20008   0.984   2.426  12.340  0.1673  0.3697  0.3232
 2850SOL    HW120009   0.919   2.454  12.275 -0.4040  1.6823  1.4516
 2850SOL    HW220010   1.053   2.411  12.276  1.8543 -0.9725  2.4299
 2851SOL     OW20011   1.241   0.179   8.157  0.7745  0.1919  0.7110
 2851SOL    HW120012   1.274   0.198   8.069  0.5582  1.7515  0.9728
 2851SOL    HW220013   1.166   0.237   8.154  1.0012  0.5177  1.2526
 2852SOL     OW20014   3.647   4.008   5.444  0.9386  0.1409  0.0970
 2852SOL    HW120015   3.580   3.981   5.381  1.7666 -1.6583 -0.0098
 2852SOL    HW220016   3.680   3.918   5.455 -0.0858 -0.3360 -0.7192
 2853SOL     OW20017   3.979   0.822   8.130  0.1775  0.0524 -0.5822
 2853SOL    HW120018   4.071   0.849   8.134  0.5807 -1.3386 -0.2080
 2853SOL    HW220019   3.963   0.798   8.221 -0.1492  2.8381  0.0893
 2854SOL     OW20020   0.774   2.786   3.497 -0.2059 -0.2682  0.3639
 2854SOL    HW120021   0.725   2.707   3.475 -1.0104  0.4265 -0.3719
 2854SOL    HW220022   0.815   2.789   3.410  1.4905 -1.4417  1.1307
 2855SOL     OW20023   3.998   1.823  12.644  0.3850 -0.4837  0.0229
 2855SOL    HW120024   3.923   1.870  12.681  0.8898  0.4958 -0.1789
 2855SOL    HW220025   4.037   1.895  12.594 -2.0169 -0.5025 -1.8998
 2856SOL     OW20026   2.035   1.755  12.960 -0.1931 -0.1153  0.0181
 2856SOL    HW120027   2.118   1.759  13.007 -1.2859 -1.8771  2.1078
 2856SOL    HW220028   2.039   1.667  12.922  0.6862 -0.7034  1.5062
 2857SOL     OW20029   0.780   3.124  16.632  0.9070  0.6109 -0.0532
 2857SOL    HW120030   0.705   3.107  16.689  0.6781  0.7050 -0.3309
 2857SOL    HW220031   0.752   3.084  16.550  0.8692 -0.7913  0.6326
 2858SOL     OW20032   1.906   2.755   7.070  0.4352 -0.9448  0.8061
 2858SOL    HW120033   1.917   2.817   7.142 -0.1911  0.4053 -0.2659
 2858SOL    HW220034   1.992   2.737   7.034  0.9351 -0.3148  1.6668
 2859SOL     OW20035   4.611   3.009  16.448  0.2050  0.0331  0.5380
 2859SOL    HW120036   4.591   3.056  16.367  1.2616 -0.8735 -0.2598
 2859SOL    HW220037   4.553   3.056  16.508  1.0287 -2.4820  3.3091
 2860SOL     OW20038   3.264   3.995  16.811  0.3071 -0.6150 -0.4262
 2860SOL    HW120039   3.224   4.004  16.724 -0.8100  0.8180  0.2382
 2860SOL    HW220040   3.215   3.920  16.845 -1.4708  0.9738  0.5189
 2861SOL     OW20041   0.409   4.679   3.804 -0.3701  0.1904  0.1305
 2861SOL    HW120042   0.406   4.593   3.764 -0.9800  0.2217  0.1034
 2861SOL    HW220043   0.482   4.661   3.863 -0.4043 -0.3496  0.0041
 2862SOL     OW20044   3.489   1.902   4.379 -0.4632  0.3395  0.1960
 2862SOL    HW120045   3.574   1.946   4.370 -0.7253  1.0571  1.2930
 2862SOL    HW220046   3.500   1.845   4.455 -0.0244 -1.2467 -1.0436
 2863SOL     OW20047   1.533   0.730   6.850 -0.2818  0.1448  0.7326
 2863SOL    HW120048   1.569   0.805   6.803  1.2660  0.2159  2.0167
 2863SOL    HW220049   1.466   0.788   6.885 -2.1418 -1.0482 -0.8741
 2864SOL     OW20050   2.011   1.021   4.818  0.2098 -0.5432 -0.1156
 2864SOL    HW120051   1.928   0.982   4.845  0.4648 -1.2038 -0.2717
 2864SOL    HW220052   1.976   1.094   4.767 -0.9736  0.1861  1.7694
 2865SOL     OW20053   2.446   0.865   6.582  0.1146 -0.2373  0.0488
 2865SOL    HW120054   2.531   0.823   6.568  1.2395  2.6247 -1.6220
 2865SOL    HW220055   2.427   0.825   6.667 -1.0217 -0.2548 -0.2088
 2866SOL     OW20056   4.314   2.099   6.689  0.0562  0.0477  0.1640
 2866SOL    HW120057   4.273   2.090   6.775 -1.6064  2.1813 -0.3693
 2866SOL    HW220058   4.403   2.120   6.715 -0.4276  2.0478  0.2435
 2867SOL     OW20059   3.152   2.549   2.516  0.3782 -0.3190 -0.6858
 2867SOL    HW120060   3.158   2.622   2.455 -0.3577 -1.1102 -1.7110
 2867SOL    HW220061   3.220   2.572   2.579 -1.8282  2.1294  0.8314
 2868SOL     OW20062   0.153   1.050   9.141 -0.5737  0.3353  0.2556
 2868SOL    HW120063   0.213   0.976   9.131  0.0049  0.9121 -0.5576
 2868SOL    HW220064   0.140   1.080   9.051 -1.0499  1.5189  0.7185
 2869SOL     OW20065   0.819   2.302  16.658 -0.4126 -0.1486 -0.6892
 2869SOL    HW120066   0.845   2.364  16.591  3.0996  0.0632  0.9014
 2869SOL    HW220067   0.723   2.311  16.654 -0.2779  1.1391 -0.9209
 2870SOL     OW20068   1.864   4.060  16.972  0.0770  0.5583 -0.1674
 2870SOL    HW120069   1.907   3.980  16.943  0.6692  1.3477 -1.4630
 2870SOL    HW220070   1.906   4.130  16.922 -0.2136  1.5886  1.0401
 2871SOL     OW20071   1.466   0.678  17.149 -0.1347  0.5279  0.0650
 2871SOL    HW120072   1.436   0.748  17.091 -1.9378 -0.0997  0.2338
 2871SOL    HW220073   1.445   0.595  17.105 -1.1322 -0.6510  2.7585
 2872SOL     OW20074   1.798   0.031  17.055  0.0269  0.2224 -0.0720
 2872SOL    HW120075   1.885   0.056  17.023 -0.7839  2.1971 -0.7378
 2872SOL    HW220076   1.803   0.072  17.142 -2.1165 -0.5927  0.4346
 2873SOL     OW20077   4.213   4.145   4.860  0.2083  0.1170 -0.3028
 2873SOL    HW120078   4.290   4.105   4.818  0.3293 -0.5040  0.5178
 2873SOL    HW220079   4.150   4.131   4.789 -2.0207  1.8108  1.3769
 2874SOL     OW20080   1.653   2.963  10.851  0.5065 -0.2665  0.1319
 2874SOL    HW120081   1.620   2.928  10.768 -2.4734  1.2240  0.6698
 2874SOL    HW220082   1.657   2.882  10.901  0.8768 -0.7379 -0.6576
 2875SOL     OW20083   0.762   0.856   5.281  0.9644 -0.2952 -0.6495
 2875SOL    HW120084   0.812   0.811   5.213  0.6820 -0.8689 -0.4786
 2875SOL    HW220085   0.813   0.826   5.357 -0.1192 -1.5535 -0.4258
 2876SOL     OW20086   3.359   4.195  15.237  0.0847 -0.5332  0.0203
 2876SOL    HW120087   3.311   4.268  15.277  1.8381 -0.3863  1.8710
 2876SOL    HW220088   3.404   4.220  15.156 -0.0946  1.5370  0.5592
 2877SOL     OW20089   0.004   3.106   0.722  0.3576 -0.8043 -0.1167
 2877SOL    HW120090   0.013   3.019   0.683  0.4275  0.0108 -1.8687
 2877SOL    HW220091   4.639   3.084   0.757  0.0622  1.5930  0.6601
 2878SOL     OW20092   0.366   2.833   4.449 -0.1376  0.4706 -0.7736
 2878SOL    HW120093   0.296   2.887   4.486 -0.5450 -1.3675  1.1571
 2878SOL    HW220094   0.333   2.748   4.478 -0.1639  1.8721  3.2175
 2879SOL     OW20095   3.301   3.259  17.077  0.6568  0.1132 -0.0233
 2879SOL    HW120096   3.323   3.349  17.102  0.8068 -0.4593  1.8495
 2879SOL    HW220097   3.268   3.236  17.164 -1.3610  1.9048 -0.3053
 2880SOL     OW20098   1.810   0.432   6.564 -0.3486  0.2410  0.3596
 2880SOL    HW120099   1.754   0.434   6.487 -1.2374  2.7036  1.0559
 2880SOL    HW220100   1.745   0.452   6.631 -1.2510 -0.5088 -0.3057
 2881SOL     OW20101   3.042   4.534   6.033 -0.4584 -0.2355  0.4071
 2881SOL    HW120102   3.026   4.625   6.007 -0.2795  0.5860  3.2431
 2881SOL    HW220103   2.951   4.506   6.020  0.0831 -0.8511 -2.0825
 2882SOL     OW20104   0.696   2.715  11.808  0.1171 -0.2178 -0.0267
 2882SOL    HW120105   0.777   2.718  11.859 -1.0994 -0.1604  1.9221
 2882SOL    HW220106   0.679   2.808  11.795  2.7168  0.1855 -0.5759
 2883SOL     OW20107   2.267   1.023  16.173  0.1617  0.2963  0.3217
 2883SOL    HW120108   2.298   0.985  16.256 -0.8786  1.3635  1.2052
 2883SOL    HW220109   2.313   1.106  16.180  1.1042 -0.2894  1.2819
 2884SOL     OW20110   1.621   4.495   5.185 -0.3981  0.4559  0.0458
 2884SOL    HW120111   1.625   4.507   5.090  0.5244 -0.6619 -0.0539
 2884SOL    HW220112   1.526   4.484   5.187 -0.2860 -0.4811  0.1001
 2885SOL     OW20113   1.999   4.096   3.322  0.6750  0.1598  0.2428
 2885SOL    HW120114   2.046   4.113   3.241  0.0171 -0.6738 -0.3094
 2885SOL    HW220115   2.010   4.182   3.363 -0.6085 -0.5308  2.0598
 2886SOL     OW20116   2.018   4.088   2.695 -0.4478  0.2010 -0.1154
 2886SOL    HW120117   1.998   4.034   2.618 -1.4492 -1.1890  1.1059
 2886SOL    HW220118   2.101   4.132   2.678  1.2086 -2.4494  1.1100
 2887SOL     OW20119   2.982   3.402   5.206 -0.4201 -0.3178 -0.1930
 2887SOL    HW120120   2.943   3.423   5.121 -0.2292  0.2640 -0.1444
 2887SOL    HW220121   2.914   3.428   5.268  0.0257  3.3022 -1.1574
 2888SOL     OW20122   3.018   3.698   1.076 -0.1642  0.0606  0.0154
 2888SOL    HW120123   2.939   3.649   1.055  0.8948 -1.8490  0.4485
 2888SOL    HW220124   3.087   3.646   1.035 -1.6387  0.0223 -2.4188
 2889SOL     OW20125   1.822   0.458  11.141 -0.0451 -0.0260  0.8005
 2889SOL    HW120126   1.796   0.506  11.062  0.7496 -0.2788  0.3911
 2889SOL    HW220127   1.801   0.367  11.123 -1.2194  0.3994 -0.0000
 2890SOL     OW20128   1.113   3.293   1.891  0.2070 -0.9598 -0.0396
 2890SOL    HW120129   1.120   3.223   1.956  0.5409  0.0319  0.9911
 2890SOL    HW220130   1.175   3.270   1.822 -0.5041 -0.6287 -0.7735
 2891SOL     OW20131   4.234   2.295   3.411  0.3485  0.1346 -0.1686
 2891SOL    HW120132   4.270   2.377   3.377  2.0347 -0.6580 -0.2428
 2891SOL    HW220133   4.175   2.261   3.343  0.2974  1.5609 -0.8491
 2892SOL     OW20134   0.111   0.126   5.406  0.5684 -0.1491  0.3158
 2892SOL    HW120135   0.122   0.115   5.312 -1.3496 -1.4446  0.2374
 2892SOL    HW220136   0.190   0.171   5.434 -0.7809  1.4399  1.5566
 2893SOL     OW20137   2.645   3.856   2.083  0.6333 -0.1493 -0.3615
 2893SOL    HW120138   2.687   3.859   1.997  2.5189 -2.1311  0.5101
 2893SOL    HW220139   2.563   3.809   2.067  0.4128  0.2776 -0.4832
 2894SOL     OW20140   0.393   4.089   1.648 -0.2410  0.3599  0.3780
 2894SOL    HW120141   0.344   4.146   1.588  1.8537  0.2622 -1.4099
 2894SOL    HW220142   0.338   4.105   1.725  1.3373 -0.0863  1.5844
 2895SOL     OW20143   1.263   0.827   5.978 -0.3062  0.1948  0.1265
 2895SOL    HW120144   1.310   0.908   5.960  0.4867  0.5004  3.4520
 2895SOL    HW220145   1.173   0.855   5.965 -0.1234  0.8699  0.3470
 2896SOL     OW20146   4.667   1.987  16.338 -0.2605  0.1354  0.3411
 2896SOL    HW120147   0.031   1.994  16.296 -0.0378 -0.1158  0.7513
 2896SOL    HW220148   4.684   1.925  16.409 -3.2371 -1.0801 -0.0356
 2897SOL     OW20149   2.295   4.207   7.681 -0.4150 -0.1575 -0.2938
 2897SOL    HW120150   2.387   4.188   7.703 -0.5531 -0.7265 -0.1994
 2897SOL    HW220151   2.260   4.245   7.762 -0.5323  0.1857 -0.5089
 2898SOL     OW20152   1.726   1.676   8.681  0.2423  0.1553  0.6434
 2898SOL    HW120153   1.698   1.600   8.732  1.3844 -0.3619  0.4788
 2898SOL    HW220154   1.751   1.726   8.758  0.0623 -0.1160  0.8768
 2899SOL     OW20155   3.293   0.029  16.295 -0.0922  0.2937 -0.2859
 2899SOL    HW120156   3.271   0.105  16.349  0.6464 -0.7171  1.4395
 2899SOL    HW220157   3.234   0.036  16.220 -0.8293  0.8338  0.3353
 2900SOL     OW20158   2.951   0.332  12.658  0.2770 -0.2365  0.0527
 2900SOL    HW120159   2.938   0.281  12.578  0.6353 -1.5418  0.8222
 2900SOL    HW220160   2.899   0.412  12.651 -0.8216 -0.7786  2.2475
 2901SOL     OW20161   3.864   2.004   2.265  0.0694 -0.9144  0.2321
 2901SOL    HW120162   3.949   1.964   2.245 -0.8187 -2.3214 -0.7285
 2901SOL    HW220163   3.894   2.093   2.284 -1.9981 -0.1650 -0.0923
 2902SOL     OW20164   0.452   3.155  16.129  0.6770 -0.4263 -0.0633
 2902SOL    HW120165   0.491   3.133  16.045  0.7680 -1.4797  0.2524
 2902SOL    HW220166   0.494   3.241  16.132 -1.2948  0.5381 -0.4365
 2903SOL     OW20167   0.487   2.341  11.752  0.3754 -0.1015  0.3343
 2903SOL    HW120168   0.458   2.423  11.712  0.0628 -1.7708 -2.8353
 2903SOL    HW220169   0.452   2.276  11.692  2.0186 -0.5554 -0.1388
 2904SOL     OW20170   0.872   2.805   2.502 -0.7785 -0.2356  0.0227
 2904SOL    HW120171   0.841   2.879   2.450 -0.0252 -0.2206 -0.4048
 2904SOL    HW220172   0.849   2.734   2.442  0.2172  0.0659 -0.7084
 2905SOL     OW20173   1.869   0.171  17.304 -0.5848 -0.2213 -0.7432
 2905SOL    HW120174   1.793   0.227  17.321 -1.5665 -1.6738 -0.2679
 2905SOL    HW220175   1.831   0.092  17.343  4.0923 -1.1206  1.9549
 2906SOL     OW20176   2.483   3.137   5.804  0.7773  0.2690 -0.2474
 2906SOL    HW120177   2.413   3.180   5.854  0.5293  1.2572 -1.4494
 2906SOL    HW220178   2.556   3.126   5.865  1.5974  0.8283 -1.1289
 2907SOL     OW20179   3.659   3.106   7.283  0.1125 -0.3911  0.4382
 2907SOL    HW120180   3.580   3.157   7.262  0.5167  0.2663  0.5163
 2907SOL    HW220181   3.623   3.020   7.305 -0.3647 -0.4257 -0.4899
 2908SOL     OW20182   3.945   4.066   7.077 -0.0485 -0.3365  0.4089
 2908SOL    HW120183   3.953   4.124   7.153 -1.6077  0.0074  0.3065
 2908SOL    HW220184   3.895   4.124   7.019 -0.1927 -1.4820 -0.6184
 2909SOL     OW20185   3.702   2.614  15.661 -0.0334  0.3734 -0.4152
 2909SOL    HW120186   3.672   2.531  15.697  1.0751  0.9753  1.8723
 2909SOL    HW220187   3.637   2.673  15.699 -1.0230 -0.4434 -0.8427
 2910SOL     OW20188   4.587   0.914   6.300 -0.0842  0.0050  0.4493
 2910SOL    HW120189   4.615   0.827   6.273  0.2702  0.3345 -0.2652
 2910SOL    HW220190   4.512   0.889   6.354 -0.6767 -3.1441 -1.8811
 2911SOL     OW20191   0.871   2.439   8.628  0.4233  0.4866  0.1420
 2911SOL    HW120192   0.877   2.533   8.644  0.1604  0.4672  0.3509
 2911SOL    HW220193   0.949   2.413   8.677  1.1462 -0.1815 -1.3660
 2912SOL     OW20194   2.946   3.944   3.934 -0.6081  0.0269  0.3371
 2912SOL    HW120195   3.023   3.898   3.966 -0.2422  0.3939 -0.0244
 2912SOL    HW220196   2.882   3.947   4.006  0.2941 -1.2696  1.1874
 2913SOL     OW20197   1.461   0.917  13.741  0.1717 -0.4034 -0.6411
 2913SOL    HW120198   1.371   0.901  13.713  0.1063  0.7433 -1.0753
 2913SOL    HW220199   1.447   0.926  13.835 -1.0468  0.6823 -0.9311
 2914SOL     OW20200   4.572   2.280   9.037  0.7137 -0.0518  0.1003
 2914SOL    HW120201   4.565   2.249   8.947 -1.6686  1.5041 -0.2494
 2914SOL    HW220202   4.587   2.201   9.090  0.6065 -0.3194 -0.2706
 2915SOL     OW20203   4.530   1.054   0.739  0.1308 -0.3539 -0.0574
 2915SOL    HW120204   4.539   1.053   0.835  1.3513 -0.0454 -0.1791
 2915SOL    HW220205   4.451   1.105   0.719 -0.2191 -0.8560  0.0163
 2916SOL     OW20206   4.428   3.171  11.558 -0.3391  0.0008  0.0367
 2916SOL    HW120207   4.483   3.092  11.560  0.3438  0.4460 -1.2742
 2916SOL    HW220208   4.385   3.163  11.643 -1.1916  2.7304 -0.1399
 2917SOL     OW20209   1.957   3.808   4.063  0.2421  0.6678  0.1054
 2917SOL    HW120210   1.985   3.754   3.989  0.4259 -0.2352  0.8370
 2917SOL    HW220211   1.879   3.850   4.025 -0.3745  0.3549  1.0454
 2918SOL     OW20212   2.459   1.860   2.094  0.3310  0.6405 -0.4036
 2918SOL    HW120213   2.417   1.776   2.109 -1.6603  1.8364  0.8014
 2918SOL    HW220214   2.485   1.854   2.002  1.8785 -0.4358  0.1002
 2919SOL     OW20215   1.999   2.837   6.164  0.2682 -0.3298 -0.3166
 2919SOL    HW120216   2.015   2.753   6.121  1.5107  0.4130 -1.2898
 2919SOL    HW220217   2.048   2.905   6.118  0.0945 -0.5878 -0.8745
 2920SOL     OW20218   0.487   2.770   0.734  0.2308 -0.1258 -0.3205
 2920SOL    HW120219   0.575   2.782   0.770  0.2521  1.1948 -0.7985
 2920SOL    HW220220   0.449   2.702   0.790  0.4853  0.1226  0.1585
 2921SOL     OW20221   0.662   2.774   5.714  0.6252 -0.2487  0.0547
 2921SOL    HW120222   0.582   2.766   5.662  0.5374 -2.4405  0.5041
 2921SOL    HW220223   0.638   2.845   5.772 -1.1319 -0.9853  0.2303
 2922SOL     OW20224   0.249   0.231   6.792  0.1755 -0.4313  0.2446
 2922SOL    HW120225   0.173   0.283   6.822 -0.8619 -1.7725 -0.0872
 2922SOL    HW220226   0.307   0.231   6.868 -1.6153 -0.4195  1.6283
 2923SOL     OW20227   4.351   1.276  16.473  0.0358  0.4963 -0.4400
 2923SOL    HW120228   4.431   1.266  16.524  1.7969  2.5615 -2.7911
 2923SOL    HW220229   4.377   1.351  16.420 -2.3198 -1.0821 -3.8626
 2924SOL     OW20230   1.892   4.068   7.629  0.3874  0.6879 -0.0770
 2924SOL    HW120231   1.902   3.999   7.694  0.3839 -0.1738 -0.9896
 2924SOL    HW220232   1.926   4.141   7.681  0.2450  1.4782 -1.1022
 2925SOL     OW20233   1.745   0.620   3.142 -0.2075 -0.2266 -0.1916
 2925SOL    HW120234   1.776   0.701   3.182  0.8545  0.6526 -2.8068
 2925SOL    HW220235   1.752   0.557   3.214  1.0737  0.0669 -0.0664
 2926SOL     OW20236   2.959   4.149   1.163 -0.0345  0.3066  0.2136
 2926SOL    HW120237   2.995   4.106   1.086 -1.1423 -0.3222  0.0391
 2926SOL    HW220238   2.986   4.105   1.244 -0.6754 -0.5527 -0.0357
 2927SOL     OW20239   2.268   2.183   8.969 -0.1416  0.1938  0.3504
 2927SOL    HW120240   2.175   2.162   8.962 -0.2800  0.4885  1.3553
 2927SOL    HW220241   2.289   2.227   8.886 -0.3630  0.2556  0.3253
 2928SOL     OW20242   1.323   1.923   6.025  0.4666  0.4160 -0.6606
 2928SOL    HW120243   1.296   1.916   5.934 -2.2157  0.9780  0.1092
 2928SOL    HW220244   1.390   1.991   6.020  1.0161 -0.0887 -0.2344
 2929SOL     OW20245   1.313   2.926   8.448 -0.1094  0.0661  0.7419
 2929SOL    HW120246   1.374   2.855   8.468  1.2109  0.1471 -3.0141
 2929SOL    HW220247   1.322   2.978   8.528  2.7082  0.1681  0.3704
 2930SOL     OW20248   3.964   3.630   6.678  0.1257 -0.0736  0.0069
 2930SOL    HW120249   3.920   3.684   6.743 -0.2382  1.0623 -1.1752
 2930SOL    HW220250   4.027   3.573   6.722  2.9475  1.7116 -1.7035
 2931SOL     OW20251   3.053   0.464   5.143 -0.3345  0.0705  0.3643
 2931SOL    HW120252   3.003   0.403   5.089 -2.6454  1.0360  1.4251
 2931SOL    HW220253   3.005   0.546   5.134 -0.0043  0.3807  1.4121
 2932SOL     OW20254   4.501   4.696   7.008 -0.2276 -0.6616 -0.4054
 2932SOL    HW120255   4.544   4.616   6.979 -0.0182 -0.7762  0.2181
 2932SOL    HW220256   4.574   0.026   7.041 -1.3438  2.0018 -2.1895
 2933SOL     OW20257   2.909   0.887  10.889 -0.1954 -0.4259  0.2942
 2933SOL    HW120258   2.920   0.819  10.955  0.7803  0.3258  0.8975
 2933SOL    HW220259   2.996   0.887  10.848  0.3933  1.4314  1.5871
 2934SOL     OW20260   4.078   3.617   1.471 -0.3878  0.4376 -0.5637
 2934SOL    HW120261   4.066   3.692   1.413 -2.4202  0.1517 -0.5077
 2934SOL    HW220262   3.989   3.582   1.467  0.1619 -1.2012  1.2416
 2935SOL     OW20263   2.340   1.348   8.222 -0.5470 -0.8307  0.2572
 2935SOL    HW120264   2.333   1.431   8.269  2.9534  0.0158 -0.7330
 2935SOL    HW220265   2.406   1.373   8.157  0.0374  1.5545  1.7857
 2936SOL     OW20266   3.579   4.720   3.698 -0.6421  0.3555 -0.3297
 2936SOL    HW120267   3.542   4.635   3.720  2.5224 -1.0734 -0.5710
 2936SOL    HW220268   3.512   0.039   3.642 -0.5204 -1.1086 -1.5634
 2937SOL     OW20269   4.367   1.110   3.136 -0.4267 -0.0976  0.1656
 2937SOL    HW120270   4.382   1.020   3.165 -0.2538  0.1580  0.8584
 2937SOL    HW220271   4.400   1.162   3.209 -1.0916 -1.8942  1.7372
 2938SOL     OW20272   2.640   3.273  15.191  0.3461  0.2680  0.6874
 2938SOL    HW120273   2.590   3.322  15.126  2.1157  0.0330 -0.8412
 2938SOL    HW220274   2.593   3.189  15.190 -0.4205  0.7088 -0.5523
 2939SOL     OW20275   1.449   3.024   7.404  0.7789  0.1559 -0.5810
 2939SOL    HW120276   1.454   3.000   7.312  2.6668 -0.1335 -0.3985
 2939SOL    HW220277   1.541   3.037   7.428  0.9862 -0.1888 -1.1819
 2940SOL     OW20278   0.911   0.517  12.344 -0.2671 -0.3502 -0.2231
 2940SOL    HW120279   0.937   0.492  12.256  2.3206  1.3280  0.0629
 2940SOL    HW220280   0.954   0.450  12.398  0.4633  0.1663 -0.1513
 2941SOL     OW20281   3.783   2.570   4.188 -0.1227  0.3194  0.0718
 2941SOL    HW120282   3.757   2.656   4.156 -1.7936  0.7478  2.6227
 2941SOL    HW220283   3.698   2.534   4.212 -0.1760 -0.2346 -0.9700
 2942SOL     OW20284   1.842   0.940   7.367 -0.3630 -0.0288 -0.1502
 2942SOL    HW120285   1.886   0.876   7.312 -0.2329 -0.0674  0.0012
 2942SOL    HW220286   1.756   0.900   7.379 -0.8727  0.6635 -1.4059
 2943SOL     OW20287   2.822   0.803   6.745 -0.3534  0.2486  0.0599
 2943SOL    HW120288   2.908   0.809   6.706 -0.6642 -2.9820 -1.0871
 2943SOL    HW220289   2.841   0.759   6.828  0.3221  1.4879  0.5616
 2944SOL     OW20290   3.503   0.103   2.868 -0.2954 -0.5193 -0.2101
 2944SOL    HW120291   3.439   0.166   2.900  2.2724  1.6186  0.6885
 2944SOL    HW220292   3.584   0.152   2.879 -0.4355 -0.6994  1.6386
 2945SOL     OW20293   0.554   3.346   0.788 -0.1345  0.0086  0.2568
 2945SOL    HW120294   0.578   3.275   0.848  0.4190  0.6287  0.7699
 2945SOL    HW220295   0.627   3.357   0.727  0.7561  3.8293  1.9649
 2946SOL     OW20296   2.716   0.463   5.303  0.7788  0.1255 -0.4904
 2946SOL    HW120297   2.695   0.429   5.216  1.1797 -1.1654 -0.0796
 2946SOL    HW220298   2.631   0.452   5.344  0.1982 -1.7210 -2.1716
 2947SOL     OW20299   2.077   4.301   5.971  0.0100 -0.7963 -0.2185
 2947SOL    HW120300   2.014   4.233   5.996 -0.5788 -0.1090  0.1750
 2947SOL    HW220301   2.086   4.330   6.061  0.5915  2.1744 -1.2238
 2948SOL     OW20302   3.231   0.035   6.348 -0.1162  0.0420  0.2803
 2948SOL    HW120303   3.239   0.130   6.351 -1.4827  0.0979  2.4274
 2948SOL    HW220304   3.145   0.025   6.390  0.6078  0.0774  1.7912
 2949SOL     OW20305   3.809   0.550   8.542 -0.0777 -0.1357  0.5096
 2949SOL    HW120306   3.722   0.510   8.532  0.2557 -0.9039  0.6691
 2949SOL    HW220307   3.793   0.575   8.633 -0.2014 -4.0265  1.5750
 2950SOL     OW20308   1.839   2.276   0.996  0.1143 -0.1270  0.3258
 2950SOL    HW120309   1.918   2.222   0.993 -1.6863 -2.7867  1.3095
 2950SOL    HW220310   1.773   2.208   1.005  0.7133 -0.8955 -1.2126
 2951SOL     OW20311   3.312   0.338   6.026 -0.9688  0.2946 -0.2628
 2951SOL    HW120312   3.298   0.286   5.947  1.2349  2.1646 -1.8782
 2951SOL    HW220313   3.394   0.382   6.005  1.1942 -2.1106  3.0484
 2952SOL     OW20314   1.518   4.018   3.747  0.3554  0.6826 -0.4136
 2952SOL    HW120315   1.594   4.072   3.771  0.6000  0.8298 -1.5152
 2952SOL    HW220316   1.460   4.086   3.713 -1.1782 -0.5333 -0.1755
 2953SOL     OW20317   1.299   1.662  16.668 -0.1762  0.0116 -0.4574
 2953SOL    HW120318   1.314   1.684  16.760  0.4251 -0.5984 -0.4090
 2953SOL    HW220319   1.347   1.732  16.623  0.1198  0.6193  0.7957
 2954SOL     OW20320   0.304   3.221   3.421  0.0567 -0.0915 -0.3357
 2954SOL    HW120321   0.381   3.265   3.455  1.0506 -1.0715 -1.2966
 2954SOL    HW220322   0.247   3.189   3.490  0.8130  0.8034  0.6987
 2955SOL     OW20323   1.308   3.536   4.696 -0.8274 -0.2560  0.2351
 2955SOL    HW120324   1.276   3.446   4.688  1.1149 -0.9978  0.8234
 2955SOL    HW220325   1.332   3.537   4.788 -2.1147 -2.2920  0.6006
 2956SOL     OW20326   2.164   0.576  11.639 -0.4504 -0.2306  0.4828
 2956SOL    HW120327   2.080   0.562  11.595  0.2264 -2.3151 -0.1615
 2956SOL    HW220328   2.207   0.608  11.560 -1.0387  1.0448  0.6813
 2957SOL     OW20329   2.214   4.502   4.767  0.2861 -0.2958 -0.1655
 2957SOL    HW120330   2.257   4.525   4.850 -0.6474  0.5836  0.0707
 2957SOL    HW220331   2.140   4.562   4.765 -0.3811 -1.0776  0.5325
 2958SOL     OW20332   3.495   3.627   0.489 -0.4658 -0.1321 -0.3058
 2958SOL    HW120333   3.501   3.566   0.415 -4.9607 -1.1400  0.1544
 2958SOL    HW220334   3.518   3.565   0.558  0.6564 -0.0368 -0.5984
 2959SOL     OW20335   0.956   4.429   3.368  0.3270 -0.3454  0.1147
 2959SOL    HW120336   0.987   4.514   3.338  1.8902 -1.4032 -1.2897
 2959SOL    HW220337   1.038   4.379   3.370  0.6981  0.3211  1.4885
 2960SOL     OW20338   0.254   1.197   3.094  0.2636  0.3244  0.2990
 2960SOL    HW120339   0.159   1.190   3.080  0.1691 -1.0922  1.6563
 2960SOL    HW220340   0.256   1.291   3.109 -0.1302 -0.1871  3.5931
 2961SOL     OW20341   4.446   1.682  14.690  0.7561 -0.2595 -0.0681
 2961SOL    HW120342   4.505   1.607  14.684  0.9778 -0.0503 -0.5695
 2961SOL    HW220343   4.501   1.756  14.662  0.0560 -0.9231 -3.1638
 2962SOL     OW20344   0.707   1.953  14.542  0.4577  0.1637 -0.5208
 2962SOL    HW120345   0.666   2.031  14.580 -0.8854  0.6692 -2.9691
 2962SOL    HW220346   0.672   1.962  14.453  0.6856 -0.7636 -0.7011
 2963SOL     OW20347   2.192   3.062  10.895 -0.2424 -0.3487  0.1543
 2963SOL    HW120348   2.246   3.124  10.846 -2.3360  0.8472 -0.6390
 2963SOL    HW220349   2.193   2.993  10.829  1.5903 -0.7318  0.6030
 2964SOL     OW20350   3.874   1.323   8.514 -0.1510 -0.0069 -0.0535
 2964SOL    HW120351   3.801   1.302   8.456 -1.0469  0.0987  1.0383
 2964SOL    HW220352   3.834   1.329   8.601  0.8463  0.1315  0.4053
 2965SOL     OW20353   3.003   2.831   4.239 -0.5967 -0.1028  0.4021
 2965SOL    HW120354   3.033   2.908   4.192  0.4842  1.0317  2.9343
 2965SOL    HW220355   2.976   2.775   4.167  1.3576  1.3001 -1.3933
 2966SOL     OW20356   2.183   4.107  10.405 -0.2510 -0.6080  0.1289
 2966SOL    HW120357   2.212   4.081  10.493  2.4204 -2.1025 -1.1880
 2966SOL    HW220358   2.268   4.092  10.363  0.1664  1.4776  0.2656
 2967SOL     OW20359   3.964   4.100  13.052 -0.0475 -0.2150 -0.2267
 2967SOL    HW120360   3.906   4.028  13.029 -0.2076  0.5453 -2.1457
 2967SOL    HW220361   3.918   4.130  13.131 -0.4116 -1.2842 -0.0307
 2968SOL     OW20362   4.495   2.836  16.778  0.4793 -0.6851  0.2345
 2968SOL    HW120363   4.589   2.828  16.796  0.2897 -3.0960  0.1892
 2968SOL    HW220364   4.463   2.767  16.835  0.1678 -1.2374 -0.6001
 2969SOL     OW20365   4.258   1.080   6.620  0.2897  0.3702  0.4350
 2969SOL    HW120366   4.324   1.034   6.672  0.6700  0.0168 -0.3644
 2969SOL    HW220367   4.199   1.010   6.592 -1.0828  0.5161  3.0083
 2970SOL     OW20368   2.882   3.343  14.999  0.5492  0.3461  0.7152
 2970SOL    HW120369   2.873   3.340  14.904  3.5154  3.4158  0.3403
 2970SOL    HW220370   2.794   3.329  15.034  0.5671  0.7423  0.9243
 2971SOL     OW20371   1.012   0.753   2.342  0.4675 -0.6421  0.2649
 2971SOL    HW120372   1.019   0.737   2.248  0.1509 -0.6206  0.2360
 2971SOL    HW220373   1.093   0.710   2.370 -0.6066 -1.5941  1.9337
 2972SOL     OW20374   2.441   4.478   7.190  0.5719 -0.3074  0.0038
 2972SOL    HW120375   2.407   4.479   7.101 -0.6529  2.0354  0.4932
 2972SOL    HW220376   2.366   4.451   7.243  0.7194  0.2912  0.5289
 2973SOL     OW20377   1.260   4.666   8.444 -0.1303  0.0623  0.6081
 2973SOL    HW120378   1.327   4.633   8.504  0.5622  0.3906  0.0037
 2973SOL    HW220379   1.233   4.585   8.400 -1.0693  0.6338  0.1443
 2974SOL     OW20380   3.120   4.298  15.349 -0.2974  0.2840  0.3921
 2974SOL    HW120381   3.108   4.264  15.260 -2.8276  1.4013  0.2944
 2974SOL    HW220382   3.097   4.388  15.327 -1.6019 -0.2101 -0.3455
 2975SOL     OW20383   1.500   4.509   0.838 -0.1371  0.5031  0.1153
 2975SOL    HW120384   1.549   4.522   0.920  0.9489 -0.7670 -0.3185
 2975SOL    HW220385   1.411   4.510   0.871  0.2971  0.0091  1.3147
 2976SOL     OW20386   2.435   1.451   0.431 -0.6767  0.4603 -0.1953
 2976SOL    HW120387   2.519   1.482   0.464 -0.2916 -0.0190 -0.7230
 2976SOL    HW220388   2.444   1.357   0.448  0.2577  0.3222 -1.4601
 2977SOL     OW20389   3.904   1.168   6.016  0.2872 -0.3756 -0.1669
 2977SOL    HW120390   3.814   1.194   6.031  0.6805  1.5638 -1.0996
 2977SOL    HW220391   3.941   1.247   5.976  1.5387 -1.0912 -0.4600
 2978SOL     OW20392   1.067   1.196   1.706  0.9951  0.3965 -0.4979
 2978SOL    HW120393   1.084   1.138   1.631  0.5773 -1.0342  0.5229
 2978SOL    HW220394   0.975   1.173   1.719  1.4282  0.3504  2.5030
 2979SOL     OW20395   4.445   2.208   9.400  0.9022  0.1702 -0.1117
 2979SOL    HW120396   4.505   2.162   9.341 -1.3659 -1.1433 -1.4495
 2979SOL    HW220397   4.505   2.274   9.433  0.5752  0.3255  0.1700
 2980SOL     OW20398   2.250   1.016   8.028  0.4300  0.4457 -0.3417
 2980SOL    HW120399   2.338   1.053   8.032  0.8191 -0.6390  0.9075
 2980SOL    HW220400   2.197   1.096   8.018  0.6217  0.6808  0.5263
 2981SOL     OW20401   0.453   4.579   2.531  0.2405  0.4493  0.3575
 2981SOL    HW120402   0.358   4.591   2.524  0.1536  0.0612  0.9072
 2981SOL    HW220403   0.468   4.528   2.452 -1.2713 -1.3042  1.1977
 2982SOL     OW20404   4.576   0.822   8.488  0.0401 -0.2248  0.2213
 2982SOL    HW120405   4.519   0.883   8.534 -2.0443 -0.6900 -1.7084
 2982SOL    HW220406   4.589   0.752   8.552  1.9289 -0.3777 -0.3164
 2983SOL     OW20407   0.871   4.064  15.813 -0.3405  0.9616  0.0258
 2983SOL    HW120408   0.781   4.030  15.809 -0.4928  1.2389  1.1696
 2983SOL    HW220409   0.884   4.054  15.907  0.7416 -3.2782 -0.5704
 2984SOL     OW20410   1.285   4.017   6.310 -0.6041  0.2148  0.3665
 2984SOL    HW120411   1.231   4.007   6.232 -1.6143  0.4891  1.0271
 2984SOL    HW220412   1.317   3.928   6.325 -2.6527 -0.7613 -1.1389
 2985SOL     OW20413   0.707   0.442   7.683 -0.0194 -0.7042  0.2659
 2985SOL    HW120414   0.732   0.521   7.731 -0.1620 -0.9369  0.7227
 2985SOL    HW220415   0.615   0.444   7.709 -0.2398 -1.9920 -0.4102
 2986SOL     OW20416   1.197   0.565   4.519  0.3154 -0.5009 -0.3615
 2986SOL    HW120417   1.166   0.476   4.538 -3.1449  0.3188 -2.0706
 2986SOL    HW220418   1.260   0.579   4.590 -1.5559  1.6867  0.8511
 2987SOL     OW20419   3.338   0.424  16.737  0.4066 -0.0208  0.0207
 2987SOL    HW120420   3.419   0.451  16.780 -0.6083 -0.1980  2.0804
 2987SOL    HW220421   3.365   0.385  16.654  1.1977  3.0933 -1.1399
 2988SOL     OW20422   4.173   2.783   5.080 -0.0981 -0.3081 -0.8773
 2988SOL    HW120423   4.131   2.709   5.125  1.6403 -0.7620 -0.0159
 2988SOL    HW220424   4.130   2.847   5.137 -0.9822  0.6512 -2.6086
 2989SOL     OW20425   0.655   0.153   8.050 -0.0729  0.0432 -0.4518
 2989SOL    HW120426   0.726   0.133   8.111 -0.5909  1.7173  0.6955
 2989SOL    HW220427   0.701   0.130   7.970 -2.3213 -2.8506 -0.9274
 2990SOL     OW20428   0.957   0.192   1.971  0.5291 -0.3374  0.4821
 2990SOL    HW120429   1.042   0.199   1.928  0.4493 -0.8030  0.2477
 2990SOL    HW220430   0.933   0.285   1.966 -0.3968 -0.5717  0.5638
 2991SOL     OW20431   0.302   2.609   1.410 -0.1477  0.2726 -0.2766
 2991SOL    HW120432   0.324   2.533   1.464 -2.7500  0.8202  1.5411
 2991SOL    HW220433   0.360   2.674   1.449  0.0139 -0.2017  0.2768
 2992SOL     OW20434   1.882   3.817   8.552  0.2455 -0.0266 -0.5769
 2992SOL    HW120435   1.923   3.803   8.637  1.4734  1.9243 -0.8441
 2992SOL    HW220436   1.790   3.833   8.573  0.8766  2.7266  0.0920
 2993SOL     OW20437   2.818   0.389   2.416 -0.8556 -0.8613  0.4054
 2993SOL    HW120438   2.863   0.310   2.447  0.1207  0.1116  1.4770
 2993SOL    HW220439   2.831   0.386   2.321 -0.2423  0.0931  0.4548
 2994SOL     OW20440   4.665   0.071   9.935 -0.3149 -0.3746  0.5274
 2994SOL    HW120441   4.653   0.165   9.946 -0.5303 -0.3285 -0.1027
 2994SOL    HW220442   0.018   0.071   9.876  0.4524 -1.5175  1.5014
 2995SOL     OW20443   2.926   4.071   5.882 -0.3344  0.3709  0.7928
 2995SOL    HW120444   3.005   4.119   5.909  0.6268 -0.4671 -0.5230
 2995SOL    HW220445   2.881   4.035   5.959 -1.5197 -1.4699 -0.7672
 2996SOL     OW20446   3.444   3.799   4.923 -0.8914  0.0817 -0.1807
 2996SOL    HW120447   3.359   3.812   4.881 -0.7645  1.1490 -0.1036
 2996SOL    HW220448   3.426   3.719   4.973  2.1153 -0.2255  0.4285
 2997SOL     OW20449   4.636   3.786  16.700  0.1600  0.0732 -0.2594
 2997SOL    HW120450   4.702   3.738  16.749 -0.3419  1.5983  1.9145
 2997SOL    HW220451   4.559   3.776  16.756 -0.2085  0.6268 -0.6650
 2998SOL     OW20452   3.551   1.682   3.448 -0.4160  0.1417  1.0336
 2998SOL    HW120453   3.628   1.625   3.439 -0.1389  0.5335  0.9345
 2998SOL    HW220454   3.500   1.646   3.520 -1.4947  0.6076  0.5095
 2999SOL     OW20455   0.150   0.471  11.685 -0.0836  0.1419 -0.6315
 2999SOL    HW120456   0.223   0.508  11.635 -0.1990  0.2833 -0.6922
 2999SOL    HW220457   0.085   0.454  11.618  1.0038  0.5550 -1.7934
 3000SOL     OW20458   2.038   0.744   6.025 -0.5724 -0.2365  0.4317
 3000SOL    HW120459   1.993   0.823   5.995  0.7325 -0.1788 -1.3929
 3000SOL    HW220460   1.991   0.720   6.105  0.5657 -1.2123  0.8146
 3001SOL     OW20461   4.050   4.602   9.007  0.3209  0.4018 -0.3098
 3001SOL    HW120462   4.108   4.640   8.940  1.2368  1.6443  1.1789
 3001SOL    HW220463   4.029   4.672   9.069 -2.4926 -1.4575  0.8695
 3002SOL     OW20464   0.453   0.409   3.707  0.0742 -0.0475 -0.0247
 3002SOL    HW120465   0.491   0.459   3.635  1.1808 -1.8554 -0.6999
 3002SOL    HW220466   0.493   0.322   3.698 -0.8652 -0.1824 -3.0361
 3003SOL     OW20467   1.480   1.743   0.406  0.2859 -0.3059  0.4713
 3003SOL    HW120468   1.450   1.820   0.454  3.2116  0.8094  0.4971
 3003SOL    HW220469   1.570   1.731   0.437  0.4099  2.1657  1.0384
 3004SOL     OW20470   1.223   0.877   1.985 -1.0887 -0.0157  0.0913
 3004SOL    HW120471   1.156   0.846   1.925 -1.1447 -0.5945  0.4493
 3004SOL    HW220472   1.218   0.969   1.961  0.1563 -0.1509 -0.7055
 3005SOL     OW20473   4.096   1.162  16.458 -0.1311 -0.3709 -0.1163
 3005SOL    HW120474   4.186   1.188  16.481 -0.3841  0.6530 -0.2732
 3005SOL    HW220475   4.082   1.214  16.379  0.0995 -0.1841 -0.0355
 3006SOL     OW20476   4.587   4.551   6.567  0.4710 -0.2528  0.0030
 3006SOL    HW120477   4.572   4.569   6.660  0.7187  0.2760 -0.0584
 3006SOL    HW220478   4.547   4.632   6.534 -1.9040 -1.3141  0.3298
 3007SOL     OW20479   3.720   3.123   9.342 -0.4167 -0.6520  0.1303
 3007SOL    HW120480   3.685   3.212   9.343 -0.5372 -0.6957 -3.4865
 3007SOL    HW220481   3.657   3.073   9.290  0.2731 -0.1893 -1.1409
 3008SOL     OW20482   3.436   2.544   5.000  0.5944 -0.8318  0.0728
 3008SOL    HW120483   3.428   2.526   5.094  0.4003  1.6800  0.5262
 3008SOL    HW220484   3.418   2.460   4.958 -2.2831 -0.4835  0.6172
 3009SOL     OW20485   1.467   1.824   7.478  0.1625  0.1509  0.3368
 3009SOL    HW120486   1.458   1.913   7.445 -1.0382  0.5280  1.6442
 3009SOL    HW220487   1.407   1.774   7.422 -0.2170  1.5418 -0.4867
 3010SOL     OW20488   1.095   4.175   1.597 -0.2044 -0.5949 -0.0299
 3010SOL    HW120489   1.047   4.257   1.582 -2.3229 -1.4189  2.2253
 3010SOL    HW220490   1.015   4.126   1.615  0.6561 -1.8301  0.4029
 3011SOL     OW20491   0.785   3.615   4.359  0.1229 -0.3734  0.3133
 3011SOL    HW120492   0.741   3.660   4.287 -1.2628 -1.6229  0.4048
 3011SOL    HW220493   0.762   3.670   4.434  0.6458  1.4733 -0.8698
 3012SOL     OW20494   0.875   2.851   2.194  0.2550  0.0727 -0.0368
 3012SOL    HW120495   0.911   2.763   2.180  0.2286  0.1543 -0.6075
 3012SOL    HW220496   0.908   2.885   2.111  0.0021  1.7982  0.5755
 3013SOL     OW20497   3.634   2.143   5.184  0.1281  0.1361 -0.6092
 3013SOL    HW120498   3.671   2.228   5.161 -0.3903 -0.0578 -2.1600
 3013SOL    HW220499   3.683   2.132   5.266  0.5405  1.1661 -0.7119
 3014SOL     OW20500   0.553   0.076   3.214 -0.1938 -0.1406 -0.2124
 3014SOL    HW120501   0.584   0.011   3.151 -0.2504 -0.2209 -0.1565
 3014SOL    HW220502   0.583   0.036   3.295  0.1763  0.8272  0.1291
 3015SOL     OW20503   1.958   4.598  15.321  0.0766  0.1540 -0.0013
 3015SOL    HW120504   1.925   4.546  15.247 -2.6537 -0.5405  1.6873
 3015SOL    HW220505   1.908   4.678  15.305 -0.1176  0.0343  0.0028
 3016SOL     OW20506   2.978   0.319   5.759  0.0287  0.1246  0.3469
 3016SOL    HW120507   3.036   0.384   5.799  1.5116 -1.9375  1.5564
 3016SOL    HW220508   3.033   0.274   5.694  2.0571  0.1108  2.0889
 3017SOL     OW20509   1.378   3.455   3.610  0.3203 -0.0512  0.0613
 3017SOL    HW120510   1.408   3.533   3.656  0.5880 -0.8887  1.3049
 3017SOL    HW220511   1.448   3.439   3.547  1.4184  2.3736  0.6646
 3018SOL     OW20512   1.097   3.479   7.473  0.0805 -0.5825  0.1600
 3018SOL    HW120513   1.064   3.427   7.400  1.1375 -0.7998 -0.1606
 3018SOL    HW220514   1.051   3.563   7.466  0.9046 -0.1585 -0.1850
 3019SOL     OW20515   0.278   3.751   8.135 -0.3681 -0.1154 -0.3337
 3019SOL    HW120516   0.194   3.796   8.138  0.2583  1.0186 -0.0560
 3019SOL    HW220517   0.249   3.661   8.120  2.4727 -1.5697  2.8919
 3020SOL     OW20518   3.030   0.733   6.521 -0.1917  0.0591  0.3540
 3020SOL    HW120519   3.094   0.805   6.520 -1.3674  1.0470 -3.1091
 3020SOL    HW220520   2.992   0.751   6.435  0.8887 -2.1271 -0.5823
 3021SOL     OW20521   1.288   0.490   5.795 -0.0103  0.4213 -0.0818
 3021SOL    HW120522   1.264   0.535   5.875 -1.9079  0.2753 -0.5638
 3021SOL    HW220523   1.308   0.559   5.732  1.0419  1.8302  1.8072
 3022SOL     OW20524   1.273   0.942   8.437  0.1658 -0.7113  0.0481
 3022SOL    HW120525   1.283   0.857   8.480 -2.0342 -0.5959  0.8103
 3022SOL    HW220526   1.272   0.994   8.517 -1.5135 -0.3549 -0.1966
 3023SOL     OW20527   1.204   2.239   6.685 -0.2804  0.8106 -0.0447
 3023SOL    HW120528   1.269   2.247   6.616  1.5182 -0.8284  1.4368
 3023SOL    HW220529   1.199   2.330   6.713 -0.7680  1.1445 -1.2241
 3024SOL     OW20530   0.940   2.255   7.514 -0.2909  0.5705 -0.0380
 3024SOL    HW120531   1.005   2.271   7.582  0.4771 -1.7153 -0.2414
 3024SOL    HW220532   0.956   2.332   7.460  0.8309 -0.6758 -1.4977
 3025SOL     OW20533   1.401   2.900  17.174 -0.1646  0.1617 -0.2409
 3025SOL    HW120534   1.455   2.821  17.173 -2.7957 -1.6131 -0.8371
 3025SOL    HW220535   1.467   2.968  17.160  1.9473 -1.9266 -0.4606
 3026SOL     OW20536   3.128   2.971  10.265  0.6118  0.5663 -0.3807
 3026SOL    HW120537   3.128   2.952  10.359  0.1570 -0.5333 -0.6013
 3026SOL    HW220538   3.038   2.998  10.246  1.0033  2.7962  0.9332
 3027SOL     OW20539   1.512   4.236  14.749 -0.0921 -0.5968  0.4700
 3027SOL    HW120540   1.548   4.324  14.739  0.0777 -0.7038  0.1453
 3027SOL    HW220541   1.451   4.239  14.676  0.2250 -0.5492  0.2034
 3028SOL     OW20542   2.589   2.374  15.244  0.0549 -0.2305 -0.0463
 3028SOL    HW120543   2.516   2.353  15.302 -1.0778  1.0118 -1.0092
 3028SOL    HW220544   2.629   2.452  15.282 -0.2810 -0.1717  0.1878
 3029SOL     OW20545   3.825   4.550   4.001  0.0665  0.4440  0.6472
 3029SOL    HW120546   3.866   4.545   3.915  1.0236  0.0643  1.1298
 3029SOL    HW220547   3.893   4.518   4.060 -0.4308 -1.3278  0.2497
 3030SOL     OW20548   3.837   4.651   4.702  0.0815  0.0831  0.2911
 3030SOL    HW120549   3.880   4.705   4.636  0.0384  1.8850  1.7303
 3030SOL    HW220550   3.748   4.686   4.692 -0.6220 -1.1814  2.0758
 3031SOL     OW20551   4.362   3.087   8.870 -0.4163 -0.6346 -0.0590
 3031SOL    HW120552   4.271   3.065   8.889 -0.7007 -0.2086 -0.9338
 3031SOL    HW220553   4.418   3.037   8.930  1.5819  1.2794 -0.3193
 3032SOL     OW20554   0.567   1.405   4.067 -0.0762 -0.2428  0.2923
 3032SOL    HW120555   0.612   1.366   3.992  0.4788 -2.8541  1.9817
 3032SOL    HW220556   0.481   1.411   4.025  0.8000 -1.2452 -1.6330
 3033SOL     OW20557   1.456   2.906   6.819 -0.3933  0.0172  0.0436
 3033SOL    HW120558   1.547   2.910   6.789 -1.1873  1.6645 -2.1404
 3033SOL    HW220559   1.419   2.978   6.767  0.7424  1.2953  0.9806
 3034SOL     OW20560   3.221   1.336   7.997 -0.3632 -0.2053  0.1373
 3034SOL    HW120561   3.235   1.243   7.980 -0.0937 -0.3957  1.4595
 3034SOL    HW220562   3.127   1.343   7.983 -0.5271  0.9966  1.8913
 3035SOL     OW20563   0.868   4.279  13.714  0.5299  0.2752  0.6789
 3035SOL    HW120564   0.853   4.367  13.747 -0.8053  1.3362 -2.6869
 3035SOL    HW220565   0.856   4.294  13.620  1.0031  2.5227  0.9809
 3036SOL     OW20566   2.026   3.271   7.818  0.0028 -0.6271  0.3787
 3036SOL    HW120567   2.039   3.232   7.731  0.5921  0.8298 -0.1838
 3036SOL    HW220568   1.994   3.358   7.796 -0.1200 -0.5213  1.0020
 3037SOL     OW20569   4.186   1.961  14.537  0.1448 -0.7674 -0.3670
 3037SOL    HW120570   4.131   2.000  14.468  0.3411 -1.6708 -1.0396
 3037SOL    HW220571   4.274   1.973  14.503  0.9898 -0.5966  1.8927
 3038SOL     OW20572   1.580   1.745   4.453 -0.4965 -0.0808  0.3392
 3038SOL    HW120573   1.594   1.651   4.453 -1.3116 -0.1993  0.4148
 3038SOL    HW220574   1.490   1.758   4.423  0.4512  1.5702 -1.8971
 3039SOL     OW20575   0.526   2.983   7.754 -0.0810  0.4421 -0.1007
 3039SOL    HW120576   0.472   2.904   7.756  0.7316 -0.0938  0.7567
 3039SOL    HW220577   0.492   3.029   7.830 -1.9163  0.1846 -0.7575
 3040SOL     OW20578   0.182   4.704   2.517 -0.2559 -0.1741 -0.1821
 3040SOL    HW120579   0.192   4.676   2.608  1.2978 -1.0786 -0.6431
 3040SOL    HW220580   0.257   0.042   2.514 -0.8106  0.5840  0.8677
 3041SOL     OW20581   1.595   0.631   9.422 -0.6658 -0.3253 -0.6727
 3041SOL    HW120582   1.525   0.566   9.430  0.1245 -1.4282 -2.8589
 3041SOL    HW220583   1.667   0.586   9.466 -1.6992 -1.5678 -0.2591
 3042SOL     OW20584   1.493   3.731   5.576  0.0112 -0.3630  0.0382
 3042SOL    HW120585   1.564   3.740   5.640  0.3161 -2.0708 -0.0688
 3042SOL    HW220586   1.414   3.768   5.616 -0.6564 -0.7116 -0.9551
 3043SOL     OW20587   2.905   0.354   7.394  0.4916  0.2653  0.2132
 3043SOL    HW120588   2.918   0.398   7.310 -1.9504  0.1969 -0.1743
 3043SOL    HW220589   2.810   0.347   7.400  0.4205  0.3056 -0.8855
 3044SOL     OW20590   3.467   3.990  13.746 -0.3677  0.4169  0.0056
 3044SOL    HW120591   3.511   3.935  13.681 -1.2285 -0.4127  0.1334
 3044SOL    HW220592   3.538   3.986  13.810  0.5544  1.3459 -0.9492
 3045SOL     OW20593   2.588   0.164   2.743  0.3770 -0.6369 -0.0434
 3045SOL    HW120594   2.550   0.233   2.690  1.3665 -0.6791 -0.7932
 3045SOL    HW220595   2.577   0.088   2.685 -3.2601 -0.2382  0.0775
 3046SOL     OW20596   2.688   2.319  12.164 -0.5503 -0.6382  0.0366
 3046SOL    HW120597   2.604   2.336  12.122  1.3204  2.9071 -2.2023
 3046SOL    HW220598   2.731   2.403  12.148 -2.7947  0.5196  0.1096
 3047SOL     OW20599   0.688   0.119   4.824  0.0563  0.7587  0.3103
 3047SOL    HW120600   0.625   0.104   4.753  0.6645  0.3877 -0.1565
 3047SOL    HW220601   0.659   0.073   4.903  1.1229 -1.2812 -0.4993
 3048SOL     OW20602   2.952   2.246   0.596 -0.2148  0.3780 -0.1800
 3048SOL    HW120603   2.957   2.151   0.606 -2.0551  0.2736 -0.1316
 3048SOL    HW220604   2.963   2.247   0.501  0.6368  1.1991 -0.0660
 3049SOL     OW20605   0.836   3.896   6.690 -0.0232  0.1077 -0.4257
 3049SOL    HW120606   0.811   3.904   6.782  2.4419  1.5941  0.1255
 3049SOL    HW220607   0.808   3.981   6.656 -0.1012  1.5230  3.2731
 3050SOL     OW20608   3.767   4.664   6.685 -0.1137 -0.1841  0.4478
 3050SOL    HW120609   3.762   4.705   6.599 -0.1156  0.6577  0.8550
 3050SOL    HW220610   3.764   4.570   6.668 -0.2541  0.0389 -0.7057
 3051SOL     OW20611   4.070   3.436   1.202 -0.0160 -0.1366 -0.8524
 3051SOL    HW120612   4.161   3.455   1.227 -0.2251  1.4488 -1.3190
 3051SOL    HW220613   4.076   3.400   1.114 -0.7763 -2.5350  0.0728
 3052SOL     OW20614   3.673   2.924   5.844  0.2094  0.2438 -0.2497
 3052SOL    HW120615   3.588   2.900   5.807  0.4221 -0.4120 -0.3226
 3052SOL    HW220616   3.721   2.930   5.762  3.5379  0.7525  1.7092
 3053SOL     OW20617   3.406   2.049   5.551 -0.6489 -0.0376 -0.0903
 3053SOL    HW120618   3.407   2.144   5.560  0.9437 -0.1641  0.9612
 3053SOL    HW220619   3.341   2.028   5.483 -0.5042 -0.1823 -0.1825
 3054SOL     OW20620   1.026   2.392   0.112  0.1774  0.0063  0.2984
 3054SOL    HW120621   1.040   2.461   0.177 -0.7405  0.0855  0.4121
 3054SOL    HW220622   1.087   2.412   0.041  0.2769  0.2367  0.4476
 3055SOL     OW20623   2.532   4.549   3.806 -0.2708 -0.1408  0.6305
 3055SOL    HW120624   2.508   4.557   3.898  0.3147 -1.4483  0.8989
 3055SOL    HW220625   2.448   4.527   3.766 -0.5066 -0.7559  1.4847
 3056SOL     OW20626   3.821   1.654   8.776  0.4145  0.1193  0.4202
 3056SOL    HW120627   3.844   1.564   8.752  2.4626  1.0462 -1.1114
 3056SOL    HW220628   3.748   1.669   8.716  0.6554 -1.0859 -0.1768
 3057SOL     OW20629   4.205   2.200  11.183  0.5217  0.4743  0.4849
 3057SOL    HW120630   4.247   2.278  11.145  1.5173 -0.1873  0.2357
 3057SOL    HW220631   4.182   2.155  11.101  1.5431  1.1952 -0.2017
 3058SOL     OW20632   0.776   4.061   5.008  0.0691  0.0106 -0.8620
 3058SOL    HW120633   0.846   4.117   4.973  0.8970 -0.7359 -0.4153
 3058SOL    HW220634   0.710   4.056   4.939  1.0809 -0.2466 -1.8138
 3059SOL     OW20635   2.239   2.877   8.313 -0.0177 -0.4424  0.2136
 3059SOL    HW120636   2.192   2.960   8.312 -0.3248 -0.6177 -0.9580
 3059SOL    HW220637   2.307   2.899   8.375  0.1031  0.0582 -0.0995
 3060SOL     OW20638   2.182   0.346   7.037  0.3666 -0.1803  0.5120
 3060SOL    HW120639   2.262   0.298   7.012 -0.9673 -1.8908 -0.4545
 3060SOL    HW220640   2.213   0.436   7.052 -0.4673  0.2405 -0.3309
 3061SOL     OW20641   0.792   0.486   8.616  0.5626 -0.8787 -0.2182
 3061SOL    HW120642   0.756   0.398   8.607 -1.1315  0.1160 -3.1396
 3061SOL    HW220643   0.805   0.507   8.523  0.8985  0.0147  0.0240
 3062SOL     OW20644   0.364   2.391   6.799  0.2049  0.6222  0.1407
 3062SOL    HW120645   0.303   2.436   6.857 -1.3309 -1.7823  0.3702
 3062SOL    HW220646   0.433   2.381   6.865  0.2550  0.1029  0.0101
 3063SOL     OW20647   1.128   3.543   8.793  0.0706  0.0594 -0.2766
 3063SOL    HW120648   1.221   3.558   8.775  0.5228 -1.1604  1.0597
 3063SOL    HW220649   1.094   3.611   8.735  1.1404  0.8147 -0.0120
 3064SOL     OW20650   3.828   0.269  12.408 -0.5022  0.7716  0.0225
 3064SOL    HW120651   3.903   0.210  12.410 -0.5591  0.7538  1.5517
 3064SOL    HW220652   3.805   0.248  12.499  1.4412 -0.1462  0.3114
 3065SOL     OW20653   0.253   0.885   5.326  0.2825 -0.4709  0.2331
 3065SOL    HW120654   0.159   0.871   5.311 -0.1805  0.3925  2.4101
 3065SOL    HW220655   0.286   0.850   5.243 -0.2172 -0.0669 -0.1406
 3066SOL     OW20656   1.418   1.938   9.113  0.0902 -0.6585  0.0494
 3066SOL    HW120657   1.439   1.905   9.201  0.7208 -1.1023 -0.2706
 3066SOL    HW220658   1.410   1.858   9.061 -2.0123 -1.3434  1.4201
 3067SOL     OW20659   1.996   0.644   9.915 -0.0333 -0.0106 -0.1361
 3067SOL    HW120660   2.057   0.711   9.945  1.4580 -1.7244  0.5748
 3067SOL    HW220661   1.986   0.674   9.824  1.1427  1.7150  0.3160
 3068SOL     OW20662   4.302   2.044   9.562  0.5309 -0.4426 -0.0527
 3068SOL    HW120663   4.355   2.107   9.514 -1.0618  0.3437 -0.7756
 3068SOL    HW220664   4.356   1.966   9.549  0.2713 -1.0210  2.2428
 3069SOL     OW20665   0.613   2.079   5.421  0.0465  0.5777  0.6778
 3069SOL    HW120666   0.522   2.060   5.398  0.7273 -1.1987 -0.5513
 3069SOL    HW220667   0.605   2.116   5.509 -2.4127  3.9160 -0.9556
 3070SOL     OW20668   0.437   2.058  16.776  0.1371 -1.0385  0.4239
 3070SOL    HW120669   0.437   2.005  16.697  2.4282 -0.2168 -0.1298
 3070SOL    HW220670   0.399   2.143  16.755 -0.4360 -1.1284  1.0735
 3071SOL     OW20671   3.443   1.847  13.163 -0.2760  0.1402 -0.2920
 3071SOL    HW120672   3.464   1.927  13.211 -0.4495 -2.1543  3.6166
 3071SOL    HW220673   3.356   1.827  13.197  1.0796  0.4249  3.4315
 3072SOL     OW20674   0.014   4.537   9.177 -0.0020 -0.2172 -0.1664
 3072SOL    HW120675   4.656   4.498   9.140 -0.5717  1.0615 -0.3065
 3072SOL    HW220676   0.010   4.624   9.136  0.1474  0.5613  1.4998
 3073SOL     OW20677   0.255   4.052   8.428 -0.0634  0.2299  0.3483
 3073SOL    HW120678   0.339   4.055   8.382 -0.4970 -0.1994 -0.4639
 3073SOL    HW220679   0.197   3.995   8.378  2.1182 -0.4742 -1.3888
 3074SOL     OW20680   0.571   3.792   6.556 -0.3225 -1.1010  0.2625
 3074SOL    HW120681   0.570   3.874   6.508 -0.3824 -1.2168  0.0667
 3074SOL    HW220682   0.654   3.748   6.536 -0.0952 -0.4940 -0.1308
 3075SOL     OW20683   1.930   3.693   8.789  0.1163 -0.7670  0.2973
 3075SOL    HW120684   1.861   3.635   8.757 -1.1653  1.1118 -0.3459
 3075SOL    HW220685   1.912   3.716   8.880  0.0692 -0.1094  0.1220
 3076SOL     OW20686   2.202   1.432   2.223 -0.3563 -0.3261 -0.3354
 3076SOL    HW120687   2.273   1.376   2.193 -1.5785 -1.0692 -1.8235
 3076SOL    HW220688   2.125   1.380   2.201 -1.5010  0.6178  1.4223
 3077SOL     OW20689   1.289   4.716   3.155  0.1895  0.0059 -0.1643
 3077SOL    HW120690   1.249   4.659   3.221  1.0308 -1.6225 -1.0860
 3077SOL    HW220691   1.333   4.657   3.095  0.5038 -0.4060  0.4659
 3078SOL     OW20692   4.066   2.253   0.553  0.0068 -0.1360 -0.4477
 3078SOL    HW120693   4.125   2.191   0.512 -1.0009 -1.3126 -0.1105
 3078SOL    HW220694   4.077   2.332   0.500 -0.6675  2.0127  2.6171
 3079SOL     OW20695   0.369   2.255   2.938  0.2542  0.0418 -0.0508
 3079SOL    HW120696   0.462   2.267   2.958  0.4888  0.1550 -1.2408
 3079SOL    HW220697   0.359   2.316   2.865  1.4863 -0.7168 -0.8523
 3080SOL     OW20698   1.861   1.006   4.586  0.3511 -0.4294  0.2253
 3080SOL    HW120699   1.794   1.062   4.626 -0.9552 -2.1077  0.3898
 3080SOL    HW220700   1.852   0.923   4.633  0.3779 -0.5279  0.0598
 3081SOL     OW20701   2.657   4.338   5.487  0.3108 -0.1277  0.0556
 3081SOL    HW120702   2.644   4.274   5.417  0.6873 -1.9715  1.6928
 3081SOL    HW220703   2.709   4.294   5.553  1.4587  0.3814 -0.5060
 3082SOL     OW20704   2.395   0.740   5.440 -0.4607  1.2825 -0.3957
 3082SOL    HW120705   2.302   0.749   5.458 -0.5958  2.8300 -1.8741
 3082SOL    HW220706   2.415   0.652   5.472  1.3523  2.1954  1.0187
 3083SOL     OW20707   4.057   1.290  14.263 -0.6730 -0.3040 -0.3074
 3083SOL    HW120708   4.139   1.337  14.250 -0.1468 -1.1672 -0.1127
 3083SOL    HW220709   4.004   1.362  14.229  0.1035  1.9211  3.2113
 3084SOL     OW20710   1.297   1.155   6.140  0.0161 -0.6453 -0.0978
 3084SOL    HW120711   1.255   1.156   6.054  2.5512 -0.2845 -1.3356
 3084SOL    HW220712   1.365   1.092   6.118 -0.7906 -0.5181 -2.9760
 3085SOL     OW20713   1.441   2.761   3.034  0.2208  0.1376  0.8746
 3085SOL    HW120714   1.373   2.826   3.050  0.6121  0.7162  0.1583
 3085SOL    HW220715   1.516   2.818   3.048 -1.2166  2.2741 -0.1365
 3086SOL     OW20716   1.247   4.120  11.280 -0.5327  0.2317 -0.4382
 3086SOL    HW120717   1.176   4.165  11.326 -0.4699  0.3025 -0.4092
 3086SOL    HW220718   1.300   4.105  11.359 -0.6130  0.3931 -0.3528
 3087SOL     OW20719   4.031   0.941  11.755  0.5664 -0.0258  0.3498
 3087SOL    HW120720   3.958   0.936  11.693  0.7334  1.2671  0.0326
 3087SOL    HW220721   4.011   1.021  11.805 -0.8438 -0.2671  0.1877
 3088SOL     OW20722   0.619   0.818   6.541  0.4408  0.2148 -0.6896
 3088SOL    HW120723   0.692   0.773   6.583 -0.3324 -0.7430 -0.3638
 3088SOL    HW220724   0.657   0.821   6.453  0.6966  1.1546 -0.5501
 3089SOL     OW20725   2.547   2.087   8.919  0.7932 -0.2109 -0.3815
 3089SOL    HW120726   2.466   2.137   8.920  0.7495 -0.2600 -1.0289
 3089SOL    HW220727   2.613   2.156   8.917 -0.0549  0.6036 -0.0546
 3090SOL     OW20728   2.051   4.092   6.281 -0.0954 -0.1292 -0.3079
 3090SOL    HW120729   2.088   4.178   6.262  1.3612 -0.4636  1.0160
 3090SOL    HW220730   2.110   4.063   6.350  0.5259  1.5324 -0.1419
 3091SOL     OW20731   1.390   0.508   3.058  0.3749  0.4460  0.3848
 3091SOL    HW120732   1.381   0.534   3.149  0.4989  0.9556  0.2535
 3091SOL    HW220733   1.411   0.593   3.017 -3.2070  0.9209 -0.4306
 3092SOL     OW20734   2.084   3.493   2.728 -0.5316  0.3328  0.0243
 3092SOL    HW120735   2.077   3.421   2.790 -0.5217 -0.5008 -0.9445
 3092SOL    HW220736   1.991   3.516   2.717 -0.2950  1.1377 -0.2897
 3093SOL     OW20737   4.167   1.301   7.579 -0.3519  0.6159 -0.3256
 3093SOL    HW120738   4.119   1.335   7.504  0.6749  2.3901 -0.1728
 3093SOL    HW220739   4.102   1.246   7.623  1.0467 -1.9561 -1.4388
 3094SOL     OW20740   3.462   2.589  14.507 -0.1958  0.0656  0.3020
 3094SOL    HW120741   3.369   2.568  14.498 -0.5922  1.4967  0.9968
 3094SOL    HW220742   3.465   2.658  14.573  2.8994  0.1021  0.1268
 3095SOL     OW20743   1.136   1.283   1.270 -0.4039 -0.1446  0.1461
 3095SOL    HW120744   1.137   1.208   1.329  0.2793  2.4671  3.4800
 3095SOL    HW220745   1.102   1.243   1.190  0.0208 -1.2915  0.5428
 3096SOL     OW20746   2.554   2.773   5.657  0.3348  0.3454 -0.2447
 3096SOL    HW120747   2.603   2.766   5.739 -0.6359 -1.3551  0.1968
 3096SOL    HW220748   2.602   2.845   5.616 -2.2130  2.4206  0.3645
 3097SOL     OW20749   2.605   0.594  16.650 -0.3341  0.0992  0.0149
 3097SOL    HW120750   2.626   0.593  16.556 -1.0790  2.1842 -0.1560
 3097SOL    HW220751   2.693   0.593  16.687 -0.0899  0.5537 -0.5510
 3098SOL     OW20752   2.804   3.237   0.144 -0.4138 -0.0057 -0.3163
 3098SOL    HW120753   2.830   3.314   0.092 -2.0408 -0.4580 -1.7670
 3098SOL    HW220754   2.881   3.233   0.201 -0.2612  0.5470 -0.4817
 3099SOL     OW20755   3.865   0.291   6.414 -0.0178  0.8657  0.2909
 3099SOL    HW120756   3.895   0.366   6.465  1.5492  1.4545 -1.4518
 3099SOL    HW220757   3.796   0.337   6.366  1.0072  0.6583 -1.3952
 3100SOL     OW20758   2.047   3.702   2.119  0.4321  0.2431  0.0923
 3100SOL    HW120759   2.037   3.783   2.169  2.0683  0.3028  0.3473
 3100SOL    HW220760   1.953   3.690   2.114  0.5181 -0.7488  0.8126
 3101SOL     OW20761   1.018   4.403   4.453  0.5021 -0.5885 -0.1311
 3101SOL    HW120762   0.926   4.397   4.476  0.3760 -2.7514 -1.2083
 3101SOL    HW220763   1.042   4.315   4.424  0.9601 -1.1233  1.8257
 3102SOL     OW20764   0.727   4.709  14.012 -0.0974 -1.2757 -0.9463
 3102SOL    HW120765   0.656   0.038  14.051  2.5534  0.5173  1.4681
 3102SOL    HW220766   0.776   0.059  13.971 -0.3407 -1.3016 -1.2910
 3103SOL     OW20767   1.621   4.139   6.789 -0.7673  0.0431  0.0113
 3103SOL    HW120768   1.685   4.169   6.725  0.6313 -0.2308  1.2865
 3103SOL    HW220769   1.623   4.212   6.852  0.8073 -0.6537  0.7389
 3104SOL     OW20770   4.411   3.827   5.477 -0.0868 -0.0025  0.4812
 3104SOL    HW120771   4.434   3.905   5.427  2.1741  0.1848  1.8367
 3104SOL    HW220772   4.356   3.783   5.411  2.4069 -1.1054 -0.8593
 3105SOL     OW20773   0.454   3.926   8.244 -0.5851 -0.1098  0.3893
 3105SOL    HW120774   0.524   3.945   8.182 -3.5826  0.3037 -2.8851
 3105SOL    HW220775   0.392   3.877   8.190  0.1079 -1.6097  0.9505
 3106SOL     OW20776   3.052   3.566  15.022  0.3401  0.3772 -0.9094
 3106SOL    HW120777   2.974   3.513  15.038 -0.5215  1.0582 -2.9027
 3106SOL    HW220778   3.105   3.525  15.090  1.1543  1.9479 -0.6143
 3107SOL     OW20779   3.117   4.062   5.239  0.1006  0.0289 -0.0986
 3107SOL    HW120780   3.071   4.054   5.322  4.2365  0.8337  2.2913
 3107SOL    HW220781   3.146   3.971   5.231  0.0883 -0.0952  1.2158
 3108SOL     OW20782   0.677   2.112   9.185 -0.8185 -0.3138  0.1456
 3108SOL    HW120783   0.697   2.112   9.092  2.0681  1.2622  0.7650
 3108SOL    HW220784   0.739   2.170   9.228 -0.7385 -0.4835  0.2599
 3109SOL     OW20785   4.089   2.409   4.678  0.4469  0.2541 -0.1217
 3109SOL    HW120786   4.032   2.389   4.752 -1.5875 -0.2113 -1.8029
 3109SOL    HW220787   4.030   2.461   4.623  0.5744 -0.7188 -1.1681
 3110SOL     OW20788   2.027   2.180   6.856 -0.4037  0.0965 -0.1881
 3110SOL    HW120789   1.978   2.158   6.777 -2.6733  1.7993  0.7191
 3110SOL    HW220790   1.962   2.225   6.911 -1.0119 -1.1246  0.1009
 3111SOL     OW20791   0.848   0.156   7.525  0.6246  0.9016  0.6761
 3111SOL    HW120792   0.938   0.161   7.492  0.2194 -1.9914 -0.8298
 3111SOL    HW220793   0.805   0.094   7.466  0.4373  2.2176 -0.5662
 3112SOL     OW20794   3.979   3.780   4.025  0.3402 -0.0217  0.5047
 3112SOL    HW120795   3.986   3.827   3.942  1.5186  1.8343  1.6367
 3112SOL    HW220796   4.035   3.703   4.018  1.8324  1.1709 -0.8036
 3113SOL     OW20797   2.666   0.190   4.591 -0.1753  0.5898 -0.0485
 3113SOL    HW120798   2.745   0.236   4.563 -0.5068  2.7126  2.6107
 3113SOL    HW220799   2.678   0.103   4.552 -0.8901  0.0053  1.0300
 3114SOL     OW20800   3.100   0.025   7.795  0.2318  0.2390  0.2020
 3114SOL    HW120801   3.065   0.111   7.770 -1.5848 -1.0574 -1.7829
 3114SOL    HW220802   3.022   4.692   7.787 -2.2913  3.7912  0.3308
 3115SOL     OW20803   3.173   4.008  15.179  0.1027  0.6511  0.1319
 3115SOL    HW120804   3.113   3.994  15.252 -0.8260  1.1862 -0.5206
 3115SOL    HW220805   3.233   4.076  15.211 -0.0595  1.0450 -0.4085
 3116SOL     OW20806   0.325   1.775   1.543  0.3581  0.3740 -0.7130
 3116SOL    HW120807   0.345   1.682   1.549  2.9217  0.9910  0.3782
 3116SOL    HW220808   0.396   1.799   1.482  2.0728  0.0820  1.1596
 3117SOL     OW20809   2.994   4.141   4.395  0.3938 -0.0276 -0.0646
 3117SOL    HW120810   2.980   4.046   4.391  1.5425 -0.2681  1.4959
 3117SOL    HW220811   2.919   4.174   4.348 -0.6082 -1.2142  0.7037
 3118SOL     OW20812   0.337   2.894  15.459  0.1149 -0.2611 -0.0921
 3118SOL    HW120813   0.431   2.898  15.438  0.0366 -1.3739 -0.7039
 3118SOL    HW220814   0.306   2.850  15.380 -1.0653 -1.0380  0.8107
 3119SOL     OW20815   3.233   1.449   3.853  0.2798  0.5909  0.2404
 3119SOL    HW120816   3.138   1.440   3.857  0.4224 -0.1933  1.8674
 3119SOL    HW220817   3.270   1.374   3.898  0.8271 -0.5475 -2.1078
 3120SOL     OW20818   2.721   4.300   5.197  0.4149 -0.7854  0.7487
 3120SOL    HW120819   2.711   4.388   5.233 -1.2073 -0.6597 -0.0155
 3120SOL    HW220820   2.711   4.320   5.104 -3.3723 -0.2489  1.2903
 3121SOL     OW20821   2.306   1.918   3.573 -0.1695 -0.2332 -0.5899
 3121SOL    HW120822   2.273   1.935   3.485 -0.0948 -1.2832 -0.8163
 3121SOL    HW220823   2.221   1.916   3.617  1.0219 -0.0945  1.7115
 3122SOL     OW20824   2.347   3.051   9.057 -0.1281  0.0107 -0.5416
 3122SOL    HW120825   2.321   3.052   8.965 -2.7753 -0.3892  0.2127
 3122SOL    HW220826   2.289   3.118   9.093 -0.7387 -0.8854  0.1127
 3123SOL     OW20827   1.517   4.089   2.043 -0.0542 -0.2419 -0.2619
 3123SOL    HW120828   1.425   4.098   2.017 -0.1548  0.0039  0.1799
 3123SOL    HW220829   1.517   3.998   2.072  1.3693 -0.2561 -0.2889
 3124SOL     OW20830   0.392   1.568   4.397 -0.2975  0.7719  0.2429
 3124SOL    HW120831   0.466   1.595   4.344 -1.1151 -1.5457 -2.0916
 3124SOL    HW220832   0.404   1.473   4.399 -1.3299  0.6355 -0.5049
 3125SOL     OW20833   4.025   0.291  13.674 -0.4661  0.0367 -0.4457
 3125SOL    HW120834   3.955   0.230  13.700  0.8936 -0.8571  1.0990
 3125SOL    HW220835   4.005   0.354  13.743 -0.2720  0.2210 -0.5577
 3126SOL     OW20836   4.080   2.946   9.207 -0.3938  0.5330  0.0921
 3126SOL    HW120837   4.084   2.930   9.301  1.1447 -3.0424 -0.5978
 3126SOL    HW220838   4.070   2.854   9.183 -0.2916  0.9578 -1.5920
 3127SOL     OW20839   4.610   3.525   7.868 -0.1512 -0.3736 -0.5172
 3127SOL    HW120840   4.681   3.504   7.807  0.9037 -1.0412  0.9461
 3127SOL    HW220841   4.589   3.617   7.852  1.3555  0.0699  0.0511
 3128SOL     OW20842   1.229   1.356  13.223  0.3320 -0.8367 -0.6673
 3128SOL    HW120843   1.189   1.441  13.206  0.3724 -0.6109  0.3685
 3128SOL    HW220844   1.153   1.298  13.231 -1.8332  2.2052  0.7581
 3129SOL     OW20845   2.647   0.971  10.895  0.7659 -0.7196 -0.2265
 3129SOL    HW120846   2.730   0.932  10.866  0.1980 -1.0158 -1.4727
 3129SOL    HW220847   2.670   0.978  10.988 -1.2428  1.8392  0.0575
 3130SOL     OW20848   2.540   2.154   6.858  0.3068 -0.0808 -0.6903
 3130SOL    HW120849   2.451   2.189   6.865 -0.3408 -1.5388 -1.7923
 3130SOL    HW220850   2.585   2.219   6.913 -0.5025 -0.7800  0.7893
 3131SOL     OW20851   1.910   0.725  15.728 -0.7650 -0.3123 -0.3672
 3131SOL    HW120852   1.932   0.753  15.817  2.0315 -1.5101 -0.6865
 3131SOL    HW220853   1.994   0.742  15.686 -1.0857  0.3531 -0.7251
 3132SOL     OW20854   2.476   3.405  15.010 -0.2012  0.3711 -0.7969
 3132SOL    HW120855   2.420   3.444  15.077 -0.1553  1.6123 -1.4866
 3132SOL    HW220856   2.416   3.392  14.937 -3.4387  3.8475  1.2804
 3133SOL     OW20857   1.040   3.543   3.364  0.6515 -0.0161  0.2914
 3133SOL    HW120858   1.073   3.464   3.408  0.1093 -0.9136 -0.9186
 3133SOL    HW220859   1.109   3.609   3.378  2.2542 -0.9145 -3.4492
 3134SOL     OW20860   3.814   2.679   5.357  0.2015 -0.1768 -0.5302
 3134SOL    HW120861   3.874   2.754   5.353 -1.0758  0.8540 -0.4014
 3134SOL    HW220862   3.754   2.699   5.284 -0.6069  1.8421  0.6871
 3135SOL     OW20863   0.984   2.041   4.566 -1.0039 -0.9115  0.3315
 3135SOL    HW120864   0.949   2.064   4.652  0.9789 -2.6142  1.5977
 3135SOL    HW220865   0.965   1.947   4.567  1.7199 -1.4363  1.5948
 3136SOL     OW20866   0.717   4.430   5.524 -0.2234  0.4027 -0.0101
 3136SOL    HW120867   0.691   4.512   5.566 -0.9485 -0.1397  0.5971
 3136SOL    HW220868   0.645   4.418   5.462 -0.0112  0.9101 -0.3589
 3137SOL     OW20869   1.994   0.297   0.713 -0.2854  0.0405  0.0841
 3137SOL    HW120870   2.032   0.303   0.625 -0.7721  1.2112 -0.0480
 3137SOL    HW220871   1.902   0.286   0.687  0.2279 -0.4587 -1.5496
 3138SOL     OW20872   2.510   4.555   4.703 -0.2765  0.0972  0.2190
 3138SOL    HW120873   2.429   4.601   4.682 -1.8067 -1.8545  1.7185
 3138SOL    HW220874   2.492   4.498   4.778  1.1946 -2.0679 -1.0712
 3139SOL     OW20875   1.987   3.953   2.255 -0.1005  0.4260  0.2718
 3139SOL    HW120876   1.984   4.004   2.174  1.9974  0.5718  0.2935
 3139SOL    HW220877   2.036   4.017   2.308 -0.6019  1.4883 -0.5446
 3140SOL     OW20878   2.282   1.654   7.745 -0.1870  0.0373 -0.4138
 3140SOL    HW120879   2.210   1.592   7.732  0.1339 -0.3355 -0.4261
 3140SOL    HW220880   2.261   1.679   7.834  0.4037  1.8215 -0.7733
 3141SOL     OW20881   2.226   0.631   8.702  0.1292  0.0023  0.6564
 3141SOL    HW120882   2.321   0.636   8.706  0.1225 -1.6168  2.6371
 3141SOL    HW220883   2.210   0.578   8.780  2.4435  0.9131  1.7381
 3142SOL     OW20884   1.616   1.338  13.132  0.3808  0.3751 -0.7834
 3142SOL    HW120885   1.567   1.395  13.073 -0.2753  1.8309  1.1753
 3142SOL    HW220886   1.664   1.404  13.182 -1.1944 -0.2386  1.5084
 3143SOL     OW20887   4.421   3.473   6.790 -0.5017  0.1295  0.0200
 3143SOL    HW120888   4.503   3.444   6.751 -0.4214 -0.3366  0.5201
 3143SOL    HW220889   4.453   3.526   6.864  0.0151  0.9936 -0.8328
 3144SOL     OW20890   2.267   3.881  17.023  0.7605 -0.3091  0.2322
 3144SOL    HW120891   2.303   3.962  16.987 -0.4371 -0.1133 -0.5026
 3144SOL    HW220892   2.348   3.831  17.036  0.8720 -0.0673  0.4709
 3145SOL     OW20893   3.436   1.417   4.955 -0.4561 -0.5070  0.3527
 3145SOL    HW120894   3.486   1.499   4.954  1.2114 -1.5312  0.2162
 3145SOL    HW220895   3.494   1.347   4.984  0.7398  0.6600  0.7572
 3146SOL     OW20896   4.520   2.588  12.264 -0.0475 -0.2394  0.0684
 3146SOL    HW120897   4.497   2.500  12.296  1.2746 -0.3172  0.8146
 3146SOL    HW220898   4.446   2.607  12.206 -2.2858 -1.9977  2.2925
 3147SOL     OW20899   0.642   2.348   2.956 -0.3311 -0.2488  0.3235
 3147SOL    HW120900   0.727   2.388   2.937 -1.1809  0.8911 -1.1215
 3147SOL    HW220901   0.605   2.347   2.868 -0.1614 -2.0013  0.2762
 3148SOL     OW20902   1.641   2.163   8.701 -1.2410  0.1495 -0.0328
 3148SOL    HW120903   1.581   2.098   8.663  0.0232 -1.2569  0.3917
 3148SOL    HW220904   1.688   2.191   8.623  0.5122  0.6628  1.2287
 3149SOL     OW20905   2.105   1.597   8.601 -0.5545  0.2269 -0.2089
 3149SOL    HW120906   2.149   1.527   8.649  0.1215 -1.2147 -2.9500
 3149SOL    HW220907   2.087   1.658   8.672  2.0785  0.7124  0.0560
 3150SOL     OW20908   1.111   3.779   8.655 -0.0961 -0.7677 -0.1338
 3150SOL    HW120909   1.034   3.806   8.604 -2.7498 -2.9495  2.7662
 3150SOL    HW220910   1.138   3.867   8.681  0.7202 -1.6392  1.8740
 3151SOL     OW20911   4.273   3.453  17.079  0.5151  0.1714  0.1706
 3151SOL    HW120912   4.343   3.412  17.027  0.5060  1.6009 -0.9588
 3151SOL    HW220913   4.195   3.448  17.024 -0.7199 -1.7753  2.1085
 3152SOL     OW20914   0.398   4.499   9.211 -0.1875 -0.4041  0.4392
 3152SOL    HW120915   0.423   4.587   9.237 -4.3226  1.4799 -2.0247
 3152SOL    HW220916   0.407   4.456   9.296  0.5812  2.9303  2.0041
 3153SOL     OW20917   1.547   0.628  13.906  0.4835  0.2153  0.1864
 3153SOL    HW120918   1.545   0.617  13.811  0.7133  0.6653  0.1293
 3153SOL    HW220919   1.455   0.617  13.929  0.1356 -1.1126 -1.8597
 3154SOL     OW20920   4.477   2.298   8.275  0.8528 -0.3394 -0.5249
 3154SOL    HW120921   4.456   2.233   8.208  2.0808 -1.5084  0.2235
 3154SOL    HW220922   4.557   2.339   8.242 -0.1456  2.1316  0.1139
 3155SOL     OW20923   3.315   3.417   5.416  0.1630 -0.3244 -0.1531
 3155SOL    HW120924   3.266   3.350   5.368 -0.5809 -0.0093  0.1641
 3155SOL    HW220925   3.402   3.381   5.397  0.3316  0.2178 -0.4178
 3156SOL     OW20926   0.505   3.794   5.952  0.4234 -0.0265 -0.0630
 3156SOL    HW120927   0.478   3.752   6.033  0.5998 -0.1568 -0.0713
 3156SOL    HW220928   0.558   3.723   5.915  0.7093  1.4263 -2.5036
 3157SOL     OW20929   3.604   1.574   7.785 -0.3582  0.0830  0.2171
 3157SOL    HW120930   3.523   1.573   7.836 -0.9721  0.5827 -0.7423
 3157SOL    HW220931   3.614   1.660   7.745 -0.5943 -0.1847 -0.4209
 3158SOL     OW20932   1.427   3.289   6.119 -0.0156  0.2760 -0.0595
 3158SOL    HW120933   1.458   3.349   6.051  1.6969 -1.9702 -1.2760
 3158SOL    HW220934   1.450   3.338   6.198  0.9102  1.0041 -0.7710
 3159SOL     OW20935   2.277   4.115   4.558 -0.3856  0.1615 -0.4549
 3159SOL    HW120936   2.304   4.034   4.601  1.2843  0.9084 -0.1194
 3159SOL    HW220937   2.231   4.082   4.480 -0.7865 -0.3969  0.0224
 3160SOL     OW20938   4.342   1.716   8.003  0.2696 -0.4468  0.0248
 3160SOL    HW120939   4.377   1.639   8.049  1.5833  0.2169  0.1280
 3160SOL    HW220940   4.247   1.719   8.015  0.6590  1.5909  2.5527
 3161SOL     OW20941   1.718   3.371   7.079  0.1392 -0.5070 -0.2728
 3161SOL    HW120942   1.784   3.438   7.061 -1.0274  1.0608  1.2295
 3161SOL    HW220943   1.706   3.326   6.996  0.1572 -0.8342 -0.0945
 3162SOL     OW20944   3.826   4.074   4.122 -0.6492  0.6639  0.2024
 3162SOL    HW120945   3.778   4.148   4.084  0.5057  1.5621  0.4885
 3162SOL    HW220946   3.756   4.009   4.127  1.7328 -1.8141  0.8312
 3163SOL     OW20947   3.928   1.309   3.472  0.3327  0.4492  0.9753
 3163SOL    HW120948   3.901   1.300   3.563 -0.0683 -0.8926  0.7286
 3163SOL    HW220949   3.848   1.341   3.429  0.6661 -1.0451 -0.7665
 3164SOL     OW20950   3.901   3.695  13.117  0.1761  0.1233  0.7967
 3164SOL    HW120951   3.816   3.725  13.086 -0.7827 -2.0822  1.3560
 3164SOL    HW220952   3.881   3.628  13.181  0.9688 -0.5484  0.3492
 3165SOL     OW20953   4.387   3.062   2.132 -0.2121  0.5194 -0.2051
 3165SOL    HW120954   4.396   3.057   2.227  0.8716 -0.0210 -0.3388
 3165SOL    HW220955   4.325   2.992   2.115  1.0411 -0.7963  0.6797
 3166SOL     OW20956   2.475   0.489   3.203  0.4317 -0.1363  0.7871
 3166SOL    HW120957   2.406   0.506   3.139  0.7513 -1.1752  0.1599
 3166SOL    HW220958   2.429   0.514   3.283  1.3611 -0.2789  1.3670
 3167SOL     OW20959   4.223   2.643   9.725  0.1933  0.2256 -0.3504
 3167SOL    HW120960   4.230   2.738   9.718  1.8360  0.0912 -0.6599
 3167SOL    HW220961   4.300   2.601   9.686 -0.5461 -1.5244  0.0572
 3168SOL     OW20962   0.276   3.129   5.887 -0.1613  0.5044  0.1006
 3168SOL    HW120963   0.233   3.071   5.824 -1.0711  1.0098  0.2437
 3168SOL    HW220964   0.364   3.097   5.903 -0.3713  1.5713  3.5037
 3169SOL     OW20965   0.647   2.642  15.189  0.0858 -0.4403 -0.6624
 3169SOL    HW120966   0.736   2.669  15.166  0.2863 -0.3448  0.2224
 3169SOL    HW220967   0.605   2.700  15.126 -3.4842 -1.9466  0.2707
 3170SOL     OW20968   3.308   1.279   0.519 -0.0246  0.1887 -0.7356
 3170SOL    HW120969   3.279   1.213   0.582 -0.0771  1.9574  1.0991
 3170SOL    HW220970   3.353   1.230   0.451  2.9821 -0.9294  2.0564
 3171SOL     OW20971   1.951   4.497  14.177  0.2206 -0.0969  0.0401
 3171SOL    HW120972   1.917   4.413  14.147  1.5285  0.4733 -3.0581
 3171SOL    HW220973   1.913   4.554  14.111 -1.2856  2.0717  2.8032
 3172SOL     OW20974   4.328   2.565   8.658 -0.3429 -0.3196  0.5864
 3172SOL    HW120975   4.300   2.615   8.580  1.1926 -1.5636 -0.7657
 3172SOL    HW220976   4.243   2.524   8.673 -0.0961 -1.3940 -0.9000
 3173SOL     OW20977   1.069   0.309   7.842 -0.0559 -0.3820  0.0761
 3173SOL    HW120978   1.025   0.374   7.897 -2.0850 -0.0369 -1.9547
 3173SOL    HW220979   0.993   0.254   7.821 -0.0239  0.6065 -2.6711
 3174SOL     OW20980   2.207   0.081  12.258 -0.0964  0.6409 -0.2244
 3174SOL    HW120981   2.284   0.072  12.201 -0.0952  0.1552 -0.1390
 3174SOL    HW220982   2.225   0.169  12.292  2.3284 -0.5883  1.6509
 3175SOL     OW20983   3.215   2.689  12.361  0.2646 -0.1593  0.8262
 3175SOL    HW120984   3.269   2.667  12.284 -0.4062  0.8003  0.0818
 3175SOL    HW220985   3.255   2.767  12.398 -3.3387  1.9392  0.3486
 3176SOL     OW20986   4.522   2.083  12.131  0.4081 -0.5529 -0.0357
 3176SOL    HW120987   4.544   1.990  12.118 -2.9103 -1.4121  0.3520
 3176SOL    HW220988   4.431   2.076  12.163 -0.2454 -1.9646 -2.2114
 3177SOL     OW20989   4.557   4.430   2.896 -0.0687 -0.3904 -0.1788
 3177SOL    HW120990   4.564   4.515   2.854 -2.8561 -1.4455 -2.8291
 3177SOL    HW220991   4.474   4.439   2.943 -0.2643 -2.9631 -0.0285
 3178SOL     OW20992   2.347   1.104   1.191 -0.0695 -0.2057  0.0838
 3178SOL    HW120993   2.359   1.168   1.120  0.5502  0.7378  1.0252
 3178SOL    HW220994   2.341   1.173   1.257 -1.8421  0.9954 -1.3205
 3179SOL     OW20995   3.337   2.787   7.412  0.0330  0.2383  0.4351
 3179SOL    HW120996   3.284   2.711   7.438 -0.1978 -0.5924 -2.4265
 3179SOL    HW220997   3.353   2.834   7.493  0.8247  1.4325 -0.4150
 3180SOL     OW20998   4.441   3.098  16.793 -0.1620 -0.2538 -0.2738
 3180SOL    HW120999   4.452   3.008  16.764  0.0987 -1.1519  2.6487
 3180SOL    HW221000   4.524   3.115  16.838 -0.8198 -1.5072  1.4149
 3181SOL     OW21001   0.506   0.065   8.340  0.0927  0.4015  0.1615
 3181SOL    HW121002   0.459   0.044   8.421 -0.7022 -1.1041 -0.6873
 3181SOL    HW221003   0.517   4.699   8.301 -1.5145 -0.0430  0.7084
 3182SOL     OW21004   1.523   2.702   8.176 -0.0126 -0.5424  0.6795
 3182SOL    HW121005   1.575   2.642   8.124  0.1395 -1.7053  2.1616
 3182SOL    HW221006   1.587   2.719   8.245  0.4116 -1.0030  0.3930
 3183SOL     OW21007   3.942   3.733   7.908  0.2196 -0.9631 -0.0165
 3183SOL    HW121008   4.020   3.779   7.876 -0.6383  1.1036  0.8796
 3183SOL    HW221009   3.976   3.645   7.924  0.7047 -0.8275 -0.2937
 3184SOL     OW21010   2.360   0.726   4.636 -0.3313  0.6685 -0.3445
 3184SOL    HW121011   2.384   0.725   4.729  1.2699 -1.1681 -0.7681
 3184SOL    HW221012   2.293   0.794   4.641 -2.3505 -1.4503  1.3612
 3185SOL     OW21013   4.253   1.262  10.742  0.2841 -0.1220 -0.3586
 3185SOL    HW121014   4.240   1.191  10.804 -4.3624 -0.6495 -1.9478
 3185SOL    HW221015   4.344   1.285  10.762  0.4369  0.1426 -1.3294
 3186SOL     OW21016   2.919   2.951   2.287 -0.3924  0.2414  0.2252
 3186SOL    HW121017   2.992   3.003   2.253  1.9207 -3.3398 -0.2929
 3186SOL    HW221018   2.841   3.001   2.264  1.2347  2.9077  0.5070
 3187SOL     OW21019   0.225   2.223  10.102 -0.3373 -0.3060 -0.3592
 3187SOL    HW121020   0.235   2.144  10.049 -0.0835  0.2358 -1.1087
 3187SOL    HW221021   0.140   2.244  10.065 -1.0311 -1.9290  0.2951
 3188SOL     OW21022   3.441   4.466  11.966  0.2690 -1.0313  0.2497
 3188SOL    HW121023   3.370   4.524  11.995 -0.2163 -0.1334 -2.7107
 3188SOL    HW221024   3.397   4.393  11.922  1.1930 -2.0439  0.9978
 3189SOL     OW21025   1.335   0.595   1.159  0.5561 -0.3638 -0.5217
 3189SOL    HW121026   1.270   0.526   1.143  0.6207 -0.5688  0.0969
 3189SOL    HW221027   1.401   0.552   1.214  0.7816 -2.5088 -2.4342
 3190SOL     OW21028   4.060   2.147  14.352  0.2761  0.6861 -0.0655
 3190SOL    HW121029   4.057   2.175  14.261  2.0111  1.5163  0.1340
 3190SOL    HW221030   3.974   2.105  14.361 -0.0115  1.1205 -0.8744
 3191SOL     OW21031   0.065   3.732   0.993 -0.1572  0.1181 -0.2509
 3191SOL    HW121032   0.002   3.792   0.953  0.8269  0.0884 -1.8763
 3191SOL    HW221033   0.023   3.711   1.076 -1.0031  2.6859 -0.0376
 3192SOL     OW21034   0.098   4.490   3.379 -0.6754 -0.1226 -0.0034
 3192SOL    HW121035   0.044   4.539   3.442  0.0391  0.7715 -0.1026
 3192SOL    HW221036   0.183   4.481   3.421 -0.3035  0.5326 -0.6242
 3193SOL     OW21037   0.890   2.643   7.669 -0.4431  0.1971  0.0524
 3193SOL    HW121038   0.966   2.622   7.724  1.5460  1.3226 -2.2532
 3193SOL    HW221039   0.921   2.587   7.598  1.9264  0.9831  0.4601
 3194SOL     OW21040   1.938   0.794   6.435  0.1574 -0.3755  0.6751
 3194SOL    HW121041   1.948   0.740   6.514 -1.2423 -2.4336 -0.5570
 3194SOL    HW221042   1.881   0.854   6.484 -0.7819  1.3439 -2.5003
 3195SOL     OW21043   2.888   0.569  16.748  0.0593  0.7921 -0.1436
 3195SOL    HW121044   2.855   0.658  16.761 -2.0140  0.0236 -0.0829
 3195SOL    HW221045   2.907   0.568  16.654  0.7023  0.6956 -0.0077
 3196SOL     OW21046   0.949   2.210  15.402 -0.0118 -0.5325 -0.0010
 3196SOL    HW121047   0.858   2.238  15.405  0.2915  0.2532  1.9964
 3196SOL    HW221048   0.966   2.246  15.315  3.3130 -1.5724  0.2113
 3197SOL     OW21049   0.546   4.639  13.271 -0.4043  0.1756 -0.3010
 3197SOL    HW121050   0.542   4.544  13.282 -0.0287  0.3667  1.5782
 3197SOL    HW221051   0.463   4.674  13.305  0.4732  1.3088  0.7185
 3198SOL     OW21052   2.594   0.476   2.547 -0.3569  0.1418  0.1207
 3198SOL    HW121053   2.537   0.464   2.471  0.5613  0.1487 -0.5707
 3198SOL    HW221054   2.680   0.453   2.511 -1.0926 -1.2255 -0.7278
 3199SOL     OW21055   2.935   1.888   2.915 -0.5234  0.4542  0.5096
 3199SOL    HW121056   2.927   1.978   2.882  2.9709  0.0946 -1.2663
 3199SOL    HW221057   2.987   1.855   2.842 -1.5046 -0.4918  0.2300
 3200SOL     OW21058   4.247   1.017  10.020  0.1720 -0.6161  0.0198
 3200SOL    HW121059   4.185   1.089  10.009  0.6552 -0.0567  0.8542
 3200SOL    HW221060   4.203   0.948  10.069  0.2309  0.9150  2.2523
 3201SOL     OW21061   4.427   0.098   6.522  0.0697  0.5956 -0.2889
 3201SOL    HW121062   4.338   0.074   6.497 -0.0978  0.7278  0.1820
 3201SOL    HW221063   4.412   0.168   6.585  1.0635 -0.3417  0.9917
 3202SOL     OW21064   4.716   3.443  16.384 -0.1107  0.7828 -0.2779
 3202SOL    HW121065   0.032   3.355  16.378 -1.0401  0.2865  1.0207
 3202SOL    HW221066   4.681   3.444  16.295 -2.9345 -0.6050  0.8227
 3203SOL     OW21067   1.843   0.711   2.385  0.5511 -0.0155  0.2545
 3203SOL    HW121068   1.926   0.731   2.341  0.3887 -2.3262 -1.1595
 3203SOL    HW221069   1.819   0.795   2.423  1.9650  0.6241 -0.2198
 3204SOL     OW21070   1.787   2.865   9.772 -0.5305  0.1794  0.4137
 3204SOL    HW121071   1.797   2.865   9.677 -2.2745 -0.7214  0.2399
 3204SOL    HW221072   1.863   2.808   9.787 -0.3292  0.0359 -1.1673
 3205SOL     OW21073   0.943   0.045   4.005 -0.2087  0.7120  0.0000
 3205SOL    HW121074   1.032   0.065   3.976  0.1702  2.1347  2.0951
 3205SOL    HW221075   0.958   4.675   4.027  0.4288  1.1649  1.4808
 3206SOL     OW21076   2.817   1.157   3.529 -0.3566 -0.2381  0.5021
 3206SOL    HW121077   2.792   1.079   3.479  1.1814  0.4342 -1.3384
 3206SOL    HW221078   2.895   1.126   3.574 -0.5618 -1.1236  0.2575
 3207SOL     OW21079   3.723   1.170   2.980 -0.3851  0.0362 -0.3697
 3207SOL    HW121080   3.646   1.131   3.022  0.7426 -0.8041  0.9444
 3207SOL    HW221081   3.714   1.264   2.991  1.9220  0.3650 -1.2479
 3208SOL     OW21082   0.850   1.851   2.747  0.2327 -0.0371  0.0418
 3208SOL    HW121083   0.789   1.780   2.728 -1.7298  1.3071  1.2246
 3208SOL    HW221084   0.803   1.904   2.812  2.5451  0.6630  1.1560
 3209SOL     OW21085   0.707   2.054  12.989 -0.1195  0.2846  0.1263
 3209SOL    HW121086   0.705   2.098  13.075 -1.9364 -2.1976  1.3525
 3209SOL    HW221087   0.617   2.072  12.962  0.5433  2.9843 -0.3285
 3210SOL     OW21088   1.237   4.393  13.949 -0.1582 -0.7024 -0.1789
 3210SOL    HW121089   1.208   4.305  13.973  0.0966 -0.1702  2.0892
 3210SOL    HW221090   1.330   4.368  13.943  0.2213  0.5044  0.6776
 3211SOL     OW21091   4.459   0.587   2.830 -0.0626  0.5669 -0.3886
 3211SOL    HW121092   4.509   0.539   2.763 -1.4697 -0.2961 -0.8115
 3211SOL    HW221093   4.436   0.667   2.782 -3.8423 -1.2740 -1.6369
 3212SOL     OW21094   1.463   1.115   4.455  0.1538  0.1671  0.1351
 3212SOL    HW121095   1.517   1.128   4.377 -0.3055 -1.2206 -0.4285
 3212SOL    HW221096   1.378   1.143   4.424  0.2638 -0.1424 -0.4515
 3213SOL     OW21097   4.158   4.051   2.845 -0.0602 -0.0236  0.1781
 3213SOL    HW121098   4.227   4.012   2.792  2.1605 -0.4906  3.4170
 3213SOL    HW221099   4.177   4.005   2.927 -0.5840 -0.0230  0.3014
 3214SOL     OW21100   3.711   0.459  14.693  0.0728  0.4206  0.1292
 3214SOL    HW121101   3.642   0.457  14.626  1.3370 -0.8728 -1.1313
 3214SOL    HW221102   3.764   0.528  14.655  0.6480 -0.3265 -0.4209
 3215SOL     OW21103   3.847   2.614  12.033 -0.9751  0.3882  0.0623
 3215SOL    HW121104   3.813   2.565  11.959 -0.5209 -0.8398  0.6740
 3215SOL    HW221105   3.835   2.547  12.100 -1.8015 -1.2471 -1.7504
 3216SOL     OW21106   1.222   0.608   2.789  0.1924 -0.3587 -0.2804
 3216SOL    HW121107   1.254   0.690   2.753  2.4652 -0.3178  1.7942
 3216SOL    HW221108   1.266   0.546   2.731  2.6443  1.8374 -0.7874
 3217SOL     OW21109   2.052   4.020   9.427 -0.1585  0.0338  0.5148
 3217SOL    HW121110   2.007   3.936   9.438  0.4730 -0.4312 -0.4805
 3217SOL    HW221111   2.065   4.032   9.521  1.4847 -0.3188  0.3325
 3218SOL     OW21112   4.654   3.049   7.113 -0.6255  0.3438  0.0424
 3218SOL    HW121113   0.015   3.020   7.073 -1.4229  0.5922 -1.8032
 3218SOL    HW221114   4.696   3.080   7.193 -0.1095  1.1746 -0.5405
 3219SOL     OW21115   1.866   1.521   2.843 -0.0517  0.3803  0.1078
 3219SOL    HW121116   1.932   1.567   2.791 -0.3082  2.0789  1.2796
 3219SOL    HW221117   1.789   1.541   2.791  0.0275  0.2685 -0.0531
 3220SOL     OW21118   4.128   3.353  13.762 -0.2859  0.5151 -0.5120
 3220SOL    HW121119   4.182   3.401  13.825  0.0942  1.5106 -1.6068
 3220SOL    HW221120   4.106   3.283  13.823 -3.5024  1.7871 -0.1661
 3221SOL     OW21121   0.034   2.398  13.814 -0.0489 -0.2537  0.9203
 3221SOL    HW121122   0.045   2.397  13.909  1.5967 -2.0782  0.7003
 3221SOL    HW221123   0.126   2.375  13.805  0.5309  3.0092 -1.4643
 3222SOL     OW21124   1.749   3.783   6.018 -0.0805 -0.6267  0.2644
 3222SOL    HW121125   1.705   3.836   6.084 -2.2518 -0.2943 -1.4458
 3222SOL    HW221126   1.792   3.711   6.065 -0.4688 -0.2235  1.2375
 3223SOL     OW21127   3.487   3.175  14.489 -0.0589  0.1409  0.8939
 3223SOL    HW121128   3.412   3.198  14.434  0.9247  0.6208 -0.2500
 3223SOL    HW221129   3.462   3.087  14.515  0.8737 -0.2205  0.5635
 3224SOL     OW21130   0.786   2.076  16.878  0.1672  0.1119  0.5307
 3224SOL    HW121131   0.874   2.084  16.915 -0.0818 -0.4939  1.2437
 3224SOL    HW221132   0.797   2.158  16.830 -1.1402  0.3034  0.5486
 3225SOL     OW21133   0.651   2.438   5.449  0.3784  0.5890  0.3018
 3225SOL    HW121134   0.616   2.438   5.360 -0.4121  0.7937  0.6148
 3225SOL    HW221135   0.695   2.522   5.457 -0.1971  0.9851 -0.6994
 3226SOL     OW21136   0.077   0.648  15.802 -0.2236  0.0032 -0.3983
 3226SOL    HW121137   0.163   0.619  15.831  0.0765  1.3167  0.0227
 3226SOL    HW221138   0.031   0.571  15.768 -0.4279  1.2304 -2.9793
 3227SOL     OW21139   2.966   3.217   6.007  0.5446 -0.3485  0.1996
 3227SOL    HW121140   2.997   3.127   6.005  1.1321 -0.1327 -0.2342
 3227SOL    HW221141   3.055   3.250   6.017  0.4249 -0.1462  0.5666
 3228SOL     OW21142   2.341   0.041   4.759 -0.0021  0.2536 -0.3032
 3228SOL    HW121143   2.338   0.089   4.842 -2.4787  0.1390 -0.3537
 3228SOL    HW221144   2.311   0.110   4.699 -1.3580  0.6475  0.8443
 3229SOL     OW21145   0.292   3.969   7.539 -0.4114  0.4326 -0.0730
 3229SOL    HW121146   0.241   4.041   7.576 -2.6271  0.1827 -2.6769
 3229SOL    HW221147   0.357   3.951   7.608  0.0946  0.5580 -0.5170
 3230SOL     OW21148   1.622   2.411   9.420  0.6330 -0.5642  0.5609
 3230SOL    HW121149   1.548   2.353   9.400  0.7217 -0.3994 -0.2312
 3230SOL    HW221150   1.615   2.414   9.516 -1.0365 -1.6963  0.4817
 3231SOL     OW21151   4.512   0.526   1.516  0.1138  0.2002  0.1697
 3231SOL    HW121152   4.577   0.562   1.577  0.0531 -1.5733  1.2820
 3231SOL    HW221153   4.538   0.552   1.427 -2.1374 -1.1492 -0.8699
 3232SOL     OW21154   2.602   0.578   7.875 -0.1352 -0.4056 -0.2944
 3232SOL    HW121155   2.509   0.558   7.888 -0.7112  0.6543 -2.7745
 3232SOL    HW221156   2.607   0.560   7.781  0.7579  0.9024 -0.5014
 3233SOL     OW21157   4.720   3.214  16.734  0.0399 -0.0669  0.2132
 3233SOL    HW121158   4.697   3.264  16.656 -1.7295 -0.2598  0.6094
 3233SOL    HW221159   0.052   3.278  16.780 -0.3645  0.5146 -0.1315
 3234SOL     OW21160   4.460   4.496   3.161  0.1471  0.5876  0.3174
 3234SOL    HW121161   4.398   4.524   3.094 -0.0756  0.9416  0.6669
 3234SOL    HW221162   4.402   4.508   3.237 -0.4973 -1.8554  0.2116
 3235SOL     OW21163   2.461   3.024  13.493  0.2937 -0.2028 -0.6244
 3235SOL    HW121164   2.458   2.993  13.403 -2.6972  0.5222 -0.7675
 3235SOL    HW221165   2.551   2.997  13.512  0.9848  1.9187 -0.8659
 3236SOL     OW21166   4.112   1.748   4.145  0.2560 -0.1740 -0.3636
 3236SOL    HW121167   4.022   1.720   4.163  0.9508 -0.8293  2.0058
 3236SOL    HW221168   4.094   1.841   4.161 -1.3608 -0.9952  2.6485
 3237SOL     OW21169   1.018   0.988   3.071 -0.1234 -0.0976 -0.0332
 3237SOL    HW121170   0.973   1.053   3.018 -1.7548  0.9139  2.5953
 3237SOL    HW221171   1.108   1.006   3.042  0.2712 -0.1865  1.1143
 3238SOL     OW21172   3.208   4.231   6.185  0.0699 -0.7593  0.1375
 3238SOL    HW121173   3.301   4.254   6.186 -1.0814  3.9036 -1.0736
 3238SOL    HW221174   3.217   4.143   6.147 -0.0063 -0.9960  0.6649
 3239SOL     OW21175   4.292   1.808   4.626  0.2792 -0.1231  0.2255
 3239SOL    HW121176   4.306   1.793   4.533 -0.8445 -2.2908  0.3892
 3239SOL    HW221177   4.244   1.726   4.641 -1.2191  0.5110 -1.1263
 3240SOL     OW21178   4.054   2.776   4.254 -0.5871 -0.0630 -0.2181
 3240SOL    HW121179   4.036   2.817   4.338  0.9508 -0.4843  0.3244
 3240SOL    HW221180   4.142   2.746   4.277 -0.7501  0.9163  1.6094
 3241SOL     OW21181   3.311   2.213   7.675 -0.7226  0.0793 -0.2716
 3241SOL    HW121182   3.303   2.275   7.747  0.3260  2.0931 -1.8751
 3241SOL    HW221183   3.221   2.182   7.661 -0.8262  0.1767  0.2053
 3242SOL     OW21184   3.916   1.808  16.799  0.5120  0.1198  1.0961
 3242SOL    HW121185   3.910   1.750  16.875  0.3568  0.2878  1.2102
 3242SOL    HW221186   3.964   1.751  16.738 -1.7482  0.8201 -1.3611
 3243SOL     OW21187   4.388   2.510   0.349  0.1426  0.4256  0.4338
 3243SOL    HW121188   4.422   2.514   0.260 -0.1498  0.8728  0.3421
 3243SOL    HW221189   4.461   2.468   0.394 -0.3443 -0.9342 -0.0326
 3244SOL     OW21190   1.673   0.379   3.322 -0.2596  0.0124  0.3409
 3244SOL    HW121191   1.595   0.433   3.308  2.0338  2.7819 -1.5569
 3244SOL    HW221192   1.633   0.296   3.296 -0.2318  0.3534 -0.7815
 3245SOL     OW21193   1.926   0.307  11.353 -0.3879  0.6886 -0.5966
 3245SOL    HW121194   1.903   0.357  11.275  2.6241 -1.0633 -2.5999
 3245SOL    HW221195   1.854   0.335  11.411 -0.6733  0.6596 -0.9371
 3246SOL     OW21196   1.304   2.275  15.751 -0.2797 -0.8741 -0.5013
 3246SOL    HW121197   1.255   2.305  15.674 -0.2828 -0.7049 -0.4346
 3246SOL    HW221198   1.383   2.328  15.745 -0.8049 -0.1418 -0.9823
 3247SOL     OW21199   0.315   1.369   3.960  0.4998  0.5110 -0.6873
 3247SOL    HW121200   0.251   1.428   3.921  0.4142 -0.6577 -2.3060
 3247SOL    HW221201   0.363   1.331   3.886  3.2200  0.7733  0.9392
 3248SOL     OW21202   2.787   0.879   2.425  0.3490  0.5757  0.1127
 3248SOL    HW121203   2.808   0.824   2.501 -1.3790 -2.3364 -1.5546
 3248SOL    HW221204   2.876   0.913   2.411  0.8846  0.2010  2.5720
 3249SOL     OW21205   0.651   2.119   6.863 -0.5265  1.1071  0.3111
 3249SOL    HW121206   0.665   2.155   6.776  1.5340  0.3700  0.3389
 3249SOL    HW221207   0.687   2.031   6.851  1.5239  1.8593  0.9393
 3250SOL     OW21208   3.010   4.639  14.764  0.0805 -0.3109 -0.4156
 3250SOL    HW121209   3.080   4.574  14.759  1.1298  0.8136 -0.3758
 3250SOL    HW221210   3.063   4.714  14.736 -1.4017  1.4929  1.6660
 3251SOL     OW21211   0.756   4.159   5.616 -0.3580  0.3570  0.2880
 3251SOL    HW121212   0.763   4.247   5.581 -0.7840 -0.3426 -1.5321
 3251SOL    HW221213   0.826   4.169   5.681  1.2609  2.3077 -1.7744
 3252SOL     OW21214   3.008   2.186   0.340 -0.5056 -0.8161 -0.5819
 3252SOL    HW121215   3.092   2.228   0.361 -0.6840  0.7057 -2.9340
 3252SOL    HW221216   3.044   2.108   0.299 -0.5645  0.0939 -2.3516
 3253SOL     OW21217   3.692   1.259  12.255  0.3563 -0.4320  0.0249
 3253SOL    HW121218   3.769   1.287  12.303 -0.0147  2.5603 -1.0985
 3253SOL    HW221219   3.647   1.194  12.308 -0.9723 -1.3720 -2.2276
 3254SOL     OW21220   3.917   3.156   4.042  0.0516 -0.3132 -0.3416
 3254SOL    HW121221   3.890   3.147   4.134 -1.5285 -0.5381 -0.8141
 3254SOL    HW221222   3.993   3.210   4.062 -2.3151  1.9668  2.4209
 3255SOL     OW21223   3.583   4.139   5.759  0.3132 -0.3454 -0.2438
 3255SOL    HW121224   3.616   4.115   5.672 -1.7319  0.2283 -1.1909
 3255SOL    HW221225   3.622   4.072   5.814  0.0464 -0.1807  0.1436
 3256SOL     OW21226   0.484   4.171   5.303  0.6994  0.0953 -0.0590
 3256SOL    HW121227   0.496   4.265   5.289  0.6322  0.0427 -0.4650
 3256SOL    HW221228   0.437   4.179   5.386 -1.2443  2.9745 -1.4525
 3257SOL     OW21229   1.292   1.386   7.588  0.3644 -0.1110  0.2680
 3257SOL    HW121230   1.275   1.476   7.616  1.3574 -0.5156  2.2308
 3257SOL    HW221231   1.387   1.379   7.579  0.1685 -1.5232 -0.6425
 3258SOL     OW21232   1.227   0.930   7.793 -0.1143 -0.3576  0.1631
 3258SOL    HW121233   1.172   1.005   7.815 -0.3678 -0.0573 -1.5024
 3258SOL    HW221234   1.277   0.921   7.875  1.7633  0.9973 -0.8326
 3259SOL     OW21235   3.855   2.679   0.149  0.4999  0.0297 -0.0018
 3259SOL    HW121236   3.801   2.686   0.071  1.7809 -2.8849 -1.1567
 3259SOL    HW221237   3.820   2.597   0.186  1.0355 -1.5106 -2.9100
 3260SOL     OW21238   0.363   2.017   3.281 -0.0545 -0.1298 -0.1573
 3260SOL    HW121239   0.404   2.083   3.337 -1.1187  0.7740 -0.4511
 3260SOL    HW221240   0.432   1.950   3.275  1.5949  1.6616 -1.2305
 3261SOL     OW21241   1.485   1.966  16.938  0.1689  0.2199 -0.5814
 3261SOL    HW121242   1.506   2.059  16.927  3.0475 -0.4586 -0.7526
 3261SOL    HW221243   1.403   1.958  16.890 -0.2604 -3.0996  0.7252
 3262SOL     OW21244   4.559   1.755  10.642  0.0767 -0.1732 -0.3031
 3262SOL    HW121245   4.581   1.662  10.645 -0.8361 -0.3002  3.1824
 3262SOL    HW221246   4.484   1.768  10.585  0.8700  1.2391 -1.0479
 3263SOL     OW21247   3.933   2.318   7.605  0.1768  0.4248  0.2005
 3263SOL    HW121248   4.006   2.351   7.552 -0.8080  3.3052  0.6715
 3263SOL    HW221249   3.943   2.223   7.601  0.5216  0.4299  1.0032
 3264SOL     OW21250   2.762   0.896   3.445  0.0867 -0.3823 -0.2349
 3264SOL    HW121251   2.789   0.873   3.356 -1.2178  1.0259 -0.9931
 3264SOL    HW221252   2.667   0.904   3.432  0.0612 -2.0199 -1.0261
 3265SOL     OW21253   0.168   1.522   1.957  0.0651  0.1055 -0.2824
 3265SOL    HW121254   0.091   1.516   2.013 -0.4002 -2.2549 -1.1905
 3265SOL    HW221255   0.165   1.612   1.924 -1.0318 -0.6936 -2.3516
 3266SOL     OW21256   2.108   3.536   0.653  0.1998  0.0425 -0.3611
 3266SOL    HW121257   2.141   3.528   0.564  0.4199  1.1796 -0.3756
 3266SOL    HW221258   2.039   3.601   0.645  0.6875  0.3651 -1.9078
 3267SOL     OW21259   1.749   1.420   9.128  0.5139  0.1976 -0.0082
 3267SOL    HW121260   1.785   1.375   9.052  0.1602  2.3837 -1.4747
 3267SOL    HW221261   1.823   1.451   9.180  2.0458 -0.9482 -1.5247
 3268SOL     OW21262   2.018   0.891  17.281 -0.2091  0.0949 -0.0370
 3268SOL    HW121263   2.065   0.913  17.361  0.8241  1.5447 -1.0451
 3268SOL    HW221264   1.943   0.951  17.280  0.3259  0.7934  1.9487
 3269SOL     OW21265   2.416   1.935  11.874 -0.0764 -0.4433  0.5176
 3269SOL    HW121266   2.345   1.898  11.822  0.9849  0.6553 -1.6978
 3269SOL    HW221267   2.480   1.925  11.804 -2.7951 -1.5984 -1.7642
 3270SOL     OW21268   4.096   4.107  13.358 -0.5371 -0.3852 -0.3192
 3270SOL    HW121269   4.028   4.040  13.365  0.3118 -1.2163 -0.0810
 3270SOL    HW221270   4.145   4.061  13.289 -0.3820  1.2263 -1.2981
 3271SOL     OW21271   3.089   3.423   0.035 -0.1541  0.1969 -0.5325
 3271SOL    HW121272   3.115   3.436   0.126  1.8858  0.9128 -1.2385
 3271SOL    HW221273   3.147   3.468  17.663 -1.0865  2.9259  0.5902
 3272SOL     OW21274   3.200   1.298   4.984 -0.3758  0.9674  0.3564
 3272SOL    HW121275   3.216   1.258   5.069  0.1647  0.5832  0.0760
 3272SOL    HW221276   3.269   1.364   4.990 -0.7410  1.3148  0.7286
 3273SOL     OW21277   2.433   2.705   5.267  0.1660 -0.0721 -0.3158
 3273SOL    HW121278   2.488   2.783   5.270 -0.8970  0.7669 -2.8344
 3273SOL    HW221279   2.466   2.674   5.182  1.1381  0.4028 -0.1108
 3274SOL     OW21280   2.587   3.351   1.655 -0.8203 -0.0448 -0.5767
 3274SOL    HW121281   2.618   3.433   1.695  1.8762 -1.2419 -0.2216
 3274SOL    HW221282   2.667   3.299   1.660 -0.7201  0.3552  1.8700
 3275SOL     OW21283   3.267   1.247   6.546 -0.3567 -0.1431 -0.0015
 3275SOL    HW121284   3.197   1.262   6.482  0.7737 -0.5528 -1.3294
 3275SOL    HW221285   3.248   1.156   6.570 -1.9340  0.7016  1.9320
 3276SOL     OW21286   3.734   3.157   0.398 -0.6451  0.0824 -0.0154
 3276SOL    HW121287   3.775   3.074   0.422 -0.4772  0.6534  1.6662
 3276SOL    HW221288   3.639   3.143   0.393 -0.8331  1.5199 -0.5983
 3277SOL     OW21289   4.122   0.161   7.990  0.1857  0.4168  0.5630
 3277SOL    HW121290   4.076   0.102   7.930 -2.1933 -2.4202  5.1431
 3277SOL    HW221291   4.069   0.240   7.976  0.1749  0.6615  2.0344
 3278SOL     OW21292   3.778   1.475   6.331  0.4415  0.3097  0.0136
 3278SOL    HW121293   3.742   1.403   6.384 -1.8135  0.5966 -1.1211
 3278SOL    HW221294   3.844   1.499   6.396 -0.5742 -1.9897  1.9041
 3279SOL     OW21295   3.203   3.201   0.710 -0.1233 -0.5053  0.2901
 3279SOL    HW121296   3.238   3.282   0.673 -1.6971 -0.0888 -0.3141
 3279SOL    HW221297   3.276   3.142   0.693  0.0882  0.1515 -1.0697
 3280SOL     OW21298   3.335   2.013   2.258 -0.2784  0.1118  0.1859
 3280SOL    HW121299   3.343   2.101   2.224 -0.9035  0.3781  0.7111
 3280SOL    HW221300   3.387   1.961   2.197 -1.0533 -0.0922 -0.3027
 3281SOL     OW21301   0.715   3.475  16.875  0.3964 -0.0340 -0.2709
 3281SOL    HW121302   0.775   3.431  16.935  1.7044  0.2660 -1.3574
 3281SOL    HW221303   0.768   3.553  16.860 -0.2195  0.3573 -0.4280
 3282SOL     OW21304   3.828   4.555   7.392  0.0612 -0.4859 -0.0152
 3282SOL    HW121305   3.809   4.491   7.460 -1.4727 -0.6618 -0.5991
 3282SOL    HW221306   3.821   4.638   7.440  2.3372 -1.1731  1.4994
 3283SOL     OW21307   0.811   0.928   4.501  0.0446 -0.9081 -0.6299
 3283SOL    HW121308   0.901   0.913   4.531 -0.0421  0.2810  0.2135
 3283SOL    HW221309   0.805   1.020   4.474  1.0944 -0.0820  1.8840
 3284SOL     OW21310   3.574   1.496   5.235 -0.1112 -0.1557 -0.3418
 3284SOL    HW121311   3.659   1.466   5.267  0.3902  1.6714  0.0500
 3284SOL    HW221312   3.589   1.495   5.141 -0.8321  0.8295 -0.4724
 3285SOL     OW21313   1.863   0.170   7.606  0.3307 -0.0331  0.4662
 3285SOL    HW121314   1.803   0.205   7.672 -1.7709 -0.6197 -1.1473
 3285SOL    HW221315   1.951   0.160   7.643 -0.2974  0.2267  2.0345
 3286SOL     OW21316   0.808   3.042   6.896 -0.5259  0.1403 -0.2569
 3286SOL    HW121317   0.738   3.032   6.961  0.8605  3.0758  1.6853
 3286SOL    HW221318   0.793   2.970   6.835  0.3803 -0.0061 -0.2976
 3287SOL     OW21319   3.759   2.981   7.631 -0.5705  0.5686  0.2453
 3287SOL    HW121320   3.678   2.930   7.637 -0.3459  0.0435 -1.1662
 3287SOL    HW221321   3.811   2.933   7.695  1.4250  1.4206 -0.7614
 3288SOL     OW21322   0.617   4.032   0.970  0.4076 -0.0644 -0.4424
 3288SOL    HW121323   0.633   3.959   0.910 -1.2535  1.0251 -2.2371
 3288SOL    HW221324   0.526   4.031   0.941 -0.1594 -0.2679  1.3293
 3289SOL     OW21325   3.260   1.069   8.042 -0.3377 -0.4995  0.0438
 3289SOL    HW121326   3.256   1.065   8.138  1.5354  2.2724  0.2384
 3289SOL    HW221327   3.208   0.990   8.026 -0.4882 -0.7300  1.6722
 3290SOL     OW21328   0.946   1.252  12.866  0.1611 -0.3520  0.1029
 3290SOL    HW121329   0.874   1.288  12.918 -0.9025  1.2405 -2.4813
 3290SOL    HW221330   0.958   1.175  12.921  0.9216  1.4829  2.5413
 3291SOL     OW21331   2.259   1.984   7.996 -0.1370 -0.3765  0.7537
 3291SOL    HW121332   2.352   1.970   8.011  0.3942  0.2993 -2.0057
 3291SOL    HW221333   2.268   2.039   7.918  0.4817  0.9730  1.7781
 3292SOL     OW21334   0.219   2.972   7.143  0.0799  0.4286 -0.2662
 3292SOL    HW121335   0.232   2.991   7.236 -0.2396  3.3865 -0.8248
 3292SOL    HW221336   0.288   2.906   7.137  0.7151  1.0401  0.3314
 3293SOL     OW21337   3.915   2.182  10.486  0.2488  0.0030 -0.0175
 3293SOL    HW121338   4.003   2.214  10.468  0.9483 -1.0556  1.5180
 3293SOL    HW221339   3.902   2.139  10.401 -0.2691  1.3135 -0.5990
 3294SOL     OW21340   3.961   3.394  14.779 -0.6272  0.1622 -1.0866
 3294SOL    HW121341   3.981   3.386  14.872  0.6131  4.9355 -0.9456
 3294SOL    HW221342   3.888   3.333  14.774 -0.4533  0.0334 -2.0043
 3295SOL     OW21343   3.636   3.588   8.160  0.1291  0.1229 -0.1645
 3295SOL    HW121344   3.724   3.600   8.195 -0.4420 -1.4876  1.8006
 3295SOL    HW221345   3.647   3.635   8.077 -0.9896 -0.0580 -0.4086
 3296SOL     OW21346   1.165   0.592  13.120  0.1406  0.6329 -0.0872
 3296SOL    HW121347   1.103   0.528  13.085  0.5301  0.0053  0.3878
 3296SOL    HW221348   1.235   0.600  13.055  0.7277 -1.8958  0.2414
 3297SOL     OW21349   0.988   3.761   7.074  0.0603  0.6312  0.8371
 3297SOL    HW121350   0.992   3.758   7.170  0.1826 -0.8593  0.7842
 3297SOL    HW221351   1.059   3.700   7.053 -0.1939  0.0054  1.7852
 3298SOL     OW21352   2.637   3.214   5.003  0.5426 -1.0160  0.0123
 3298SOL    HW121353   2.625   3.119   4.998 -2.1944 -0.6248 -1.1419
 3298SOL    HW221354   2.572   3.241   4.938  0.6773  2.1474  1.1958
 3299SOL     OW21355   1.393   1.206   6.436 -0.5991 -0.0382 -0.3207
 3299SOL    HW121356   1.433   1.137   6.383  0.4966 -1.1454  1.9429
 3299SOL    HW221357   1.443   1.280   6.402 -0.7145  0.5607  0.8305
 3300SOL     OW21358   0.766   2.628   6.297  0.0196 -0.3414 -0.1830
 3300SOL    HW121359   0.687   2.581   6.322  0.1198 -0.1089  0.5688
 3300SOL    HW221360   0.810   2.569   6.235 -1.4562 -0.1403 -1.4058
 3301SOL     OW21361   2.493   2.566   8.305 -0.4501  0.1552 -0.2742
 3301SOL    HW121362   2.454   2.618   8.376  3.4093  1.3041  0.9996
 3301SOL    HW221363   2.583   2.592   8.321 -0.1912  0.0617 -1.5905
 3302SOL     OW21364   1.962   0.762  15.975 -0.0460 -0.5977 -0.2101
 3302SOL    HW121365   2.057   0.763  15.989  0.4081 -0.8220 -3.3725
 3302SOL    HW221366   1.944   0.673  16.003 -0.6962 -0.3592  0.1457
 3303SOL     OW21367   4.364   2.729  11.918 -0.1012  0.9735  0.6105
 3303SOL    HW121368   4.302   2.694  11.855  0.3867 -0.9276  1.1944
 3303SOL    HW221369   4.350   2.676  11.997 -0.1213  0.3677  0.1990
 3304SOL     OW21370   4.230   1.722   9.848 -0.5956 -0.2597  0.4950
 3304SOL    HW121371   4.188   1.799   9.810  0.7301  0.6605  0.8889
 3304SOL    HW221372   4.323   1.736   9.831 -1.0565  1.6011 -0.4463
 3305SOL     OW21373   3.438   4.342   2.443 -0.0083 -0.1102  0.2560
 3305SOL    HW121374   3.524   4.370   2.410 -1.0667  1.6005 -1.0856
 3305SOL    HW221375   3.405   4.313   2.358  1.8801 -1.2743 -0.0885
 3306SOL     OW21376   2.156   1.203   8.973  0.3951 -0.1251 -0.0041
 3306SOL    HW121377   2.062   1.219   8.978  0.5436  0.5652  0.5478
 3306SOL    HW221378   2.170   1.194   9.067  0.3816 -1.2832 -0.1080
 3307SOL     OW21379   0.621   2.398   5.199 -0.0842 -0.3540 -0.5415
 3307SOL    HW121380   0.589   2.469   5.143 -0.3172 -0.6343 -0.7640
 3307SOL    HW221381   0.676   2.348   5.138 -2.4062 -1.6591 -1.5587
 3308SOL     OW21382   2.997   4.238  12.427 -0.1398  0.2032 -0.8491
 3308SOL    HW121383   2.918   4.183  12.423  1.0311 -1.4749 -0.7181
 3308SOL    HW221384   3.015   4.239  12.333  1.7925 -0.6402 -0.4733
 3309SOL     OW21385   2.989   1.254   8.953  0.1676 -1.2483  0.0065
 3309SOL    HW121386   2.974   1.233   9.045  1.2307  2.8994  1.1516
 3309SOL    HW221387   2.897   1.240   8.931 -0.1561  0.7645  0.0867
 3310SOL     OW21388   1.167   1.092   2.587  0.8261 -0.5828 -0.1159
 3310SOL    HW121389   1.148   1.089   2.494  1.0958 -2.2318 -0.1222
 3310SOL    HW221390   1.116   1.014   2.610 -2.5022  1.2321 -1.3953
 3311SOL     OW21391   2.086   0.945   3.647  0.1795  0.2112  0.3043
 3311SOL    HW121392   2.031   0.867   3.657 -1.1781  1.3482  1.6304
 3311SOL    HW221393   2.068   0.966   3.555 -0.6698 -0.1107  0.4002
 3312SOL     OW21394   0.114   0.090   4.601 -0.0604  1.1406  0.2250
 3312SOL    HW121395   0.030   0.119   4.566  0.6079  2.1483 -0.5696
 3312SOL    HW221396   0.176   0.106   4.529 -1.7034  1.9584 -0.9891
 3313SOL     OW21397   1.274   4.466  17.465 -0.5164 -0.1688  0.4880
 3313SOL    HW121398   1.301   4.453  17.374  1.6952 -0.6379  1.1925
 3313SOL    HW221399   1.327   4.544  17.481  0.5369 -0.6307 -0.7439
 3314SOL     OW21400   1.959   3.472   4.026 -0.0467  0.3010 -0.0269
 3314SOL    HW121401   2.027   3.515   3.974 -1.3735  4.1564  1.4149
 3314SOL    HW221402   1.923   3.415   3.958 -1.7060  1.2638  0.0421
 3315SOL     OW21403   2.639   1.823   4.546  0.3810 -0.1232 -0.4813
 3315SOL    HW121404   2.596   1.755   4.494 -0.8675  0.1000  0.2730
 3315SOL    HW221405   2.627   1.893   4.482 -0.5228 -0.2534 -0.4543
 3316SOL     OW21406   3.559   0.924   4.854  0.0996 -0.0879 -0.4217
 3316SOL    HW121407   3.489   0.870   4.890 -1.1128  0.5036 -1.8537
 3316SOL    HW221408   3.537   0.942   4.762  0.7278  1.2478 -0.3042
 3317SOL     OW21409   1.771   0.827   3.374  0.0635  0.0480 -0.1601
 3317SOL    HW121410   1.761   0.879   3.454  1.2754 -2.0725  1.3843
 3317SOL    HW221411   1.730   0.744   3.398  2.0241 -1.2180 -1.2352
 3318SOL     OW21412   0.240   3.651   2.171 -0.4644  0.4720 -0.1181
 3318SOL    HW121413   0.254   3.564   2.134  0.0189 -0.4383  2.1543
 3318SOL    HW221414   0.191   3.633   2.252  1.3899  0.0258  0.8907
 3319SOL     OW21415   3.804   0.517   2.471  0.2334 -0.2626 -0.1661
 3319SOL    HW121416   3.714   0.514   2.505  0.3283  0.1091  0.1238
 3319SOL    HW221417   3.814   0.611   2.486 -0.9762  0.0477 -1.2907
 3320SOL     OW21418   2.856   4.696   0.914 -0.3242  0.1512  0.4889
 3320SOL    HW121419   2.837   4.604   0.896 -0.7227 -0.0649  2.0162
 3320SOL    HW221420   2.897   4.711   0.829 -0.2278  1.1827  0.7222
 3321SOL     OW21421   0.461   0.094  10.623 -0.2193 -0.3229 -0.1856
 3321SOL    HW121422   0.503   0.032  10.683 -1.0314 -0.2857  0.4269
 3321SOL    HW221423   0.497   0.069  10.538  1.5917  1.1459  0.1598
 3322SOL     OW21424   0.502   0.225   4.098 -0.0079 -0.1644  0.5410
 3322SOL    HW121425   0.475   0.252   4.010  1.9805 -0.9120 -0.2822
 3322SOL    HW221426   0.456   0.289   4.153  0.4144  0.2498  0.4123
 3323SOL     OW21427   4.525   0.372   4.843  0.0577  0.3304  0.0836
 3323SOL    HW121428   4.441   0.327   4.834  1.1992 -1.9680  0.7823
 3323SOL    HW221429   4.535   0.364   4.938 -0.1338  3.3617  0.3813
 3324SOL     OW21430   1.494   0.333   5.752  0.0059 -0.3506  0.4389
 3324SOL    HW121431   1.408   0.372   5.764  0.0213 -0.3746  0.6334
 3324SOL    HW221432   1.511   0.317   5.845 -1.2444 -2.0468  0.3694
 3325SOL     OW21433   2.751   2.260   5.100  0.1674 -0.4038 -0.0401
 3325SOL    HW121434   2.743   2.185   5.041  2.1437  0.1528 -1.0162
 3325SOL    HW221435   2.813   2.318   5.056  1.5138 -0.8951  1.2269
 3326SOL     OW21436   3.013   1.344   2.083  0.1501 -0.0396 -0.2434
 3326SOL    HW121437   2.973   1.257   2.079  0.2617 -0.1476  1.0326
 3326SOL    HW221438   2.938   1.401   2.067 -1.2360 -1.6590  0.3633
 3327SOL     OW21439   2.455   3.199   3.549  0.4173 -0.0930  0.5486
 3327SOL    HW121440   2.366   3.216   3.518  0.7818  2.1012  0.7092
 3327SOL    HW221441   2.432   3.182   3.640 -0.9164 -0.0868  0.2146
 3328SOL     OW21442   4.616   0.598   2.562  0.3329 -0.4359 -0.2600
 3328SOL    HW121443   4.657   0.526   2.515 -2.0406 -1.1582 -1.2293
 3328SOL    HW221444   4.534   0.593   2.513  0.8370  1.9173 -1.3683
 3329SOL     OW21445   0.191   3.779   5.636 -0.1885 -1.4053  0.1867
 3329SOL    HW121446   0.275   3.754   5.597 -0.6836 -0.4724 -1.4742
 3329SOL    HW221447   0.131   3.774   5.562  0.4621  1.4839 -0.5584
 3330SOL     OW21448   4.643   0.321   1.112 -0.0819  0.0620 -0.1318
 3330SOL    HW121449   4.637   0.369   1.030  2.7181  2.4791  1.0703
 3330SOL    HW221450   0.012   0.300   1.134  0.3273  0.2739 -1.6169
 3331SOL     OW21451   2.215   3.147  12.345 -0.4182 -0.2127 -0.5391
 3331SOL    HW121452   2.293   3.093  12.329 -0.0369  0.3040 -0.3960
 3331SOL    HW221453   2.236   3.229  12.301  0.4761 -0.0390  0.2044
 3332SOL     OW21454   0.427   2.233   3.440  0.1509  0.2280 -0.2217
 3332SOL    HW121455   0.400   2.234   3.531 -0.0270 -1.2641 -0.2580
 3332SOL    HW221456   0.362   2.288   3.396 -0.3260 -0.2722 -0.1291
 3333SOL     OW21457   0.434   1.483   5.838 -0.0876 -0.6990  0.6623
 3333SOL    HW121458   0.506   1.462   5.897  0.3367  0.8129  0.6858
 3333SOL    HW221459   0.403   1.393   5.823 -0.7806 -0.4430  0.5750
 3334SOL     OW21460   2.591   4.694  11.659  0.3087 -0.3836  0.6003
 3334SOL    HW121461   2.633   0.050  11.622 -1.1238 -0.5383 -1.3197
 3334SOL    HW221462   2.502   4.703  11.627  0.2039 -0.8190  0.7697
 3335SOL     OW21463   4.611   4.430  14.949  0.1628  0.6921  0.0758
 3335SOL    HW121464   4.594   4.501  15.010 -0.3489  1.0903 -0.5376
 3335SOL    HW221465   4.670   4.377  15.004 -0.3919  0.9882  0.9448
 3336SOL     OW21466   0.789   3.624  15.697  0.0020  0.0670  0.6755
 3336SOL    HW121467   0.726   3.619  15.769  1.4651  1.4498  2.0442
 3336SOL    HW221468   0.818   3.534  15.679  0.3665 -0.1094  2.1152
 3337SOL     OW21469   4.265   1.136   0.737 -0.0662 -0.0742 -0.0868
 3337SOL    HW121470   4.279   1.115   0.830 -2.2697 -3.0424 -0.4190
 3337SOL    HW221471   4.271   1.231   0.735  2.2741 -0.2324 -0.4334
 3338SOL     OW21472   0.070   3.592   1.325  0.0872 -0.2148 -0.0216
 3338SOL    HW121473   0.061   3.501   1.354  1.4550 -0.2952  0.1488
 3338SOL    HW221474   4.711   3.622   1.368  1.6746  0.7791  2.2795
 3339SOL     OW21475   2.461   3.045  13.187 -0.4718 -0.1273  0.0336
 3339SOL    HW121476   2.523   2.973  13.189  0.1082  0.3098 -1.6984
 3339SOL    HW221477   2.453   3.062  13.093  2.7251  0.7747 -0.0655
 3340SOL     OW21478   1.133   0.576   3.829 -0.0191 -0.1551  0.4546
 3340SOL    HW121479   1.123   0.655   3.776 -0.2574 -2.2421 -2.5885
 3340SOL    HW221480   1.041   0.559   3.849 -0.2038 -0.2822 -0.5283
 3341SOL     OW21481   2.462   1.247   9.407  0.4638  0.4023  0.6469
 3341SOL    HW121482   2.447   1.153   9.402  2.2655  0.0817  1.5458
 3341SOL    HW221483   2.385   1.297   9.435  0.4322  0.7338 -0.0329
 3342SOL     OW21484   0.957   1.317  11.404 -0.4287 -0.4179  0.1743
 3342SOL    HW121485   0.946   1.254  11.333 -1.2788 -0.6346  0.4974
 3342SOL    HW221486   1.038   1.285  11.444  0.2728 -0.0397 -0.9624
 3343SOL     OW21487   1.370   1.901   8.842 -0.5072 -0.2550 -0.4474
 3343SOL    HW121488   1.396   1.958   8.915 -0.6705 -1.2680  0.4093
 3343SOL    HW221489   1.441   1.888   8.780 -1.2036 -1.2288 -1.0503
 3344SOL     OW21490   1.029   3.498   5.280 -0.4303  0.2449 -0.6601
 3344SOL    HW121491   1.018   3.559   5.352 -0.8029  0.6323 -1.0429
 3344SOL    HW221492   0.948   3.448   5.293  0.3051 -0.2977  1.7736
 3345SOL     OW21493   4.486   2.429   3.799  0.2559 -0.1077  0.9284
 3345SOL    HW121494   4.526   2.404   3.716 -0.6355  1.7804 -0.0732
 3345SOL    HW221495   4.507   2.522   3.797  0.1091 -0.0778  0.7278
 3346SOL     OW21496   1.991   0.462   7.540 -0.4471  0.0292 -0.0817
 3346SOL    HW121497   2.019   0.486   7.451  0.9935  0.7399  0.5732
 3346SOL    HW221498   1.982   0.367   7.533  0.8599 -0.1248  0.3766
 3347SOL     OW21499   2.816   3.525   8.150  0.6102 -0.0410  0.0247
 3347SOL    HW121500   2.724   3.547   8.166  0.0265 -0.4452 -2.7716
 3347SOL    HW221501   2.846   3.610   8.119  0.2846 -0.1710 -0.6505
 3348SOL     OW21502   2.494   0.522  13.853 -0.0625 -0.7047  0.5299
 3348SOL    HW121503   2.442   0.600  13.836  1.0487  0.1036  0.8522
 3348SOL    HW221504   2.438   0.477  13.916 -1.2091  0.0606  0.0601
 3349SOL     OW21505   1.080   1.829   5.130 -0.2165 -0.2847 -0.5599
 3349SOL    HW121506   1.154   1.886   5.115  0.5876 -0.9126  1.0261
 3349SOL    HW221507   1.062   1.811   5.038 -0.5620  0.2052 -0.5869
 3350SOL     OW21508   0.441   1.835  15.877 -0.5409  0.4021 -0.6283
 3350SOL    HW121509   0.396   1.775  15.817  1.2957  0.9335 -2.5504
 3350SOL    HW221510   0.517   1.866  15.828 -1.4212  1.9577 -0.9924
 3351SOL     OW21511   4.716   0.355   7.234 -0.1126 -0.1648  0.2031
 3351SOL    HW121512   0.034   0.308   7.161  2.9917  0.0097  1.7778
 3351SOL    HW221513   0.074   0.389   7.274  0.5665  0.8183 -2.0151
 3352SOL     OW21514   0.719   1.312  11.913 -0.1608 -0.7417 -0.0903
 3352SOL    HW121515   0.691   1.314  12.004 -0.1887 -1.8112 -0.0780
 3352SOL    HW221516   0.753   1.398  11.891  0.9435 -1.5719 -1.6279
 3353SOL     OW21517   2.528   3.667  15.231 -0.1959 -0.1586  0.2150
 3353SOL    HW121518   2.454   3.606  15.234 -0.4829  0.1475 -0.6276
 3353SOL    HW221519   2.481   3.750  15.242 -0.4870 -0.7792  3.6497
 3354SOL     OW21520   1.986   1.555  10.856  0.5469  0.5780 -0.3620
 3354SOL    HW121521   1.931   1.482  10.883 -0.6473  1.4909 -0.3131
 3354SOL    HW221522   2.067   1.516  10.888 -0.3134 -0.9986 -0.1094
 3355SOL     OW21523   3.877   2.417   9.774 -0.0663  0.3390  0.3933
 3355SOL    HW121524   3.923   2.362   9.711 -2.0322 -1.4055  0.4420
 3355SOL    HW221525   3.915   2.502   9.754 -0.1036 -0.3242 -2.5039
 3356SOL     OW21526   0.218   0.285  16.874  0.0129 -0.1592 -0.4929
 3356SOL    HW121527   0.269   0.211  16.841 -1.4446 -0.3373 -2.3507
 3356SOL    HW221528   0.153   0.237  16.924  1.7184 -3.0676 -1.0368
 3357SOL     OW21529   1.799   1.644   5.177  0.2046 -0.4628 -0.2748
 3357SOL    HW121530   1.845   1.670   5.097 -3.1511 -1.2206 -2.4809
 3357SOL    HW221531   1.717   1.620   5.133  0.8735  1.4103 -2.5655
 3358SOL     OW21532   3.302   2.941   5.602 -0.0242  0.6009  0.1788
 3358SOL    HW121533   3.240   2.872   5.579 -0.6112  0.9317  0.7735
 3358SOL    HW221534   3.361   2.884   5.651  0.8546 -0.5539 -2.2198
 3359SOL     OW21535   1.253   3.942  15.220  0.1744 -0.2023  0.1067
 3359SOL    HW121536   1.336   3.983  15.245  0.1684 -0.1315  0.0115
 3359SOL    HW221537   1.199   3.956  15.298 -0.3540 -0.2678 -0.2498
 3360SOL     OW21538   2.583   1.020   8.297  0.3969  0.6576  0.0002
 3360SOL    HW121539   2.638   1.097   8.285  2.7982 -0.8670  1.0725
 3360SOL    HW221540   2.617   0.971   8.372  1.5630  1.2760 -0.1216
 3361SOL     OW21541   4.678   0.629   3.409  0.1914  0.6075 -0.1492
 3361SOL    HW121542   4.599   0.585   3.378 -0.0310  0.4151  0.7034
 3361SOL    HW221543   0.015   0.599   3.339  0.2314  1.4260 -0.4627
 3362SOL     OW21544   1.369   1.049  13.974  0.8668 -0.0328 -0.5320
 3362SOL    HW121545   1.404   1.136  13.993  2.6549 -0.6280 -1.0687
 3362SOL    HW221546   1.277   1.075  13.971  1.3930  1.8571 -0.5606
 3363SOL     OW21547   0.852   4.549  10.303  0.1720  0.0789 -0.0122
 3363SOL    HW121548   0.882   4.461  10.282  1.7993  0.8664 -1.1268
 3363SOL    HW221549   0.927   4.588  10.348  1.2542 -1.9694 -0.0342
 3364SOL     OW21550   0.242   4.720   2.787 -0.5101 -0.4129 -0.2612
 3364SOL    HW121551   0.190   0.063   2.834  1.0270  1.8565 -1.6797
 3364SOL    HW221552   0.304   4.686   2.851 -0.9602 -1.3631 -0.3143
 3365SOL     OW21553   0.570   0.197   5.775 -0.2077  0.2898 -0.4244
 3365SOL    HW121554   0.624   0.276   5.768  2.3529 -1.3071  1.4579
 3365SOL    HW221555   0.550   0.215   5.867 -1.0717 -0.6416 -0.4339
 3366SOL     OW21556   3.697   3.724   3.816  0.1217 -0.1092 -0.2372
 3366SOL    HW121557   3.680   3.678   3.899  1.4087  1.2211  0.7615
 3366SOL    HW221558   3.759   3.659   3.783  1.9670  0.7703  1.5524
 3367SOL     OW21559   0.760   2.928  12.197 -0.1241  0.1964 -0.6864
 3367SOL    HW121560   0.786   3.011  12.157 -0.4962  1.3088  1.4070
 3367SOL    HW221561   0.820   2.873  12.146 -0.1717  2.3920 -3.1347
 3368SOL     OW21562   3.659   4.379   9.189 -0.4356  0.4012  0.3005
 3368SOL    HW121563   3.640   4.291   9.220  0.8651 -0.1353 -0.4410
 3368SOL    HW221564   3.571   4.392   9.154  0.4754 -2.5095 -3.0173
 3369SOL     OW21565   0.708   2.110   7.554  0.1106 -0.1437  0.0338
 3369SOL    HW121566   0.782   2.163   7.524  0.1549  0.4074  1.1006
 3369SOL    HW221567   0.675   2.165   7.626  1.4724 -1.0729  1.3702
 3370SOL     OW21568   2.064   2.842   4.716 -0.4207 -0.1297  0.6436
 3370SOL    HW121569   2.087   2.827   4.807 -2.0627 -1.4081  0.8514
 3370SOL    HW221570   1.968   2.849   4.718 -0.3968  0.2982  0.1294
 3371SOL     OW21571   0.955   3.293   4.295  0.4417 -0.7779  0.0291
 3371SOL    HW121572   0.898   3.225   4.259 -1.7877  2.3448 -2.2656
 3371SOL    HW221573   0.997   3.254   4.372 -1.8416  1.9028  2.6427
 3372SOL     OW21574   2.338   3.495   3.674  0.2687 -0.3200 -0.3391
 3372SOL    HW121575   2.354   3.581   3.635  2.5746 -0.5719  0.0458
 3372SOL    HW221576   2.243   3.488   3.668  0.2424  0.2962 -0.6331
 3373SOL     OW21577   0.783   1.814  14.741  0.1110 -0.3129  0.4005
 3373SOL    HW121578   0.750   1.866  14.668 -0.1783 -4.3937 -2.3735
 3373SOL    HW221579   0.716   1.833  14.807 -1.1770 -1.2434 -0.6241
 3374SOL     OW21580   2.444   1.290   9.687  0.3586  0.3294 -0.5432
 3374SOL    HW121581   2.393   1.370   9.696 -0.0622 -0.0323  0.3112
 3374SOL    HW221582   2.478   1.291   9.598  0.7886  0.9085 -0.3779
 3375SOL     OW21583   1.789   4.308  11.429  0.5838 -0.1485  0.2675
 3375SOL    HW121584   1.787   4.299  11.524 -0.9118 -1.4178  0.0960
 3375SOL    HW221585   1.819   4.223  11.398 -3.9786 -0.8252 -2.2341
 3376SOL     OW21586   1.611   1.465   8.793 -0.1029  0.6053  0.7818
 3376SOL    HW121587   1.681   1.403   8.772  0.2732  0.7386  1.6402
 3376SOL    HW221588   1.533   1.411   8.789  0.1588  0.2767  0.1083
 3377SOL     OW21589   3.314   3.665  17.338  0.6438 -0.2289 -0.0383
 3377SOL    HW121590   3.365   3.743  17.316  0.1560  0.7479  2.2829
 3377SOL    HW221591   3.340   3.626  17.255  1.1527  0.0208  0.0036
 3378SOL     OW21592   1.814   0.807   1.320  0.0263 -0.1723 -0.1866
 3378SOL    HW121593   1.736   0.829   1.267 -1.6652 -1.9995  1.5706
 3378SOL    HW221594   1.858   0.749   1.258 -0.7248  1.0774 -1.9333
 3379SOL     OW21595   3.000   1.915   3.177 -0.5724  0.3855 -0.3900
 3379SOL    HW121596   2.973   1.901   3.086  3.2008  0.7744 -1.5861
 3379SOL    HW221597   3.015   1.824   3.201  2.5081  0.3434 -2.3562
 3380SOL     OW21598   1.836   1.052  10.877 -0.2505 -0.5195 -0.0879
 3380SOL    HW121599   1.840   1.138  10.834  0.7165 -0.8551 -0.6713
 3380SOL    HW221600   1.914   1.009  10.840  0.7254 -1.2764  2.8723
 3381SOL     OW21601   4.457   2.377  17.140  0.3168  0.4575 -0.0247
 3381SOL    HW121602   4.446   2.340  17.227 -1.2504  0.1709 -0.3427
 3381SOL    HW221603   4.505   2.455  17.170 -1.2824  1.1974  0.5776
 3382SOL     OW21604   0.266   2.761  13.443 -0.0259  0.2675  0.2713
 3382SOL    HW121605   0.264   2.718  13.358 -1.6728 -1.8465  1.3477
 3382SOL    HW221606   0.234   2.847  13.418  2.2466  0.4986 -1.8309
 3383SOL     OW21607   3.422   4.309  14.705 -0.2923 -0.0069  0.0148
 3383SOL    HW121608   3.513   4.306  14.733 -0.0726  1.9309 -0.4614
 3383SOL    HW221609   3.426   4.281  14.614  1.5068 -0.6243  0.2969
 3384SOL     OW21610   3.797   4.656   2.852  0.2976 -0.2429  0.6445
 3384SOL    HW121611   3.772   4.707   2.929 -0.4913  1.7842 -0.9666
 3384SOL    HW221612   3.714   4.617   2.827  1.0366  0.5892 -3.0127
 3385SOL     OW21613   3.452   4.117  17.584 -0.4363 -0.4542  0.3526
 3385SOL    HW121614   3.534   4.116  17.535 -1.7480  1.0593 -1.8543
 3385SOL    HW221615   3.387   4.147  17.521 -0.2879  2.5330  1.5801
 3386SOL     OW21616   0.007   2.150   2.026  0.5580  0.6238 -0.0469
 3386SOL    HW121617   4.684   2.066   2.015  0.6130  0.5241  0.4630
 3386SOL    HW221618   0.033   2.158   1.935  0.1297 -1.3960 -0.3439
 3387SOL     OW21619   3.931   3.903   1.505 -0.4154  0.0338 -0.0732
 3387SOL    HW121620   4.024   3.919   1.497 -0.4619  0.4189  0.1602
 3387SOL    HW221621   3.921   3.847   1.583 -0.9692  0.6228  0.2764
 3388SOL     OW21622   1.171   2.031   7.744  0.1838 -0.4799 -0.6301
 3388SOL    HW121623   1.117   1.999   7.672  1.7837  0.2712 -2.1713
 3388SOL    HW221624   1.188   2.123   7.722 -1.4339 -0.6113 -2.4287
 3389SOL     OW21625   4.043   0.383  12.568  0.2853  0.1075 -0.1493
 3389SOL    HW121626   3.970   0.380  12.506 -0.9058  1.8613  1.1588
 3389SOL    HW221627   4.072   0.292  12.577  0.5640 -0.0179 -2.4578
 3390SOL     OW21628   2.594   4.639   7.304  0.4622 -0.2028 -0.4796
 3390SOL    HW121629   2.570   4.579   7.375  0.6256  0.3958  0.0880
 3390SOL    HW221630   2.542   4.588   7.242 -1.0699  1.5106 -0.5961
 3391SOL     OW21631   3.838   1.025   4.898  0.4592 -0.5697  0.0944
 3391SOL    HW121632   3.923   1.033   4.940 -0.5164 -2.5907  2.4995
 3391SOL    HW221633   3.860   1.055   4.810 -0.2794 -0.3145 -0.0032
 3392SOL     OW21634   1.612   4.418  10.614  0.5287  0.0203 -0.2243
 3392SOL    HW121635   1.590   4.325  10.603 -2.5649  0.8989 -1.3973
 3392SOL    HW221636   1.674   4.416  10.687 -3.1818  0.7637  2.9543
 3393SOL     OW21637   0.473   1.660   1.869  0.5883 -0.1615 -0.4123
 3393SOL    HW121638   0.466   1.610   1.788  0.2279  0.9753 -1.0938
 3393SOL    HW221639   0.568   1.672   1.866  0.7359 -1.2910 -0.0070
 3394SOL     OW21640   3.768   3.894  11.846  0.4656  0.0808 -0.2747
 3394SOL    HW121641   3.708   3.826  11.817 -0.8315  0.6679  1.0463
 3394SOL    HW221642   3.835   3.836  11.884  0.1425 -0.1151 -0.0030
 3395SOL     OW21643   3.899   2.416   8.222  0.1779  0.4436  0.3511
 3395SOL    HW121644   3.841   2.345   8.252  1.0042  0.9839  3.2448
 3395SOL    HW221645   3.954   2.366   8.162 -1.5068 -1.1276  0.1118
 3396SOL     OW21646   0.334   3.492   6.052  0.2452  0.3090 -0.2456
 3396SOL    HW121647   0.339   3.470   5.959  0.0029 -1.3771  0.1464
 3396SOL    HW221648   0.426   3.504   6.075 -0.4262  2.9707  1.0896
 3397SOL     OW21649   1.142   4.107   9.729  0.5923  0.0285  0.1620
 3397SOL    HW121650   1.234   4.127   9.713  0.3466  2.7293  2.1028
 3397SOL    HW221651   1.126   4.013   9.721 -0.0544  0.0455  1.2326
 3398SOL     OW21652   1.227   0.617  10.822 -0.1925 -0.4476 -0.2026
 3398SOL    HW121653   1.150   0.670  10.843  1.2068  0.4916  2.4836
 3398SOL    HW221654   1.292   0.683  10.845 -0.3349 -0.0498 -0.9307
 3399SOL     OW21655   2.992   1.975   0.623 -0.0204 -0.6001  0.1389
 3399SOL    HW121656   2.967   1.903   0.565 -1.0826  0.4954 -0.7347
 3399SOL    HW221657   3.012   1.928   0.704  1.9609 -0.0220 -0.0085
 3400SOL     OW21658   4.295   3.854   1.765  0.3229  0.2141 -0.2853
 3400SOL    HW121659   4.328   3.840   1.676 -2.0110 -2.1774 -0.7681
 3400SOL    HW221660   4.203   3.864   1.742  0.1694  0.2888  0.3756
 3401SOL     OW21661   2.423   2.124   7.437  0.2627  0.3648 -0.0299
 3401SOL    HW121662   2.438   2.042   7.484 -2.3357  0.4388  0.9029
 3401SOL    HW221663   2.487   2.125   7.366  1.2437  0.9711  0.8510
 3402SOL     OW21664   0.376   4.373   6.285  0.3571 -0.1229  0.2587
 3402SOL    HW121665   0.312   4.443   6.281 -0.2241 -0.6804 -0.3377
 3402SOL    HW221666   0.351   4.325   6.364  0.8372 -2.4943 -1.0034
 3403SOL     OW21667   2.736   0.265   9.094 -0.3901 -0.2608 -0.0657
 3403SOL    HW121668   2.716   0.343   9.042  0.3473 -0.1795 -0.2200
 3403SOL    HW221669   2.697   0.286   9.179 -0.4935 -0.2538 -0.1141
 3404SOL     OW21670   0.178   2.859   1.520  0.2723 -1.0018  0.6725
 3404SOL    HW121671   0.271   2.836   1.523  0.4263 -0.0185  3.4177
 3404SOL    HW221672   0.150   2.819   1.602 -0.2813  0.9754  1.4552
 3405SOL     OW21673   3.564   3.329  13.659  0.0151 -0.9167 -0.2002
 3405SOL    HW121674   3.485   3.279  13.679 -0.4812  1.1754  3.0558
 3405SOL    HW221675   3.560   3.409  13.711  2.2196  1.1554 -3.2202
 3406SOL     OW21676   0.558   2.392   6.134 -0.0815 -0.1429  0.0357
 3406SOL    HW121677   0.599   2.433   6.058  2.1843 -1.8893  0.3288
 3406SOL    HW221678   0.606   2.309   6.130  0.0838 -0.0488  0.1149
 3407SOL     OW21679   1.387   3.686  10.789  0.3136 -0.5771 -0.5608
 3407SOL    HW121680   1.412   3.756  10.727  0.5829  0.6045  0.8785
 3407SOL    HW221681   1.388   3.732  10.873  3.4728  0.3253 -1.0681
 3408SOL     OW21682   4.540   3.573   7.016 -0.4631 -0.0985  0.3666
 3408SOL    HW121683   4.497   3.513   7.076 -0.7121 -0.0729  0.2142
 3408SOL    HW221684   4.621   3.587   7.064 -1.1433 -1.3035  1.8581
 3409SOL     OW21685   3.886   4.145   7.625  0.1822 -0.9523  0.2010
 3409SOL    HW121686   3.869   4.236   7.603  0.7352 -1.0652 -0.6920
 3409SOL    HW221687   3.894   4.102   7.540  2.5617 -2.0897  1.0003
 3410SOL     OW21688   1.455   2.964   7.111  0.1494  0.5950  0.1784
 3410SOL    HW121689   1.434   2.911   7.034  0.5740  1.3049 -0.4139
 3410SOL    HW221690   1.546   2.941   7.127  0.3998  1.3605 -0.1666
 3411SOL     OW21691   4.130   4.292   8.392 -0.5050 -0.1642  0.1339
 3411SOL    HW121692   4.142   4.200   8.371 -1.8144 -0.1454 -0.7298
 3411SOL    HW221693   4.193   4.308   8.462  2.4485 -0.0801 -2.5353
 3412SOL     OW21694   4.561   1.702   2.790 -0.9432  0.1324  0.3229
 3412SOL    HW121695   4.561   1.723   2.697  1.9490  1.6538  0.6638
 3412SOL    HW221696   4.566   1.790   2.827  0.1353 -0.5269  1.7875
 3413SOL     OW21697   3.415   0.213   6.921 -0.7169  0.0433 -0.0014
 3413SOL    HW121698   3.441   0.129   6.882 -1.9952  0.5138 -1.8729
 3413SOL    HW221699   3.320   0.204   6.931 -0.7690 -0.0724 -0.5826
 3414SOL     OW21700   2.450   4.655   5.702 -0.0331 -0.6715  0.0774
 3414SOL    HW121701   2.356   4.667   5.685  0.1505  0.3883 -0.1762
 3414SOL    HW221702   2.457   4.559   5.700  1.0976 -0.5389 -2.1753
 3415SOL     OW21703   4.626   3.436   2.340  0.4134 -0.1036 -0.7056
 3415SOL    HW121704   4.652   3.355   2.296  1.9963  0.0436 -0.0726
 3415SOL    HW221705   4.714   3.445   2.378 -0.2697 -0.2904  0.8948
 3416SOL     OW21706   4.207   3.176  16.893  0.6047 -0.3171 -0.7217
 3416SOL    HW121707   4.185   3.240  16.826 -0.1545  1.5267  1.2704
 3416SOL    HW221708   4.288   3.142  16.857  0.4792 -1.1957 -0.1824
 3417SOL     OW21709   1.616   2.269   3.900  0.8361 -0.2179 -0.0238
 3417SOL    HW121710   1.614   2.295   3.808  2.7472 -1.9478 -0.5557
 3417SOL    HW221711   1.643   2.356   3.928 -0.0498 -0.2837  1.0706
 3418SOL     OW21712   4.710   0.052   2.042  0.3751  0.2975 -0.4764
 3418SOL    HW121713   4.685   0.144   2.045 -0.8641 -0.0652  0.3506
 3418SOL    HW221714   0.042   0.038   2.120  1.3465 -2.0061 -1.5512
 3419SOL     OW21715   2.388   2.466   3.693 -0.3894 -0.0560  0.4789
 3419SOL    HW121716   2.455   2.465   3.624 -1.6798  0.9857 -0.7855
 3419SOL    HW221717   2.349   2.382   3.669 -1.5527  0.1114  1.8387
 3420SOL     OW21718   3.051   0.015   5.475 -0.6480  0.2778 -0.0368
 3420SOL    HW121719   3.011   0.065   5.403 -1.7591 -0.8921 -0.2431
 3420SOL    HW221720   2.976   4.706   5.526 -0.3692  1.2473  0.9495
 3421SOL     OW21721   2.868   3.368  14.693 -0.2870 -0.0764  0.3396
 3421SOL    HW121722   2.821   3.450  14.706  0.3523  0.1567  1.1954
 3421SOL    HW221723   2.936   3.402  14.634  2.8427 -2.4837  2.5150
 3422SOL     OW21724   1.239   3.386   2.664 -0.1181 -0.4007 -0.2251
 3422SOL    HW121725   1.165   3.432   2.624 -2.1385 -2.2853  1.2768
 3422SOL    HW221726   1.197   3.350   2.743  2.7992 -0.2756  1.3792
 3423SOL     OW21727   0.525   1.450   5.171  0.6296 -0.4265  0.0585
 3423SOL    HW121728   0.559   1.363   5.191  2.2928 -0.0374 -1.0741
 3423SOL    HW221729   0.559   1.498   5.247  0.0574  0.2946 -0.1432
 3424SOL     OW21730   0.515   4.683   5.991  0.7112  0.3521  0.3044
 3424SOL    HW121731   0.532   0.002   6.077 -2.3463 -1.1097  1.5868
 3424SOL    HW221732   0.494   0.035   5.934 -1.5455  1.5308  2.6820
 3425SOL     OW21733   2.259   0.250   4.585  0.7281  0.4557 -0.0859
 3425SOL    HW121734   2.223   0.334   4.611 -2.1828 -0.9810  0.4856
 3425SOL    HW221735   2.327   0.273   4.522 -0.0083  0.8462 -0.7341
 3426SOL     OW21736   0.157   4.238  11.902  0.3613  0.3163  0.0123
 3426SOL    HW121737   0.196   4.160  11.940  0.1473 -0.5896 -1.6102
 3426SOL    HW221738   0.178   4.311  11.960 -0.4817  1.8066 -1.5214
 3427SOL     OW21739   4.379   3.367   2.524 -0.2301  0.2882 -0.2507
 3427SOL    HW121740   4.430   3.381   2.444 -0.3267 -0.1429 -0.3843
 3427SOL    HW221741   4.344   3.456   2.537  1.5834  1.1768 -1.5018
 3428SOL     OW21742   1.460   3.187   9.156 -0.3103 -0.1160 -0.0463
 3428SOL    HW121743   1.483   3.227   9.240 -1.1227  0.5077 -0.1189
 3428SOL    HW221744   1.494   3.099   9.175 -1.5866 -1.1129 -2.4283
 3429SOL     OW21745   4.105   3.005   8.918 -0.0567  0.4434  0.1753
 3429SOL    HW121746   4.038   3.073   8.916  0.0828  0.5754 -0.0146
 3429SOL    HW221747   4.085   2.962   9.001 -2.3380  0.4560 -0.3806
 3430SOL     OW21748   3.287   1.230   6.215 -0.1532 -0.4473 -0.0173
 3430SOL    HW121749   3.366   1.282   6.200 -0.6304  0.1523 -0.4722
 3430SOL    HW221750   3.224   1.260   6.148 -0.1539  0.2522  0.2986
 3431SOL     OW21751   1.315   3.927   1.347  0.2257 -0.1261  0.3527
 3431SOL    HW121752   1.316   3.998   1.411  2.0030  0.0133  0.1921
 3431SOL    HW221753   1.312   3.973   1.263  1.9789 -0.2000  0.2447
 3432SOL     OW21754   3.187   1.841   8.917 -0.2736  0.2037 -0.1523
 3432SOL    HW121755   3.259   1.815   8.974  0.2222 -1.2377 -1.4395
 3432SOL    HW221756   3.197   1.776   8.848 -0.0520  1.4448 -1.3040
 3433SOL     OW21757   3.885   3.791   6.861  0.7228  0.4221 -0.5907
 3433SOL    HW121758   3.846   3.719   6.910  2.3085  0.0901  0.1580
 3433SOL    HW221759   3.871   3.868   6.916  0.6151 -0.2203  0.2841
 3434SOL     OW21760   3.281   2.796   0.635  0.4379  0.0804  0.2006
 3434SOL    HW121761   3.376   2.792   0.632  0.4056  0.5124 -1.6398
 3434SOL    HW221762   3.257   2.715   0.680  1.6463 -0.5607 -0.2983
 3435SOL     OW21763   3.924   2.759  13.888  0.2784  0.4081  0.1359
 3435SOL    HW121764   3.851   2.724  13.837 -1.0746 -0.9175  2.9796
 3435SOL    HW221765   3.888   2.813  13.959  0.6281 -2.4325  2.5055
 3436SOL     OW21766   4.237   0.878   8.114 -0.4059  0.1419  0.0100
 3436SOL    HW121767   4.213   0.970   8.121  2.3660  0.8677  0.0163
 3436SOL    HW221768   4.330   0.888   8.135 -0.9069  0.9778  1.8235
 3437SOL     OW21769   2.569   2.336   7.533 -0.4026 -0.3973 -0.0822
 3437SOL    HW121770   2.548   2.418   7.578  2.2257  1.4103 -2.0683
 3437SOL    HW221771   2.488   2.286   7.523 -0.8123 -0.5379  4.2824
 3438SOL     OW21772   4.000   0.733   3.488 -0.2368  0.3166  0.4768
 3438SOL    HW121773   3.934   0.767   3.549 -2.4109  1.0810 -2.3126
 3438SOL    HW221774   3.951   0.686   3.421  1.8674 -0.5726 -0.4265
 3439SOL     OW21775   0.487   4.447   7.590  0.4636 -0.3805 -0.4279
 3439SOL    HW121776   0.403   4.406   7.570  0.0763  0.4934 -0.5433
 3439SOL    HW221777   0.509   4.392   7.666 -1.5714 -0.9415 -0.2610
 3440SOL     OW21778   4.152   3.336   4.128 -0.2738 -0.2323 -0.1776
 3440SOL    HW121779   4.208   3.355   4.204 -0.0064 -1.3721 -0.0930
 3440SOL    HW221780   4.073   3.376   4.163 -0.9206 -1.6564 -0.0385
 3441SOL     OW21781   4.463   0.292   2.677  0.0207  0.4293  0.1506
 3441SOL    HW121782   4.535   0.238   2.644  1.0861  0.0912  3.0321
 3441SOL    HW221783   4.389   0.244   2.638 -1.2185  1.3557  1.3750
 3442SOL     OW21784   2.757   2.021  12.151 -0.3145 -0.0716  0.0032
 3442SOL    HW121785   2.668   1.992  12.170 -0.7026  1.2011  0.1204
 3442SOL    HW221786   2.751   2.116  12.154 -2.9600 -0.2022 -1.4252
 3443SOL     OW21787   4.010   0.967  12.818  0.2958  0.4082  0.2603
 3443SOL    HW121788   4.036   0.920  12.897 -1.5361 -1.1849 -0.0782
 3443SOL    HW221789   4.090   1.013  12.793  0.0952  1.3846  1.4331
 3444SOL     OW21790   0.451   1.569   6.165  0.0297  0.6765 -0.1066
 3444SOL    HW121791   0.362   1.591   6.137 -0.5386 -3.1723 -1.2824
 3444SOL    HW221792   0.445   1.574   6.260 -0.3974 -1.0059 -0.0517
 3445SOL     OW21793   0.055   4.188   8.592 -0.6314 -0.1774  0.3120
 3445SOL    HW121794   0.113   4.250   8.636 -0.1552 -0.2919 -0.1528
 3445SOL    HW221795   0.120   4.145   8.536 -0.3879 -0.2520  0.6539
 3446SOL     OW21796   4.153   0.593   4.811 -0.3836 -0.4272  0.6520
 3446SOL    HW121797   4.060   0.578   4.792 -0.3376 -0.2903  0.3309
 3446SOL    HW221798   4.198   0.540   4.745 -0.8644  1.7800 -1.4324
 3447SOL     OW21799   3.162   3.490   0.284 -0.9838 -0.0716 -0.0414
 3447SOL    HW121800   3.129   3.488   0.373  1.1379 -0.4842  0.7480
 3447SOL    HW221801   3.156   3.584   0.269  1.4890  0.0219 -0.5360
 3448SOL     OW21802   4.490   3.696  15.783 -0.3134  0.0831 -0.0079
 3448SOL    HW121803   4.477   3.729  15.694 -0.2213  1.4371  0.4806
 3448SOL    HW221804   4.551   3.764  15.814 -0.1086  0.3892 -1.0901
 3449SOL     OW21805   4.629   0.783  13.507 -0.2104  0.5282 -0.6786
 3449SOL    HW121806   0.003   0.776  13.506 -0.2778 -0.3204 -1.1403
 3449SOL    HW221807   4.607   0.727  13.582 -0.7976 -1.4198 -2.3127
 3450SOL     OW21808   3.312   1.153   0.763  0.0844 -0.3405  0.0491
 3450SOL    HW121809   3.324   1.058   0.760  3.2368  0.1073 -1.2677
 3450SOL    HW221810   3.247   1.145   0.833 -0.4090 -0.7427 -0.4511
 3451SOL     OW21811   1.374   4.007   1.012  0.2227 -0.1937  0.1889
 3451SOL    HW121812   1.450   3.983   0.959 -0.7148  1.8051 -2.0906
 3451SOL    HW221813   1.375   4.103   1.017  0.9936 -0.1792 -0.2139
 3452SOL     OW21814   3.498   2.696   0.890 -0.3801  0.4990  0.0838
 3452SOL    HW121815   3.541   2.736   0.966  0.2577  0.1213 -0.0831
 3452SOL    HW221816   3.496   2.603   0.911  0.3783 -0.0593 -2.3292
 3453SOL     OW21817   1.456   2.156  11.896 -0.1074  0.4005 -0.3509
 3453SOL    HW121818   1.450   2.070  11.854 -0.7090 -0.8780  2.3973
 3453SOL    HW221819   1.481   2.216  11.826  1.7797 -0.1743 -0.1696
 3454SOL     OW21820   0.300   4.344   9.705 -0.1245 -0.3016 -0.6302
 3454SOL    HW121821   0.301   4.289   9.784  4.4091  0.3818 -0.2223
 3454SOL    HW221822   0.219   4.310   9.667  1.1171 -1.2769 -2.3717
 3455SOL     OW21823   2.749   2.229   7.366 -0.2726 -0.7194  0.1085
 3455SOL    HW121824   2.814   2.298   7.356 -0.9166 -0.1523 -0.2014
 3455SOL    HW221825   2.673   2.276   7.401 -0.0341 -1.4066  1.5642
 3456SOL     OW21826   3.761   4.546  12.891  0.3683  0.0119  0.1837
 3456SOL    HW121827   3.815   4.468  12.893  2.2589  1.3042 -0.6094
 3456SOL    HW221828   3.838   4.602  12.881  0.5580  0.0631  2.0436
 3457SOL     OW21829   2.152   3.434  12.811  0.1664  0.3780  0.4338
 3457SOL    HW121830   2.189   3.476  12.888  0.9780  0.6213 -0.0862
 3457SOL    HW221831   2.217   3.369  12.782  0.4324  0.7825  0.1205
 3458SOL     OW21832   2.119   2.592   9.542  0.2217  0.2897 -0.0939
 3458SOL    HW121833   2.134   2.593   9.448 -2.9782  2.4242 -0.5928
 3458SOL    HW221834   2.162   2.676   9.557 -0.5903  0.7323 -0.2573
 3459SOL     OW21835   0.196   4.032  14.535  0.3157 -0.1917  0.2069
 3459SOL    HW121836   0.281   4.074  14.522 -0.0878  0.6578  0.2728
 3459SOL    HW221837   0.153   4.093  14.595 -0.9106 -0.6993 -0.1504
 3460SOL     OW21838   4.241   3.947   0.299  0.1699 -0.1908  0.5621
 3460SOL    HW121839   4.335   3.945   0.281  0.4146 -0.7610  1.8890
 3460SOL    HW221840   4.228   3.853   0.311 -0.4860 -0.0581  0.8906
 3461SOL     OW21841   2.886   0.548   4.238 -0.3721  0.1224  0.0894
 3461SOL    HW121842   2.900   0.499   4.157 -1.2297  1.7501 -1.0367
 3461SOL    HW221843   2.970   0.593   4.246 -0.8186  1.0703 -0.5567
 3462SOL     OW21844   3.189   3.768   5.786 -0.2166  0.2427  0.0006
 3462SOL    HW121845   3.276   3.805   5.772 -0.5849  1.1763  0.1933
 3462SOL    HW221846   3.216   3.698   5.845 -0.7303 -0.8890 -1.0940
 3463SOL     OW21847   4.482   1.309   0.022  0.2269  0.4167 -0.2736
 3463SOL    HW121848   4.504   1.247  17.642  2.0082  1.6314 -0.8032
 3463SOL    HW221849   4.525   1.271   0.099 -2.7958  1.2348  1.7941
 3464SOL     OW21850   0.643   1.473   6.004 -0.4055 -0.2316  0.4805
 3464SOL    HW121851   0.598   1.520   6.074  0.0409  0.1603  0.5065
 3464SOL    HW221852   0.730   1.514   6.002 -0.4066 -0.3504 -1.8589
 3465SOL     OW21853   2.481   4.078  16.074  0.2844 -0.0877  0.2863
 3465SOL    HW121854   2.477   4.144  16.143  0.1076 -1.5169  1.6617
 3465SOL    HW221855   2.448   4.133  16.004  1.4363 -2.8173 -2.3906
 3466SOL     OW21856   3.327   1.965   8.486 -0.2941 -0.0040 -0.4900
 3466SOL    HW121857   3.270   2.037   8.514 -0.8829 -0.8540  0.4663
 3466SOL    HW221858   3.260   1.911   8.445 -0.2776 -1.1357  0.9883
 3467SOL     OW21859   2.337   0.300   7.348  0.2371 -0.0473 -0.4442
 3467SOL    HW121860   2.345   0.247   7.269 -1.6117 -0.3108 -0.4507
 3467SOL    HW221861   2.247   0.275   7.368  1.4263 -1.9643  2.5592
 3468SOL     OW21862   1.819   4.367   7.138  0.0779  0.2104 -0.3225
 3468SOL    HW121863   1.735   4.399   7.173  0.7623  0.5118  1.0404
 3468SOL    HW221864   1.834   4.438   7.075 -1.5205  1.2473  0.4672
 3469SOL     OW21865   0.500   1.495  16.279 -0.1521  0.4164  0.1452
 3469SOL    HW121866   0.510   1.404  16.250  1.0787  0.9709 -1.1740
 3469SOL    HW221867   0.505   1.529  16.189 -0.0482  0.4901  0.1786
 3470SOL     OW21868   3.275   2.392   6.000  0.3092  0.6675  0.9535
 3470SOL    HW121869   3.294   2.306   5.962  1.6298  1.2915  0.2228
 3470SOL    HW221870   3.265   2.363   6.091  3.1909 -2.8825  0.1745
 3471SOL     OW21871   2.508   4.161  16.553  0.0166  0.1044 -0.0483
 3471SOL    HW121872   2.535   4.080  16.597  0.0164  0.4911  0.6621
 3471SOL    HW221873   2.448   4.199  16.617 -0.3871  2.8417 -2.0379
 3472SOL     OW21874   0.239   3.265   0.304  0.0560 -0.1643  0.2078
 3472SOL    HW121875   0.296   3.338   0.281  0.7551 -1.0655 -0.9504
 3472SOL    HW221876   0.249   3.259   0.399 -0.3952  1.4077  0.3518
 3473SOL     OW21877   4.344   2.836  16.094 -0.5278  0.3789 -0.3837
 3473SOL    HW121878   4.310   2.865  16.179 -1.9671 -2.3201 -0.0482
 3473SOL    HW221879   4.341   2.741  16.102  0.9066  0.2406 -1.6374
 3474SOL     OW21880   1.898   3.119   4.423  0.1876  0.2839  0.3238
 3474SOL    HW121881   1.839   3.045   4.441  0.2950  0.7922  2.7994
 3474SOL    HW221882   1.888   3.143   4.331 -0.2908  0.9172  0.5451
 3475SOL     OW21883   1.278   2.326  16.763  0.6669 -0.4154 -0.5563
 3475SOL    HW121884   1.354   2.323  16.706  0.6472  0.6484 -0.6308
 3475SOL    HW221885   1.206   2.276  16.724 -0.4907  1.5040 -0.8478
 3476SOL     OW21886   2.660   2.732   3.034 -0.1673 -0.4423 -0.2801
 3476SOL    HW121887   2.637   2.821   3.009  0.8148  0.3454  1.5926
 3476SOL    HW221888   2.662   2.691   2.948 -2.6441 -0.1619 -0.4573
 3477SOL     OW21889   0.660   0.759   8.516  0.1874  0.5089  0.3869
 3477SOL    HW121890   0.754   0.771   8.528  0.0792 -0.5646  2.2982
 3477SOL    HW221891   0.663   0.672   8.476 -0.6789 -0.2498  1.9527
 3478SOL     OW21892   2.069   1.097  13.836 -0.2387 -0.4016 -0.3500
 3478SOL    HW121893   2.149   1.060  13.873  0.0467 -0.5402 -1.1066
 3478SOL    HW221894   2.095   1.064  13.750 -1.2029  0.4472 -0.9648
 3479SOL     OW21895   0.112   3.875   3.879  0.1929  0.0015 -0.2949
 3479SOL    HW121896   0.130   3.859   3.972  2.7468 -1.2637 -1.0026
 3479SOL    HW221897   0.061   3.795   3.865  1.0866 -0.7667  0.8907
 3480SOL     OW21898   4.105   1.249  11.498 -0.0622 -0.3103  0.2703
 3480SOL    HW121899   4.175   1.199  11.540 -0.8679 -0.2483  1.6816
 3480SOL    HW221900   4.160   1.323  11.471  1.7863 -1.5598  0.6551
 3481SOL     OW21901   4.254   3.605   9.138  0.0269 -0.0661  0.0260
 3481SOL    HW121902   4.259   3.669   9.209 -2.0341  2.6567 -2.2583
 3481SOL    HW221903   4.278   3.523   9.181 -0.6876 -1.0581 -1.4618
 3482SOL     OW21904   2.215   1.573   9.254  0.7350  0.4946 -0.6771
 3482SOL    HW121905   2.237   1.639   9.187  2.5264 -0.0472 -0.6126
 3482SOL    HW221906   2.302   1.539   9.274 -0.5475 -1.7017  1.0517
 3483SOL     OW21907   2.749   2.436   1.332 -0.1996 -0.0707  0.1335
 3483SOL    HW121908   2.789   2.440   1.245 -1.3467 -0.3040 -0.4077
 3483SOL    HW221909   2.655   2.441   1.315 -0.3020  2.4898  1.4163
 3484SOL     OW21910   3.378   0.772   8.380 -0.4254 -0.5095  0.0109
 3484SOL    HW121911   3.377   0.715   8.457 -2.2913  0.4698  0.7163
 3484SOL    HW221912   3.401   0.699   8.322 -1.3446  0.6185 -1.7411
 3485SOL     OW21913   2.041   3.047   9.843 -0.2155 -0.4550  0.2777
 3485SOL    HW121914   2.121   2.995   9.835 -0.0046  0.0315 -0.8602
 3485SOL    HW221915   2.076   3.136   9.843  1.0606 -0.9505 -0.6894
 3486SOL     OW21916   2.269   3.617   8.587  0.5795 -0.5385  0.7299
 3486SOL    HW121917   2.346   3.562   8.596  0.2790 -1.4487 -2.3103
 3486SOL    HW221918   2.312   3.703   8.584 -0.0403 -0.1673  2.3145
 3487SOL     OW21919   2.811   2.935   5.532 -0.4823 -0.0212  0.5611
 3487SOL    HW121920   2.872   2.943   5.605 -1.7868  0.1535  1.6345
 3487SOL    HW221921   2.806   3.030   5.520  1.9816 -0.0075 -0.1824
 3488SOL     OW21922   4.009   0.729   7.782 -0.1585 -0.2032  0.4552
 3488SOL    HW121923   4.049   0.668   7.843 -0.6551 -1.4429 -0.4738
 3488SOL    HW221924   4.064   0.807   7.790 -1.1075  0.7758 -2.6980
 3489SOL     OW21925   0.089   1.599  16.873 -0.7662  0.1595  0.4473
 3489SOL    HW121926   0.120   1.689  16.876 -1.4446  0.3668  1.4602
 3489SOL    HW221927   0.058   1.596  16.783 -0.1355 -1.8348  0.2887
 3490SOL     OW21928   4.582   4.395   2.592  0.3184  0.1718  0.3391
 3490SOL    HW121929   4.600   4.448   2.670  3.7270 -0.1966 -0.2166
 3490SOL    HW221930   4.666   4.350   2.581  0.6216  1.5874 -3.1323
 3491SOL     OW21931   4.262   0.133   6.137 -0.1879  0.0211 -0.5671
 3491SOL    HW121932   4.192   0.125   6.073 -0.1977 -1.7541 -0.3365
 3491SOL    HW221933   4.218   0.174   6.211  0.3285  1.3349 -0.9846
 3492SOL     OW21934   4.055   0.041   3.387  0.1767  0.2530 -0.1441
 3492SOL    HW121935   4.107   0.116   3.360  0.5117  0.1451  0.2052
 3492SOL    HW221936   3.968   0.081   3.399 -0.4099 -0.3417 -2.4886
 3493SOL     OW21937   3.682   2.180  17.555  0.0971  0.2152  0.1256
 3493SOL    HW121938   3.770   2.177  17.519 -1.0282 -1.9293 -2.4485
 3493SOL    HW221939   3.636   2.165  17.473 -1.1117  2.8053  0.3320
 3494SOL     OW21940   1.168   2.580  17.282  0.4475  0.2452 -0.4477
 3494SOL    HW121941   1.139   2.668  17.260  1.8109  0.4971 -1.2561
 3494SOL    HW221942   1.258   2.578  17.315  0.7704 -0.4221 -1.3506
 3495SOL     OW21943   4.256   3.388   4.363 -0.5710 -0.1958 -0.3341
 3495SOL    HW121944   4.224   3.406   4.451  1.0888  0.7919  0.0553
 3495SOL    HW221945   4.255   3.293   4.371 -0.5610 -0.1888 -0.2534
 3496SOL     OW21946   0.659   3.392   8.600 -0.0551 -0.0794  0.3634
 3496SOL    HW121947   0.630   3.482   8.613 -1.6382 -0.6321  0.6907
 3496SOL    HW221948   0.597   3.344   8.654  1.6893 -1.5800  1.0586
 3497SOL     OW21949   0.898   3.963   2.199 -0.3978 -0.0194  0.6630
 3497SOL    HW121950   0.926   3.972   2.109 -1.4411 -0.1540  0.3180
 3497SOL    HW221951   0.806   3.939   2.186 -0.2740 -0.1707  0.0808
 3498SOL     OW21952   3.148   3.575   0.579  0.0887  0.1070 -0.0711
 3498SOL    HW121953   3.194   3.659   0.589 -1.5740  1.1794 -1.6397
 3498SOL    HW221954   3.071   3.590   0.633  0.1682  2.1592 -0.5150
 3499SOL     OW21955   1.664   1.770   6.421 -0.2538 -0.1365  0.1438
 3499SOL    HW121956   1.600   1.723   6.367  0.1160 -0.8123  0.2992
 3499SOL    HW221957   1.609   1.837   6.461 -0.2442 -0.5055  0.7657
 3500SOL     OW21958   4.281   3.266   9.702  0.3865  0.3793  0.1011
 3500SOL    HW121959   4.338   3.340   9.724  1.8851 -0.9275  0.6194
 3500SOL    HW221960   4.334   3.203   9.654 -2.2106 -2.1003  0.4926
 3501SOL     OW21961   1.192   1.169   4.387 -1.0752  0.0189  0.1061
 3501SOL    HW121962   1.177   1.245   4.331  2.4000 -0.7862 -1.9245
 3501SOL    HW221963   1.135   1.100   4.353  1.8079 -1.4433 -1.7855
 3502SOL     OW21964   1.951   4.121  13.601  0.4052 -0.4247  0.1860
 3502SOL    HW121965   1.908   4.097  13.519  0.8522 -0.7600  0.0519
 3502SOL    HW221966   1.881   4.143  13.662 -0.4607 -0.6031 -0.7470
 3503SOL     OW21967   2.272   4.402   2.829  0.0464 -1.0106 -0.5564
 3503SOL    HW121968   2.209   4.417   2.900 -3.2024  0.2100 -3.7032
 3503SOL    HW221969   2.351   4.392   2.883 -0.5400 -0.6836  0.3547
 3504SOL     OW21970   2.780   4.696  16.171 -0.6310  0.4201  0.3239
 3504SOL    HW121971   2.776   4.635  16.097 -0.1308 -1.9838  2.2663
 3504SOL    HW221972   2.696   4.673  16.210  0.3032 -0.8650  1.5579
 3505SOL     OW21973   1.688   0.899   9.458 -1.0938  0.6959  0.1302
 3505SOL    HW121974   1.645   0.815   9.439 -0.8372  1.4097 -3.5724
 3505SOL    HW221975   1.657   0.947   9.382  0.2402  1.2496 -0.0593
 3506SOL     OW21976   3.805   1.995   6.969  0.1675 -0.5240  0.1864
 3506SOL    HW121977   3.838   2.059   6.906 -1.9588 -1.6559 -2.0832
 3506SOL    HW221978   3.732   2.044   7.005 -1.0973 -0.5997 -2.2236
 3507SOL     OW21979   3.181   4.305   8.142  0.0387 -0.1174  0.2571
 3507SOL    HW121980   3.217   4.369   8.203 -2.9031  1.6607  0.1253
 3507SOL    HW221981   3.231   4.226   8.163  0.9309  0.7584  1.4354
 3508SOL     OW21982   0.447   3.912  11.631 -0.2329  0.0672 -0.3390
 3508SOL    HW121983   0.537   3.918  11.663  0.4067  2.7816 -2.6703
 3508SOL    HW221984   0.466   3.878  11.543  1.1570  4.0791 -1.5788
 3509SOL     OW21985   4.003   0.992   5.342  0.0691 -0.3715 -0.1217
 3509SOL    HW121986   4.017   1.081   5.373 -0.4377 -0.6132  0.7984
 3509SOL    HW221987   4.070   0.951   5.396  1.9062  2.6967 -0.0849
 3510SOL     OW21988   3.538   3.329   3.027  0.1085 -0.7914 -0.0934
 3510SOL    HW121989   3.533   3.371   2.942 -0.8365 -1.0823 -0.1841
 3510SOL    HW221990   3.593   3.392   3.073  0.2163  0.7927 -2.4127
 3511SOL     OW21991   3.152   1.869   5.937 -0.4227 -0.7534  0.0753
 3511SOL    HW121992   3.224   1.807   5.935 -0.4439 -0.7784  0.0831
 3511SOL    HW221993   3.135   1.861   6.031  0.7556 -1.3606  0.2279
 3512SOL     OW21994   4.683   3.434   9.027 -0.1808  0.2776  0.4842
 3512SOL    HW121995   4.697   3.346   9.064 -3.1460 -0.4495 -0.1437
 3512SOL    HW221996   4.589   3.442   9.039  0.1411  1.2908  2.2714
 3513SOL     OW21997   2.653   2.457   8.036  0.0838  0.0145  0.2920
 3513SOL    HW121998   2.606   2.512   7.973 -1.6710 -0.4336  1.1961
 3513SOL    HW221999   2.689   2.527   8.091  0.1918  0.7740 -0.7576
 3514SOL     OW22000   4.237   2.096   4.564 -0.0706 -0.6305 -0.1618
 3514SOL    HW122001   4.309   2.096   4.501 -3.3593  2.1677 -3.9801
 3514SOL    HW222002   4.269   2.031   4.626  1.8308 -1.1371 -1.6849
 3515SOL     OW22003   1.719   4.194   3.753  0.2787 -0.3378  0.8183
 3515SOL    HW122004   1.772   4.255   3.700  1.5491 -0.1152  2.3321
 3515SOL    HW222005   1.725   4.239   3.837 -2.9867  0.8076  0.4231
 3516SOL     OW22006   2.893   2.982   2.848  0.0473 -0.2019 -0.5781
 3516SOL    HW122007   2.971   3.001   2.796  0.2088  0.0443 -0.2426
 3516SOL    HW222008   2.862   2.909   2.794 -1.6829  0.4257 -0.4188
 3517SOL     OW22009   0.217   1.892   0.850 -0.6040 -0.0437  0.4667
 3517SOL    HW122010   0.164   1.970   0.868  1.0070  1.1826 -0.1451
 3517SOL    HW222011   0.193   1.874   0.760  0.7446  1.1314 -0.1290
 3518SOL     OW22012   0.831   4.248   2.644  0.2742 -0.5092  0.4062
 3518SOL    HW122013   0.753   4.196   2.630  1.3544 -1.4605 -2.0789
 3518SOL    HW222014   0.886   4.214   2.573  2.2671  1.1325  1.1581
 3519SOL     OW22015   2.230   1.518  11.884  0.1759  0.1296 -0.2753
 3519SOL    HW122016   2.169   1.578  11.927  1.2666 -1.0425  2.9417
 3519SOL    HW222017   2.304   1.578  11.871  0.5638 -0.2678  0.0827
 3520SOL     OW22018   1.588   4.093   5.272 -0.0500  0.1109  0.6185
 3520SOL    HW122019   1.611   4.105   5.180  0.5251 -0.0412  0.7422
 3520SOL    HW222020   1.600   3.998   5.282  0.3312 -0.0519 -1.4571
 3521SOL     OW22021   4.720   3.076   6.683  0.1210  0.3326  0.3111
 3521SOL    HW122022   4.693   3.150   6.629  0.1539  0.4330  0.4298
 3521SOL    HW222023   0.079   3.048   6.640 -1.0665 -1.7795 -0.5275
 3522SOL     OW22024   2.835   3.691   4.778  0.1423  0.2747 -0.0521
 3522SOL    HW122025   2.747   3.657   4.791  0.4490 -1.3048 -2.0513
 3522SOL    HW222026   2.855   3.626   4.710  1.5753 -1.8697  2.4303
 3523SOL     OW22027   0.057   3.590   7.131 -0.0489  0.3770  0.6315
 3523SOL    HW122028   0.109   3.653   7.082 -0.9159  0.6937  0.1215
 3523SOL    HW222029   0.117   3.517   7.147  0.1268  0.3515 -0.1649
 3524SOL     OW22030   1.022   1.386   3.147 -0.4481 -0.6569  0.8941
 3524SOL    HW122031   0.966   1.336   3.088  1.2716 -0.4040 -0.9412
 3524SOL    HW222032   1.091   1.320   3.149  1.0629  0.9220  0.6907
 3525SOL     OW22033   0.880   4.498   2.168 -0.2590  0.1002  0.3909
 3525SOL    HW122034   0.843   4.565   2.111 -0.9451 -0.0359  0.6747
 3525SOL    HW222035   0.873   4.539   2.254  0.8848  1.0872  0.0176
 3526SOL     OW22036   1.136   1.644  10.390  0.1420 -0.0402  0.2354
 3526SOL    HW122037   1.210   1.641  10.451  0.1619 -1.6736  0.1371
 3526SOL    HW222038   1.146   1.565  10.337 -0.5146 -0.6894  1.0810
 3527SOL     OW22039   1.365   2.187   0.916 -0.1855 -0.0874 -0.3594
 3527SOL    HW122040   1.300   2.166   0.984 -2.4290 -0.1214 -2.4875
 3527SOL    HW222041   1.404   2.264   0.958  0.5921  1.2832 -3.5822
 3528SOL     OW22042   2.721   0.968   9.460  0.4118 -0.3586 -0.1006
 3528SOL    HW122043   2.816   0.953   9.456  0.5929  1.0064 -0.8693
 3528SOL    HW222044   2.695   0.922   9.380  3.5282  1.1349 -1.9659
 3529SOL     OW22045   2.661   0.305   8.146 -0.1814 -0.4390 -0.3717
 3529SOL    HW122046   2.679   0.286   8.239 -1.1294  2.9117  0.4730
 3529SOL    HW222047   2.567   0.323   8.144  0.0342  0.6600 -0.5528
 3530SOL     OW22048   4.637   1.806   6.445 -0.0102 -0.2306 -0.1319
 3530SOL    HW122049   4.582   1.784   6.520 -2.8224 -0.4734 -2.2532
 3530SOL    HW222050   4.617   1.900   6.446  1.0535 -0.0235  2.5801
 3531SOL     OW22051   4.699   1.207   2.713 -0.4187 -0.4380  0.1938
 3531SOL    HW122052   4.709   1.124   2.760 -0.4788 -0.6378 -0.1471
 3531SOL    HW222053   4.608   1.225   2.736  0.6077  1.8764  2.4777
 3532SOL     OW22054   3.430   2.171   1.045 -0.7312 -0.2226  0.2138
 3532SOL    HW122055   3.354   2.132   1.087 -1.8470  3.4542  1.6265
 3532SOL    HW222056   3.491   2.098   1.057  1.0040  1.3808  1.1948
 3533SOL     OW22057   3.402   3.144   0.127 -0.0072 -0.0196  0.1348
 3533SOL    HW122058   3.447   3.223   0.097 -2.8747  1.5910 -0.0251
 3533SOL    HW222059   3.439   3.091   0.057  0.2706 -1.1778  1.1605
 3534SOL     OW22060   0.232   3.088   6.898 -0.0040 -0.6209  0.2600
 3534SOL    HW122061   0.246   3.034   6.976  1.6982 -0.4505  0.0555
 3534SOL    HW222062   0.183   3.166   6.923  1.4841  0.0025  1.2132
 3535SOL     OW22063   1.343   1.639   8.649 -0.5594  0.8965 -0.3330
 3535SOL    HW122064   1.407   1.639   8.577 -0.1264 -0.3772  0.0362
 3535SOL    HW222065   1.318   1.546   8.647  1.6667  0.3062 -1.4748
 3536SOL     OW22066   4.428   2.649   8.131  0.4319  0.0121 -0.6865
 3536SOL    HW122067   4.488   2.724   8.131  1.3250 -0.6898 -2.1851
 3536SOL    HW222068   4.446   2.601   8.211  1.3849  0.0203 -0.8896
 3537SOL     OW22069   2.403   1.068  13.298 -0.1945  0.1712  0.4258
 3537SOL    HW122070   2.498   1.081  13.294  0.0036 -1.0330  1.2187
 3537SOL    HW222071   2.396   1.029  13.385 -0.1870 -1.0740 -0.1313
 3538SOL     OW22072   1.714   3.827   1.338 -0.0773 -0.0910 -0.4286
 3538SOL    HW122073   1.726   3.751   1.280  1.5546  0.1049 -0.3344
 3538SOL    HW222074   1.804   3.848   1.360 -0.0289 -0.1934 -0.5268
 3539SOL     OW22075   3.417   0.851   2.373 -0.1239 -0.1625 -0.0773
 3539SOL    HW122076   3.447   0.760   2.381  0.4266 -0.1459 -2.0161
 3539SOL    HW222077   3.409   0.883   2.462 -0.1265  0.5883 -0.3517
 3540SOL     OW22078   3.870   1.701  15.268 -0.2624 -0.1866 -0.5638
 3540SOL    HW122079   3.811   1.757  15.218  0.4747  0.1259 -1.0881
 3540SOL    HW222080   3.815   1.641  15.319  1.2386 -1.0200  0.0933
 3541SOL     OW22081   4.233   0.167   3.764  0.4003 -0.8968  0.5124
 3541SOL    HW122082   4.311   0.170   3.709  0.2467 -0.4177  0.3249
 3541SOL    HW222083   4.188   0.100   3.712  0.0695 -0.6356  0.4613
 3542SOL     OW22084   4.454   3.118  15.248 -0.0856 -0.5600 -0.6139
 3542SOL    HW122085   4.376   3.154  15.206  0.8247 -3.4818 -4.8349
 3542SOL    HW222086   4.522   3.164  15.198  1.2252 -1.7776  0.0506
 3543SOL     OW22087   4.023   3.185   2.217  0.2369 -0.3961  0.1008
 3543SOL    HW122088   4.022   3.148   2.306  1.5009  0.1186  0.3302
 3543SOL    HW222089   4.095   3.137   2.174 -1.6653 -1.6454 -1.6846
 3544SOL     OW22090   3.175   3.678  16.347  0.1295 -0.6070 -0.4590
 3544SOL    HW122091   3.120   3.648  16.420  0.6694 -3.0491 -1.0515
 3544SOL    HW222092   3.253   3.703  16.396 -0.0688  2.7351 -1.8793
 3545SOL     OW22093   3.509   3.288   4.377  0.5544 -0.5627  0.1110
 3545SOL    HW122094   3.549   3.339   4.306 -0.4821 -0.0602 -0.1247
 3545SOL    HW222095   3.483   3.355   4.441  1.6219 -1.2364  1.2554
 3546SOL     OW22096   0.128   1.358   0.680  0.4596  0.1742 -0.0528
 3546SOL    HW122097   0.128   1.447   0.645 -1.5190 -0.8596 -2.6922
 3546SOL    HW222098   0.083   1.374   0.763 -2.2510 -0.2602 -1.4490
 3547SOL     OW22099   2.543   2.689   3.510 -0.5495  0.4252  0.3004
 3547SOL    HW122100   2.501   2.732   3.436 -1.0760  0.7194  0.7603
 3547SOL    HW222101   2.548   2.598   3.483  0.2737  0.6404 -0.2563
 3548SOL     OW22102   3.102   1.616   5.710 -0.2246  0.2644 -0.1969
 3548SOL    HW122103   3.049   1.665   5.773 -0.0621  0.3989 -0.1638
 3548SOL    HW222104   3.160   1.688   5.686  1.7411 -0.5278  2.2125
 3549SOL     OW22105   1.874   0.536   8.002  0.4656 -0.2639 -0.1012
 3549SOL    HW122106   1.967   0.549   8.020  0.8946 -3.7111  0.2339
 3549SOL    HW222107   1.871   0.490   7.918  0.3916 -0.4697  0.0141
 3550SOL     OW22108   2.900   4.340   8.813  0.0132  0.4466 -0.2598
 3550SOL    HW122109   2.842   4.279   8.859 -1.2505  1.0067 -1.0957
 3550SOL    HW222110   2.956   4.351   8.889 -1.6247 -1.2642  1.2054
 3551SOL     OW22111   0.716   3.798   1.157  0.2351  0.5153  0.0412
 3551SOL    HW122112   0.622   3.796   1.174  0.2793  1.4484  0.4381
 3551SOL    HW222113   0.726   3.704   1.142 -1.9676  0.1168  1.1444
 3552SOL     OW22114   1.068   4.099   6.727  0.2457 -0.2797 -0.1999
 3552SOL    HW122115   1.005   4.067   6.791 -0.5441  1.6767 -0.0104
 3552SOL    HW222116   1.006   4.134   6.663 -2.2422  0.5262  2.6283
 3553SOL     OW22117   3.271   3.088   2.793  0.4113 -0.4876 -0.5740
 3553SOL    HW122118   3.222   3.167   2.771  0.5297 -0.3610 -0.3917
 3553SOL    HW222119   3.346   3.111   2.739  1.7982 -1.9012  0.7715
 3554SOL     OW22120   3.310   1.175   0.026  0.3011  0.9460  0.1222
 3554SOL    HW122121   3.375   1.235  17.679  0.5836  1.3873  1.3623
 3554SOL    HW222122   3.309   1.111  17.644 -1.1500  1.2865 -0.1548
 3555SOL     OW22123   4.145   3.106  11.711 -0.3665  0.0561  0.1123
 3555SOL    HW122124   4.176   3.057  11.634  1.1164 -0.2160  0.8748
 3555SOL    HW222125   4.112   3.180  11.660 -0.3849  0.1110  0.2048
 3556SOL     OW22126   1.067   0.969   7.559  0.1036 -0.0735  0.4246
 3556SOL    HW122127   1.090   1.043   7.616 -0.2833 -0.8818  1.6200
 3556SOL    HW222128   1.150   0.922   7.559  0.0729 -0.1245  0.8887
 3557SOL     OW22129   4.040   0.872  15.100 -0.0973 -0.4875 -0.1812
 3557SOL    HW122130   4.098   0.797  15.088 -0.5337 -0.8062 -0.3203
 3557SOL    HW222131   3.972   0.851  15.164 -1.0172 -1.0131 -1.3347
 3558SOL     OW22132   1.224   3.353   7.665  0.1000 -0.0885 -0.4187
 3558SOL    HW122133   1.181   3.402   7.595 -2.1325 -3.0571 -1.1202
 3558SOL    HW222134   1.155   3.293   7.693 -1.0487  1.2709 -0.3485
 3559SOL     OW22135   3.416   2.303  11.895 -0.3198  0.4425  0.9292
 3559SOL    HW122136   3.341   2.282  11.839 -0.5658  0.1985  1.3549
 3559SOL    HW222137   3.481   2.337  11.832 -0.4955 -0.2671  0.3720
 3560SOL     OW22138   3.923   2.730   3.366 -0.0690 -0.1803  0.4252
 3560SOL    HW122139   3.934   2.661   3.301 -0.9705  0.8288 -0.8030
 3560SOL    HW222140   3.923   2.809   3.313  1.3002 -0.0557  0.6213
 3561SOL     OW22141   1.142   1.790   0.066  0.4527  0.7569  0.1439
 3561SOL    HW122142   1.100   1.811   0.150 -1.7937  0.8518 -0.9948
 3561SOL    HW222143   1.225   1.746   0.084 -0.9667 -1.6730  0.7684
 3562SOL     OW22144   2.929   0.245   5.309 -0.3208  0.3335  0.2246
 3562SOL    HW122145   2.883   0.314   5.356  0.4695  0.8591  0.2232
 3562SOL    HW222146   2.989   0.303   5.262 -0.9889  1.6362  1.0034
 3563SOL     OW22147   1.902   2.068   2.321  0.0424 -0.0581  0.4272
 3563SOL    HW122148   1.872   2.001   2.383  0.7472  0.0900  0.9272
 3563SOL    HW222149   1.835   2.073   2.252 -1.2934  1.1054  1.8059
 3564SOL     OW22150   1.190   4.176   1.262 -0.5127 -0.2149  0.4804
 3564SOL    HW122151   1.166   4.243   1.199 -0.1848 -1.3198 -0.8173
 3564SOL    HW222152   1.110   4.124   1.270 -1.1598  1.0468  2.2574
 3565SOL     OW22153   2.200   0.949  13.643  0.2329  0.2220  0.1153
 3565SOL    HW122154   2.198   0.859  13.677 -1.0001  0.2250  0.0688
 3565SOL    HW222155   2.146   0.939  13.565  0.7798  0.0414 -0.2323
 3566SOL     OW22156   4.342   4.216   5.098  0.5656 -0.1567 -0.8582
 3566SOL    HW122157   4.264   4.193   5.048  0.0955 -1.9259  0.6933
 3566SOL    HW222158   4.410   4.188   5.037  1.1684 -1.5369  0.4583
 3567SOL     OW22159   4.462   1.545   6.041 -0.3513  0.5352  0.3071
 3567SOL    HW122160   4.463   1.555   6.136 -2.1038 -1.5897  0.5588
 3567SOL    HW222161   4.470   1.450   6.030 -0.5114  0.7760 -1.8957
 3568SOL     OW22162   3.673   4.405   3.400 -0.4365 -0.8128  0.5058
 3568SOL    HW122163   3.741   4.458   3.440  1.2524 -2.1408 -0.5662
 3568SOL    HW222164   3.639   4.481   3.353  1.9629 -0.8819 -1.3859
 3569SOL     OW22165   1.924   0.124   5.570 -0.3068 -0.1137  0.0445
 3569SOL    HW122166   1.942   0.031   5.559 -1.8316 -0.0692 -2.7266
 3569SOL    HW222167   1.866   0.131   5.646 -2.3393 -2.8821 -1.2582
 3570SOL     OW22168   3.900   2.847   4.038  0.3916 -0.5118  0.4443
 3570SOL    HW122169   3.947   2.813   4.114 -2.1679 -0.5680  2.0109
 3570SOL    HW222170   3.915   2.941   4.045 -0.5589 -0.2541 -0.8826
 3571SOL     OW22171   2.789   0.423  17.257 -0.8035  0.1005  0.0988
 3571SOL    HW122172   2.740   0.346  17.228 -0.4895 -0.5535  1.2979
 3571SOL    HW222173   2.802   0.459  17.169  2.4857 -0.2095  0.4768
 3572SOL     OW22174   3.843   3.148   7.085 -0.0716 -0.4642  0.5383
 3572SOL    HW122175   3.815   3.137   7.176  0.3161 -3.2633  0.3065
 3572SOL    HW222176   3.760   3.183   7.052  0.6215  0.8775  0.2301
 3573SOL     OW22177   1.252   1.051   2.955  0.1259  0.0738  0.1988
 3573SOL    HW122178   1.289   0.967   2.928 -0.0628 -0.0373  0.2856
 3573SOL    HW222179   1.230   1.108   2.881 -0.9363 -0.6833 -0.0621
 3574SOL     OW22180   1.423   3.318   5.513 -0.0698 -0.0679 -0.2327
 3574SOL    HW122181   1.489   3.383   5.490 -2.3654  2.4434  0.2392
 3574SOL    HW222182   1.379   3.312   5.428 -0.3247  1.5856 -0.2149
 3575SOL     OW22183   3.236   3.520   7.543 -0.5442 -0.4594 -0.5720
 3575SOL    HW122184   3.264   3.560   7.626  1.2918 -1.6234 -0.6266
 3575SOL    HW222185   3.315   3.473   7.516 -0.7641 -0.9192 -0.4322
 3576SOL     OW22186   2.125   2.603   7.972 -0.0155 -0.3997 -0.3387
 3576SOL    HW122187   2.165   2.522   7.941 -1.9481 -1.1829 -0.7469
 3576SOL    HW222188   2.201   2.661   7.984 -0.4896  0.9836 -3.9644
 3577SOL     OW22189   3.577   4.121   3.160 -0.1384 -0.3161  0.0399
 3577SOL    HW122190   3.482   4.132   3.149 -0.3015 -1.6493  0.1589
 3577SOL    HW222191   3.600   4.210   3.131  0.7060 -0.4829  0.2111
 3578SOL     OW22192   2.686   2.192   3.105 -0.0782 -0.2824 -0.0803
 3578SOL    HW122193   2.692   2.286   3.087  0.5207 -0.5547 -1.2778
 3578SOL    HW222194   2.773   2.162   3.081 -0.0972  0.0296 -0.5354
 3579SOL     OW22195   2.758   1.421   3.638 -0.5049 -0.5907  0.5577
 3579SOL    HW122196   2.724   1.478   3.569 -1.1779  1.1225  2.3028
 3579SOL    HW222197   2.772   1.337   3.594  0.3233  0.0923 -0.5069
 3580SOL     OW22198   1.180   0.449   6.128 -0.0468  0.5266 -0.7389
 3580SOL    HW122199   1.174   0.385   6.057  0.2565 -2.4979  2.0167
 3580SOL    HW222200   1.095   0.493   6.136 -2.4970 -4.5833  1.3585
 3581SOL     OW22201   1.867   3.074   0.924 -0.2375 -0.1651  0.4330
 3581SOL    HW122202   1.821   3.074   1.008  2.4841 -2.0325  1.9347
 3581SOL    HW222203   1.887   2.982   0.907  0.2717 -0.1892  1.1306
 3582SOL     OW22204   3.186   3.011   6.726 -0.9412  0.1722  0.2100
 3582SOL    HW122205   3.205   3.038   6.636 -2.6808 -0.9116 -0.4754
 3582SOL    HW222206   3.178   2.917   6.712  0.7163  0.0849 -0.2080
 3583SOL     OW22207   1.208   2.564   5.462 -0.2455  0.5425  0.4472
 3583SOL    HW122208   1.276   2.618   5.502  0.9398 -1.4802  1.1514
 3583SOL    HW222209   1.240   2.558   5.371 -2.1579  1.0659 -0.2562
 3584SOL     OW22210   4.563   4.046   5.015  0.0765 -0.1356  0.1892
 3584SOL    HW122211   4.640   4.029   4.960  0.3719  0.7888  0.3207
 3584SOL    HW222212   4.604   4.061   5.100 -0.3954  1.4304  0.1277
 3585SOL     OW22213   1.938   2.540  11.610 -0.0824  0.5260 -0.3928
 3585SOL    HW122214   1.860   2.510  11.657  1.0360  0.7187  1.5856
 3585SOL    HW222215   1.957   2.455  11.571 -0.0883  1.2145 -1.9140
 3586SOL     OW22216   1.142   4.621   6.993  0.0179 -0.2177 -0.4742
 3586SOL    HW122217   1.178   4.652   7.076 -1.7153 -0.6940  0.4451
 3586SOL    HW222218   1.222   4.605   6.943 -0.9787 -1.8920 -1.5785
 3587SOL     OW22219   1.506   1.010   6.043  0.0874  0.0183  0.4525
 3587SOL    HW122220   1.579   1.055   6.084 -0.0968 -0.5595  1.4068
 3587SOL    HW222221   1.537   0.920   6.043 -1.2652 -0.4528 -0.2877
 3588SOL     OW22222   2.618   4.413  14.890  0.0004 -0.3947 -0.2203
 3588SOL    HW122223   2.687   4.367  14.843 -0.2895 -0.6649 -0.3812
 3588SOL    HW222224   2.548   4.415  14.825 -1.0918 -1.6004  0.9205
 3589SOL     OW22225   1.544   3.397   8.969  0.0191  0.4475 -0.5848
 3589SOL    HW122226   1.527   3.356   8.885  0.7009 -1.1219  0.0454
 3589SOL    HW222227   1.524   3.330   9.034  0.8006  1.8371  1.0996
 3590SOL     OW22228   0.180   0.822  11.851 -0.5124  0.2304 -0.3839
 3590SOL    HW122229   0.185   0.902  11.903 -0.6118 -0.0723  0.0871
 3590SOL    HW222230   0.128   0.768  11.911  1.2122 -1.6122 -0.5675
 3591SOL     OW22231   2.778   4.381  12.039  0.3504  1.0141 -0.0874
 3591SOL    HW122232   2.750   4.440  11.968  1.7599  0.2782 -1.2548
 3591SOL    HW222233   2.860   4.424  12.066  0.4566  0.0727  1.0565
 3592SOL     OW22234   3.221   1.825   7.014 -0.2426 -0.0531 -0.3000
 3592SOL    HW122235   3.311   1.842   6.987 -0.9176  2.1762 -1.1495
 3592SOL    HW222236   3.229   1.791   7.103 -0.1299  0.2492 -0.1957
 3593SOL     OW22237   1.083   3.498   9.067 -0.3539 -0.7597 -0.0608
 3593SOL    HW122238   1.136   3.427   9.031 -0.7306 -0.5341 -1.0449
 3593SOL    HW222239   1.072   3.542   8.983 -1.7803 -0.4258  0.2999
 3594SOL     OW22240   4.592   0.271  16.048 -0.5753  0.6595  1.0780
 3594SOL    HW122241   4.556   0.337  15.988  1.3684 -0.8061 -1.6974
 3594SOL    HW222242   4.564   0.186  16.014  0.8375  0.2145  0.9974
 3595SOL     OW22243   4.090   3.843   7.113  0.7333  0.0357  0.1394
 3595SOL    HW122244   4.033   3.916   7.087 -0.6266  0.2143  3.6646
 3595SOL    HW222245   4.160   3.890   7.159 -0.5483 -0.1044  2.2022
 3596SOL     OW22246   2.432   3.125   3.824  0.0809  0.4868 -0.0479
 3596SOL    HW122247   2.374   3.056   3.857  0.7203  1.3426  2.9189
 3596SOL    HW222248   2.499   3.130   3.893 -0.7595  0.1669  0.7802
 3597SOL     OW22249   0.246   0.562  16.923 -0.3843  0.1445 -0.1899
 3597SOL    HW122250   0.306   0.569  16.848 -1.6166  0.4064 -1.1646
 3597SOL    HW222251   0.241   0.467  16.920  1.2665  0.0276  0.9388
 3598SOL     OW22252   1.255   1.529   5.077 -0.8524  0.3398 -0.8726
 3598SOL    HW122253   1.333   1.563   5.035  0.1753  0.1600  0.8770
 3598SOL    HW222254   1.244   1.586   5.153 -0.9909 -0.4644 -0.2786
 3599SOL     OW22255   0.195   3.364   7.151 -0.6679 -0.4391  0.3007
 3599SOL    HW122256   0.154   3.319   7.077  0.7007  2.1967 -2.0188
 3599SOL    HW222257   0.285   3.365   7.120 -0.4221 -0.4446  0.9989
 3600SOL     OW22258   3.820   1.812   2.700  0.3869 -0.5432  0.0738
 3600SOL    HW122259   3.906   1.826   2.662 -0.4701  1.7198 -1.0745
 3600SOL    HW222260   3.766   1.886   2.672 -2.2182 -2.2793  0.4431
 3601SOL     OW22261   0.290   2.787   2.368  0.7748 -0.3272 -0.0608
 3601SOL    HW122262   0.346   2.737   2.427 -1.0441 -1.9114  0.3103
 3601SOL    HW222263   0.337   2.869   2.378 -0.6885  0.5047  0.0108
 3602SOL     OW22264   2.869   1.392   3.245 -0.2260 -0.3054  0.5760
 3602SOL    HW122265   2.783   1.360   3.274 -0.8187 -0.1141 -0.9595
 3602SOL    HW222266   2.854   1.376   3.151  0.8661  1.1781  0.1488
 3603SOL     OW22267   4.581   3.844   1.192 -0.2396  0.7693 -0.0803
 3603SOL    HW122268   4.501   3.887   1.220 -0.1980  1.1553 -0.5634
 3603SOL    HW222269   4.599   3.795   1.273 -0.8429  2.3184  0.9867
 3604SOL     OW22270   0.493   3.341   8.817  0.3699  0.3413 -0.1872
 3604SOL    HW122271   0.419   3.382   8.772 -0.3522 -0.3330  0.3959
 3604SOL    HW222272   0.536   3.419   8.853 -0.3202  0.3425  0.6307
 3605SOL     OW22273   0.951   4.385   1.527 -0.0477  0.1168 -0.1853
 3605SOL    HW122274   0.952   4.470   1.482  1.3733 -0.0428 -0.4644
 3605SOL    HW222275   0.866   4.369   1.567  0.1071  0.4653  0.2859
 3606SOL     OW22276   3.210   4.213  15.589 -0.3569  0.0030 -0.4415
 3606SOL    HW122277   3.288   4.267  15.600 -0.6201  0.2080  0.4051
 3606SOL    HW222278   3.168   4.244  15.509 -0.3888 -0.2717 -0.5305
 3607SOL     OW22279   4.183   1.787  15.896  0.3858  0.3018  0.3746
 3607SOL    HW122280   4.094   1.797  15.862  0.0336 -0.7897  0.9698
 3607SOL    HW222281   4.229   1.768  15.815 -0.9138  2.4857 -0.8835
 3608SOL     OW22282   3.376   4.440  15.520  0.1862  0.0052  0.0752
 3608SOL    HW122283   3.291   4.483  15.508  0.4276  0.8325  1.3101
 3608SOL    HW222284   3.395   4.451  15.614  0.8017  0.9589 -0.1599
 3609SOL     OW22285   3.407   1.469  13.160  0.0490 -0.1738 -0.0995
 3609SOL    HW122286   3.493   1.499  13.187 -0.3987  0.5899  0.4878
 3609SOL    HW222287   3.393   1.517  13.079 -0.9166 -2.1188 -1.0851
 3610SOL     OW22288   1.415   2.779  10.016 -0.7970 -0.4545 -0.1924
 3610SOL    HW122289   1.326   2.800  10.043 -0.0262  0.3889  1.7758
 3610SOL    HW222290   1.418   2.701  10.072  0.7157 -0.4550 -0.2702
 3611SOL     OW22291   2.096   0.550   8.464 -0.5031  0.1386  0.1909
 3611SOL    HW122292   2.078   0.623   8.404 -1.7658  0.4807  0.9823
 3611SOL    HW222293   2.123   0.583   8.549 -0.3307  2.1680 -0.6475
 3612SOL     OW22294   1.877   3.219   4.157  0.2218  0.3050 -0.2172
 3612SOL    HW122295   1.865   3.158   4.084  1.6481  2.0416 -1.8962
 3612SOL    HW222296   1.944   3.279   4.124  0.4798  0.7651  1.1526
 3613SOL     OW22297   2.511   2.467   5.425 -0.5068 -0.0409 -0.2596
 3613SOL    HW122298   2.507   2.558   5.396  0.7179 -0.2049 -0.9631
 3613SOL    HW222299   2.589   2.457   5.480 -1.5987 -0.8322  1.1130
 3614SOL     OW22300   0.694   1.983   2.582 -0.0403 -0.1150 -0.1070
 3614SOL    HW122301   0.744   2.062   2.563 -0.0612  0.0605  0.5872
 3614SOL    HW222302   0.742   1.945   2.655  0.4032  2.9249  1.1946
 3615SOL     OW22303   1.041   1.634   7.418  0.4437  0.6639  0.5850
 3615SOL    HW122304   1.013   1.621   7.509 -0.2071 -1.5113  0.0881
 3615SOL    HW222305   0.974   1.697   7.391 -1.9986 -1.8831  0.6845
 3616SOL     OW22306   0.498   4.686   4.536  0.5984  0.2312  0.2428
 3616SOL    HW122307   0.477   0.046   4.582  1.5988  0.9267 -0.5269
 3616SOL    HW222308   0.495   4.720   4.447  0.5749 -0.8925 -0.1774
 3617SOL     OW22309   1.003   0.459   4.949  0.0598 -0.5211 -1.0066
 3617SOL    HW122310   0.980   0.533   4.892  0.5222 -1.1968 -2.0666
 3617SOL    HW222311   0.968   0.384   4.901 -0.1197  0.1507 -1.9264
 3618SOL     OW22312   3.081   2.885   3.629  0.2548 -0.3690 -0.7301
 3618SOL    HW122313   2.988   2.893   3.609  0.0581 -2.5880 -0.7249
 3618SOL    HW222314   3.094   2.798   3.591 -1.5488 -1.3038  0.7939
 3619SOL     OW22315   4.228   1.815   6.720 -0.1649  0.3804 -0.0562
 3619SOL    HW122316   4.196   1.855   6.639 -1.2343  0.0975  0.2260
 3619SOL    HW222317   4.142   1.815   6.763 -0.5894 -0.1959 -0.9169
 3620SOL     OW22318   1.727   2.082   6.158 -0.8262  0.4334 -0.8138
 3620SOL    HW122319   1.734   2.045   6.070 -1.2843  0.1016 -0.7108
 3620SOL    HW222320   1.776   2.018   6.209 -0.3370  1.8509  0.4915
 3621SOL     OW22321   2.473   4.211   0.867 -0.1175  0.4121 -0.8163
 3621SOL    HW122322   2.448   4.133   0.918 -1.3081  0.1045 -1.8647
 3621SOL    HW222323   2.391   4.260   0.880  0.5417  0.8501  1.8156
 3622SOL     OW22324   1.137   0.284   7.446 -0.3289 -0.1860 -0.4725
 3622SOL    HW122325   1.195   0.327   7.383  1.8681 -2.1795  0.2079
 3622SOL    HW222326   1.148   0.356   7.509 -0.4968  0.0277 -0.6862
 3623SOL     OW22327   4.074   0.354  14.260 -0.5169  0.3116 -0.0996
 3623SOL    HW122328   4.141   0.316  14.202  0.3042 -0.6495  1.4888
 3623SOL    HW222329   4.118   0.422  14.312  1.2803 -0.5137 -0.5300
 3624SOL     OW22330   0.679   0.511   8.323 -0.4309  0.1184 -0.1167
 3624SOL    HW122331   0.708   0.550   8.241  0.4160  0.7914  0.5037
 3624SOL    HW222332   0.622   0.442   8.289  0.3773  0.5633 -2.3895
 3625SOL     OW22333   3.355   1.331   6.851 -0.1591  0.4919 -0.7346
 3625SOL    HW122334   3.334   1.335   6.757 -1.4701  0.9258 -0.4216
 3625SOL    HW222335   3.268   1.306   6.882  0.5821 -2.3310 -0.9500
 3626SOL     OW22336   0.713   0.660  13.465 -0.2782  0.3296 -0.5215
 3626SOL    HW122337   0.800   0.627  13.488  1.2036  3.7929 -1.2226
 3626SOL    HW222338   0.664   0.581  13.488  0.9729  0.4313  2.4420
 3627SOL     OW22339   1.861   0.570   0.718  0.0410  0.4497 -0.4311
 3627SOL    HW122340   1.942   0.611   0.748 -0.5471  1.4402 -0.2176
 3627SOL    HW222341   1.894   0.481   0.706 -1.3973 -0.0771 -0.5409
 3628SOL     OW22342   4.507   3.556   0.692 -0.1103  0.2584  1.1984
 3628SOL    HW122343   4.488   3.587   0.604 -1.0947 -0.7974  1.0311
 3628SOL    HW222344   4.563   3.480   0.678  0.1430  0.4474  1.1954
 3629SOL     OW22345   3.591   2.300  10.932  0.1049  0.0407 -0.4126
 3629SOL    HW122346   3.617   2.388  10.904  0.6742  0.0058  0.0054
 3629SOL    HW222347   3.596   2.245  10.854 -0.0982 -0.0793 -0.3401
 3630SOL     OW22348   1.100   2.965   6.735  0.4022  0.7890 -0.5971
 3630SOL    HW122349   1.113   2.987   6.827 -0.5240  0.8213 -0.4734
 3630SOL    HW222350   1.100   3.052   6.695 -0.4746  0.4992 -1.2242
 3631SOL     OW22351   4.247   2.925   4.609  0.2079  0.6418 -0.4487
 3631SOL    HW122352   4.250   2.968   4.694  0.4396 -1.6506  0.7031
 3631SOL    HW222353   4.327   2.872   4.616  0.2451  0.6083 -1.1260
 3632SOL     OW22354   1.773   0.856   4.852 -0.4368 -0.7350  0.5012
 3632SOL    HW122355   1.762   0.854   4.947 -0.0968  0.6089  0.5699
 3632SOL    HW222356   1.691   0.816   4.822 -1.6666  0.1704  2.7003
 3633SOL     OW22357   2.223   2.858   9.753  0.0720 -0.1867  0.2531
 3633SOL    HW122358   2.308   2.814   9.752 -0.0556 -0.4883  2.9838
 3633SOL    HW222359   2.199   2.832   9.664  0.9723 -1.9401  0.5158
 3634SOL     OW22360   3.563   2.067   8.540  0.2400 -0.7173  0.2613
 3634SOL    HW122361   3.573   2.158   8.513  1.4097 -1.0348 -0.3599
 3634SOL    HW222362   3.490   2.030   8.491 -1.1225  0.1413  1.6336
 3635SOL     OW22363   2.393   4.288   4.771  0.0478  0.1884 -0.1472
 3635SOL    HW122364   2.332   4.359   4.752 -0.1020  0.3800  1.0528
 3635SOL    HW222365   2.369   4.240   4.692 -0.2642  0.2278 -0.0772
 3636SOL     OW22366   2.444   2.367   1.808  0.5147 -0.3536 -0.1895
 3636SOL    HW122367   2.407   2.432   1.868  0.5662 -0.0582 -0.4714
 3636SOL    HW222368   2.523   2.412   1.778  0.4846 -0.0401  0.2077
 3637SOL     OW22369   0.921   1.961  10.435  0.3984  0.0559  0.0021
 3637SOL    HW122370   0.851   1.927  10.491  0.5988  1.8980  1.3528
 3637SOL    HW222371   0.915   2.055  10.448 -0.2926 -0.1037  0.8264
 3638SOL     OW22372   0.955   3.355  13.880 -0.4924  0.1520 -0.1701
 3638SOL    HW122373   1.015   3.331  13.810  0.3198 -0.2034  0.6389
 3638SOL    HW222374   0.872   3.372  13.835 -1.8922 -1.1717  1.8659
 3639SOL     OW22375   4.708   1.894   8.356 -0.3704  0.1063  0.7891
 3639SOL    HW122376   4.633   1.944   8.390 -0.5192  0.0691  0.5162
 3639SOL    HW222377   0.019   1.952   8.287  0.2871 -1.1097  0.0768
 3640SOL     OW22378   1.172   2.826   7.197 -0.3150  0.3759 -0.4862
 3640SOL    HW122379   1.185   2.903   7.143  0.1789 -0.7047 -1.8902
 3640SOL    HW222380   1.202   2.856   7.283  0.0412  0.4527 -0.6394
 3641SOL     OW22381   2.165   4.285   6.763 -0.1620  0.1882 -0.0879
 3641SOL    HW122382   2.091   4.230   6.737  0.9060 -1.5378  0.4976
 3641SOL    HW222383   2.158   4.352   6.695 -0.7899  1.5087  1.2929
 3642SOL     OW22384   2.558   3.494   6.309 -0.2733  0.0587 -0.0196
 3642SOL    HW122385   2.630   3.512   6.250  0.0789 -0.7326  0.1718
 3642SOL    HW222386   2.542   3.581   6.346  0.8961  0.8235 -1.3078
 3643SOL     OW22387   2.089   4.141   4.890 -0.1003  0.4609 -0.0615
 3643SOL    HW122388   2.146   4.167   4.818 -1.1099  0.8131 -0.7290
 3643SOL    HW222389   2.062   4.051   4.874 -1.2378  0.7838  0.0324
 3644SOL     OW22390   1.626   4.365   7.996  0.0606 -0.1495  0.1760
 3644SOL    HW122391   1.683   4.373   8.072 -0.7646 -0.4128  0.8160
 3644SOL    HW222392   1.539   4.382   8.031 -0.5110 -1.5094 -0.5819
 3645SOL     OW22393   0.721   1.223   2.500 -0.0948 -0.6935 -0.1198
 3645SOL    HW122394   0.648   1.284   2.506  1.7088  1.4665  0.0771
 3645SOL    HW222395   0.723   1.189   2.410  1.1176  0.2664 -0.4554
 3646SOL     OW22396   2.153   3.061  12.816  0.2584  0.6145 -0.3057
 3646SOL    HW122397   2.096   3.059  12.893 -0.6148 -1.4337 -1.0270
 3646SOL    HW222398   2.162   2.969  12.794 -0.4422 -0.1495  2.5539
 3647SOL     OW22399   0.602   2.592   6.687  0.5575 -0.5257  0.1899
 3647SOL    HW122400   0.594   2.569   6.779  0.0112  0.6210  0.4267
 3647SOL    HW222401   0.513   2.570   6.662  1.1618 -2.0268 -0.6641
 3648SOL     OW22402   2.344   2.314  15.704 -0.0834 -0.1583  0.5355
 3648SOL    HW122403   2.438   2.324  15.714  0.1980 -0.7800 -1.5526
 3648SOL    HW222404   2.331   2.220  15.712 -2.3987  0.1641  0.6983
 3649SOL     OW22405   3.335   4.665   2.283 -0.1351 -0.0378 -0.1138
 3649SOL    HW122406   3.299   4.658   2.195  1.0654 -0.5257 -0.5657
 3649SOL    HW222407   3.378   4.580   2.291 -0.0636  0.0630  0.5722
 3650SOL     OW22408   1.572   0.955   6.713 -0.1258  0.1496  0.3312
 3650SOL    HW122409   1.594   0.971   6.621  0.4782  1.1062  0.6427
 3650SOL    HW222410   1.539   1.043   6.731 -2.0929 -0.5865  0.2461
 3651SOL     OW22411   0.257   1.844   4.420 -0.5346  0.5160  0.1994
 3651SOL    HW122412   0.321   1.773   4.424  1.4185  2.2268 -0.7873
 3651SOL    HW222413   0.200   1.809   4.488 -0.2603 -0.8396 -0.2802
 3652SOL     OW22414   2.165   1.822   5.091  0.6367 -0.1462 -0.2087
 3652SOL    HW122415   2.183   1.916   5.093  0.0700 -0.0489  0.2306
 3652SOL    HW222416   2.204   1.798   5.175 -0.3276 -0.0080  0.2777
 3653SOL     OW22417   2.887   1.593  16.947  0.1232 -0.1797 -0.0138
 3653SOL    HW122418   2.806   1.549  16.973  0.6599 -0.7942  0.6020
 3653SOL    HW222419   2.880   1.586  16.852  1.0353 -0.5838 -0.0500
 3654SOL     OW22420   0.706   1.448  13.415 -0.2327 -0.6876  0.3657
 3654SOL    HW122421   0.692   1.477  13.505 -0.4844  0.3850 -0.0152
 3654SOL    HW222422   0.777   1.387  13.433 -1.1955 -1.4741  1.4934
 3655SOL     OW22423   3.886   4.411   8.897  0.4068 -0.9292  0.5821
 3655SOL    HW122424   3.938   4.474   8.947 -1.1899 -0.0188  1.0937
 3655SOL    HW222425   3.803   4.457   8.883  0.5174 -0.9339 -0.0848
 3656SOL     OW22426   3.703   2.952   6.116  0.5232 -0.0387  0.3159
 3656SOL    HW122427   3.691   2.944   6.022 -0.7854  4.1612  0.1254
 3656SOL    HW222428   3.729   3.044   6.121 -0.0435  0.1550 -0.3493
 3657SOL     OW22429   0.943   0.174   5.351  0.4954 -0.2424  0.3827
 3657SOL    HW122430   0.848   0.160   5.357  0.5087 -0.8122 -0.6987
 3657SOL    HW222431   0.954   0.173   5.255  1.6362  1.3563  0.5075
 3658SOL     OW22432   0.067   4.195  13.014 -0.2738  0.2243  0.2714
 3658SOL    HW122433   0.163   4.191  13.011 -0.2544  1.2546 -0.2205
 3658SOL    HW222434   0.047   4.134  12.943  0.1101  1.6771 -1.0827
 3659SOL     OW22435   1.951   3.794   6.659 -0.2437  0.1313 -0.0714
 3659SOL    HW122436   1.987   3.731   6.722 -0.1043  0.4921  0.2162
 3659SOL    HW222437   1.858   3.771   6.663 -0.4458  0.7188 -1.4369
 3660SOL     OW22438   2.336   3.374   7.341  0.4991  0.2031 -0.2934
 3660SOL    HW122439   2.379   3.380   7.426  0.6802 -2.0736 -0.2343
 3660SOL    HW222440   2.356   3.460   7.305  0.8733  0.4827  0.5733
 3661SOL     OW22441   1.995   0.597   6.623  0.2001 -0.5467  0.3718
 3661SOL    HW122442   1.925   0.533   6.634 -1.4524  1.1000 -0.5943
 3661SOL    HW222443   2.050   0.579   6.700  0.9757  0.7416  0.1192
 3662SOL     OW22444   1.467   1.499   4.227  0.5064  0.6908  0.1839
 3662SOL    HW122445   1.441   1.589   4.208 -0.1545  0.5856  0.5888
 3662SOL    HW222446   1.389   1.447   4.210  1.6978 -0.2942 -2.2486
 3663SOL     OW22447   0.730   3.347   7.135  0.0554 -0.8155 -0.2842
 3663SOL    HW122448   0.711   3.440   7.121  0.6015 -0.6808 -0.1532
 3663SOL    HW222449   0.686   3.307   7.060  1.6353 -1.0024 -1.0989
 3664SOL     OW22450   3.114   0.536   5.882 -0.0845  0.4653  0.5954
 3664SOL    HW122451   3.034   0.583   5.903 -1.2278  0.1724 -3.0697
 3664SOL    HW222452   3.150   0.518   5.969  0.9331 -0.2805  0.0203
 3665SOL     OW22453   2.523   3.414   3.862  0.2784  0.2432  0.1137
 3665SOL    HW122454   2.457   3.461   3.811  0.4528 -2.4408 -2.6412
 3665SOL    HW222455   2.525   3.327   3.823  0.2614 -0.0526  0.7806
 3666SOL     OW22456   0.378   1.284   1.471 -0.7563  0.3122  0.3161
 3666SOL    HW122457   0.298   1.335   1.481 -0.9950  0.0400 -0.2187
 3666SOL    HW222458   0.421   1.326   1.396  0.5003 -0.3839  0.6455
 3667SOL     OW22459   2.489   1.780   8.322 -0.1691 -0.2575  0.0585
 3667SOL    HW122460   2.541   1.747   8.248  0.8060  0.9164  0.2123
 3667SOL    HW222461   2.485   1.874   8.302 -0.2338 -0.7237 -2.1774
 3668SOL     OW22462   2.340   2.112  15.348  0.3771  0.3869 -0.1416
 3668SOL    HW122463   2.303   2.029  15.379  0.0096  0.3371 -0.7356
 3668SOL    HW222464   2.395   2.082  15.276  0.7362  0.0425  0.2708
 3669SOL     OW22465   4.171   0.562   0.282 -0.3148  0.1596 -0.1771
 3669SOL    HW122466   4.187   0.532   0.193 -0.5321  0.1648 -0.2161
 3669SOL    HW222467   4.092   0.512   0.303 -0.7938  2.2390  3.0760
 3670SOL     OW22468   1.726   3.238   7.623 -0.6778  0.2864  0.1937
 3670SOL    HW122469   1.632   3.224   7.634 -0.8334  0.7591 -0.5306
 3670SOL    HW222470   1.723   3.325   7.583  3.1825 -0.0754 -0.8733
 3671SOL     OW22471   1.866   2.088   6.666 -0.4951 -0.9497  0.2523
 3671SOL    HW122472   1.819   2.084   6.583  0.3750 -1.0722 -0.2352
 3671SOL    HW222473   1.941   2.030   6.654  0.6538  0.9688 -1.8135
 3672SOL     OW22474   3.001   3.449  10.931  0.0122 -0.1284  0.8408
 3672SOL    HW122475   2.948   3.378  10.967 -2.7135  1.4117 -0.1432
 3672SOL    HW222476   3.036   3.479  11.015  0.5965 -0.0459  0.5733
 3673SOL     OW22477   2.463   4.592   2.044  0.5910 -0.5388  0.3869
 3673SOL    HW122478   2.380   4.553   2.071 -0.0392 -0.1081 -0.9197
 3673SOL    HW222479   2.451   4.619   1.953  1.2765 -2.0558 -0.1522
 3674SOL     OW22480   0.437   0.372   1.757 -0.2686 -0.0306 -0.0963
 3674SOL    HW122481   0.358   0.418   1.729 -0.9336 -0.9537  0.3036
 3674SOL    HW222482   0.398   0.320   1.827  1.2265  1.0468  1.5395
 3675SOL     OW22483   1.653   1.375  14.789 -0.3675 -0.1294  0.1952
 3675SOL    HW122484   1.645   1.316  14.715  2.3004  0.5734 -0.6210
 3675SOL    HW222485   1.660   1.466  14.758  1.1002 -0.5230 -0.6057
 3676SOL     OW22486   3.197   3.481   3.841  0.8374  0.1925 -0.3792
 3676SOL    HW122487   3.266   3.460   3.904  0.0739 -1.1240  0.0268
 3676SOL    HW222488   3.237   3.541   3.779 -1.4727  2.3866  0.2622
 3677SOL     OW22489   0.095   2.641  16.559  0.4964 -0.3511  0.2774
 3677SOL    HW122490   0.133   2.728  16.547  0.9160 -0.6768 -0.7747
 3677SOL    HW222491   0.020   2.646  16.499  0.0605 -0.5188  0.8073
 3678SOL     OW22492   0.434   3.094   4.652 -0.0556 -0.3092  0.5848
 3678SOL    HW122493   0.452   3.072   4.561 -2.1046  0.8837 -0.0910
 3678SOL    HW222494   0.523   3.123   4.672 -0.5477  1.7602 -0.2640
 3679SOL     OW22495   2.217   3.956   7.815  0.5701 -0.1932 -0.6203
 3679SOL    HW122496   2.194   4.006   7.737 -0.0536 -1.3639 -1.1871
 3679SOL    HW222497   2.182   3.869   7.797  0.6566 -0.3664  0.0356
 3680SOL     OW22498   3.385   3.257  12.817 -0.4482  0.7297  0.1474
 3680SOL    HW122499   3.375   3.165  12.843 -4.1957  0.4746 -2.1673
 3680SOL    HW222500   3.469   3.277  12.859 -0.1813 -2.0884  0.9965
 3681SOL     OW22501   3.961   3.860   8.161 -0.6540 -0.1850  0.3626
 3681SOL    HW122502   3.878   3.860   8.208 -0.6717  1.8157  0.3305
 3681SOL    HW222503   3.948   3.793   8.093  0.6277  0.0331 -0.0927
 3682SOL     OW22504   1.777   3.595   1.234  0.1947 -0.2360  0.2209
 3682SOL    HW122505   1.720   3.592   1.157  0.0660  0.0189  0.3051
 3682SOL    HW222506   1.823   3.511   1.233  2.0909  0.8036 -1.0447
 3683SOL     OW22507   2.632   1.565   0.576  0.2577 -0.1385  0.1568
 3683SOL    HW122508   2.630   1.653   0.539  2.9681  0.2528  0.9339
 3683SOL    HW222509   2.684   1.574   0.656  1.9907  0.1361 -1.0227
 3684SOL     OW22510   1.798   0.062   9.009  0.8224  0.0983 -0.1710
 3684SOL    HW122511   1.866   0.084   8.946  2.2308  0.2091  1.3809
 3684SOL    HW222512   1.836   4.704   9.045  1.8765  0.1717 -1.1195
 3685SOL     OW22513   2.498   3.170   2.722  0.0213  0.1024 -0.1055
 3685SOL    HW122514   2.443   3.243   2.695 -0.3162  0.1203  0.6371
 3685SOL    HW222515   2.491   3.117   2.642  0.7199 -1.6790  1.0176
 3686SOL     OW22516   4.485   3.400   2.858  0.4730  0.1205  0.0860
 3686SOL    HW122517   4.529   3.367   2.780  1.7340 -0.0755  0.8958
 3686SOL    HW222518   4.414   3.457   2.826 -0.8545 -1.1002  0.8574
 3687SOL     OW22519   3.946   3.423   6.039 -0.0155  0.1763  0.2326
 3687SOL    HW122520   3.883   3.493   6.022  0.8734  0.5371 -1.4886
 3687SOL    HW222521   4.012   3.478   6.080  0.8851 -0.8992  0.2380
 3688SOL     OW22522   3.421   1.876   7.316  0.1995  0.3747 -0.0822
 3688SOL    HW122523   3.480   1.821   7.265  0.6893  0.4637  0.3838
 3688SOL    HW222524   3.338   1.838   7.289 -0.4483  1.0537  0.9718
 3689SOL     OW22525   1.740   3.717  14.333  0.1833  0.6392  0.1855
 3689SOL    HW122526   1.696   3.632  14.331  0.8986  0.2874 -0.5309
 3689SOL    HW222527   1.734   3.741  14.425  0.3444  2.0895 -0.1742
 3690SOL     OW22528   2.682   2.981   0.728  0.2919  0.0722  0.2125
 3690SOL    HW122529   2.749   2.926   0.768  1.1439 -0.5900 -2.1572
 3690SOL    HW222530   2.646   3.028   0.804  0.9544  1.3193 -0.2422
 3691SOL     OW22531   0.774   1.573  15.802 -0.0768 -0.2145  0.1449
 3691SOL    HW122532   0.806   1.642  15.745 -1.8869  0.7703  0.3263
 3691SOL    HW222533   0.825   1.501  15.766  2.5847  3.0403 -2.5390
 3692SOL     OW22534   3.986   1.788   6.836 -0.2927  0.0076 -0.7475
 3692SOL    HW122535   3.924   1.754   6.772 -1.4428 -0.9945  0.9172
 3692SOL    HW222536   3.932   1.846   6.889  1.1874 -0.7358  1.5661
 3693SOL     OW22537   4.297   3.127   4.434 -0.3414 -0.0280 -0.3562
 3693SOL    HW122538   4.373   3.141   4.491 -1.7578  0.1288  1.5022
 3693SOL    HW222539   4.259   3.055   4.485  1.8664 -2.0041 -1.5017
 3694SOL     OW22540   1.755   4.027   9.806 -0.1554  0.4998  0.3464
 3694SOL    HW122541   1.711   4.104   9.771  0.7566  0.6438 -0.4939
 3694SOL    HW222542   1.686   3.981   9.855  1.0273 -1.0923  0.5326
 3695SOL     OW22543   1.972   0.638  11.279 -0.1267  0.9529 -0.1587
 3695SOL    HW122544   1.949   0.626  11.371 -1.1197  2.5269 -0.1959
 3695SOL    HW222545   1.916   0.588  11.220 -0.5958  1.0989  0.1579
 3696SOL     OW22546   2.736   4.063   8.048  0.5249 -0.1604 -0.3373
 3696SOL    HW122547   2.821   4.039   8.086 -0.8231 -0.8272  2.2352
 3696SOL    HW222548   2.678   4.085   8.121  1.6257 -1.6672  0.9951
 3697SOL     OW22549   3.581   4.164   3.821 -0.1997  0.3544  0.4273
 3697SOL    HW122550   3.652   4.167   3.757 -0.9934 -0.3649 -0.4896
 3697SOL    HW222551   3.622   4.208   3.895  0.9563 -1.0279  0.5882
 3698SOL     OW22552   0.417   4.221   4.997 -0.3314 -0.0956  0.0809
 3698SOL    HW122553   0.439   4.237   5.089 -1.0730  1.5279 -0.0196
 3698SOL    HW222554   0.378   4.307   4.981  0.9616 -0.0175 -2.6566
 3699SOL     OW22555   2.778   3.856   5.200  0.6759 -0.0681  0.5841
 3699SOL    HW122556   2.843   3.810   5.253  0.1635 -1.3226  0.1267
 3699SOL    HW222557   2.827   3.921   5.151  0.0905 -1.0347 -1.2699
 3700SOL     OW22558   0.404   4.357   3.179  0.2449  0.1643  0.6661
 3700SOL    HW122559   0.321   4.348   3.132 -0.3947  0.2403  1.7694
 3700SOL    HW222560   0.438   4.268   3.187  2.3718  0.7557 -1.9370
 3701SOL     OW22561   1.438   0.453   5.501  0.3585  0.4453 -0.0788
 3701SOL    HW122562   1.531   0.452   5.520  0.4476 -0.9832 -0.5290
 3701SOL    HW222563   1.413   0.366   5.534 -1.0213  0.2630 -1.5817
 3702SOL     OW22564   2.272   2.008   5.545  0.0847  0.0406 -0.0374
 3702SOL    HW122565   2.285   2.102   5.561 -1.2767  0.3108 -0.5439
 3702SOL    HW222566   2.315   1.973   5.623  2.3291 -1.2931 -1.8844
 3703SOL     OW22567   1.689   4.154  13.714 -0.5434 -0.3586 -0.2546
 3703SOL    HW122568   1.690   4.097  13.791 -1.0108 -2.2465 -1.6564
 3703SOL    HW222569   1.604   4.132  13.677  0.1262  0.7035 -2.4331
 3704SOL     OW22570   2.677   1.357   7.454  0.8476  0.7240 -0.2866
 3704SOL    HW122571   2.607   1.400   7.405 -1.2412 -0.4927  1.6299
 3704SOL    HW222572   2.639   1.319   7.533  0.6554  0.5678 -0.4506
 3705SOL     OW22573   0.400   2.823   5.694 -0.9269  0.8060 -0.7395
 3705SOL    HW122574   0.330   2.883   5.668 -1.4774 -0.0303 -1.1694
 3705SOL    HW222575   0.347   2.744   5.681 -1.9731  1.3059  0.4654
 3706SOL     OW22576   0.264   2.150   8.524  0.7319 -0.1622  0.2851
 3706SOL    HW122577   0.312   2.221   8.567  2.4305 -1.7271  0.9806
 3706SOL    HW222578   0.178   2.191   8.521  1.0893  0.4618 -2.0569
 3707SOL     OW22579   2.386   4.587   2.442  0.3639 -0.4120  0.2958
 3707SOL    HW122580   2.329   4.561   2.515 -1.9172  1.0802 -0.9678
 3707SOL    HW222581   2.396   4.506   2.391  0.4662 -0.1594 -0.0860
 3708SOL     OW22582   1.795   4.253   3.487 -0.4024 -0.2211 -0.1018
 3708SOL    HW122583   1.870   4.309   3.506 -0.3464 -0.8632  1.5816
 3708SOL    HW222584   1.743   4.291   3.416  1.2062  0.1204 -1.1074
 3709SOL     OW22585   3.741   3.957   2.675  0.3370  0.1292  0.2904
 3709SOL    HW122586   3.653   3.966   2.711  0.2030  1.5481 -0.3916
 3709SOL    HW222587   3.792   3.943   2.755 -2.5061 -2.7577  1.5889
 3710SOL     OW22588   0.430   1.198   3.767  0.1989  0.8384  0.3482
 3710SOL    HW122589   0.443   1.246   3.685 -0.8182 -1.7605 -1.3361
 3710SOL    HW222590   0.435   1.111   3.727  0.6137  1.6068 -1.2656
 3711SOL     OW22591   4.438   3.632   0.406 -0.4902 -0.3751  0.0298
 3711SOL    HW122592   4.346   3.642   0.430  0.2576 -0.4281  2.9037
 3711SOL    HW222593   4.431   3.599   0.316  0.8012  0.1980 -0.2883
 3712SOL     OW22594   4.623   2.513  12.594 -0.4299 -1.0046  0.5327
 3712SOL    HW122595   4.690   2.445  12.581 -0.2945 -1.0776  1.6132
 3712SOL    HW222596   4.572   2.474  12.666 -0.5993 -1.8872 -0.0713
 3713SOL     OW22597   1.430   1.575   6.399  0.6781 -0.1866 -0.7349
 3713SOL    HW122598   1.380   1.629   6.338  1.8385 -0.2519 -1.7587
 3713SOL    HW222599   1.402   1.617   6.480 -0.5037 -2.9420  0.2909
 3714SOL     OW22600   0.306   2.813   0.538  0.2543 -0.2112 -0.1454
 3714SOL    HW122601   0.376   2.793   0.601 -0.7764  2.7294  1.9832
 3714SOL    HW222602   0.269   2.725   0.536  0.6953 -0.4792  2.9690
 3715SOL     OW22603   2.138   3.080   3.347  0.4221 -0.7258 -0.7446
 3715SOL    HW122604   2.069   3.144   3.333 -0.2012 -1.3223 -0.3920
 3715SOL    HW222605   2.122   3.061   3.439  0.3570 -2.4408 -1.1144
 3716SOL     OW22606   0.574   0.687   5.544 -0.0458  0.3348  0.0816
 3716SOL    HW122607   0.613   0.600   5.534  0.5494  0.7015 -0.8074
 3716SOL    HW222608   0.612   0.720   5.626 -0.4962  0.1896  0.3488
 3717SOL     OW22609   0.769   4.638   8.577 -0.3050 -0.0097 -0.2938
 3717SOL    HW122610   0.721   4.718   8.556  0.0822  0.6244  1.2260
 3717SOL    HW222611   0.840   4.673   8.630 -0.7037  1.2090 -0.5813
 3718SOL     OW22612   4.155   1.175   6.223 -0.0355  0.1483  0.1063
 3718SOL    HW122613   4.095   1.212   6.158 -0.5092 -1.4167 -0.3400
 3718SOL    HW222614   4.240   1.212   6.200  0.2743 -1.3445 -1.1711
 3719SOL     OW22615   1.735   2.773   7.555 -0.6222 -0.5767 -0.4245
 3719SOL    HW122616   1.766   2.820   7.632 -1.0019 -1.0836  0.0306
 3719SOL    HW222617   1.791   2.815   7.489 -0.1316 -0.6029 -0.0218
 3720SOL     OW22618   1.315   3.705  17.571  0.0130  0.1033  0.3296
 3720SOL    HW122619   1.366   3.646  17.627 -1.2833  0.4295  1.8293
 3720SOL    HW222620   1.229   3.703  17.612 -0.0177  3.0488  0.3781
 3721SOL     OW22621   3.089   0.231   4.164  0.6537 -0.6140 -0.1576
 3721SOL    HW122622   3.068   0.165   4.097 -0.4101  0.4480 -0.8591
 3721SOL    HW222623   3.103   0.176   4.241  1.4496 -0.0606  0.0952
 3722SOL     OW22624   4.014   4.616   5.828  0.6099  1.0295 -0.2306
 3722SOL    HW122625   4.038   4.610   5.921 -4.6716 -0.9668  0.9677
 3722SOL    HW222626   4.094   4.577   5.792  0.3907  0.1992  0.1809
 3723SOL     OW22627   2.700   0.853   3.709  0.5151 -0.1487 -0.1873
 3723SOL    HW122628   2.783   0.856   3.757  1.5174 -0.6594 -1.9085
 3723SOL    HW222629   2.731   0.874   3.621 -1.2264  1.1438 -0.4770
 3724SOL     OW22630   4.238   1.385  15.807  0.8454  0.0198  0.0711
 3724SOL    HW122631   4.144   1.385  15.788  0.5971  1.1751  1.3072
 3724SOL    HW222632   4.273   1.353  15.724 -0.8520 -3.1126  0.5807
 3725SOL     OW22633   1.968   3.768   5.762 -0.5384  0.1281 -0.3396
 3725SOL    HW122634   2.048   3.772   5.709 -0.7803  0.8497 -0.6463
 3725SOL    HW222635   1.930   3.855   5.751  0.6934  0.5002 -1.7339
 3726SOL     OW22636   1.017   3.583   0.790  0.4891 -0.2062  0.0911
 3726SOL    HW122637   0.956   3.649   0.757 -0.4891  0.8326  3.9780
 3726SOL    HW222638   1.031   3.527   0.713 -2.0459 -0.5599 -0.1154
 3727SOL     OW22639   0.286   2.762  12.718 -0.0490 -0.2124  0.2976
 3727SOL    HW122640   0.221   2.694  12.733  1.1292 -1.4473 -0.2804
 3727SOL    HW222641   0.257   2.790  12.631 -1.0945 -0.6084  0.5259
 3728SOL     OW22642   0.029   2.863   3.670  0.3145 -0.5328 -0.7726
 3728SOL    HW122643   0.044   2.784   3.618  0.9135 -1.2330  0.4547
 3728SOL    HW222644   4.655   2.862   3.673  0.3295 -0.0354 -0.0524
 3729SOL     OW22645   4.379   0.112   9.415 -0.0684  0.8823  0.2442
 3729SOL    HW122646   4.401   0.158   9.495  2.5162 -0.5152  0.3315
 3729SOL    HW222647   4.428   0.035   9.444  0.5103  0.5205 -1.6485
 3730SOL     OW22648   3.203   2.242   7.418  0.5080 -0.0762 -0.3641
 3730SOL    HW122649   3.147   2.171   7.387 -0.2484  0.3871 -0.0429
 3730SOL    HW222650   3.172   2.243   7.509  2.4460  0.4582  0.2911
 3731SOL     OW22651   2.593   1.787   1.617 -0.0422 -0.2805  0.2280
 3731SOL    HW122652   2.539   1.850   1.569 -0.1415 -1.8419 -1.7138
 3731SOL    HW222653   2.658   1.775   1.548 -0.0406  0.9327  0.0215
 3732SOL     OW22654   0.193   3.541  13.024  0.3485  0.4238 -0.0711
 3732SOL    HW122655   0.260   3.473  13.015  1.5303  1.6001 -0.0935
 3732SOL    HW222656   0.252   3.613  13.045  0.4156  0.3672 -0.0657
 3733SOL     OW22657   3.770   3.753   8.876  0.3138 -0.5964  0.4764
 3733SOL    HW122658   3.849   3.789   8.916 -1.2332  2.2787  0.9324
 3733SOL    HW222659   3.721   3.834   8.865  0.5066 -0.6549 -0.9053
 3734SOL     OW22660   3.474   3.187   2.603 -0.0029  0.0061  0.0134
 3734SOL    HW122661   3.509   3.106   2.565 -0.3274 -0.5870  0.9598
 3734SOL    HW222662   3.519   3.190   2.688 -1.2948  2.1303  0.6112
 3735SOL     OW22663   1.614   0.036  16.491  0.2752  0.1506 -0.1692
 3735SOL    HW122664   1.696   0.057  16.447 -0.7440  1.0997 -1.6031
 3735SOL    HW222665   1.644   0.064  16.578 -0.0343 -0.6738  0.2074
 3736SOL     OW22666   3.923   0.322   3.355  0.5451  0.1116 -0.0840
 3736SOL    HW122667   3.902   0.315   3.262 -2.7029 -3.5917  0.9236
 3736SOL    HW222668   4.018   0.315   3.349  0.5463 -0.6109  0.8674
 3737SOL     OW22669   0.003   0.386   6.871 -0.0951  0.5379  0.0246
 3737SOL    HW122670   4.679   0.332   6.936  0.7033  1.7788  1.6074
 3737SOL    HW222671   4.667   0.372   6.796  1.7727 -3.1185 -0.7388
 3738SOL     OW22672   0.815   0.952  12.840 -0.3860 -0.4710 -0.3475
 3738SOL    HW122673   0.782   0.864  12.856 -1.7623  0.1707  0.3714
 3738SOL    HW222674   0.869   0.979  12.914  1.6335 -2.3653 -1.1413
 3739SOL     OW22675   3.755   1.854  10.219 -0.1442  0.9217  0.4845
 3739SOL    HW122676   3.743   1.844  10.314 -1.8124 -0.8578  0.0797
 3739SOL    HW222677   3.778   1.946  10.210 -1.3249  1.0974 -0.5907
 3740SOL     OW22678   2.117   2.967   7.401  0.1263  0.1241 -0.2158
 3740SOL    HW122679   2.158   2.923   7.476  3.2231  3.1328 -0.1650
 3740SOL    HW222680   2.190   2.956   7.341 -0.3517 -1.9980 -0.4117
 3741SOL     OW22681   2.763   1.811   5.642 -0.1165  1.1037 -0.0422
 3741SOL    HW122682   2.708   1.771   5.574  0.2233 -1.2971  1.1050
 3741SOL    HW222683   2.845   1.812   5.594  1.2882 -2.8336  2.2505
 3742SOL     OW22684   2.540   2.268   2.134  0.3656 -0.1660 -0.4436
 3742SOL    HW122685   2.605   2.201   2.154  1.6840  0.8952 -1.1256
 3742SOL    HW222686   2.583   2.298   2.054 -0.3709  0.1531 -0.7182
 3743SOL     OW22687   1.573   3.246   1.874  0.5040  0.0189  0.2912
 3743SOL    HW122688   1.537   3.328   1.907  0.0543 -0.8727  1.9612
 3743SOL    HW222689   1.499   3.204   1.832 -1.1399  1.8782  1.3444
 3744SOL     OW22690   1.093   1.588  17.563 -0.7406 -0.1489 -0.0549
 3744SOL    HW122691   1.178   1.610  17.524 -0.4148  0.0067  0.7233
 3744SOL    HW222692   1.097   1.639  17.645  0.2420 -1.5353  0.7445
 3745SOL     OW22693   3.370   0.229   2.273  0.2007  0.2129  0.6499
 3745SOL    HW122694   3.290   0.271   2.241  0.2577 -0.2384 -0.0868
 3745SOL    HW222695   3.351   0.136   2.260 -1.9931  0.5635  1.2469
 3746SOL     OW22696   3.969   1.614  15.743  0.5805  0.2509 -0.1963
 3746SOL    HW122697   4.017   1.665  15.678  0.1810  0.4200 -0.3566
 3746SOL    HW222698   3.986   1.531  15.696 -1.4799 -0.7611  0.8848
 3747SOL     OW22699   1.979   3.894   1.482 -0.2999  0.7591  0.0339
 3747SOL    HW122700   2.043   3.826   1.464 -1.2799 -0.5445  1.4399
 3747SOL    HW222701   1.943   3.845   1.556 -0.4506 -0.6666 -0.9962
 3748SOL     OW22702   3.850   3.488   5.392  0.1980 -0.0593 -0.2042
 3748SOL    HW122703   3.850   3.506   5.298 -0.1651  1.9825  0.1888
 3748SOL    HW222704   3.944   3.478   5.406  0.2142  0.4908  0.0735
 3749SOL     OW22705   2.758   1.863   6.365 -0.2338  0.3872 -0.1472
 3749SOL    HW122706   2.741   1.829   6.453 -1.6251 -0.9145 -0.9251
 3749SOL    HW222707   2.750   1.781   6.317 -0.2514 -0.2232  0.8911
 3750SOL     OW22708   4.667   0.643   8.157  0.2912  0.0729 -0.0499
 3750SOL    HW122709   4.683   0.567   8.100 -0.4620  0.2254 -0.4613
 3750SOL    HW222710   4.584   0.625   8.201  1.0891 -0.4265  1.2360
 3751SOL     OW22711   1.265   0.772   4.340  0.3780 -0.0793  0.3785
 3751SOL    HW122712   1.221   0.694   4.375 -1.1207  0.5867  0.0161
 3751SOL    HW222713   1.191   0.833   4.334  1.4648  1.1476 -0.5579
 3752SOL     OW22714   4.042   3.571   7.647  0.0788 -0.4605 -0.0973
 3752SOL    HW122715   4.128   3.574   7.688  1.0250 -1.3984 -2.0351
 3752SOL    HW222716   4.070   3.588   7.558  2.3834 -3.2382  0.0943
 3753SOL     OW22717   0.441   1.533   1.619 -0.2695  0.0999  0.2179
 3753SOL    HW122718   0.523   1.520   1.571  0.1475 -0.2772  1.0284
 3753SOL    HW222719   0.391   1.452   1.611 -1.3798  0.8415 -0.3543
 3754SOL     OW22720   1.262   2.732   6.740  0.1135  0.1482  0.3546
 3754SOL    HW122721   1.337   2.764   6.791  1.3340 -0.0735 -1.2860
 3754SOL    HW222722   1.210   2.811   6.730 -4.6011 -3.1968 -1.4590
 3755SOL     OW22723   4.180   0.310   7.218 -0.2591 -0.0862  0.1366
 3755SOL    HW122724   4.266   0.319   7.260  0.5920  0.2321 -1.7040
 3755SOL    HW222725   4.195   0.366   7.142  0.1201 -0.6472 -0.2035
 3756SOL     OW22726   3.399   3.735  11.286  0.4985  0.5125  0.0434
 3756SOL    HW122727   3.471   3.767  11.231 -0.3542  0.2704 -1.1951
 3756SOL    HW222728   3.342   3.697  11.219  0.4029 -1.3339  1.1840
 3757SOL     OW22729   3.023   1.608   8.531  0.2208  0.6225 -0.3957
 3757SOL    HW122730   3.032   1.542   8.600 -0.3044  0.3277 -0.6105
 3757SOL    HW222731   2.978   1.550   8.470  1.1140 -1.5302  0.9741
 3758SOL     OW22732   1.914   2.293   4.565 -0.1051 -0.9990  0.7467
 3758SOL    HW122733   1.874   2.206   4.566 -0.4678 -0.8505 -0.0815
 3758SOL    HW222734   1.843   2.335   4.515  2.0331  1.3867 -0.3106
 3759SOL     OW22735   2.014   1.648   1.045 -0.0651 -0.2355  0.3041
 3759SOL    HW122736   2.091   1.651   0.989  0.0727 -1.3799  0.4443
 3759SOL    HW222737   1.965   1.581   0.998 -0.0356 -1.5812  2.1911
 3760SOL     OW22738   2.761   0.857   1.701  0.5261  0.1358 -0.1742
 3760SOL    HW122739   2.671   0.884   1.681  1.3236  2.8743 -0.0324
 3760SOL    HW222740   2.758   0.844   1.796 -1.7618 -2.1039 -0.5611
 3761SOL     OW22741   4.481   4.208   5.901  0.5734 -0.3783  0.4368
 3761SOL    HW122742   4.572   4.183   5.918  0.0851 -1.1108  2.0049
 3761SOL    HW222743   4.469   4.204   5.806 -0.5249 -2.2618  0.6559
 3762SOL     OW22744   2.997   2.933  10.524  0.7771 -0.1777  0.6589
 3762SOL    HW122745   2.989   2.952  10.618 -2.3304 -0.2227  0.4193
 3762SOL    HW222746   2.954   3.004  10.477  0.4518  0.0890  1.3510
 3763SOL     OW22747   4.392   0.317  14.454 -0.2074  0.2801 -0.2428
 3763SOL    HW122748   4.453   0.269  14.399 -0.0674 -1.3098  1.3035
 3763SOL    HW222749   4.416   0.407  14.430  3.0991 -0.6834 -0.4723
 3764SOL     OW22750   3.716   0.073   3.955  0.1694 -0.1145  0.2660
 3764SOL    HW122751   3.777   0.001   3.973  1.7241  1.9361  3.3418
 3764SOL    HW222752   3.664   0.039   3.883  1.3548 -1.5616  0.0925
 3765SOL     OW22753   1.576   2.104   3.251  0.4373  0.2125  0.7266
 3765SOL    HW122754   1.609   2.160   3.322 -1.9839  0.9775  1.2621
 3765SOL    HW222755   1.609   2.160   3.180  0.3513 -0.5536  0.0874
 3766SOL     OW22756   2.403   1.615   2.136  0.2093  0.3075  0.6129
 3766SOL    HW122757   2.319   1.569   2.139 -1.3294  2.9549 -2.1606
 3766SOL    HW222758   2.446   1.561   2.203  0.5505  2.0937  1.8110
 3767SOL     OW22759   1.889   2.193   3.601 -0.6052 -0.0437  0.7325
 3767SOL    HW122760   1.935   2.132   3.659  1.2146  1.0190  0.4043
 3767SOL    HW222761   1.882   2.275   3.649  0.5888  0.8244 -0.5588
 3768SOL     OW22762   1.601   1.482   0.130 -0.2956  0.3827  0.5348
 3768SOL    HW122763   1.603   1.576   0.144 -0.5936  0.6529 -1.1829
 3768SOL    HW222764   1.691   1.457   0.107 -0.1939  2.7753 -1.6486
 3769SOL     OW22765   3.623   0.077   1.250 -0.3335  0.0197  0.4037
 3769SOL    HW122766   3.699   0.032   1.215 -0.3732 -2.4961  3.5613
 3769SOL    HW222767   3.580   0.006   1.297 -0.3694 -1.0863 -1.3100
 3770SOL     OW22768   3.962   2.255  13.311 -0.2474 -0.2050 -0.0926
 3770SOL    HW122769   3.951   2.327  13.248 -0.5816  1.3417  1.7134
 3770SOL    HW222770   3.927   2.290  13.393  2.1945  0.1082  0.7955
 3771SOL     OW22771   0.088   0.633   1.120 -0.1593 -0.0945 -0.0340
 3771SOL    HW122772   0.089   0.657   1.213 -0.6961 -2.0922  0.4808
 3771SOL    HW222773   0.157   0.567   1.123 -1.1755 -1.1884 -0.7958
 3772SOL     OW22774   3.379   0.312   6.311 -0.0440  0.2749 -0.0197
 3772SOL    HW122775   3.361   0.406   6.303  0.3954  0.3774  0.2121
 3772SOL    HW222776   3.360   0.276   6.224 -0.5343 -2.0869  1.0525
 3773SOL     OW22777   1.990   4.315   7.363  0.1071  0.0581  0.1863
 3773SOL    HW122778   1.940   4.329   7.283 -1.8214 -2.0599  1.0395
 3773SOL    HW222779   1.926   4.346   7.428  0.5006  2.6211 -0.6668
 3774SOL     OW22780   2.580   1.755  10.779 -0.6862  0.4041  0.0957
 3774SOL    HW122781   2.594   1.687  10.713 -1.2804 -0.3658  0.7612
 3774SOL    HW222782   2.595   1.829  10.720 -1.9656  1.6352  1.3062
 3775SOL     OW22783   2.244   3.204   2.304 -0.1085  0.4768 -0.2729
 3775SOL    HW122784   2.270   3.217   2.395  1.4099 -1.1459 -0.4753
 3775SOL    HW222785   2.164   3.256   2.293  0.0563  0.6987 -0.4245
 3776SOL     OW22786   4.033   3.099  11.944 -0.3273  0.4109 -0.2663
 3776SOL    HW122787   4.079   3.102  11.861  2.4421 -0.4351  1.2272
 3776SOL    HW222788   4.049   3.008  11.969  0.4152  0.4818 -0.4920
 3777SOL     OW22789   4.454   3.737   9.018  0.2825  0.0173 -0.2395
 3777SOL    HW122790   4.379   3.700   9.064  2.4377 -2.0421  1.5973
 3777SOL    HW222791   4.470   3.811   9.077  1.1321 -1.7686  1.7298
 3778SOL     OW22792   0.160   0.455  16.417  0.4824  0.3627  0.1731
 3778SOL    HW122793   0.138   0.539  16.376  0.4689  0.2821  0.0169
 3778SOL    HW222794   0.093   0.400  16.376  1.5114 -1.3497  0.8119
 3779SOL     OW22795   0.666   3.183   5.790 -0.4402  0.1854 -0.2077
 3779SOL    HW122796   0.619   3.149   5.866 -1.1954 -1.9416 -1.6476
 3779SOL    HW222797   0.739   3.127   5.765  0.5459  1.2767  0.2432
 3780SOL     OW22798   2.738   0.616   7.354 -0.3115  0.1729 -0.0749
 3780SOL    HW122799   2.662   0.670   7.377  0.9666  2.2426 -0.6765
 3780SOL    HW222800   2.805   0.682   7.336 -1.2967  1.5813  1.4141
 3781SOL     OW22801   2.145   1.625   6.678 -0.5553 -0.1575 -0.0350
 3781SOL    HW122802   2.200   1.605   6.753 -0.3255  3.1122  0.6914
 3781SOL    HW222803   2.189   1.687   6.620  0.2944  0.6134  1.4335
 3782SOL     OW22804   1.547   3.225   4.791 -0.3500 -0.6033 -0.2141
 3782SOL    HW122805   1.607   3.155   4.815 -1.4132 -1.1300  0.9249
 3782SOL    HW222806   1.460   3.188   4.811  0.7598 -2.7830  0.5442
 3783SOL     OW22807   3.181   0.734  10.820 -0.6390  0.3796  0.7221
 3783SOL    HW122808   3.126   0.669  10.864  1.4436 -0.4031  2.1848
 3783SOL    HW222809   3.224   0.776  10.895 -0.6597 -0.1975  1.0558
 3784SOL     OW22810   0.158   0.439   2.997  0.1269  0.4433 -0.0875
 3784SOL    HW122811   0.196   0.353   3.010  1.7557  0.8515 -2.2292
 3784SOL    HW222812   0.235   0.485   2.964 -0.9641  1.5718 -1.0748
 3785SOL     OW22813   3.196   1.230   8.807 -0.0883  0.1590  0.7071
 3785SOL    HW122814   3.219   1.306   8.753  1.9121 -0.6392  0.4481
 3785SOL    HW222815   3.126   1.264   8.863 -0.3716  1.3025 -0.3364
 3786SOL     OW22816   3.218   0.358  11.331  0.3471 -0.8251 -0.1948
 3786SOL    HW122817   3.174   0.409  11.399  1.9908  1.2316 -0.6602
 3786SOL    HW222818   3.309   0.366  11.359  0.2356 -1.0604  0.2318
 3787SOL     OW22819   2.321   2.603   7.434  0.1751 -0.1698  0.2277
 3787SOL    HW122820   2.352   2.546   7.364 -1.0620 -0.9638  0.3065
 3787SOL    HW222821   2.383   2.578   7.502 -0.5554 -0.3939  0.8134
 3788SOL     OW22822   1.509   4.145  10.620 -1.1010  0.3441  0.1808
 3788SOL    HW122823   1.422   4.186  10.611 -0.4640  2.0239  1.6957
 3788SOL    HW222824   1.512   4.088  10.696 -0.5173  0.2829  0.1068
 3789SOL     OW22825   1.364   4.368  16.498 -0.6273 -0.0132 -0.3206
 3789SOL    HW122826   1.273   4.345  16.518 -0.0843  0.2336  2.4493
 3789SOL    HW222827   1.389   4.412  16.579  1.6083 -2.6249  0.3935
 3790SOL     OW22828   4.240   1.982  10.083  0.5003 -0.0447  0.2320
 3790SOL    HW122829   4.147   1.959  10.077  0.1668  0.4666  3.0640
 3790SOL    HW222830   4.275   1.894  10.095  2.8206  0.5831 -2.0273
 3791SOL     OW22831   4.400   2.014  14.328  0.6168 -0.3231  0.0653
 3791SOL    HW122832   4.414   2.083  14.263 -1.9580  0.3064  0.1732
 3791SOL    HW222833   4.446   1.934  14.303  0.6435 -0.9815  2.2326
 3792SOL     OW22834   0.993   0.883  14.720  0.1018  0.3736 -0.6231
 3792SOL    HW122835   1.079   0.864  14.758  0.0530 -1.4100 -1.4055
 3792SOL    HW222836   0.966   0.793  14.703  0.5002  0.5324 -2.1242
 3793SOL     OW22837   2.335   1.972  13.323  0.3706  0.5041 -0.0394
 3793SOL    HW122838   2.289   2.056  13.320 -0.3353  0.1548  1.2470
 3793SOL    HW222839   2.393   1.978  13.399  0.9528 -0.2802 -0.4157
 3794SOL     OW22840   2.726   4.427   4.598  0.1969 -0.5187 -0.1619
 3794SOL    HW122841   2.714   4.337   4.627  0.3512 -0.1264  1.1565
 3794SOL    HW222842   2.649   4.468   4.636  0.7160 -0.5492  0.9296
 3795SOL     OW22843   2.361   2.655  17.520 -0.1834 -0.2928 -0.6082
 3795SOL    HW122844   2.354   2.670  17.614 -1.4329 -0.0470 -0.7448
 3795SOL    HW222845   2.327   2.734  17.479 -0.2257 -0.6551 -1.2749
 3796SOL     OW22846   1.867   1.720   6.587 -0.2767  0.4460  0.0029
 3796SOL    HW122847   1.953   1.738   6.549 -0.2177  0.6404  0.2305
 3796SOL    HW222848   1.808   1.738   6.513 -0.8511 -1.0189  0.1023
 3797SOL     OW22849   3.234   3.638  11.086  0.2649 -0.6739 -0.4389
 3797SOL    HW122850   3.167   3.580  11.122  0.5538 -0.3242  0.6599
 3797SOL    HW222851   3.225   3.608  10.996 -0.4877 -2.5859  0.2878
 3798SOL     OW22852   0.009   2.625   9.756  0.1518 -0.2623  0.1669
 3798SOL    HW122853   0.030   2.626   9.662  1.4252 -1.7549  0.4347
 3798SOL    HW222854   0.062   2.695   9.793  0.5204  0.5298 -1.8135
 3799SOL     OW22855   3.349   3.556  16.164  0.2861  0.3238 -0.1497
 3799SOL    HW122856   3.369   3.467  16.193  0.4700 -0.6771 -3.3039
 3799SOL    HW222857   3.279   3.584  16.223  0.0691 -1.5127  0.4555
 3800SOL     OW22858   3.905   0.884  14.484  0.5213 -0.3557 -0.9387
 3800SOL    HW122859   3.880   0.917  14.398 -2.8084  0.2265  0.2219
 3800SOL    HW222860   3.932   0.967  14.523 -2.6466  0.1505  0.1550
 3801SOL     OW22861   4.475   0.982   0.407  0.2222  0.8257 -0.7935
 3801SOL    HW122862   4.448   1.062   0.452 -0.0917  0.2445  0.0670
 3801SOL    HW222863   4.522   1.011   0.329 -0.1947 -0.0280 -1.3556
 3802SOL     OW22864   1.600   2.559  12.099  0.2713  0.0516  0.0382
 3802SOL    HW122865   1.677   2.522  12.141 -0.3070  1.4662  2.3695
 3802SOL    HW222866   1.548   2.479  12.101  3.1499 -1.7909 -0.6940
 3803SOL     OW22867   2.135   3.447   2.117  0.2207  0.8027  0.1459
 3803SOL    HW122868   2.067   3.409   2.174 -0.0637  2.6971  1.0953
 3803SOL    HW222869   2.104   3.538   2.114  0.2730  0.9223  2.5024
 3804SOL     OW22870   3.987   0.701   2.889  0.2675  0.2677  0.3087
 3804SOL    HW122871   4.082   0.694   2.900  0.6204  2.6147 -1.2067
 3804SOL    HW222872   3.977   0.796   2.899  0.0060  0.0804  1.8900
 3805SOL     OW22873   3.458   1.043   4.615 -0.1629 -0.0451  0.0468
 3805SOL    HW122874   3.504   1.068   4.535  1.9603 -0.6679  1.0528
 3805SOL    HW222875   3.462   1.131   4.654  2.1012 -0.2237  0.2570
 3806SOL     OW22876   0.159   3.038   4.813  0.0555  0.2261 -0.2872
 3806SOL    HW122877   0.212   3.081   4.880 -1.5712 -1.1156  1.8484
 3806SOL    HW222878   0.215   3.063   4.739 -0.2495 -0.7012 -0.8327
 3807SOL     OW22879   2.520   2.652   1.066 -0.7081 -0.1497 -0.2320
 3807SOL    HW122880   2.612   2.629   1.075  0.0934  3.5184  1.0581
 3807SOL    HW222881   2.486   2.645   1.155  0.3134  0.7127  0.2350
 3808SOL     OW22882   1.898   2.087   8.437 -0.7067 -0.4135 -0.3076
 3808SOL    HW122883   1.898   2.073   8.342  2.6637  0.8731 -0.4720
 3808SOL    HW222884   1.900   1.993   8.456  1.1001  0.0956  1.9783
 3809SOL     OW22885   4.552   2.297   4.925 -0.0365 -0.2003 -0.1653
 3809SOL    HW122886   4.472   2.317   4.877  0.7320  1.8689 -0.5896
 3809SOL    HW222887   4.606   2.253   4.858 -0.9681 -1.6205  0.0128
 3810SOL     OW22888   2.699   2.047   5.934  0.2107  0.4497  0.1850
 3810SOL    HW122889   2.650   2.116   5.888 -0.5720  1.0643  1.9629
 3810SOL    HW222890   2.666   2.061   6.022 -1.5419 -0.5567 -0.3205
 3811SOL     OW22891   2.000   3.839   2.848 -0.8735  0.0110 -0.0500
 3811SOL    HW122892   2.022   3.930   2.830 -1.2883 -0.3127 -2.2441
 3811SOL    HW222893   1.961   3.808   2.766  1.6362 -1.0003 -0.8609
 3812SOL     OW22894   0.547   4.538   7.328  0.4543 -0.3279 -0.1257
 3812SOL    HW122895   0.535   4.503   7.416  1.3097 -0.9102 -0.2407
 3812SOL    HW222896   0.457   4.551   7.297  0.8913  2.3232 -0.2767
 3813SOL     OW22897   2.430   2.937   2.243 -0.1864  0.7369 -0.0068
 3813SOL    HW122898   2.358   2.939   2.179  0.8462  1.4578 -1.1448
 3813SOL    HW222899   2.444   2.843   2.252 -1.7058  0.4305 -0.7369
 3814SOL     OW22900   3.043   1.761   0.126 -0.0248  0.8649  0.4873
 3814SOL    HW122901   2.985   1.728   0.195 -0.3171  0.2123 -0.0728
 3814SOL    HW222902   3.096   1.826   0.172 -0.6139  1.8617 -0.2618
 3815SOL     OW22903   2.329   4.314  10.093 -0.2291  0.1905 -0.1278
 3815SOL    HW122904   2.308   4.323  10.186 -0.9855 -1.2997 -0.1625
 3815SOL    HW222905   2.365   4.403  10.084 -0.5494  0.6597  3.2266
 3816SOL     OW22906   3.332   0.746   8.988 -0.1151  0.6543  0.4373
 3816SOL    HW122907   3.406   0.750   8.927 -0.3891  0.7102  0.1053
 3816SOL    HW222908   3.310   0.839   8.993 -2.8782  0.0431 -0.4586
 3817SOL     OW22909   4.181   2.844   5.716 -0.4495  0.0897 -0.2543
 3817SOL    HW122910   4.270   2.810   5.704  0.1087  1.6565 -0.5834
 3817SOL    HW222911   4.187   2.863   5.809 -2.0750  0.7284 -0.2788
 3818SOL     OW22912   2.636   3.764   6.758  0.1146  0.0125 -0.4005
 3818SOL    HW122913   2.621   3.741   6.666  0.7047 -0.9759 -0.2395
 3818SOL    HW222914   2.577   3.839   6.765 -0.6027 -0.6425  0.5620
 3819SOL     OW22915   0.268   2.744  15.251  0.2810  0.2678 -0.4212
 3819SOL    HW122916   0.322   2.729  15.173  0.7799  1.5021 -0.3155
 3819SOL    HW222917   0.184   2.709  15.222  0.4808  0.9100 -1.7278
 3820SOL     OW22918   3.444   1.690  12.931  0.1624 -0.4072 -0.4012
 3820SOL    HW122919   3.455   1.749  13.006  0.0899 -0.7576 -0.1141
 3820SOL    HW222920   3.386   1.743  12.877 -0.3156  0.4633  0.9426
 3821SOL     OW22921   4.463   2.676  13.422 -0.2574  0.3433 -0.6376
 3821SOL    HW122922   4.519   2.709  13.352  1.1731  2.8887  1.7061
 3821SOL    HW222923   4.391   2.738  13.407 -1.9178 -1.1723  0.9361
 3822SOL     OW22924   0.085   1.484   3.843  0.2087  0.2872 -0.4535
 3822SOL    HW122925   0.034   1.403   3.841  2.4331 -1.1251 -0.0235
 3822SOL    HW222926   0.104   1.494   3.749  1.2043  0.4319 -0.2253
 3823SOL     OW22927   1.107   2.128   5.330  0.7908  0.0614  0.5559
 3823SOL    HW122928   1.111   2.160   5.240 -2.2525  1.5322  0.9557
 3823SOL    HW222929   1.019   2.154   5.355  0.9699  0.8518  0.3769
 3824SOL     OW22930   3.599   0.202   2.523 -0.1652  0.2359  0.1265
 3824SOL    HW122931   3.541   0.275   2.498 -0.2377 -0.5532 -2.0614
 3824SOL    HW222932   3.580   0.144   2.449  1.1362 -2.0010  1.5499
 3825SOL     OW22933   3.174   4.441  14.770 -0.1515 -0.4320  0.1804
 3825SOL    HW122934   3.257   4.402  14.744  1.6588  1.8316  2.6166
 3825SOL    HW222935   3.127   4.360  14.791 -0.2404 -0.4425 -0.0616
 3826SOL     OW22936   0.444   3.390  16.383 -0.2434 -0.2786  0.3884
 3826SOL    HW122937   0.409   3.473  16.351 -0.1172 -0.1151  0.6669
 3826SOL    HW222938   0.399   3.373  16.466  1.6605 -2.9087  0.8864
 3827SOL     OW22939   2.767   0.212  15.975 -0.3006 -0.0754 -0.0005
 3827SOL    HW122940   2.749   0.147  15.908 -3.0601  1.1555 -0.4649
 3827SOL    HW222941   2.760   0.157  16.053 -0.0395 -1.4291 -0.9527
 3828SOL     OW22942   1.777   2.820  11.596  0.2060  0.2609  0.6885
 3828SOL    HW122943   1.794   2.906  11.635 -0.1573  0.9136 -0.5891
 3828SOL    HW222944   1.791   2.766  11.674 -1.0112 -1.1830 -0.0899
 3829SOL     OW22945   0.615   1.546   2.467  0.1120  0.0909 -0.0365
 3829SOL    HW122946   0.529   1.569   2.431  0.1754  1.4706  0.6693
 3829SOL    HW222947   0.676   1.593   2.410 -0.3840 -0.9432 -1.4080
 3830SOL     OW22948   1.091   4.248   7.919  0.6774 -0.4083 -0.2846
 3830SOL    HW122949   1.136   4.288   7.994 -0.1154 -0.3031  0.1404
 3830SOL    HW222950   1.137   4.165   7.928 -1.1666 -1.3012  0.9567
 3831SOL     OW22951   0.314   0.579  13.637 -0.1503 -0.5667 -0.8452
 3831SOL    HW122952   0.381   0.536  13.583 -0.7180 -1.5768 -0.7571
 3831SOL    HW222953   0.294   0.651  13.578 -1.3429  2.5576  3.4412
 3832SOL     OW22954   3.411   4.365   6.924 -0.2873 -0.1260  0.2927
 3832SOL    HW122955   3.324   4.405   6.919  0.0438  0.6178  0.4297
 3832SOL    HW222956   3.469   4.441   6.912 -1.7419  0.8072 -0.8955
 3833SOL     OW22957   2.840   2.890  13.285  1.2573  0.2395 -0.0647
 3833SOL    HW122958   2.935   2.899  13.297  0.8396  1.0759  2.6565
 3833SOL    HW222959   2.829   2.983  13.305 -0.2103  0.4538 -1.8343
 3834SOL     OW22960   3.295   3.671   7.798 -0.2144 -0.3944 -0.0905
 3834SOL    HW122961   3.280   3.664   7.892 -1.5094  0.8700 -0.2064
 3834SOL    HW222962   3.359   3.743   7.801 -0.7303  0.1397 -1.5951
 3835SOL     OW22963   3.230   2.382   7.862  0.4464  0.2858 -0.0297
 3835SOL    HW122964   3.213   2.400   7.954  1.0654 -0.0120  0.1441
 3835SOL    HW222965   3.313   2.431   7.864  1.6723 -1.8127  0.0521
 3836SOL     OW22966   4.020   4.417   4.735 -0.0814 -0.5151  0.2641
 3836SOL    HW122967   3.985   4.500   4.702 -0.5634 -1.1345 -0.7705
 3836SOL    HW222968   3.939   4.368   4.747 -1.9737  2.4372 -0.4300
 3837SOL     OW22969   0.380   2.749   1.188  0.6616  0.2975  0.2427
 3837SOL    HW122970   0.442   2.797   1.243  0.7101 -1.1589  1.4677
 3837SOL    HW222971   0.347   2.690   1.257 -1.2097 -1.3275 -2.0452
 3838SOL     OW22972   1.330   0.814   2.624  0.6039  0.3920 -0.6721
 3838SOL    HW122973   1.351   0.791   2.533  2.3705  2.0703 -0.6710
 3838SOL    HW222974   1.298   0.904   2.620 -0.7089 -0.1656 -2.9583
 3839SOL     OW22975   0.742   1.501   1.023  0.3342  0.1692 -0.6053
 3839SOL    HW122976   0.744   1.573   0.960  1.4008 -0.0465 -0.8290
 3839SOL    HW222977   0.653   1.469   1.012 -0.0049  1.2142 -0.8719
 3840SOL     OW22978   4.306   3.379   3.628 -0.0229 -0.1297 -0.1999
 3840SOL    HW122979   4.358   3.460   3.628 -3.0921  1.8406  0.7837
 3840SOL    HW222980   4.238   3.404   3.690 -0.4884 -0.1028 -0.7292
 3841SOL     OW22981   1.257   2.665   8.126 -0.0050  0.0211  0.0099
 3841SOL    HW122982   1.259   2.651   8.221 -0.0442 -0.3065 -0.0351
 3841SOL    HW222983   1.347   2.697   8.119 -0.1645  0.0402 -1.8583
 3842SOL     OW22984   2.536   4.307   9.777  0.0377 -0.3091  0.2124
 3842SOL    HW122985   2.622   4.338   9.750 -0.4476  1.6008  0.8372
 3842SOL    HW222986   2.564   4.237   9.836  3.0525  1.6633  1.1369
 3843SOL     OW22987   2.863   1.329   5.480  0.4310  0.6233  0.1486
 3843SOL    HW122988   2.827   1.382   5.410 -1.2364  0.7692  1.1088
 3843SOL    HW222989   2.953   1.361   5.486  0.2343  1.2165 -0.0845
 3844SOL     OW22990   2.383   0.587   0.358  0.7415  0.2791 -0.6055
 3844SOL    HW122991   2.478   0.574   0.360  0.6493 -0.7760 -3.5354
 3844SOL    HW222992   2.369   0.680   0.340 -3.3316 -0.3389 -0.5698
 3845SOL     OW22993   0.729   3.390  16.345  0.1572  0.1438  0.5298
 3845SOL    HW122994   0.635   3.378  16.355  0.1766  1.2498  1.9225
 3845SOL    HW222995   0.739   3.398  16.250 -0.9489 -0.8376  0.3335
 3846SOL     OW22996   1.207   0.376   9.726  0.0228  0.3799  0.8547
 3846SOL    HW122997   1.298   0.407   9.720  0.5356 -1.0762  1.0179
 3846SOL    HW222998   1.167   0.449   9.773  2.1541  4.1957 -3.2746
 3847SOL     OW22999   0.168   2.517  13.553 -0.2079 -0.0901 -0.0193
 3847SOL    HW123000   0.187   2.611  13.565 -0.4929 -0.3255  2.2708
 3847SOL    HW223001   0.093   2.502  13.609 -2.3472 -0.0928 -2.8844
 3848SOL     OW23002   3.131   1.230   7.007  0.1376 -0.0834 -0.1938
 3848SOL    HW123003   3.049   1.233   7.056  1.2551  1.4660  1.5521
 3848SOL    HW223004   3.171   1.269   7.085 -2.3293  0.3207  0.8552
 3849SOL     OW23005   2.801   4.521   3.518  0.2135 -0.4962  0.1090
 3849SOL    HW123006   2.796   4.466   3.596 -0.4404  2.9709  2.5236
 3849SOL    HW223007   2.893   4.504   3.498  0.7949  3.3086 -0.4726
 3850SOL     OW23008   2.570   0.632   3.626  0.2415 -0.4320 -0.0965
 3850SOL    HW123009   2.631   0.696   3.664 -1.5724  1.0711  0.2859
 3850SOL    HW223010   2.571   0.570   3.698  0.7269 -0.6443 -0.2866
 3851SOL     OW23011   2.097   0.361   5.563 -0.4057  0.2930 -0.3876
 3851SOL    HW123012   2.047   0.438   5.591 -0.2597 -0.8468  3.0441
 3851SOL    HW223013   2.033   0.290   5.554  0.5413 -0.8160  1.6815
 3852SOL     OW23014   1.497   1.457  11.601  0.3750 -0.2371 -0.1517
 3852SOL    HW123015   1.431   1.433  11.666 -0.0056  1.3147  0.0411
 3852SOL    HW223016   1.510   1.377  11.551 -2.0633 -0.7375  0.0324
 3853SOL     OW23017   1.089   2.190   2.398 -0.0126 -0.3345 -0.3206
 3853SOL    HW123018   1.038   2.156   2.472 -1.8183  0.1204 -1.3566
 3853SOL    HW223019   1.029   2.173   2.325 -1.7249 -0.7996  1.1862
 3854SOL     OW23020   1.700   1.202   1.993  0.7454  0.4174 -0.0420
 3854SOL    HW123021   1.769   1.255   1.953  0.0474  1.7377  0.5139
 3854SOL    HW223022   1.699   1.250   2.076 -0.7932 -1.5905  1.1038
 3855SOL     OW23023   4.269   3.917   7.556  0.5722  0.4845 -0.0803
 3855SOL    HW123024   4.249   3.852   7.489  1.5606 -1.7943  1.8682
 3855SOL    HW223025   4.363   3.920   7.541  0.5536 -1.6847 -0.5518
 3856SOL     OW23026   4.433   0.027   8.451  0.2282  0.5406 -0.1867
 3856SOL    HW123027   4.491   0.103   8.460  1.2315  0.0198 -2.3374
 3856SOL    HW223028   4.365   0.050   8.514 -2.4855 -1.0231 -2.6032
 3857SOL     OW23029   3.566   2.362   2.081 -1.0340 -0.1090  0.8007
 3857SOL    HW123030   3.600   2.293   2.024  2.5175  0.9948  1.6153
 3857SOL    HW223031   3.473   2.343   2.065 -1.0298 -0.4320  1.1655
 3858SOL     OW23032   2.545   3.740   5.100 -0.0329 -0.4462  0.5472
 3858SOL    HW123033   2.499   3.819   5.072 -1.1718 -0.9866  0.8660
 3858SOL    HW223034   2.613   3.774   5.157 -0.3312 -0.6327  1.0187
 3859SOL     OW23035   0.764   1.409   3.364  0.6719  0.5564  0.0080
 3859SOL    HW123036   0.822   1.472   3.321  1.7197 -0.0988  0.4678
 3859SOL    HW223037   0.770   1.439   3.455  1.5929 -0.4096  0.2634
 3860SOL     OW23038   2.014   4.674   6.761  0.3319 -0.2386  0.1057
 3860SOL    HW123039   2.093   4.650   6.714  1.1095  1.2304  0.6649
 3860SOL    HW223040   1.948   4.630   6.707 -0.8209  1.0763  0.4109
 3861SOL     OW23041   2.076   2.203   3.375 -0.0333  0.5903 -0.5131
 3861SOL    HW123042   2.085   2.108   3.370 -0.0275  0.5312  0.8489
 3861SOL    HW223043   2.006   2.216   3.438  0.5475 -1.0904  0.4678
 3862SOL     OW23044   2.217   0.474  11.875 -0.4126 -0.0365 -0.1424
 3862SOL    HW123045   2.144   0.419  11.900 -0.9326  0.1590 -1.2404
 3862SOL    HW223046   2.197   0.499  11.785  0.7606  0.1245 -0.3627
 3863SOL     OW23047   4.234   2.411   9.404 -0.2566 -0.1063 -0.2555
 3863SOL    HW123048   4.294   2.341   9.377  1.3833  0.4342  1.9932
 3863SOL    HW223049   4.206   2.443   9.319 -1.2737  0.1348  0.1718
 3864SOL     OW23050   1.594   0.992   7.494  0.5337  0.1708  0.1223
 3864SOL    HW123051   1.662   1.055   7.518  1.1984 -0.9240  1.1027
 3864SOL    HW223052   1.551   1.042   7.424  0.4061  2.1663  1.6289
 3865SOL     OW23053   1.094   1.904   7.512 -0.0840 -0.1929  0.5938
 3865SOL    HW123054   1.004   1.926   7.487  0.0399  0.1621  0.4571
 3865SOL    HW223055   1.147   1.957   7.452 -1.0450  0.2713  0.1668
 3866SOL     OW23056   1.460   3.997  10.846 -0.1637 -0.2093  0.4635
 3866SOL    HW123057   1.478   4.061  10.915  0.1893 -1.2167  1.2975
 3866SOL    HW223058   1.460   3.920  10.903  1.8132  0.7297  1.7394
 3867SOL     OW23059   1.207   1.943   6.408  0.2956 -0.0465  0.4275
 3867SOL    HW123060   1.115   1.958   6.431  0.0177 -0.4183 -0.4344
 3867SOL    HW223061   1.234   2.033   6.389  0.5122 -0.3099 -0.5265
 3868SOL     OW23062   0.676   1.422   6.657  0.1040  0.1650  0.6186
 3868SOL    HW123063   0.680   1.426   6.561 -2.2425  0.0124  0.4967
 3868SOL    HW223064   0.590   1.461   6.675 -0.2646  0.2822 -1.3507
 3869SOL     OW23065   3.622   4.148  16.907  0.9678  0.2857  0.2667
 3869SOL    HW123066   3.615   4.058  16.937  2.9303  0.3348  0.9094
 3869SOL    HW223067   3.601   4.141  16.814 -1.5002  1.3202  0.7516
 3870SOL     OW23068   1.874   2.306   5.786 -0.2585  0.0645  0.0106
 3870SOL    HW123069   1.782   2.328   5.775 -0.0091  1.6315  1.0631
 3870SOL    HW223070   1.877   2.299   5.881  2.4692 -1.0511 -0.1577
 3871SOL     OW23071   0.915   2.412  12.703  0.0303 -0.0803 -0.0508
 3871SOL    HW123072   0.991   2.448  12.748 -0.9971  0.4830  1.2538
 3871SOL    HW223073   0.934   2.321  12.727 -2.8635 -0.9355 -0.9907
 3872SOL     OW23074   2.371   1.247   3.856 -0.5954 -0.3437  0.1530
 3872SOL    HW123075   2.455   1.293   3.864 -0.9890  0.3295  0.4325
 3872SOL    HW223076   2.384   1.205   3.771  1.2358  0.4399  0.0278
 3873SOL     OW23077   2.425   0.640   9.178 -0.0567  0.2839  0.4463
 3873SOL    HW123078   2.358   0.694   9.136  3.0417  2.5594 -1.5223
 3873SOL    HW223079   2.392   0.550   9.169  0.9836 -0.0602  0.0235
 3874SOL     OW23080   3.383   4.635   9.536 -0.5531  0.7373 -0.2044
 3874SOL    HW123081   3.470   4.667   9.511 -0.0472 -0.3009  0.2314
 3874SOL    HW223082   3.348   4.720   9.563 -0.2230  0.0125  2.4306
 3875SOL     OW23083   0.626   3.909   4.788  0.0591 -0.3515 -0.4458
 3875SOL    HW123084   0.606   3.997   4.757  1.6736  0.3820  0.5636
 3875SOL    HW223085   0.546   3.869   4.823 -0.6496  1.0197 -0.4903
 3876SOL     OW23086   2.996   3.520   8.749  0.2252 -0.4492 -0.3588
 3876SOL    HW123087   3.017   3.428   8.735  1.4657 -0.4337  1.3707
 3876SOL    HW223088   2.981   3.555   8.662  0.3948 -0.5995 -0.4483
 3877SOL     OW23089   3.680   0.415   6.283 -0.0250 -0.3990  0.5075
 3877SOL    HW123090   3.692   0.404   6.188  0.3243  0.2781  0.4659
 3877SOL    HW223091   3.587   0.431   6.294 -0.0066  0.1339 -0.0655
 3878SOL     OW23092   2.672   0.315   2.943 -0.4102  0.4880  0.4199
 3878SOL    HW123093   2.594   0.362   2.912  0.5410  1.6873 -0.1827
 3878SOL    HW223094   2.651   0.238   2.890  0.6042 -0.6307  1.6478
 3879SOL     OW23095   3.648   3.159   6.414 -0.2006 -0.0751  0.3890
 3879SOL    HW123096   3.638   3.093   6.483 -2.1284  0.4260  0.5680
 3879SOL    HW223097   3.742   3.157   6.396 -0.0096 -4.0393  1.8925
 3880SOL     OW23098   3.806   0.576  16.029 -0.3588 -0.1706  0.6320
 3880SOL    HW123099   3.801   0.671  16.018 -1.4202 -0.2006  0.8391
 3880SOL    HW223100   3.831   0.560  16.120  0.0540 -1.2035  0.3392
 3881SOL     OW23101   4.703   2.231  17.354 -0.7873 -0.1860  0.3792
 3881SOL    HW123102   4.646   2.304  17.378 -1.2248 -0.0914 -0.9356
 3881SOL    HW223103   4.630   2.174  17.328  1.3988 -1.9902 -1.8256
 3882SOL     OW23104   2.178   2.875   0.742  0.0270  0.0880  0.0296
 3882SOL    HW123105   2.111   2.853   0.806  0.1434  0.8615  0.4149
 3882SOL    HW223106   2.246   2.807   0.746  0.1734  0.2328  0.0149
 3883SOL     OW23107   3.327   1.493   7.092  0.1361 -0.3946 -0.2684
 3883SOL    HW123108   3.394   1.424   7.090  1.6153  1.0105  0.9732
 3883SOL    HW223109   3.311   1.491   6.998 -0.5026 -1.6392 -0.1226
 3884SOL     OW23110   0.996   1.590   3.327  0.8531  0.0703  0.2000
 3884SOL    HW123111   0.997   1.663   3.266  4.8221 -0.0544  0.1199
 3884SOL    HW223112   1.017   1.519   3.266 -1.8316 -2.3390  2.0457
 3885SOL     OW23113   4.455   2.702   1.940 -0.2884  0.4281  0.7242
 3885SOL    HW123114   4.452   2.765   1.868  0.4764 -2.3856 -1.8079
 3885SOL    HW223115   4.389   2.639   1.911 -0.2744 -0.4022  2.5201
 3886SOL     OW23116   4.021   0.266   6.032  0.2725  0.2382  0.3769
 3886SOL    HW123117   3.959   0.332   6.002  0.6882  1.1173  1.4666
 3886SOL    HW223118   4.082   0.269   5.958 -0.9279 -1.3058 -0.6841
 3887SOL     OW23119   2.982   2.176   8.311 -0.0386  0.5174 -0.3789
 3887SOL    HW123120   2.950   2.144   8.227  0.3711 -3.1742  0.8870
 3887SOL    HW223121   2.930   2.256   8.317 -1.8939 -0.7989  0.7583
 3888SOL     OW23122   1.255   4.394   7.302  0.3878 -0.3371 -0.1088
 3888SOL    HW123123   1.331   4.447   7.278  0.2163 -0.6459 -1.3144
 3888SOL    HW223124   1.234   4.427   7.390  0.1989 -0.1972 -0.2053
 3889SOL     OW23125   0.763   3.699  11.827  0.1673  0.4466  0.2923
 3889SOL    HW123126   0.756   3.773  11.887 -0.2634 -0.9168  1.9049
 3889SOL    HW223127   0.854   3.673  11.820 -0.4065 -2.3179  3.3433
 3890SOL     OW23128   0.104   4.150  14.274 -0.4840  0.0528 -0.2594
 3890SOL    HW123129   0.128   4.242  14.277  1.6759 -0.5558  1.3666
 3890SOL    HW223130   0.136   4.111  14.356 -2.7708  1.3983  1.2723
 3891SOL     OW23131   1.193   4.480   7.545  0.3908  0.2534 -0.5020
 3891SOL    HW123132   1.147   4.542   7.601  0.7004 -1.1936  1.3564
 3891SOL    HW223133   1.174   4.399   7.593 -1.4863  0.8111 -0.3157
 3892SOL     OW23134   2.340   2.362   6.068  0.4329  0.1819 -0.1790
 3892SOL    HW123135   2.295   2.357   5.984  0.1080  0.7317 -0.0349
 3892SOL    HW223136   2.382   2.446   6.053  0.3222  0.4056  0.7744
 3893SOL     OW23137   1.699   1.591   6.801  0.1473  0.6951  0.0031
 3893SOL    HW123138   1.756   1.629   6.734  1.5806  0.9426  1.3929
 3893SOL    HW223139   1.629   1.653   6.780 -0.7154  0.2674  1.6344
 3894SOL     OW23140   3.439   2.743  17.512 -0.4347  0.1331  0.1674
 3894SOL    HW123141   3.461   2.834  17.491 -0.4988  0.1216  0.0486
 3894SOL    HW223142   3.432   2.707  17.424  1.6880 -0.4826  0.2637
 3895SOL     OW23143   1.420   0.676  17.634  0.6160  0.3399  0.0279
 3895SOL    HW123144   1.332   0.712  17.643 -0.0420 -1.1977 -0.3958
 3895SOL    HW223145   1.419   0.639  17.546 -4.0466  1.4116 -0.3483
 3896SOL     OW23146   4.371   2.497   3.298  0.0925  0.2249 -0.4646
 3896SOL    HW123147   4.345   2.579   3.258  0.7231  1.4269  1.5754
 3896SOL    HW223148   4.361   2.447   3.217  0.6772  1.1538 -1.1115
 3897SOL     OW23149   2.234   4.112   2.000  0.0185  0.4342  0.5649
 3897SOL    HW123150   2.154   4.156   1.972  1.1722  1.9582 -0.3187
 3897SOL    HW223151   2.262   4.069   1.919 -1.9374 -1.9157  1.1279
 3898SOL     OW23152   0.936   4.125   2.410 -0.3205 -0.1729 -0.5546
 3898SOL    HW123153   0.898   4.057   2.355 -1.9798  0.2442  0.0927
 3898SOL    HW223154   0.955   4.190   2.343 -3.4509  0.0230 -1.2334
 3899SOL     OW23155   0.706   4.619   5.178 -0.6465 -0.3953  0.3001
 3899SOL    HW123156   0.701   4.590   5.087 -1.9181  2.5052 -0.5609
 3899SOL    HW223157   0.640   4.557   5.209 -0.1861  0.1289  2.3238
 3900SOL     OW23158   4.066   4.093   6.648  0.4245  0.4293  0.2476
 3900SOL    HW123159   3.985   4.051   6.619  1.4246 -1.0640 -0.3976
 3900SOL    HW223160   4.048   4.183   6.622  3.2400  1.0558  0.4963
 3901SOL     OW23161   4.311   2.602  10.242 -0.0190 -0.1136 -0.1173
 3901SOL    HW123162   4.245   2.619  10.308 -0.3767 -0.4088 -0.4012
 3901SOL    HW223163   4.267   2.629  10.161  0.6524  0.8283 -0.1700
 3902SOL     OW23164   3.426   3.322   8.777 -0.4089  0.1818 -0.3299
 3902SOL    HW123165   3.500   3.383   8.770 -0.4622  0.5113  1.9418
 3902SOL    HW223166   3.487   3.251   8.796 -0.2898 -0.6207 -3.7139
 3903SOL     OW23167   0.172   0.079   9.714 -0.0870 -0.1168 -0.2989
 3903SOL    HW123168   0.198   0.171   9.719  0.5731 -0.2610 -1.0576
 3903SOL    HW223169   0.182   0.073   9.619 -0.5032  1.4511 -0.4312
 3904SOL     OW23170   0.622   0.122  13.125  0.1724  0.3376  0.0717
 3904SOL    HW123171   0.608   0.056  13.193 -3.8893  1.6252  0.5077
 3904SOL    HW223172   0.536   0.142  13.087  0.5992  0.2386 -0.9442
 3905SOL     OW23173   2.520   0.739   6.249 -0.0384 -0.0648 -0.2165
 3905SOL    HW123174   2.586   0.767   6.313 -0.5095  1.8224 -0.5763
 3905SOL    HW223175   2.581   0.727   6.176  1.2906  0.2455  0.8491
 3906SOL     OW23176   1.763   4.635   5.368 -0.4507  0.3408 -0.1517
 3906SOL    HW123177   1.853   4.607   5.353 -0.6988 -0.0564 -0.9232
 3906SOL    HW223178   1.723   4.583   5.298  1.8152  0.7449 -1.7798
 3907SOL     OW23179   3.305   0.911   5.258  0.8445 -0.3364 -0.2251
 3907SOL    HW123180   3.218   0.873   5.268  0.9485 -0.4603  0.2135
 3907SOL    HW223181   3.347   0.858   5.325 -2.4753 -1.2674  1.1305
 3908SOL     OW23182   3.970   3.044   8.013  0.1481 -0.1936 -0.1169
 3908SOL    HW123183   3.894   3.090   7.977  2.1268  1.3909 -2.2916
 3908SOL    HW223184   4.001   3.008   7.930  0.8914 -0.0532  0.1000
 3909SOL     OW23185   1.435   3.720   7.062  0.5444  0.2230 -0.0670
 3909SOL    HW123186   1.493   3.644   7.056  0.9055  0.5227 -0.3740
 3909SOL    HW223187   1.480   3.776   7.125  3.4314 -1.6704 -0.4621
 3910SOL     OW23188   3.993   1.043   9.007  0.3674 -0.5467  0.1021
 3910SOL    HW123189   3.963   1.069   8.920 -0.9979  0.0566  0.7463
 3910SOL    HW223190   4.005   1.126   9.053 -3.3554  0.2735 -0.3452
 3911SOL     OW23191   2.571   3.734   3.615 -0.3812  0.3351 -0.4577
 3911SOL    HW123192   2.666   3.741   3.626 -0.4545 -0.5499  0.8343
 3911SOL    HW223193   2.549   3.819   3.579 -2.5129  0.6059  1.4233
 3912SOL     OW23194   2.588   0.840   9.270  0.2276 -0.3654  0.2652
 3912SOL    HW123195   2.541   0.777   9.215 -1.5513  0.3618  0.9557
 3912SOL    HW223196   2.517   0.862   9.330  0.2901  0.3196  0.0831
 3913SOL     OW23197   0.233   4.367   7.492 -0.1345 -0.7478 -0.1274
 3913SOL    HW123198   0.185   4.304   7.438  0.9387 -2.3874  0.8244
 3913SOL    HW223199   0.179   4.446   7.488 -0.0391 -0.8090 -2.7110
 3914SOL     OW23200   1.452   0.995   2.159  0.0802 -0.0164  0.0302
 3914SOL    HW123201   1.429   1.065   2.219 -0.4904 -0.4119  0.2681
 3914SOL    HW223202   1.363   0.973   2.131  0.5531  0.4332 -1.8533
 3915SOL     OW23203   0.963   1.322   0.941 -0.1955  0.3774  0.2384
 3915SOL    HW123204   0.871   1.318   0.966  0.0049 -0.9968  0.7431
 3915SOL    HW223205   0.995   1.254   1.000  1.6951  0.3931 -0.7691
 3916SOL     OW23206   0.756   3.377   0.623 -0.2373  0.3223  0.1316
 3916SOL    HW123207   0.840   3.422   0.623 -0.8572  1.5149  1.7983
 3916SOL    HW223208   0.730   3.404   0.535 -1.3804  2.2744  1.0525
 3917SOL     OW23209   1.441   1.619   8.112  0.1679  0.0204 -0.3492
 3917SOL    HW123210   1.434   1.704   8.069  2.5227 -0.4470 -1.6529
 3917SOL    HW223211   1.526   1.588   8.079  0.2782 -0.6067  0.5193
 3918SOL     OW23212   0.372   2.539   5.827 -0.3802 -0.4563 -0.1116
 3918SOL    HW123213   0.342   2.475   5.892 -1.1356 -0.5036 -0.5125
 3918SOL    HW223214   0.467   2.526   5.836 -0.2397 -1.3667 -2.8039
 3919SOL     OW23215   1.168   3.261   3.657  0.4378 -0.3703 -0.6908
 3919SOL    HW123216   1.185   3.257   3.563 -1.9453 -0.1614 -1.1324
 3919SOL    HW223217   1.235   3.326   3.677 -1.2134  0.9966  0.3685
 3920SOL     OW23218   3.159   4.001   2.786 -0.5074  0.0554 -0.5651
 3920SOL    HW123219   3.095   4.029   2.851  0.3611 -0.1599  0.3937
 3920SOL    HW223220   3.222   4.070   2.809 -0.6071  0.2955 -1.0111
 3921SOL     OW23221   1.344   0.601  11.982  0.4508  0.3670  0.5929
 3921SOL    HW123222   1.419   0.639  11.936  0.6463  0.6161  1.1045
 3921SOL    HW223223   1.352   0.648  12.066  1.3878  0.9644  0.1694
 3922SOL     OW23224   1.140   2.990   2.819 -0.1623 -0.7535 -0.0508
 3922SOL    HW123225   1.144   3.034   2.734  1.2334  0.7896  0.8281
 3922SOL    HW223226   1.070   3.037   2.864  0.9921 -0.6494  1.6163
 3923SOL     OW23227   2.554   4.564   6.739 -0.1037  0.1432  0.2507
 3923SOL    HW123228   2.558   4.605   6.653 -1.9042 -2.2639 -0.9730
 3923SOL    HW223229   2.643   4.555   6.772 -0.5821  0.6379  1.7168
 3924SOL     OW23230   1.895   1.530   3.828  0.4037  0.0229 -0.6533
 3924SOL    HW123231   1.896   1.569   3.741  2.3423 -0.4483 -0.8548
 3924SOL    HW223232   1.982   1.490   3.822 -0.2697 -1.8176  1.3837
 3925SOL     OW23233   3.672   3.943   2.283  0.3423 -0.3829 -0.4942
 3925SOL    HW123234   3.727   3.999   2.339 -3.0507  1.8371  0.6114
 3925SOL    HW223235   3.675   3.994   2.203  0.9518  0.6997  0.2168
 3926SOL     OW23236   0.333   2.574   4.824 -0.2108 -0.1618 -0.0193
 3926SOL    HW123237   0.290   2.528   4.896 -1.1883  1.1559  0.2522
 3926SOL    HW223238   0.276   2.651   4.823 -0.3707 -0.2859 -0.3816
 3927SOL     OW23239   2.633   1.123   2.334 -0.2238 -0.8385 -0.8181
 3927SOL    HW123240   2.673   1.125   2.247 -0.7480  0.6593 -1.0267
 3927SOL    HW223241   2.693   1.063   2.379  1.4697  0.8758 -0.7512
 3928SOL     OW23242   2.074   4.601   6.351 -0.5744  0.1171  0.8951
 3928SOL    HW123243   2.095   4.690   6.325  0.2135 -0.4965 -0.5930
 3928SOL    HW223244   1.979   4.602   6.357 -0.7344 -1.4015 -1.1522
 3929SOL     OW23245   1.673   0.322  10.060 -0.0194  0.1509  0.0329
 3929SOL    HW123246   1.591   0.284  10.030  0.3042 -0.8289  0.3640
 3929SOL    HW223247   1.641   0.380  10.129  1.4792  2.3865 -1.1429
 3930SOL     OW23248   0.840   4.310  13.445  0.3952  0.6702  0.5133
 3930SOL    HW123249   0.746   4.318  13.434  0.0438 -1.1297  2.2887
 3930SOL    HW223250   0.849   4.285  13.353 -1.3351 -0.9149  0.7741
 3931SOL     OW23251   1.083   1.518  15.253 -0.0387  0.0239 -0.6411
 3931SOL    HW123252   1.164   1.566  15.235 -0.7464  1.3334 -0.3646
 3931SOL    HW223253   1.116   1.449  15.310  3.1212  0.6172 -1.7453
 3932SOL     OW23254   1.694   4.578   1.314  0.1707  0.1314  0.4462
 3932SOL    HW123255   1.757   4.518   1.276  0.5399  0.7282  0.1127
 3932SOL    HW223256   1.648   4.505   1.356 -0.9653  0.7128  0.2283
 3933SOL     OW23257   1.175   3.287   1.450  0.0661 -0.5148 -0.3425
 3933SOL    HW123258   1.208   3.300   1.361  2.4524  0.5455  0.7076
 3933SOL    HW223259   1.087   3.255   1.432  0.2455 -0.3823 -1.4449
 3934SOL     OW23260   1.233   2.737   2.498 -0.0741  0.1816 -0.3703
 3934SOL    HW123261   1.236   2.805   2.565  0.4343 -0.3704  0.1622
 3934SOL    HW223262   1.138   2.726   2.488 -0.0918  0.3615 -0.3885
 3935SOL     OW23263   2.163   0.306   3.743 -0.1515  0.0433  0.0963
 3935SOL    HW123264   2.220   0.285   3.817  2.3346 -1.2086 -2.1616
 3935SOL    HW223265   2.077   0.286   3.779 -0.1918  0.1476  0.0563
 3936SOL     OW23266   0.939   0.251   4.763  0.4464 -0.6203 -0.6421
 3936SOL    HW123267   0.856   0.203   4.763  0.3771 -0.4888  1.8318
 3936SOL    HW223268   0.996   0.184   4.724 -0.1699 -0.0147 -2.5921
 3937SOL     OW23269   2.347   2.292   5.612  0.2880  0.3867 -0.4285
 3937SOL    HW123270   2.400   2.335   5.545  1.4664  2.2176  1.6516
 3937SOL    HW223271   2.263   2.322   5.577  0.6294 -2.0074 -3.2365
 3938SOL     OW23272   3.022   3.982   0.759  0.1540 -0.1555  0.1288
 3938SOL    HW123273   2.985   4.067   0.736 -2.9849 -1.4217  0.5514
 3938SOL    HW223274   3.058   3.948   0.677  0.9541  1.4963 -0.2013
 3939SOL     OW23275   4.150   0.651   9.799  0.4303  0.1920 -0.1334
 3939SOL    HW123276   4.162   0.619   9.710  1.2612 -1.7352  0.6426
 3939SOL    HW223277   4.068   0.607   9.824  1.0033 -0.2779  0.9352
 3940SOL     OW23278   1.192   3.605  11.009  0.2969  0.0983 -0.3212
 3940SOL    HW123279   1.119   3.549  10.980  0.2561 -0.3634  0.6457
 3940SOL    HW223280   1.264   3.542  11.011  0.6682  0.5790  1.9919
 3941SOL     OW23281   2.612   3.238   4.457 -0.6463 -0.1859 -0.1358
 3941SOL    HW123282   2.601   3.333   4.464  1.0105  0.0922 -1.0862
 3941SOL    HW223283   2.543   3.203   4.401  1.1367  0.1024 -2.5203
 3942SOL     OW23284   2.182   0.455   8.939 -0.2769  0.4539  0.9277
 3942SOL    HW123285   2.233   0.390   8.890 -2.3868 -0.2703 -0.3230
 3942SOL    HW223286   2.094   0.417   8.938  0.7766 -1.9476 -0.0690
 3943SOL     OW23287   2.297   3.329   4.976 -0.4476  0.6984  0.1316
 3943SOL    HW123288   2.353   3.376   5.038  0.4870  3.2073 -2.6035
 3943SOL    HW223289   2.226   3.309   5.037 -0.9200  0.7580 -0.3996
 3944SOL     OW23290   3.754   1.464   9.330 -0.4252 -0.5195  0.1551
 3944SOL    HW123291   3.784   1.445   9.419  1.4279 -1.9085 -0.7624
 3944SOL    HW223292   3.691   1.394   9.316 -2.4337  1.1132  1.0326
 3945SOL     OW23293   3.419   4.449   5.192 -0.1519 -0.2785  0.0055
 3945SOL    HW123294   3.434   4.371   5.246  0.5491 -1.2788 -1.6564
 3945SOL    HW223295   3.331   4.423   5.163 -0.5215  0.7887  0.1376
 3946SOL     OW23296   0.767   2.632  13.909  0.1597 -0.3613 -0.2618
 3946SOL    HW123297   0.822   2.707  13.888 -0.1354  0.0491  0.4448
 3946SOL    HW223298   0.679   2.668  13.918 -0.4440 -1.9588  0.2214
 3947SOL     OW23299   0.972   1.270   2.031  0.3958  0.4761 -0.6180
 3947SOL    HW123300   1.039   1.338   2.039  0.8733  0.3475 -3.4826
 3947SOL    HW223301   1.037   1.201   2.020  0.0047  0.3405 -2.1621
 3948SOL     OW23302   0.319   2.358   3.704 -0.2230  0.2298  0.3502
 3948SOL    HW123303   0.235   2.320   3.679  0.7298 -2.1536  0.7807
 3948SOL    HW223304   0.295   2.443   3.741 -0.4476  0.2586  0.1384
 3949SOL     OW23305   0.861   2.304  10.999  0.2456  0.1590 -0.0233
 3949SOL    HW123306   0.864   2.286  10.905 -0.6258 -1.4663  0.2482
 3949SOL    HW223307   0.866   2.217  11.039  1.2331  0.6978  1.0195
 3950SOL     OW23308   4.678   0.437  17.112  0.5577 -0.2338  0.0126
 3950SOL    HW123309   4.681   0.343  17.094  0.1778 -0.8879  3.3419
 3950SOL    HW223310   4.585   0.459  17.121  0.7360  1.9000 -3.0159
 3951SOL     OW23311   1.372   1.157   6.719  0.0026  0.0916  0.0174
 3951SOL    HW123312   1.359   1.175   6.626 -0.5097 -1.4989 -0.2247
 3951SOL    HW223313   1.281   1.148   6.744 -1.4476  4.0020 -3.9337
 3952SOL     OW23314   1.394   2.442   3.933  0.2385 -0.0126  0.3691
 3952SOL    HW123315   1.360   2.353   3.942 -2.7118  1.1558  0.9157
 3952SOL    HW223316   1.330   2.494   3.982 -0.2152  0.3031 -0.5678
 3953SOL     OW23317   3.376   0.152   3.573 -0.8474  0.1738 -0.0637
 3953SOL    HW123318   3.389   0.175   3.482 -1.3450 -0.8859 -0.4040
 3953SOL    HW223319   3.296   0.200   3.596  2.0315  2.9359  4.2160
 3954SOL     OW23320   2.771   4.115   6.429  0.2542  0.2635  0.4272
 3954SOL    HW123321   2.843   4.082   6.482 -0.6083 -0.5204  1.1107
 3954SOL    HW223322   2.815   4.169   6.363  0.7553 -0.5617  0.0867
 3955SOL     OW23323   2.662   3.366   7.969 -0.0460  0.1974 -0.1929
 3955SOL    HW123324   2.709   3.430   8.022 -0.2074  0.8793 -0.8830
 3955SOL    HW223325   2.735   3.341   7.913  1.6777  1.7413  1.3963
 3956SOL     OW23326   3.445   2.870   2.833 -0.0859  0.1201  0.3868
 3956SOL    HW123327   3.520   2.926   2.813  0.1680 -0.3853 -0.0797
 3956SOL    HW223328   3.376   2.934   2.848 -0.0969 -0.2881  2.1569
 3957SOL     OW23329   4.448   4.704   5.099  0.4297  0.7565 -0.3823
 3957SOL    HW123330   4.398   4.630   5.133  0.0373  1.7615  1.2457
 3957SOL    HW223331   4.519   4.663   5.049  0.1392  1.1620 -1.1276
 3958SOL     OW23332   1.290   4.174   8.127  0.6832 -0.3423 -0.9719
 3958SOL    HW123333   1.320   4.203   8.213 -0.1961 -1.4571 -0.2804
 3958SOL    HW223334   1.334   4.089   8.133  0.5457 -0.3432  0.0467
 3959SOL     OW23335   3.794   2.843   8.902  0.1790 -0.1188  0.1640
 3959SOL    HW123336   3.792   2.918   8.961  2.1346  0.5978 -0.7088
 3959SOL    HW223337   3.873   2.794   8.925  0.8172  0.3397 -1.0498
 3960SOL     OW23338   3.393   2.936  16.092 -0.3950 -0.6317  0.2888
 3960SOL    HW123339   3.451   2.984  16.033  0.4417 -1.4616  0.4327
 3960SOL    HW223340   3.423   2.969  16.176  0.9136  0.5373 -0.6503
 3961SOL     OW23341   3.485   1.675  15.387  0.0471  0.3998 -0.0343
 3961SOL    HW123342   3.519   1.742  15.446 -1.1852 -1.1307  2.3870
 3961SOL    HW223343   3.466   1.728  15.310 -2.0964 -0.2341  0.0734
 3962SOL     OW23344   2.862   3.838   0.009 -0.2601 -0.0318  0.2200
 3962SOL    HW123345   2.934   3.820  17.637  2.4516 -0.3368  3.4871
 3962SOL    HW223346   2.792   3.855  17.635  0.4381  0.0610 -0.5309
 3963SOL     OW23347   1.277   2.005  15.318  0.0091  0.2776 -0.4089
 3963SOL    HW123348   1.317   2.092  15.317  2.0870 -0.7008 -2.5415
 3963SOL    HW223349   1.194   2.021  15.273 -0.3719 -3.9008 -1.2519
 3964SOL     OW23350   3.561   0.168   8.669 -0.1720  0.2652  0.1365
 3964SOL    HW123351   3.561   0.098   8.603  2.7010  0.2231  0.1873
 3964SOL    HW223352   3.529   0.118   8.744 -2.4203  0.5275 -0.6494
 3965SOL     OW23353   0.953   0.162   3.322  0.0808 -0.2459  0.3844
 3965SOL    HW123354   0.920   0.219   3.252  4.9885  0.3714 -1.4583
 3965SOL    HW223355   0.975   0.225   3.391 -0.9075  2.4481 -1.7386
 3966SOL     OW23356   2.748   4.133  10.241 -0.2236  0.0779 -0.3990
 3966SOL    HW123357   2.741   4.124  10.335  1.0496 -0.5725 -0.3739
 3966SOL    HW223358   2.818   4.198  10.233  0.3615 -0.3385  1.3543
 3967SOL     OW23359   1.704   2.487   0.894 -0.4355 -0.6749  0.1463
 3967SOL    HW123360   1.761   2.418   0.928  1.5278  0.1677 -1.4249
 3967SOL    HW223361   1.629   2.476   0.953 -0.5298  3.1955  0.7248
 3968SOL     OW23362   0.833   2.925   4.644 -0.1660  0.9427  0.2668
 3968SOL    HW123363   0.841   2.875   4.726 -0.7768  1.6746  0.7696
 3968SOL    HW223364   0.828   2.859   4.574  0.8520  0.2615  0.8185
 3969SOL     OW23365   2.474   3.050   2.477  0.0154 -0.5196  1.0114
 3969SOL    HW123366   2.457   3.010   2.393  1.4062  0.9656  0.0131
 3969SOL    HW223367   2.403   3.007   2.525  0.1228 -1.5413  0.2414
 3970SOL     OW23368   0.340   1.268   4.416  0.0501 -0.1148  0.1487
 3970SOL    HW123369   0.276   1.289   4.347 -0.1193 -2.8477 -0.5185
 3970SOL    HW223370   0.409   1.232   4.360  0.9614  1.8914 -0.0050
 3971SOL     OW23371   2.066   0.332   6.741  0.1370 -0.2633  0.0013
 3971SOL    HW123372   2.070   0.363   6.831  0.4661 -1.4117  0.3834
 3971SOL    HW223373   2.052   0.239   6.757  0.2163 -0.4544 -1.0204
 3972SOL     OW23374   1.778   3.148   8.005 -0.0213 -0.1037  0.0201
 3972SOL    HW123375   1.700   3.101   7.976  0.8182  0.1724 -2.6340
 3972SOL    HW223376   1.847   3.125   7.944 -2.7031 -1.8310 -2.4011
 3973SOL     OW23377   2.228   2.166   8.205 -0.2462 -0.0756 -0.3515
 3973SOL    HW123378   2.237   2.111   8.127  1.6909  0.6834 -0.6747
 3973SOL    HW223379   2.153   2.221   8.181 -2.0129 -1.5043  1.9620
 3974SOL     OW23380   4.681   0.915  15.121 -0.0203 -0.7227 -0.4116
 3974SOL    HW123381   4.688   0.826  15.155  0.2622  0.4542  2.6440
 3974SOL    HW223382   0.035   0.933  15.065 -1.3331 -1.8966 -2.5541
 3975SOL     OW23383   0.880   2.012   5.590  0.0937  0.3143 -0.2642
 3975SOL    HW123384   0.969   1.995   5.559 -0.2763 -2.2485  0.1264
 3975SOL    HW223385   0.835   1.996   5.508 -0.9043  1.0284  0.1381
 3976SOL     OW23386   4.178   3.908   2.532  0.6251 -0.2634 -0.1495
 3976SOL    HW123387   4.092   3.867   2.542  0.1486  1.2992  2.0828
 3976SOL    HW223388   4.203   3.886   2.442  1.6386 -1.1652  0.3589
 3977SOL     OW23389   3.069   4.427   4.357  0.6126 -0.1330 -0.0986
 3977SOL    HW123390   3.025   4.390   4.433  0.5814 -1.0606 -0.5607
 3977SOL    HW223391   3.163   4.416   4.367  0.4888 -1.9296 -0.8382
 3978SOL     OW23392   2.383   3.947   4.964 -0.4708 -0.5260  0.3140
 3978SOL    HW123393   2.303   3.970   4.916 -0.3962 -1.1181 -0.0853
 3978SOL    HW223394   2.375   3.998   5.045  2.1416 -1.9511  1.4279
 3979SOL     OW23395   1.524   3.810   1.538  0.5704  0.2334 -0.3141
 3979SOL    HW123396   1.597   3.799   1.477  2.7282 -0.1755  2.3698
 3979SOL    HW223397   1.453   3.832   1.477 -0.7427 -0.2527  1.0331
 3980SOL     OW23398   1.723   2.742   8.397  0.5702  0.0037  0.9311
 3980SOL    HW123399   1.789   2.691   8.443 -0.0176  0.3712  2.1825
 3980SOL    HW223400   1.771   2.816   8.361 -0.4224  0.2240  0.0549
 3981SOL     OW23401   4.204   1.866   7.756 -0.1455 -0.7368 -0.0668
 3981SOL    HW123402   4.157   1.928   7.811  1.1864 -1.2001  1.6206
 3981SOL    HW223403   4.232   1.803   7.822 -3.1990 -1.1360  0.8358
 3982SOL     OW23404   2.051   4.371   5.036 -0.0764 -0.4100 -0.1570
 3982SOL    HW123405   2.055   4.294   4.980 -0.5199 -0.6463  0.1447
 3982SOL    HW223406   1.984   4.338   5.096  0.0021  0.3924  0.3712
 3983SOL     OW23407   1.052   0.935   4.299  0.0396  0.1666 -0.4323
 3983SOL    HW123408   1.011   0.861   4.345  2.4581  0.1270  1.6714
 3983SOL    HW223409   0.980   0.976   4.251 -1.7053 -2.8904 -0.4295
 3984SOL     OW23410   2.314   2.062   5.094  0.2890 -0.5193 -0.1939
 3984SOL    HW123411   2.387   2.102   5.142 -0.2611  1.9801 -1.4439
 3984SOL    HW223412   2.304   2.127   5.025  0.7384 -0.2170  0.0194
 3985SOL     OW23413   2.723   3.442   3.460  0.1989 -0.2582 -0.5150
 3985SOL    HW123414   2.774   3.387   3.519  0.5023 -0.9373 -1.4262
 3985SOL    HW223415   2.762   3.527   3.479 -0.7488  0.1453 -0.3279
 3986SOL     OW23416   2.046   3.842   6.186 -0.1973  0.5608 -0.1630
 3986SOL    HW123417   2.107   3.780   6.226 -2.6070 -0.9535  1.0944
 3986SOL    HW223418   2.038   3.924   6.235 -2.9307  0.6489 -0.7877
 3987SOL     OW23419   2.372   0.475   7.849  0.3701 -0.0228  0.2168
 3987SOL    HW123420   2.313   0.462   7.774  1.1782 -0.1265 -0.4014
 3987SOL    HW223421   2.434   0.403   7.840  1.0288  0.8050 -1.9319
 3988SOL     OW23422   3.822   2.260   8.686 -0.1481  0.0025  0.1389
 3988SOL    HW123423   3.773   2.287   8.608 -0.3065 -1.8106 -0.3746
 3988SOL    HW223424   3.790   2.170   8.696 -0.0770 -0.1784 -1.3012
 3989SOL     OW23425   0.028   2.660   3.440  0.4190 -0.3345 -0.2469
 3989SOL    HW123426   4.702   2.743   3.428  0.6042 -0.3487 -1.0640
 3989SOL    HW223427   0.101   2.658   3.379  0.1666 -0.2075 -0.5562
 3990SOL     OW23428   0.047   2.192   5.811 -0.1774  0.1252 -0.2242
 3990SOL    HW123429   4.682   2.152   5.807 -0.6014  1.1934 -1.6103
 3990SOL    HW223430   0.085   2.136   5.879 -0.5235  1.2196  0.8536
 3991SOL     OW23431   4.347   1.523   3.341 -0.0467  0.0521  0.3869
 3991SOL    HW123432   4.267   1.470   3.345 -0.1373 -0.0680 -2.8934
 3991SOL    HW223433   4.354   1.555   3.251 -2.4603  0.4800  0.3467
 3992SOL     OW23434   1.811   3.975   6.936  0.3015  0.4517  0.2607
 3992SOL    HW123435   1.782   4.016   7.017  1.9389  1.7553  0.1803
 3992SOL    HW223436   1.732   3.978   6.881  0.6261 -1.5053 -0.3234
 3993SOL     OW23437   1.706   4.067   5.756 -0.3267 -0.0694 -0.4779
 3993SOL    HW123438   1.644   4.004   5.720 -1.6528  0.6147  0.6050
 3993SOL    HW223439   1.675   4.083   5.845  1.3643  1.2538 -0.1097
 3994SOL     OW23440   2.930   0.819   2.104  0.2738 -0.0903  0.0051
 3994SOL    HW123441   2.933   0.912   2.126  2.4815 -0.0636 -0.3457
 3994SOL    HW223442   3.015   0.786   2.134  0.8030 -0.1477 -1.5672
 3995SOL     OW23443   4.394   4.195   8.044  0.1867 -0.3033  0.3362
 3995SOL    HW123444   4.332   4.229   7.980  0.5065 -2.2866 -1.0200
 3995SOL    HW223445   4.436   4.278   8.066  2.2498 -0.9947 -0.9288
 3996SOL     OW23446   1.112   1.614   4.251  0.2526 -0.0875 -0.2477
 3996SOL    HW123447   1.100   1.527   4.213  1.8415  0.2393 -1.4797
 3996SOL    HW223448   1.057   1.610   4.330 -1.3652  1.2564 -1.3084
 3997SOL     OW23449   2.062   2.796   6.451 -0.3514 -0.3077 -0.1054
 3997SOL    HW123450   2.121   2.862   6.487 -2.0729  1.6949 -0.9633
 3997SOL    HW223451   2.027   2.822   6.366 -0.3007  3.0432  0.9128
 3998SOL     OW23452   2.634   4.019   5.363 -0.0701  0.0806 -0.5184
 3998SOL    HW123453   2.601   3.958   5.428  2.1784 -0.8959 -0.3175
 3998SOL    HW223454   2.685   3.964   5.304  2.0745  1.9204 -0.4005
 3999SOL     OW23455   2.761   4.545  12.390 -0.3364  0.2579 -0.2201
 3999SOL    HW123456   2.772   4.565  12.483  1.4180 -0.3296 -0.2945
 3999SOL    HW223457   2.692   4.479  12.394  1.7681 -1.9208  0.2472
 4000SOL     OW23458   1.357   4.468  11.790  0.1360 -0.0508  0.0413
 4000SOL    HW123459   1.315   4.535  11.736 -0.3733 -0.2877  0.1459
 4000SOL    HW223460   1.444   4.508  11.798 -0.5115  0.7139  3.2209
 4001SOL     OW23461   1.031   1.968   6.024  0.3235 -0.0129  0.1753
 4001SOL    HW123462   1.123   1.995   6.033  1.0903 -2.8928  0.9445
 4001SOL    HW223463   1.057   1.876   6.021 -0.0904 -0.0373 -2.2734
 4002SOL     OW23464   2.160   3.286   3.915 -0.5331  0.4178 -0.1012
 4002SOL    HW123465   2.205   3.324   3.990  0.6400 -1.3583  0.0994
 4002SOL    HW223466   2.244   3.275   3.871 -0.8022  0.8272 -0.7204
 4003SOL     OW23467   3.522   2.317   3.249 -0.2706  0.3083 -0.2446
 4003SOL    HW123468   3.577   2.394   3.261 -0.6459  0.6331 -0.5826
 4003SOL    HW223469   3.583   2.250   3.278 -0.4939 -0.1816 -0.8867
 4004SOL     OW23470   3.196   3.009   3.187 -0.2642 -0.2311  0.2400
 4004SOL    HW123471   3.204   2.932   3.243  0.3482 -0.2133  0.1799
 4004SOL    HW223472   3.284   3.045   3.198  0.6658 -2.6670  0.7274
 4005SOL     OW23473   2.373   1.780   6.150 -0.4053 -0.6336 -0.3334
 4005SOL    HW123474   2.389   1.874   6.137 -0.6471 -0.0052  3.7341
 4005SOL    HW223475   2.461   1.744   6.142  0.3413  0.4899  2.6172
 4006SOL     OW23476   1.393   3.055   3.810  0.6211 -0.0641  0.6461
 4006SOL    HW123477   1.336   3.117   3.764  1.3935  1.5552  1.8696
 4006SOL    HW223478   1.424   3.007   3.733  0.0887  3.4005 -1.7723
 4007SOL     OW23479   0.447   1.993   2.845 -0.1119  0.4526 -0.4468
 4007SOL    HW123480   0.405   2.076   2.869 -1.0628 -0.2781  0.4173
 4007SOL    HW223481   0.388   1.962   2.777 -1.4625 -0.9479  1.3737
 4008SOL     OW23482   3.593   2.332  11.643 -0.3786  0.0812  0.2781
 4008SOL    HW123483   3.555   2.273  11.579  0.7867 -0.7139  0.3296
 4008SOL    HW223484   3.533   2.407  11.638  0.8128  1.0722  0.7096
 4009SOL     OW23485   3.587   2.699   5.523  0.2093  0.9020  0.1514
 4009SOL    HW123486   3.563   2.778   5.474  1.7646  1.5446  0.4243
 4009SOL    HW223487   3.676   2.677   5.494  0.9024  2.8911  0.7352
 4010SOL     OW23488   4.608   1.068   4.784 -0.1216  0.1009 -0.1967
 4010SOL    HW123489   4.644   1.153   4.761  1.7203 -0.4646  0.6363
 4010SOL    HW223490   4.533   1.069   4.724  1.2118  3.1257 -1.7797
 4011SOL     OW23491   4.161   1.792   5.443  0.7129  0.0682  0.0722
 4011SOL    HW123492   4.250   1.764   5.421  0.2305 -0.7825 -0.7681
 4011SOL    HW223493   4.159   1.765   5.535  1.2772 -1.7990 -0.4756
 4012SOL     OW23494   3.714   1.859   4.769  0.2680 -0.9676  0.0827
 4012SOL    HW123495   3.707   1.932   4.831 -0.3069 -0.8936 -0.0742
 4012SOL    HW223496   3.668   1.898   4.695 -0.2900 -2.5591 -0.4176
 4013SOL     OW23497   3.258   1.031   8.610  0.6512 -0.4569 -0.2767
 4013SOL    HW123498   3.252   0.936   8.607 -1.2757 -0.3376 -0.5214
 4013SOL    HW223499   3.217   1.066   8.689 -1.5761 -2.4404 -0.5592
 4014SOL     OW23500   3.526   0.278   7.164  0.2867 -0.1320 -0.0427
 4014SOL    HW123501   3.479   0.263   7.081  0.9297  1.5371 -0.6996
 4014SOL    HW223502   3.588   0.205   7.171 -0.3039 -0.6908 -0.5807
 4015SOL     OW23503   1.188   1.288  12.106  0.0033 -0.4468  0.6366
 4015SOL    HW123504   1.149   1.347  12.042 -0.2411 -0.7724  0.4921
 4015SOL    HW223505   1.280   1.316  12.103  0.0110 -0.6095 -0.8042
 4016SOL     OW23506   2.394   3.830  11.067 -0.5695 -0.4250  0.4990
 4016SOL    HW123507   2.428   3.865  11.149 -0.9940  0.4332  0.3163
 4016SOL    HW223508   2.338   3.759  11.100 -0.4411 -0.1231  1.3490
 4017SOL     OW23509   4.137   1.709   5.712  0.1929  0.3355  0.3351
 4017SOL    HW123510   4.186   1.642   5.759 -1.1890 -0.5962  0.4676
 4017SOL    HW223511   4.052   1.690   5.754 -0.8631  0.1491 -1.8817
 4018SOL     OW23512   2.427   1.913   7.616  0.1665 -0.0185  0.5418
 4018SOL    HW123513   2.371   1.837   7.631 -0.5529  0.3918 -0.0762
 4018SOL    HW223514   2.483   1.901   7.693  0.1066  1.1185  0.7557
 4019SOL     OW23515   2.805   1.287  14.711 -0.1568 -0.0971  0.2804
 4019SOL    HW123516   2.887   1.237  14.708  0.5352  0.9499  1.6655
 4019SOL    HW223517   2.782   1.291  14.618  0.0574 -0.2044  0.2227
 4020SOL     OW23518   1.803   0.932   2.525 -0.5867  0.0380  0.5308
 4020SOL    HW123519   1.818   0.893   2.611  1.3627 -2.7491 -1.0795
 4020SOL    HW223520   1.878   0.992   2.524 -1.0247  0.5583 -0.5071
 4021SOL     OW23521   2.992   2.913   8.859  0.3538 -0.0217  0.6158
 4021SOL    HW123522   2.949   2.992   8.891 -0.5409 -0.6283  0.8959
 4021SOL    HW223523   2.935   2.841   8.884  0.4703 -0.9658 -1.8653
 4022SOL     OW23524   3.728   3.265  10.029 -0.2684 -0.0502  0.3466
 4022SOL    HW123525   3.719   3.176  10.063 -2.6468  0.8728  2.0890
 4022SOL    HW223526   3.810   3.292  10.070  0.0327  1.2413 -1.1273
 4023SOL     OW23527   1.777   2.998  12.077  0.1719  0.7282  0.0901
 4023SOL    HW123528   1.870   2.989  12.101  0.6231 -2.5175 -2.8345
 4023SOL    HW223529   1.775   2.979  11.983 -2.3528  1.4405 -0.0017
 4024SOL     OW23530   1.438   1.932   9.386  0.4837 -0.4416 -0.6507
 4024SOL    HW123531   1.430   1.842   9.419 -1.0128  0.2602  0.8778
 4024SOL    HW223532   1.500   1.963   9.453 -1.7263 -0.7344  1.5453
 4025SOL     OW23533   0.875   0.777   9.463 -0.0670 -0.1926  0.7714
 4025SOL    HW123534   0.869   0.689   9.427 -2.8564  0.1589  0.3632
 4025SOL    HW223535   0.866   0.834   9.387 -0.4835 -0.1920  0.8189
 4026SOL     OW23536   0.975   1.419   9.294 -0.2397  0.7207  0.7674
 4026SOL    HW123537   0.897   1.460   9.330  0.1004  0.6100  1.6492
 4026SOL    HW223538   0.941   1.329   9.298  2.0050 -0.1851 -0.3143
 4027SOL     OW23539   3.509   0.516   6.077 -0.1345  0.5424  0.5880
 4027SOL    HW123540   3.581   0.461   6.045  1.3310  0.9796  3.1529
 4027SOL    HW223541   3.554   0.566   6.144  0.5649  0.7032  0.0047
 4028SOL     OW23542   3.066   0.014   3.963  0.5273  0.0949 -0.0724
 4028SOL    HW123543   3.030   4.688   3.889  1.3951 -0.7123  0.0159
 4028SOL    HW223544   3.115   4.666   4.007 -0.5435 -0.5719  0.0526
 4029SOL     OW23545   2.902   3.837   4.470 -0.1771 -0.0137  0.6480
 4029SOL    HW123546   2.931   3.793   4.391  1.3723  0.7439  0.7844
 4029SOL    HW223547   2.807   3.824   4.464 -0.1777  1.2829 -2.3282
 4030SOL     OW23548   1.742   4.341  14.060 -0.1018 -0.2984 -0.2609
 4030SOL    HW123549   1.719   4.434  14.056  1.9255  0.1875 -0.6457
 4030SOL    HW223550   1.752   4.317  14.152 -1.0648 -0.7048 -0.2594
 4031SOL     OW23551   4.126   0.350   5.600  0.2456 -0.6734 -0.5184
 4031SOL    HW123552   4.149   0.435   5.639 -2.9964  0.1777 -0.4398
 4031SOL    HW223553   4.058   0.376   5.538  0.8072  0.8190 -0.5200
 4032SOL     OW23554   1.077   3.578   2.543  0.2776 -0.1112 -0.6996
 4032SOL    HW123555   1.023   3.627   2.604 -0.5434 -1.6753 -0.1652
 4032SOL    HW223556   1.075   3.650   2.480 -2.3095  0.4730  0.0875
 4033SOL     OW23557   2.154   0.566  16.781  0.2690  0.2472  0.8132
 4033SOL    HW123558   2.202   0.506  16.839 -0.5308  2.0610  3.3316
 4033SOL    HW223559   2.222   0.624  16.745  2.8609 -3.9173 -1.0675
 4034SOL     OW23560   0.372   3.787   4.766 -1.2107 -0.2954  0.2607
 4034SOL    HW123561   0.363   3.846   4.841 -0.8241 -0.9492  0.8187
 4034SOL    HW223562   0.349   3.702   4.804  0.4562  0.2620  2.5203
 4035SOL     OW23563   0.410   1.279   6.335 -0.2583  0.5659 -0.0720
 4035SOL    HW123564   0.427   1.191   6.367 -2.6537 -0.6661 -2.2132
 4035SOL    HW223565   0.495   1.323   6.347 -0.6717  0.6383  2.5100
 4036SOL     OW23566   3.463   3.031  16.339 -0.0012 -0.1002  0.0945
 4036SOL    HW123567   3.539   2.973  16.340 -1.1436 -1.6084 -1.6139
 4036SOL    HW223568   3.430   3.033  16.429  0.0383 -0.3004  0.1144
 4037SOL     OW23569   3.316   3.558  17.587 -0.4683  0.2044 -0.5584
 4037SOL    HW123570   3.310   3.610  17.507  0.1609 -0.1091 -0.8117
 4037SOL    HW223571   3.397   3.583  17.631 -0.1932 -0.4639 -0.6829
 4038SOL     OW23572   0.169   4.717   5.674  0.1895  0.5481  0.0634
 4038SOL    HW123573   0.079   4.707   5.704  0.8335 -2.6309  0.9049
 4038SOL    HW223574   0.213   4.715   5.759 -1.7936 -0.3407  1.0554
 4039SOL     OW23575   1.573   1.880  17.196  0.3656 -0.0560 -0.7288
 4039SOL    HW123576   1.554   1.967  17.229  0.1304  0.2663 -1.7088
 4039SOL    HW223577   1.579   1.910  17.105  1.3573  1.4555 -0.1496
 4040SOL     OW23578   1.354   1.941   0.797 -0.8579 -0.1347  0.3722
 4040SOL    HW123579   1.418   1.903   0.858  3.0184  1.3007 -2.8798
 4040SOL    HW223580   1.333   2.028   0.830  1.3346  0.5752 -0.0919
 4041SOL     OW23581   0.518   4.543   8.217  0.7769  0.4863  0.3112
 4041SOL    HW123582   0.604   4.522   8.180  0.3464  0.5582 -0.7350
 4041SOL    HW223583   0.493   4.456   8.250 -2.0694  0.7846 -1.0382
 4042SOL     OW23584   4.258   2.576   2.284  1.1007  0.5007  0.5483
 4042SOL    HW123585   4.209   2.495   2.273  0.9140  0.5455  1.0403
 4042SOL    HW223586   4.208   2.600   2.362 -2.1385  1.0299 -1.6883
 4043SOL     OW23587   0.806   3.178  12.075 -0.0387  0.2621  0.0946
 4043SOL    HW123588   0.850   3.238  12.135 -0.4951  0.4438  0.2554
 4043SOL    HW223589   0.764   3.245  12.021 -0.7396 -0.4090 -0.1944
 4044SOL     OW23590   1.697   0.561  10.448  0.8977 -0.9726 -0.5147
 4044SOL    HW123591   1.645   0.584  10.526 -1.0389  1.7313 -2.5685
 4044SOL    HW223592   1.728   0.477  10.481 -1.2957 -1.9637 -0.9816
 4045SOL     OW23593   3.217   1.796   3.939  0.3008 -0.2672  0.7888
 4045SOL    HW123594   3.131   1.775   3.976 -0.6851  0.3119 -1.1513
 4045SOL    HW223595   3.278   1.749   3.995 -0.9011 -2.0323  0.6130
 4046SOL     OW23596   3.041   2.733   7.660 -0.1816  0.1910 -0.1840
 4046SOL    HW123597   3.073   2.644   7.645 -1.2458 -0.2537  0.1561
 4046SOL    HW223598   3.062   2.747   7.752 -1.8297  0.9847  0.0812
 4047SOL     OW23599   2.536   4.165   8.214 -0.4789  0.1614 -0.2360
 4047SOL    HW123600   2.540   4.261   8.219 -1.9457  0.3445 -2.9189
 4047SOL    HW223601   2.477   4.148   8.287  0.3303 -2.5329 -0.2132
 4048SOL     OW23602   2.051   3.299   5.645 -0.5763 -0.5714 -0.2616
 4048SOL    HW123603   2.093   3.217   5.671 -0.3791 -0.5545 -0.5241
 4048SOL    HW223604   2.000   3.257   5.576 -0.4693 -2.1353  0.6224
 4049SOL     OW23605   2.103   3.506  11.384  0.1357 -0.1166  0.0888
 4049SOL    HW123606   2.016   3.527  11.418 -0.2030 -5.0362  2.1409
 4049SOL    HW223607   2.078   3.459  11.305  0.2088 -1.4852  0.8842
 4050SOL     OW23608   3.920   1.912  15.794  0.2448 -0.2479 -0.4260
 4050SOL    HW123609   3.897   1.895  15.702  1.1901  0.6093 -0.8144
 4050SOL    HW223610   3.833   1.906  15.834 -0.2105 -0.6753 -1.4639
 4051SOL     OW23611   4.303   3.586  16.453  0.2419  0.3598  0.2669
 4051SOL    HW123612   4.213   3.561  16.474  0.7151 -1.0232  0.6156
 4051SOL    HW223613   4.325   3.666  16.501 -0.7512  0.8217 -0.0520
 4052SOL     OW23614   3.060   4.675   3.517  0.1335  0.0114  0.2458
 4052SOL    HW123615   2.992   4.691   3.582 -1.3845 -1.3936 -0.9810
 4052SOL    HW223616   3.137   4.714   3.559  1.2680  1.1272 -2.8440
 4053SOL     OW23617   1.261   2.167  16.504 -0.6817  0.6554 -0.2665
 4053SOL    HW123618   1.224   2.161  16.416  0.9582 -2.1777 -0.7664
 4053SOL    HW223619   1.335   2.223  16.482  0.0837  0.0251  0.7032
 4054SOL     OW23620   0.234   4.463   8.979  0.0430  0.2806  0.2772
 4054SOL    HW123621   0.318   4.421   8.999  0.4364  0.1917 -1.5561
 4054SOL    HW223622   0.200   4.487   9.065 -0.8937  0.9146 -0.2806
 4055SOL     OW23623   1.872   1.648  12.236  0.4427 -0.3399  0.4957
 4055SOL    HW123624   1.813   1.597  12.291 -0.0498  0.4890  0.7428
 4055SOL    HW223625   1.874   1.733  12.279 -0.4345  0.1914 -0.5033
 4056SOL     OW23626   0.846   1.201  13.527  0.7983 -0.9790  0.1650
 4056SOL    HW123627   0.903   1.160  13.593 -0.4003 -3.2575 -0.2313
 4056SOL    HW223628   0.764   1.217  13.574 -0.8932 -1.0216 -2.8006
 4057SOL     OW23629   2.103   1.056  10.242 -0.7219 -0.2800 -0.1495
 4057SOL    HW123630   2.150   1.129  10.284 -0.9375 -0.5381  0.5371
 4057SOL    HW223631   2.017   1.097  10.242 -0.1038  1.0403 -1.1237
 4058SOL     OW23632   0.714   0.384   2.454 -0.1923  0.2963 -0.9467
 4058SOL    HW123633   0.731   0.349   2.366  1.1623  0.2724 -0.6707
 4058SOL    HW223634   0.797   0.361   2.495 -0.6321  0.8919  0.2676
 4059SOL     OW23635   2.256   1.298   6.428 -0.4082 -0.0067  1.0044
 4059SOL    HW123636   2.263   1.204   6.412  2.3679  0.6005 -1.4192
 4059SOL    HW223637   2.260   1.291   6.523 -2.2254 -1.3177  0.9784
 4060SOL     OW23638   0.520   1.078  11.445  0.0450  0.0358 -0.5156
 4060SOL    HW123639   0.516   1.132  11.366 -2.7605  1.2285  0.4547
 4060SOL    HW223640   0.598   1.106  11.493 -0.2513 -2.1882  1.2687
 4061SOL     OW23641   0.614   0.165   6.461 -0.1786 -0.9720  0.8788
 4061SOL    HW123642   0.604   0.075   6.490 -0.0991 -0.5529  2.1999
 4061SOL    HW223643   0.558   0.214   6.521  1.4192 -0.1137  1.6740
 4062SOL     OW23644   4.052   0.603   7.143 -0.1287  0.3138 -0.0699
 4062SOL    HW123645   4.136   0.569   7.111 -2.3284 -3.4829 -1.8145
 4062SOL    HW223646   3.998   0.567   7.072  1.7327 -0.3847 -1.1481
 4063SOL     OW23647   1.766   3.806  15.109  0.4254  0.1095 -0.1965
 4063SOL    HW123648   1.752   3.724  15.156  0.1878  1.5348  2.1802
 4063SOL    HW223649   1.847   3.830  15.154  0.2813  0.9734 -0.4002
 4064SOL     OW23650   1.810   2.588   2.163  0.4058 -0.2016  0.6081
 4064SOL    HW123651   1.778   2.643   2.235  1.3179 -0.5553  1.2785
 4064SOL    HW223652   1.899   2.617   2.141 -0.1942  0.6906 -0.6441
 4065SOL     OW23653   2.620   3.253   7.002  0.1851  0.2457  0.7932
 4065SOL    HW123654   2.685   3.198   6.959  0.0923  1.8064 -1.3491
 4065SOL    HW223655   2.626   3.220   7.091  2.9837 -1.0639  0.1023
 4066SOL     OW23656   2.842   0.678   8.642 -0.0987  0.8291 -0.1211
 4066SOL    HW123657   2.817   0.709   8.729  1.3311 -2.1172  1.3451
 4066SOL    HW223658   2.879   0.592   8.664 -0.9261  0.4508 -0.2221
 4067SOL     OW23659   2.845   0.421   2.127 -0.1873 -0.0206 -0.2429
 4067SOL    HW123660   2.781   0.353   2.147 -2.0200  1.6456 -0.5302
 4067SOL    HW223661   2.787   0.495   2.112  0.1519  0.0109 -1.3830
 4068SOL     OW23662   3.767   1.426   9.589  0.1705  0.0143 -0.3449
 4068SOL    HW123663   3.827   1.473   9.647  0.1048  0.6138 -0.7661
 4068SOL    HW223664   3.677   1.441   9.620  1.2466  3.2339  1.2093
 4069SOL     OW23665   0.879   2.805   8.316 -0.0294 -0.1038  0.4793
 4069SOL    HW123666   0.936   2.737   8.280  0.6954  1.2915 -1.0211
 4069SOL    HW223667   0.906   2.879   8.262 -0.6341 -0.9582 -0.9801
 4070SOL     OW23668   4.565   2.039   5.897  0.0970 -0.3433  0.0774
 4070SOL    HW123669   4.608   1.957   5.920  0.1482 -0.2866  0.1845
 4070SOL    HW223670   4.502   2.032   5.969  1.7075  1.1054  1.6615
 4071SOL     OW23671   1.789   4.150   0.913  0.2765  0.4229 -0.0139
 4071SOL    HW123672   1.714   4.163   0.855  3.1810 -2.2066 -4.3526
 4071SOL    HW223673   1.734   4.142   0.991  0.7855  4.2565  0.7319
 4072SOL     OW23674   3.550   2.364   2.732  0.1226  0.3511 -0.7005
 4072SOL    HW123675   3.585   2.303   2.796 -0.7872  0.9454  0.3723
 4072SOL    HW223676   3.612   2.436   2.745 -1.3268  1.9847 -2.7742
 4073SOL     OW23677   0.793   2.420  11.424  0.3277 -0.0890 -0.1931
 4073SOL    HW123678   0.856   2.348  11.428  2.2296  1.6726  1.4192
 4073SOL    HW223679   0.829   2.456  11.344  1.7279  2.0474  1.3943
 4074SOL     OW23680   0.966   0.738   5.098 -0.4093  0.0766 -0.0933
 4074SOL    HW123681   0.960   0.818   5.046 -3.1571 -0.7758 -1.0467
 4074SOL    HW223682   1.056   0.726   5.069 -1.0329 -1.9875 -1.1448
 4075SOL     OW23683   3.216   2.466   6.689 -0.2999 -0.2205  0.4404
 4075SOL    HW123684   3.132   2.486   6.730  0.4112  2.9943  0.3351
 4075SOL    HW223685   3.212   2.372   6.704  0.0299 -0.3188 -0.0762
 4076SOL     OW23686   2.345   2.711   8.104  0.4690 -0.0070 -0.5421
 4076SOL    HW123687   2.308   2.771   8.169  0.8105 -0.0942 -0.2724
 4076SOL    HW223688   2.384   2.646   8.161  0.9339 -0.1874 -1.0651
 4077SOL     OW23689   3.002   0.782   6.247 -0.7065  0.0309  0.2543
 4077SOL    HW123690   2.938   0.845   6.213  0.3806  0.5472 -0.8459
 4077SOL    HW223691   3.086   0.825   6.260  0.3004 -1.4591 -1.3673
 4078SOL     OW23692   4.347   1.648  14.441  0.1984 -0.2755  0.3362
 4078SOL    HW123693   4.423   1.681  14.393  0.5165  0.1292  1.1014
 4078SOL    HW223694   4.382   1.640  14.530 -1.5844  2.1252  1.2482
 4079SOL     OW23695   2.380   0.263  12.368 -0.6173  0.8018  0.1923
 4079SOL    HW123696   2.417   0.319  12.299  0.3550  1.3807  1.1876
 4079SOL    HW223697   2.430   0.285  12.446  0.9931 -0.0079 -0.6158
 4080SOL     OW23698   1.767   1.223   7.355  0.4712  0.0517  0.4298
 4080SOL    HW123699   1.755   1.266   7.271 -0.0368 -1.8945 -0.4967
 4080SOL    HW223700   1.797   1.136   7.328 -0.9158 -0.9624  2.1742
 4081SOL     OW23701   3.454   4.714   5.083  0.0870  0.1560  0.1395
 4081SOL    HW123702   3.449   4.629   5.127  2.2005  1.2638  2.4475
 4081SOL    HW223703   3.446   4.681   4.993 -2.7729  2.3554 -0.4469
 4082SOL     OW23704   3.008   1.707   6.528 -0.1631 -0.1017 -0.4034
 4082SOL    HW123705   3.046   1.754   6.454 -2.3946 -3.2187 -3.5144
 4082SOL    HW223706   3.045   1.618   6.525  3.6984  1.5330 -1.2164
 4083SOL     OW23707   0.292   1.788   1.096  0.0563 -0.5396 -0.3576
 4083SOL    HW123708   0.259   1.700   1.115 -0.2246 -0.1076  1.1773
 4083SOL    HW223709   0.250   1.801   1.011 -0.2353 -0.4499 -0.1972
 4084SOL     OW23710   1.229   1.705   8.342  0.2643  0.3748 -0.1533
 4084SOL    HW123711   1.173   1.637   8.378  0.1541  0.6906  0.2711
 4084SOL    HW223712   1.319   1.680   8.364  0.6043  3.2530  1.6976
 4085SOL     OW23713   3.930   3.334   7.566 -0.2766  0.4127 -0.6494
 4085SOL    HW123714   4.003   3.274   7.582 -1.4834 -0.5057  1.4500
 4085SOL    HW223715   3.971   3.417   7.591 -1.9496  1.5165 -1.5457
 4086SOL     OW23716   4.494   2.356   2.877 -0.1257  0.2539  0.2329
 4086SOL    HW123717   4.453   2.325   2.797  0.6512 -1.5535  0.5373
 4086SOL    HW223718   4.585   2.348   2.848 -0.7883 -0.6689 -1.5416
 4087SOL     OW23719   0.155   2.552  12.831 -0.2483  0.1000  0.4260
 4087SOL    HW123720   0.187   2.463  12.847  1.8260  0.7385 -0.0809
 4087SOL    HW223721   0.091   2.572  12.899  0.5612  1.7487  0.7120
 4088SOL     OW23722   0.078   1.992   4.719  0.4623  0.0303  0.0625
 4088SOL    HW123723   4.706   1.984   4.737  0.2364  0.5114 -0.9409
 4088SOL    HW223724   0.117   2.049   4.786  2.1909 -0.8676 -0.1756
 4089SOL     OW23725   2.068   1.195   9.637  0.5666  0.2404  0.0289
 4089SOL    HW123726   2.120   1.140   9.695 -0.5398 -0.4412  0.3679
 4089SOL    HW223727   2.043   1.127   9.575  0.0143 -0.5371  1.1122
 4090SOL     OW23728   4.655   4.702  16.832  0.4665 -0.2464  0.4158
 4090SOL    HW123729   4.650   0.037  16.755  0.3793  0.8363  1.2170
 4090SOL    HW223730   0.012   4.659  16.798  1.2935  1.0472  0.6571
 4091SOL     OW23731   3.493   4.250   6.194  0.0829 -0.4122 -0.0054
 4091SOL    HW123732   3.476   4.207   6.277  1.4523  0.1097  0.5330
 4091SOL    HW223733   3.558   4.313   6.224  1.6602 -1.8903 -0.2448
 4092SOL     OW23734   0.626   3.596   7.604 -0.5378 -0.4320  0.0012
 4092SOL    HW123735   0.625   3.503   7.582  0.1767 -0.2880 -0.6386
 4092SOL    HW223736   0.569   3.635   7.538  2.0114 -2.1242 -3.2229
 4093SOL     OW23737   2.265   3.776   2.926  0.3625  0.0786  0.6136
 4093SOL    HW123738   2.175   3.793   2.900  0.5512 -1.4664 -1.0193
 4093SOL    HW223739   2.285   3.853   2.980  0.6438  0.7400 -0.4280
 4094SOL     OW23740   3.549   4.369   2.732  0.3564  0.3019  0.6661
 4094SOL    HW123741   3.519   4.346   2.644  1.7413 -1.3465  0.6302
 4094SOL    HW223742   3.554   4.465   2.731 -0.7452  0.3543 -1.7635
 4095SOL     OW23743   1.825   1.203  10.459  0.1190 -0.0355  0.0335
 4095SOL    HW123744   1.883   1.130  10.482  1.8366  1.4685  0.4707
 4095SOL    HW223745   1.802   1.173  10.371 -0.6569 -1.6596  0.7719
 4096SOL     OW23746   0.016   0.110   3.111 -0.1958 -0.1194 -0.5734
 4096SOL    HW123747   0.019   0.014   3.107 -1.3049 -0.0908 -1.8829
 4096SOL    HW223748   0.103   0.127   3.075  0.1238 -0.0225  0.2229
 4097SOL     OW23749   0.054   3.045   7.962 -0.1224  0.0722 -0.4195
 4097SOL    HW123750   0.064   3.140   7.969  0.2595 -0.0022  0.0658
 4097SOL    HW223751   0.148   3.028   7.974  0.3630  1.0020 -2.9377
 4098SOL     OW23752   2.191   0.433   4.329  1.1218 -0.2980  0.2956
 4098SOL    HW123753   2.280   0.465   4.316  1.4980 -0.5755  2.2745
 4098SOL    HW223754   2.157   0.475   4.408  2.2569 -0.0942  0.6664
 4099SOL     OW23755   4.065   3.826   4.763 -0.1132  0.2961  0.1493
 4099SOL    HW123756   3.976   3.801   4.742 -0.9197  1.1371  2.5493
 4099SOL    HW223757   4.060   3.912   4.721 -2.9983 -0.1049 -0.2792
 4100SOL     OW23758   4.000   0.615   3.877 -0.3408 -0.0992 -0.3777
 4100SOL    HW123759   4.009   0.560   3.800 -2.7483  0.0810 -0.7836
 4100SOL    HW223760   3.904   0.612   3.885 -0.3770 -1.5326 -1.4541
 4101SOL     OW23761   2.465   3.685   3.379 -0.0260  0.1928 -0.3156
 4101SOL    HW123762   2.401   3.756   3.377 -1.0013 -0.6629 -0.0746
 4101SOL    HW223763   2.499   3.693   3.468 -0.6360 -3.2672  0.2378
 4102SOL     OW23764   0.316   4.316   6.791  0.4312  0.0413  0.5978
 4102SOL    HW123765   0.376   4.308   6.866  2.2018 -1.8939 -1.0510
 4102SOL    HW223766   0.251   4.249   6.810 -1.5139  1.6366 -0.4922
 4103SOL     OW23767   1.264   4.378   1.433 -0.2622 -0.2090  0.7392
 4103SOL    HW123768   1.213   4.407   1.509 -1.0183 -1.1630  0.5914
 4103SOL    HW223769   1.225   4.291   1.428 -0.2710 -0.2320  1.2372
 4104SOL     OW23770   0.968   2.613   2.128 -0.1913  0.6718 -0.2054
 4104SOL    HW123771   0.979   2.535   2.074 -0.3099  1.2957 -1.1324
 4104SOL    HW223772   1.059   2.634   2.147  0.2908  0.1172 -1.9624
 4105SOL     OW23773   4.672   1.148   7.816 -0.4663  0.1291 -0.8623
 4105SOL    HW123774   4.639   1.068   7.774 -1.1943  0.7542 -1.4777
 4105SOL    HW223775   4.718   1.105   7.888  0.0993 -0.0969 -1.3563
 4106SOL     OW23776   1.949   0.750  15.395  0.4136  0.1949 -0.0339
 4106SOL    HW123777   1.879   0.711  15.448  1.5708 -0.2065  1.2134
 4106SOL    HW223778   1.906   0.768  15.311 -0.3040 -0.1289  0.2684
 4107SOL     OW23779   3.142   4.482   4.100 -0.3542  0.4784  1.0792
 4107SOL    HW123780   3.094   4.447   4.175  1.4373 -1.4669  1.3188
 4107SOL    HW223781   3.092   4.445   4.027 -0.9176  1.0124  1.1945
 4108SOL     OW23782   3.333   1.839   3.315 -0.1280  0.4335 -0.0312
 4108SOL    HW123783   3.388   1.773   3.358 -0.8207  0.7471  1.3384
 4108SOL    HW223784   3.263   1.862   3.375  1.1816  0.9147  1.3216
 4109SOL     OW23785   2.602   0.932  12.885 -0.5200  0.2462 -0.1996
 4109SOL    HW123786   2.682   0.879  12.890 -0.8278 -0.4174 -2.6743
 4109SOL    HW223787   2.540   0.872  12.843 -0.0367 -1.5226  1.6038
 4110SOL     OW23788   4.311   3.737   9.359  0.2859 -0.1255 -0.2349
 4110SOL    HW123789   4.327   3.820   9.404 -0.7813  0.7723 -1.5041
 4110SOL    HW223790   4.277   3.683   9.430  1.5593  1.9830  1.9957
 4111SOL     OW23791   0.548   3.971   5.668  0.3010  0.0700  0.0460
 4111SOL    HW123792   0.479   4.026   5.705  1.6732  0.5493  1.9404
 4111SOL    HW223793   0.610   4.038   5.638 -1.9599  1.2054 -2.0851
 4112SOL     OW23794   0.061   1.053   6.454  0.3811 -0.0925 -0.0967
 4112SOL    HW123795   0.037   1.146   6.452 -2.2270 -0.8110 -1.7754
 4112SOL    HW223796   4.715   1.018   6.397 -0.5449  0.4444  0.6833
 4113SOL     OW23797   4.164   1.148   8.098  0.3947  0.0393  0.5846
 4113SOL    HW123798   4.072   1.150   8.123  0.9565 -1.1379  2.7091
 4113SOL    HW223799   4.189   1.231   8.138 -1.5270  0.0946  1.6138
 4114SOL     OW23800   1.772   1.067  10.233  0.6370  0.3247  0.5917
 4114SOL    HW123801   1.796   1.001  10.168 -0.4950 -0.3349  0.8463
 4114SOL    HW223802   1.703   1.121  10.193  1.2505 -0.0117 -0.9355
 4115SOL     OW23803   1.122   1.707   1.721  0.6964  0.2744 -0.3910
 4115SOL    HW123804   1.125   1.621   1.679  1.2526  0.1012 -0.0098
 4115SOL    HW223805   1.208   1.743   1.697  1.5654 -1.5090  0.0375
 4116SOL     OW23806   0.136   0.457   8.976  0.4655  0.1805 -0.1370
 4116SOL    HW123807   0.180   0.379   9.011  1.6693  1.7015  1.7635
 4116SOL    HW223808   0.060   0.466   9.034  1.3549 -2.7675  1.5178
 4117SOL     OW23809   4.479   3.018   5.878  0.0671 -0.3199 -0.5140
 4117SOL    HW123810   4.485   2.955   5.949  2.4083  1.8828  1.2872
 4117SOL    HW223811   4.482   2.954   5.807 -0.7028 -1.3475  0.3812
 4118SOL     OW23812   2.919   0.294   7.714 -0.4059  0.1357 -0.1614
 4118SOL    HW123813   2.886   0.340   7.790 -0.5179  0.1346 -0.2096
 4118SOL    HW223814   2.991   0.352   7.687  0.7115 -2.0922 -1.9491
 4119SOL     OW23815   0.226   0.811   0.500 -0.5392  0.1061 -0.7248
 4119SOL    HW123816   0.170   0.879   0.537 -1.9905 -1.4722 -0.0038
 4119SOL    HW223817   0.186   0.738   0.548 -0.4969  0.9057  0.5363
 4120SOL     OW23818   0.333   0.917   8.391  0.5800  0.1068  0.0536
 4120SOL    HW123819   0.420   0.938   8.427 -0.2181  0.8590  1.5446
 4120SOL    HW223820   0.274   0.957   8.455  1.6187 -0.9929  1.7023
 4121SOL     OW23821   4.063   2.379   3.721  0.2494 -0.1843  0.1909
 4121SOL    HW123822   4.143   2.368   3.772  0.1157  1.0184  0.6590
 4121SOL    HW223823   4.021   2.293   3.718  0.4269 -0.2966  0.8476
 4122SOL     OW23824   0.553   3.909   1.834 -0.0475  0.0542  0.2423
 4122SOL    HW123825   0.507   3.963   1.771 -0.1406  0.2643  0.4896
 4122SOL    HW223826   0.480   3.850   1.853  0.6594 -0.9027 -0.0029
 4123SOL     OW23827   0.868   2.294   6.381  0.3896  0.4736 -0.0786
 4123SOL    HW123828   0.875   2.343   6.299 -1.3542  0.4839 -0.2028
 4123SOL    HW223829   0.870   2.374   6.434 -1.9550  0.1688  0.4613
 4124SOL     OW23830   0.716   0.848   6.178  0.3945 -0.0508 -0.4109
 4124SOL    HW123831   0.624   0.874   6.189  0.6642  0.4100  0.7674
 4124SOL    HW223832   0.716   0.804   6.093 -2.1891 -1.8739  0.5091
 4125SOL     OW23833   3.321   2.835  15.077  0.3488 -0.4264  0.1301
 4125SOL    HW123834   3.382   2.764  15.056 -1.1334 -1.9620  0.9818
 4125SOL    HW223835   3.376   2.905  15.112  1.9526 -1.1261 -0.9834
 4126SOL     OW23836   1.484   0.098   3.753  0.2299  0.8424  0.0795
 4126SOL    HW123837   1.449   0.010   3.733 -1.0048  1.1488  0.8933
 4126SOL    HW223838   1.519   0.092   3.842 -1.4044  2.8429  0.8496
 4127SOL     OW23839   0.475   0.877   4.040  0.2736  0.2042  0.9104
 4127SOL    HW123840   0.426   0.856   4.120 -0.1205 -2.1849  0.0152
 4127SOL    HW223841   0.463   0.971   4.022 -0.0073 -0.4766 -2.3665
 4128SOL     OW23842   0.327   3.705  17.428  0.0581  0.2009  0.1141
 4128SOL    HW123843   0.302   3.667  17.512 -0.6736  0.4232 -0.0044
 4128SOL    HW223844   0.408   3.749  17.453 -0.6455  1.4372  0.1903
 4129SOL     OW23845   2.355   2.323   9.478 -0.2481 -0.0575  0.6964
 4129SOL    HW123846   2.374   2.246   9.532  1.4336  0.5914  1.0363
 4129SOL    HW223847   2.372   2.282   9.393  1.6634 -2.6837  2.3397
 4130SOL     OW23848   1.309   3.041   5.540 -0.2311  0.2051 -0.0636
 4130SOL    HW123849   1.333   3.132   5.557  0.2699 -0.1147  0.9450
 4130SOL    HW223850   1.397   3.007   5.526  0.3708  1.9927 -0.6579
 4131SOL     OW23851   0.344   3.997   0.105  0.3520 -0.1692  0.3221
 4131SOL    HW123852   0.394   3.934   0.052 -1.1290 -0.8038 -0.3329
 4131SOL    HW223853   0.386   4.077   0.073  1.3134  0.2683  2.6803
 4132SOL     OW23854   2.143   2.135  10.931  0.4557  0.4844  0.1919
 4132SOL    HW123855   2.049   2.122  10.923  0.4896 -0.1128  0.7973
 4132SOL    HW223856   2.148   2.225  10.898 -1.2815 -0.8346 -3.6266
 4133SOL     OW23857   1.332   2.675  15.485  0.1374  0.4425 -0.1755
 4133SOL    HW123858   1.264   2.697  15.421 -0.1091 -0.4289 -0.2124
 4133SOL    HW223859   1.355   2.766  15.505  4.3010 -0.8343  0.9344
 4134SOL     OW23860   1.293   4.197   7.641  0.7548 -0.3289 -0.5602
 4134SOL    HW123861   1.352   4.122   7.636  0.7989 -0.2858 -0.6881
 4134SOL    HW223862   1.222   4.175   7.581 -0.7351  2.9321  0.0101
 4135SOL     OW23863   0.758   1.213  11.609  0.4845 -0.5372  0.3330
 4135SOL    HW123864   0.844   1.178  11.635 -0.0910 -0.5728  2.2236
 4135SOL    HW223865   0.776   1.282  11.546 -0.0407 -1.5462 -0.9271
 4136SOL     OW23866   4.092   0.364  16.911 -0.8454  0.1179 -0.1448
 4136SOL    HW123867   4.182   0.340  16.934 -0.1399  2.3092 -0.7193
 4136SOL    HW223868   4.072   0.303  16.840 -1.0201  0.2667 -0.2230
 4137SOL     OW23869   2.734   4.316   6.828 -0.1233  0.6709  0.6379
 4137SOL    HW123870   2.725   4.300   6.922  0.7924  0.4549  0.6954
 4137SOL    HW223871   2.819   4.362   6.829 -0.1626  0.7601 -0.0603
 4138SOL     OW23872   3.479   1.882   8.753 -0.7942  0.5501 -1.1378
 4138SOL    HW123873   3.508   1.935   8.679 -1.5460 -0.8918 -2.4707
 4138SOL    HW223874   3.530   1.935   8.814 -0.1608 -1.5496  0.1455
 4139SOL     OW23875   4.469   4.702  16.192 -0.4747  0.3927  0.2645
 4139SOL    HW123876   4.391   4.647  16.186 -0.6258  0.4913  1.2355
 4139SOL    HW223877   4.488   0.001  16.101 -2.8490 -1.0660 -0.5494
 4140SOL     OW23878   3.090   1.166   0.908 -0.2537  0.3024  0.2925
 4140SOL    HW123879   3.082   1.072   0.921 -1.5738  0.1341 -1.7961
 4140SOL    HW223880   3.114   1.199   0.995 -0.8336  3.0393 -0.5955
 4141SOL     OW23881   2.150   1.493  16.587  0.0177  0.0502  0.0943
 4141SOL    HW123882   2.079   1.486  16.650  0.7758 -0.0150  0.9326
 4141SOL    HW223883   2.202   1.422  16.624 -1.3976 -1.1311 -0.1942
 4142SOL     OW23884   4.278   2.350   0.741 -0.7590 -0.1509  0.6058
 4142SOL    HW123885   4.327   2.320   0.664 -0.3959  0.1731  0.7075
 4142SOL    HW223886   4.227   2.273   0.766 -1.0110  0.3055  1.4752
 4143SOL     OW23887   2.217   1.370   8.727  0.1016  0.0908  0.1891
 4143SOL    HW123888   2.183   1.324   8.804  0.5782 -0.7835 -0.1302
 4143SOL    HW223889   2.301   1.327   8.710  0.7793  1.8886 -1.0312
 4144SOL     OW23890   1.833   1.907  12.318 -0.0591  0.1703 -0.0368
 4144SOL    HW123891   1.775   1.878  12.388 -0.7683  1.7372  0.0152
 4144SOL    HW223892   1.774   1.967  12.274 -1.5618 -0.1535  1.5350
 4145SOL     OW23893   0.984   3.275   5.720 -0.1872 -0.3219 -0.0453
 4145SOL    HW123894   1.024   3.192   5.747 -0.5114 -0.6661 -0.6246
 4145SOL    HW223895   0.892   3.252   5.716 -0.2347 -0.5503  2.0759
 4146SOL     OW23896   4.094   0.480   4.421  0.1764 -0.3991 -0.7354
 4146SOL    HW123897   4.096   0.575   4.406  2.2727 -0.6578 -2.2271
 4146SOL    HW223898   4.080   0.462   4.328  1.6573 -0.4952 -0.9492
 4147SOL     OW23899   0.997   1.985  12.646  0.1473  0.2002 -0.5723
 4147SOL    HW123900   0.909   1.954  12.627 -0.0901  1.0362 -0.8805
 4147SOL    HW223901   1.053   1.907  12.642  0.8173  0.4926  3.1810
 4148SOL     OW23902   3.469   3.144   3.958 -0.3412 -0.0090  0.2007
 4148SOL    HW123903   3.558   3.173   3.936  0.2457 -0.5888  1.8212
 4148SOL    HW223904   3.424   3.113   3.879 -0.2903  0.2062  0.0857
 4149SOL     OW23905   0.492   1.727   2.961 -0.2959  0.8246 -0.2546
 4149SOL    HW123906   0.441   1.806   2.944  0.6645  1.8493  1.6161
 4149SOL    HW223907   0.515   1.698   2.872 -0.9662  0.5010 -0.3182
 4150SOL     OW23908   0.540   1.275   8.089 -0.8351  0.0229 -0.3864
 4150SOL    HW123909   0.593   1.269   8.010 -1.6393  3.0303 -1.1481
 4150SOL    HW223910   0.481   1.344   8.061  2.1981  2.0735 -1.6337
 4151SOL     OW23911   1.591   2.826   1.926  0.0604  0.2210  0.1195
 4151SOL    HW123912   1.650   2.752   1.911  0.1662 -0.1704  2.4402
 4151SOL    HW223913   1.647   2.902   1.907  0.6965 -0.3397 -0.2175
 4152SOL     OW23914   1.095   2.287  15.919  0.0274  0.1004 -0.0431
 4152SOL    HW123915   1.174   2.269  15.868 -0.1928 -0.0330 -0.3401
 4152SOL    HW223916   1.075   2.378  15.895  0.0303  0.4683  1.3775
 4153SOL     OW23917   2.892   1.550  12.897  0.1637 -0.1109  0.3433
 4153SOL    HW123918   2.867   1.468  12.856  0.0445  0.8082 -1.4155
 4153SOL    HW223919   2.879   1.527  12.989 -0.4532  1.0781  0.5451
 4154SOL     OW23920   0.596   2.119   7.999 -0.3433  0.0588  0.4870
 4154SOL    HW123921   0.689   2.122   8.022  0.5420 -1.4344 -2.9151
 4154SOL    HW223922   0.560   2.044   8.047 -0.5075  0.1383  0.4879
 4155SOL     OW23923   1.686   2.266  17.626  0.2145  0.2835  0.1205
 4155SOL    HW123924   1.683   2.354  17.587 -1.1805  1.3993  2.7100
 4155SOL    HW223925   1.760   2.295  17.680  1.7206 -2.9118 -0.2713
 4156SOL     OW23926   3.478   4.169   8.641  0.3094 -0.5362 -0.4378
 4156SOL    HW123927   3.413   4.132   8.580 -0.1445  0.5527 -0.6102
 4156SOL    HW223928   3.420   4.233   8.682  1.0611 -0.2596  0.1873
 4157SOL     OW23929   1.095   2.501  10.952 -0.4412 -0.5133  0.0988
 4157SOL    HW123930   1.175   2.464  10.914  0.4850  1.2228  0.3813
 4157SOL    HW223931   1.034   2.494  10.879  1.0329  1.4840 -1.3162
 4158SOL     OW23932   2.939   2.688   2.247  0.1982  0.6749  0.4721
 4158SOL    HW123933   2.925   2.779   2.273  0.2294  0.6082  0.7138
 4158SOL    HW223934   3.035   2.698   2.246  0.5601 -2.5907  3.8055
 4159SOL     OW23935   0.036   4.153   7.445 -0.3756  0.1451  0.2294
 4159SOL    HW123936   0.014   4.138   7.537  2.8863  1.3794  1.2394
 4159SOL    HW223937   4.709   4.235   7.440  0.0883  0.3852 -0.3333
 4160SOL     OW23938   1.395   1.648   8.994 -0.6747 -0.1086  0.1573
 4160SOL    HW123939   1.491   1.645   9.001 -0.5659  0.6251 -0.9090
 4160SOL    HW223940   1.381   1.677   8.903  2.3644 -2.5140 -1.0857
 4161SOL     OW23941   4.660   1.012  13.361  0.1565 -0.1311 -0.1862
 4161SOL    HW123942   4.693   0.927  13.389  1.7106  0.9346  1.2017
 4161SOL    HW223943   0.016   1.040  13.313  1.5429 -1.7877  1.1047
 4162SOL     OW23944   3.111   1.945   4.985 -0.1387 -0.0091  0.4801
 4162SOL    HW123945   3.136   1.894   5.062  0.6321 -0.3848 -0.0231
 4162SOL    HW223946   3.200   1.962   4.953 -0.1311 -0.8633  0.0594
 4163SOL     OW23947   3.902   3.658   1.148  0.2727 -0.6645  0.7569
 4163SOL    HW123948   3.957   3.583   1.175  0.2652 -0.5755  1.0203
 4163SOL    HW223949   3.829   3.651   1.209  0.2551  2.7770  1.1058
 4164SOL     OW23950   1.119   4.468   4.701 -0.7610 -0.4325 -0.7494
 4164SOL    HW123951   1.096   4.386   4.745  0.9212 -0.9555 -0.8388
 4164SOL    HW223952   1.092   4.450   4.611  0.6868  0.5292 -1.3706
 4165SOL     OW23953   3.956   0.385   0.396 -0.1011  0.2596  0.3319
 4165SOL    HW123954   3.879   0.376   0.340  0.7140  2.8903 -1.2339
 4165SOL    HW223955   3.930   0.454   0.457 -0.8452  1.7082 -1.6155
 4166SOL     OW23956   1.212   3.813   0.756 -0.3273 -0.1782 -0.0789
 4166SOL    HW123957   1.130   3.769   0.734  0.5253 -0.9043 -1.7909
 4166SOL    HW223958   1.277   3.762   0.708 -1.8416 -0.9375 -1.3317
 4167SOL     OW23959   4.587   2.003   2.870 -0.2087  0.4822 -0.4364
 4167SOL    HW123960   4.523   1.995   2.941 -1.3034  0.5545 -1.4099
 4167SOL    HW223961   4.535   2.048   2.803 -0.1664 -1.5164 -1.8194
 4168SOL     OW23962   0.883   1.825   8.135 -0.6229  0.9825 -0.4207
 4168SOL    HW123963   0.881   1.908   8.183  2.2271 -0.1313  1.6045
 4168SOL    HW223964   0.833   1.766   8.192  2.6289 -1.0118  0.3775
 4169SOL     OW23965   0.545   4.381  13.398 -0.7088  0.3520  0.0222
 4169SOL    HW123966   0.547   4.304  13.342 -0.0679  0.2909  0.1229
 4169SOL    HW223967   0.467   4.364  13.450 -0.5209 -3.4641 -0.9778
 4170SOL     OW23968   1.419   0.867   9.160 -0.4199 -0.0317 -0.2465
 4170SOL    HW123969   1.357   0.919   9.109 -0.7861 -1.4861 -1.2598
 4170SOL    HW223970   1.484   0.938   9.165 -0.6576  0.3466 -2.8134
 4171SOL     OW23971   0.083   1.391   0.990 -0.3006 -0.1068 -0.4593
 4171SOL    HW123972   4.714   1.370   0.965 -0.2729 -1.2851  0.4405
 4171SOL    HW223973   0.114   1.301   0.997  0.6824  0.4129  1.6246
 4172SOL     OW23974   0.607   4.211   0.334 -0.3564 -0.0881  0.4146
 4172SOL    HW123975   0.512   4.224   0.322 -0.4090 -1.3556 -0.5452
 4172SOL    HW223976   0.627   4.271   0.406 -0.8684 -0.6483  1.0241
 4173SOL     OW23977   2.181   0.738   9.052 -0.5741 -0.1060 -0.3411
 4173SOL    HW123978   2.154   0.648   9.035 -1.8228  0.5201 -1.6796
 4173SOL    HW223979   2.177   0.774   8.964 -0.3652  0.9407  0.0785
 4174SOL     OW23980   2.232   0.624  14.015  0.1729  0.5254  0.8393
 4174SOL    HW123981   2.227   0.673  14.097 -3.2085  1.1926  0.2054
 4174SOL    HW223982   2.230   0.532  14.043 -0.5563  0.8448  1.8469
 4175SOL     OW23983   3.637   3.142   8.916 -0.4557  0.5320  0.4177
 4175SOL    HW123984   3.637   3.223   8.968  1.4063  0.6843  0.1837
 4175SOL    HW223985   3.553   3.100   8.932 -0.9776  1.7903  0.9851
 4176SOL     OW23986   0.605   3.474   2.580  0.5383  0.1793  0.3349
 4176SOL    HW123987   0.648   3.452   2.497  1.0484 -1.6192  1.0767
 4176SOL    HW223988   0.653   3.552   2.608  0.7599 -0.9359  3.0440
 4177SOL     OW23989   0.345   0.190   5.562 -0.1172  0.1446  0.7859
 4177SOL    HW123990   0.300   0.119   5.606  1.4116 -2.2954 -1.5791
 4177SOL    HW223991   0.407   0.218   5.629  0.0565  0.6889  0.4039
 4178SOL     OW23992   2.295   2.521   4.582  0.3726 -0.0816  0.2378
 4178SOL    HW123993   2.269   2.449   4.525  1.7384 -1.3551  1.2247
 4178SOL    HW223994   2.348   2.482   4.652 -0.8155  1.1564  1.8513
 4179SOL     OW23995   0.388   1.649  13.087  0.0727  0.0459  0.0608
 4179SOL    HW123996   0.456   1.714  13.107  1.3874 -1.7575  1.4893
 4179SOL    HW223997   0.415   1.590  13.157 -2.3270  0.1091  1.0270
 4180SOL     OW23998   0.736   0.071   9.745  0.3854 -1.0635 -0.0330
 4180SOL    HW123999   0.723   0.160   9.779  2.4379 -1.7334  2.4969
 4180SOL    HW224000   0.827   0.085   9.719  0.3916  2.0684  1.7189
 4181SOL     OW24001   3.897   2.549   2.475 -0.1509 -0.2140 -0.5838
 4181SOL    HW124002   3.861   2.492   2.407  0.3183 -3.2713  1.7721
 4181SOL    HW224003   3.938   2.622   2.429  1.3301 -0.2776  0.6691
 4182SOL     OW24004   1.092   2.522   7.165  0.5265  0.2479 -0.2039
 4182SOL    HW124005   1.111   2.613   7.188 -1.7599 -0.1948  3.3700
 4182SOL    HW224006   1.086   2.523   7.069 -0.8805  1.0121 -0.1111
 4183SOL     OW24007   4.288   4.015   8.235  0.0253  0.1572  0.0484
 4183SOL    HW124008   4.375   3.995   8.269 -0.1892 -0.1244  0.4210
 4183SOL    HW224009   4.313   4.056   8.151  0.5979 -1.9274 -0.7919
 4184SOL     OW24010   1.643   1.115   8.676 -0.2497 -0.2590  0.8282
 4184SOL    HW124011   1.606   1.184   8.622 -0.5124 -0.0810  1.2365
 4184SOL    HW224012   1.600   1.042   8.631  0.8909 -0.4029 -0.0166
 4185SOL     OW24013   3.192   3.388   8.578 -0.7316 -0.1764  0.1345
 4185SOL    HW124014   3.280   3.355   8.599 -0.6840 -0.0103  0.1978
 4185SOL    HW224015   3.133   3.314   8.567  0.9722 -1.8059  1.9406
 4186SOL     OW24016   4.494   3.949   8.386 -0.2396 -0.2926  0.3905
 4186SOL    HW124017   4.442   3.980   8.460  1.2359  0.2441  1.1808
 4186SOL    HW224018   4.542   3.878   8.429  0.1420 -0.4888 -0.3547
 4187SOL     OW24019   2.538   0.129   5.257  0.2336 -0.0278 -0.3485
 4187SOL    HW124020   2.442   0.137   5.260  0.2132 -0.9754  1.1910
 4187SOL    HW224021   2.550   0.147   5.350  1.2585  2.6969 -1.0204
 4188SOL     OW24022   3.090   1.106   9.636  0.2593  0.8540 -0.4089
 4188SOL    HW124023   3.101   1.195   9.670  2.1348  0.3442  0.3232
 4188SOL    HW224024   3.123   1.059   9.712 -0.3327  2.2416  0.7014
 4189SOL     OW24025   4.112   1.198   2.543  0.4883  0.4016  0.6616
 4189SOL    HW124026   4.019   1.198   2.519  0.2218 -1.4208  1.6731
 4189SOL    HW224027   4.125   1.293   2.534 -1.1564  0.4223 -1.4362
 4190SOL     OW24028   1.904   0.398   5.131 -0.6226 -0.4223 -0.1376
 4190SOL    HW124029   1.878   0.485   5.162  0.3865 -0.3957  0.6426
 4190SOL    HW224030   1.858   0.346   5.197 -4.0869 -0.3677 -2.5141
 4191SOL     OW24031   0.428   2.541  17.137  0.4981 -0.3188  0.2367
 4191SOL    HW124032   0.490   2.475  17.166 -0.3029 -1.0410  0.2934
 4191SOL    HW224033   0.422   2.526  17.042 -1.6944  0.2502  0.2759
 4192SOL     OW24034   2.095   1.348   6.956 -0.4443 -0.2171 -0.2696
 4192SOL    HW124035   2.003   1.333   6.977 -0.1782 -1.2586  0.1494
 4192SOL    HW224036   2.127   1.391   7.035  0.7011 -1.8322  0.1589
 4193SOL     OW24037   2.211   0.207  10.194 -0.5522 -0.6317 -0.2037
 4193SOL    HW124038   2.220   0.185  10.101  2.8579 -1.6986  0.3709
 4193SOL    HW224039   2.117   0.224  10.204 -0.3871  0.7498 -0.9512
 4194SOL     OW24040   3.970   2.148   3.809  0.0721 -0.5226  0.4164
 4194SOL    HW124041   3.904   2.108   3.753  0.1740 -1.0108  0.6515
 4194SOL    HW224042   4.048   2.148   3.754 -0.7095  0.7668 -0.7076
 4195SOL     OW24043   2.304   2.552   6.867 -0.2065  0.5038 -0.0715
 4195SOL    HW124044   2.369   2.615   6.897 -0.0690  0.0073  0.6721
 4195SOL    HW224045   2.243   2.541   6.939  0.4505  1.9132  0.6876
 4196SOL     OW24046   2.317   3.931  12.837 -0.4275  0.1235  0.1967
 4196SOL    HW124047   2.261   3.915  12.761 -0.1169  1.9621 -0.4276
 4196SOL    HW224048   2.391   3.879  12.806 -0.9275  0.2484 -1.2118
 4197SOL     OW24049   0.876   1.836   7.112  0.6539 -0.3022 -0.2884
 4197SOL    HW124050   0.894   1.857   7.203  1.2083 -3.1998  0.2732
 4197SOL    HW224051   0.784   1.812   7.115  1.1147 -1.9139  0.9740
 4198SOL     OW24052   1.852   0.352  10.542 -0.3868 -0.3615  0.1724
 4198SOL    HW124053   1.867   0.330  10.634  0.0139  1.3233  0.5166
 4198SOL    HW224054   1.833   0.266  10.505  2.9004 -1.2571  0.5870
 4199SOL     OW24055   1.858   3.786   6.380  0.1657  0.1693  0.3602
 4199SOL    HW124056   1.887   3.816   6.466  1.6240  0.5434 -0.2518
 4199SOL    HW224057   1.942   3.759   6.344 -0.5107 -0.3024 -0.8870
 4200SOL     OW24058   3.067   3.715   4.977  0.1409  0.4883  0.0102
 4200SOL    HW124059   2.988   3.696   4.926 -0.0167 -0.5359  0.6377
 4200SOL    HW224060   3.113   3.783   4.927  0.2843 -0.2183 -0.8091
 4201SOL     OW24061   1.005   1.865   1.927  0.1174  0.6896  0.1206
 4201SOL    HW124062   1.050   1.814   1.859 -1.5305  1.9508 -1.8996
 4201SOL    HW224063   1.081   1.898   1.976  0.1110  0.8274  0.0376
 4202SOL     OW24064   3.723   0.861   7.033  0.7681  0.0313  0.0599
 4202SOL    HW124065   3.776   0.806   7.092  0.8292  0.6381  0.5673
 4202SOL    HW224066   3.783   0.878   6.960  0.6147 -1.8541 -0.4997
 4203SOL     OW24067   0.033   0.038  15.805 -0.8168 -0.0795 -0.2030
 4203SOL    HW124068   0.089   0.114  15.791  1.8215 -2.1692 -0.8801
 4203SOL    HW224069   4.671   0.056  15.760 -1.1157 -1.2956 -0.1246
 4204SOL     OW24070   0.686   1.007   5.505  0.5807  0.6011 -0.1470
 4204SOL    HW124071   0.668   0.937   5.443 -1.2630  0.5953  0.3728
 4204SOL    HW224072   0.609   1.059   5.482  1.2337  2.6167  2.2131
 4205SOL     OW24073   2.759   1.549  11.833 -0.2045 -0.9167  0.2030
 4205SOL    HW124074   2.771   1.622  11.894  1.5303 -2.2004  1.3876
 4205SOL    HW224075   2.849   1.524  11.811 -0.0267 -0.2330  0.1635
 4206SOL     OW24076   3.656   3.778  13.626 -0.1757 -0.1635 -0.1903
 4206SOL    HW124077   3.643   3.721  13.702  2.7764 -1.0355 -0.3307
 4206SOL    HW224078   3.750   3.788  13.642 -0.2401 -0.6684  0.4937
 4207SOL     OW24079   4.054   0.890   7.220  0.0458 -0.0167  0.0833
 4207SOL    HW124080   4.034   0.797   7.218 -0.4683  0.1156 -1.5073
 4207SOL    HW224081   4.149   0.885   7.230  0.1501  0.1029 -0.8398
 4208SOL     OW24082   3.320   2.682  16.077  0.3179  0.4727  0.4424
 4208SOL    HW124083   3.356   2.771  16.075 -0.0768  0.5949 -1.0134
 4208SOL    HW224084   3.243   2.700  16.131 -0.7438 -0.5186 -0.7232
 4209SOL     OW24085   1.932   0.671   9.616 -0.1323 -0.2097 -0.0109
 4209SOL    HW124086   1.956   0.674   9.524 -1.5566 -2.4889 -0.4611
 4209SOL    HW224087   1.890   0.585   9.623  0.9432 -0.8730 -1.8072
 4210SOL     OW24088   2.992   4.147   4.877  0.5422  0.2959  0.2154
 4210SOL    HW124089   2.940   4.106   4.945  0.6605 -0.4220 -0.1273
 4210SOL    HW224090   2.980   4.083   4.807 -0.9306 -1.6775  2.2645
 4211SOL     OW24091   1.543   3.456   4.968  0.0605  0.6330  0.3129
 4211SOL    HW124092   1.598   3.404   5.027 -0.5303  1.1840  1.3568
 4211SOL    HW224093   1.508   3.386   4.913 -0.9527 -0.2157  2.0469
 4212SOL     OW24094   1.086   0.635   9.856  0.6536 -0.2971 -0.4107
 4212SOL    HW124095   1.097   0.704   9.790 -0.3686  1.2012  0.9829
 4212SOL    HW224096   1.134   0.670   9.931 -2.1524 -0.8263  1.5922
 4213SOL     OW24097   1.309   1.196   2.281  0.1660  0.1154  0.7853
 4213SOL    HW124098   1.285   1.278   2.324 -1.7837  0.1611 -0.4049
 4213SOL    HW224099   1.226   1.148   2.277 -0.3766  1.1897 -0.5753
 4214SOL     OW24100   1.649   2.677  10.849 -0.1158  0.0216  0.2396
 4214SOL    HW124101   1.694   2.693  10.932 -1.9825  1.3834  0.9949
 4214SOL    HW224102   1.709   2.634  10.788  0.9911  0.2236  1.1983
 4215SOL     OW24103   4.253   0.398   4.637 -0.2122  0.8095  0.1753
 4215SOL    HW124104   4.249   0.308   4.668  1.2326  0.2413 -1.2533
 4215SOL    HW224105   4.209   0.400   4.552  0.5129  1.9887 -0.1854
 4216SOL     OW24106   0.736   2.812   4.129 -0.2082  0.3839 -0.1540
 4216SOL    HW124107   0.676   2.779   4.195  0.5097  4.3758  2.4431
 4216SOL    HW224108   0.724   2.750   4.057 -1.0860 -1.6737  1.7649
 4217SOL     OW24109   2.025   0.633   3.360 -0.2722  0.1187  0.4615
 4217SOL    HW124110   1.966   0.704   3.383  0.2670  0.4714  0.7512
 4217SOL    HW224111   2.057   0.621   3.449  0.0725  0.0888  0.3333
 4218SOL     OW24112   2.731   3.533  12.881  0.3815 -0.2011  0.5687
 4218SOL    HW124113   2.794   3.495  12.819  1.4588  0.6866  1.1088
 4218SOL    HW224114   2.653   3.479  12.870 -0.1867  0.7219  0.0564
 4219SOL     OW24115   1.430   2.874   6.489 -0.4659  0.0075  0.2927
 4219SOL    HW124116   1.413   2.811   6.559  0.4005  0.8995  1.3121
 4219SOL    HW224117   1.366   2.943   6.506 -0.6653  0.3790 -1.9636
 4220SOL     OW24118   2.645   2.788   0.054  0.3577  0.2756  0.0983
 4220SOL    HW124119   2.553   2.766   0.043  0.1579  1.0068  0.3577
 4220SOL    HW224120   2.641   2.883   0.060 -0.9992  0.2807 -1.0003
 4221SOL     OW24121   3.066   3.966   6.319  0.2039  0.2940 -0.1109
 4221SOL    HW124122   3.097   3.961   6.229 -0.8723  3.5148 -0.6607
 4221SOL    HW224123   3.097   4.051   6.351 -1.7394  0.6604  0.8237
 4222SOL     OW24124   2.837   2.981  10.248  0.0941 -1.1319  0.0482
 4222SOL    HW124125   2.795   2.914  10.195 -1.0062 -0.0027 -0.4872
 4222SOL    HW224126   2.793   3.064  10.230  2.0017  0.3571  2.2055
 4223SOL     OW24127   2.886   1.680  14.938 -0.2974  0.0917  0.1092
 4223SOL    HW124128   2.893   1.774  14.922  0.3238  0.4447  2.4740
 4223SOL    HW224129   2.840   1.648  14.860 -0.0370  0.4704 -0.2006
 4224SOL     OW24130   1.598   0.202   9.227  0.3819  0.5740  0.1261
 4224SOL    HW124131   1.670   0.139   9.224  0.4922  0.6976  0.1962
 4224SOL    HW224132   1.525   0.140   9.236  1.0424  0.1202  2.3058
 4225SOL     OW24133   3.535   0.187   5.417  0.7459  0.4310 -0.2140
 4225SOL    HW124134   3.629   0.208   5.411  0.8858  0.0427  0.5691
 4225SOL    HW224135   3.535   0.194   5.513 -0.5264 -0.5527 -0.1500
 4226SOL     OW24136   0.992   0.775  10.837  0.3010 -0.1011 -0.2852
 4226SOL    HW124137   0.925   0.831  10.797  0.8941  0.9202  0.1506
 4226SOL    HW224138   1.000   0.830  10.916  0.3257 -1.6412  0.7815
 4227SOL     OW24139   0.158   1.426   5.318 -0.1021 -0.7958  0.3320
 4227SOL    HW124140   0.202   1.471   5.246  0.1962 -1.1451  0.2970
 4227SOL    HW224141   0.079   1.480   5.321  0.3853 -0.1390  1.1514
 4228SOL     OW24142   4.495   1.650   8.525  0.1236  0.3977 -0.1406
 4228SOL    HW124143   4.481   1.672   8.617  1.2141  0.3888  0.0279
 4228SOL    HW224144   4.403   1.656   8.499  0.4586  0.2966 -1.3416
 4229SOL     OW24145   3.470   2.939   5.344  0.7592 -0.0428  0.0739
 4229SOL    HW124146   3.526   3.016   5.347  0.4462  0.0657  2.7555
 4229SOL    HW224147   3.401   2.960   5.407  2.1944  1.7060  1.0553
 4230SOL     OW24148   2.140   3.175   0.922  0.2228 -0.2992 -0.4478
 4230SOL    HW124149   2.055   3.131   0.921 -0.2489  0.6215 -2.0356
 4230SOL    HW224150   2.184   3.136   0.847  0.3614 -1.5477  0.2789
 4231SOL     OW24151   1.149   1.639   3.560  0.2415 -0.1709  0.2126
 4231SOL    HW124152   1.086   1.636   3.488  1.9266 -0.9337 -1.2393
 4231SOL    HW224153   1.215   1.579   3.525  0.3466  1.3923 -2.2043
 4232SOL     OW24154   0.818   2.878  14.941 -0.2363 -0.5793  0.2136
 4232SOL    HW124155   0.763   2.956  14.934 -1.3730 -1.5241 -1.6136
 4232SOL    HW224156   0.893   2.910  14.891 -0.8957 -0.2329 -0.5718
 4233SOL     OW24157   4.325   2.783  16.560  0.1736 -0.2380  0.5638
 4233SOL    HW124158   4.265   2.721  16.602  1.3333 -1.1100  0.9500
 4233SOL    HW224159   4.374   2.817  16.635 -0.0187 -2.1207  1.5453
 4234SOL     OW24160   3.894   3.185   0.873 -0.3555 -0.0196 -0.3449
 4234SOL    HW124161   3.838   3.251   0.915 -2.1336  0.0226 -2.7716
 4234SOL    HW224162   3.971   3.238   0.894  0.2814 -1.2097  0.2939
 4235SOL     OW24163   0.004   4.620   5.450  0.0562 -0.1256  0.3717
 4235SOL    HW124164   4.653   4.649   5.506 -0.2098  1.6261 -0.9067
 4235SOL    HW224165   0.042   4.707   5.443  0.4823 -0.3219  0.2421
 4236SOL     OW24166   2.529   1.295   8.762 -0.0868 -0.0933  0.3527
 4236SOL    HW124167   2.511   1.289   8.668 -0.1679  1.9995  0.2340
 4236SOL    HW224168   2.543   1.390   8.760  0.5711 -0.1850  0.7354
 4237SOL     OW24169   1.348   0.979  11.120  0.1454  0.0959 -0.3449
 4237SOL    HW124170   1.324   0.895  11.081  0.7768 -0.4738  0.4898
 4237SOL    HW224171   1.323   1.043  11.053 -2.3152 -1.6039 -1.0397
 4238SOL     OW24172   1.693   0.434   8.343  0.4559 -0.2345  0.1246
 4238SOL    HW124173   1.728   0.372   8.280  0.5840  0.9924 -1.0164
 4238SOL    HW224174   1.771   0.440   8.399  0.2145 -1.3576  0.5771
 4239SOL     OW24175   0.770   3.446   8.347 -0.6149 -0.0058 -0.0232
 4239SOL    HW124176   0.719   3.436   8.427  0.2580  1.7113  0.7427
 4239SOL    HW224177   0.838   3.380   8.358 -2.2397 -1.3466  1.9517
 4240SOL     OW24178   0.702   1.368  14.815 -0.3226  0.1410  0.1423
 4240SOL    HW124179   0.784   1.418  14.816  0.2862 -0.7985 -2.1651
 4240SOL    HW224180   0.730   1.278  14.799 -1.9660 -0.6736  1.8658
 4241SOL     OW24181   2.696   2.781   2.447  0.0458  0.3099 -0.4905
 4241SOL    HW124182   2.730   2.852   2.393 -0.1609 -0.0113 -1.0470
 4241SOL    HW224183   2.637   2.731   2.391 -3.0616  0.7413  2.3840
 4242SOL     OW24184   3.926   4.511   3.441  0.0560 -0.7324 -0.2194
 4242SOL    HW124185   3.983   4.452   3.393  1.5384 -1.1677  2.0613
 4242SOL    HW224186   3.970   4.596   3.444 -1.9041  0.2745  0.0979
 4243SOL     OW24187   4.489   4.704   6.114  0.0743 -0.7150  0.2528
 4243SOL    HW124188   4.414   0.040   6.099  0.3796 -1.1333 -2.8934
 4243SOL    HW224189   4.447   4.622   6.140 -1.1182 -0.2374 -0.1536
 4244SOL     OW24190   3.574   0.866   6.061 -0.1147  0.6520 -0.0711
 4244SOL    HW124191   3.604   0.801   6.124 -0.2649 -0.2697 -0.9495
 4244SOL    HW224192   3.630   0.845   5.986 -2.2190  1.3315 -1.8432
 4245SOL     OW24193   2.850   4.302   3.027  0.1458 -0.0308 -0.1465
 4245SOL    HW124194   2.794   4.231   3.056 -1.5235  0.3117 -2.5377
 4245SOL    HW224195   2.850   4.354   3.107 -1.9455  0.1205 -0.2500
 4246SOL     OW24196   1.117   4.054   8.756 -0.3088  0.6035  0.4870
 4246SOL    HW124197   1.033   4.054   8.802 -0.3906  0.6505  0.3382
 4246SOL    HW224198   1.151   4.133   8.798 -1.4062  0.7034  1.2023
 4247SOL     OW24199   3.249   2.466  15.336  0.1233  0.0082 -0.1507
 4247SOL    HW124200   3.332   2.513  15.332 -2.1549  3.9869 -0.3923
 4247SOL    HW224201   3.197   2.541  15.310 -3.2143 -1.6536  1.7291
 4248SOL     OW24202   0.500   3.329   7.575 -0.1546 -0.2965 -0.3776
 4248SOL    HW124203   0.408   3.304   7.580 -0.7399  1.6728 -1.2564
 4248SOL    HW224204   0.537   3.254   7.529  0.1543  0.6036 -1.6092
 4249SOL     OW24205   4.588   2.887  15.317 -0.0804  0.3493  0.5083
 4249SOL    HW124206   4.536   2.961  15.285  0.1143 -0.5438 -1.8231
 4249SOL    HW224207   4.671   2.932  15.334  0.4145 -0.7539  1.0044
 4250SOL     OW24208   1.704   4.075   1.161  0.8809 -0.6646  0.3924
 4250SOL    HW124209   1.762   4.120   1.222 -0.6746 -0.7191  1.9061
 4250SOL    HW224210   1.699   3.983   1.186 -0.3629 -0.1081  2.2238
 4251SOL     OW24211   3.674   2.809  14.576  0.3425  0.2213 -0.4120
 4251SOL    HW124212   3.706   2.810  14.485  1.5832 -2.1555  0.0001
 4251SOL    HW224213   3.584   2.840  14.565 -0.4824 -1.9176  0.3066
 4252SOL     OW24214   0.496   0.013   7.629 -0.1307  0.3471 -0.1873
 4252SOL    HW124215   0.497   4.639   7.631 -0.4669  0.3325 -1.1663
 4252SOL    HW224216   0.523   0.038   7.718  0.3169  0.0961 -0.2543
 4253SOL     OW24217   0.816   1.624   6.244  0.3908  0.2359 -0.0781
 4253SOL    HW124218   0.857   1.538   6.240 -0.7447 -0.4133  2.2647
 4253SOL    HW224219   0.818   1.654   6.153  1.4794  0.6752  0.0966
 4254SOL     OW24220   1.493   4.590   2.780 -0.2984 -0.4349 -0.2454
 4254SOL    HW124221   1.514   4.676   2.744 -3.1155  1.0766  1.7337
 4254SOL    HW224222   1.586   4.566   2.788 -0.5168 -2.2829 -3.2420
 4255SOL     OW24223   2.158   3.523   5.233 -0.2031  0.4042  0.4278
 4255SOL    HW124224   2.113   3.438   5.240 -0.3654  0.4922  0.4489
 4255SOL    HW224225   2.126   3.570   5.310  3.8631  1.1933  1.6364
 4256SOL     OW24226   3.106   3.488  14.594 -0.0560  0.0069  0.3476
 4256SOL    HW124227   3.182   3.486  14.652  1.3507 -1.3745 -1.5906
 4256SOL    HW224228   3.156   3.510  14.516  0.7094  3.2407  1.7392
 4257SOL     OW24229   4.606   3.039   2.765 -0.7882  0.1888  0.3571
 4257SOL    HW124230   4.672   3.065   2.830 -0.8173  3.8343 -1.0630
 4257SOL    HW224231   4.654   3.046   2.683 -1.3954  1.0434  0.0788
 4258SOL     OW24232   1.584   0.200  16.153  0.2291 -0.3252 -0.2135
 4258SOL    HW124233   1.642   0.272  16.126  0.1572 -0.3651 -0.4813
 4258SOL    HW224234   1.512   0.199  16.090 -1.5153 -2.4986  1.8117
 4259SOL     OW24235   0.740   4.206   6.863  0.2890  0.1764  0.1933
 4259SOL    HW124236   0.678   4.133   6.860  0.1305  0.3275 -0.2819
 4259SOL    HW224237   0.820   4.168   6.899  0.1027  0.6718  1.1295
 4260SOL     OW24238   4.271   0.254  14.103 -0.0113 -0.4738  0.0501
 4260SOL    HW124239   4.343   0.225  14.159 -1.1260  0.2869  1.8670
 4260SOL    HW224240   4.322   0.269  14.024  1.0961 -0.0922  0.8543
 4261SOL     OW24241   4.247   0.280   3.074 -1.0035 -0.0659  0.0552
 4261SOL    HW124242   4.250   0.193   3.034 -0.4986 -0.9198  1.9120
 4261SOL    HW224243   4.268   0.329   2.995 -1.0632 -3.3477 -1.9908
 4262SOL     OW24244   1.791   2.708   1.641 -0.7469  0.0779  0.5617
 4262SOL    HW124245   1.878   2.668   1.637  0.7386  3.2444  0.7711
 4262SOL    HW224246   1.780   2.677   1.731 -1.2822 -0.5302  0.2870
 4263SOL     OW24247   2.447   3.656  12.789 -0.5226  0.2156  0.4188
 4263SOL    HW124248   2.457   3.599  12.713 -0.7887  1.2246 -0.3645
 4263SOL    HW224249   2.427   3.601  12.865  0.7232  2.7990  2.6414
 4264SOL     OW24250   0.728   2.202   6.599  0.0353 -0.3915  0.1594
 4264SOL    HW124251   0.802   2.182   6.541 -0.2690  1.3336 -0.8496
 4264SOL    HW224252   0.700   2.286   6.562  2.6328  0.1718 -0.5306
 4265SOL     OW24253   2.970   2.639  16.715 -0.1637 -0.3134  0.5178
 4265SOL    HW124254   3.054   2.599  16.738  0.2709  1.1172  1.4077
 4265SOL    HW224255   2.929   2.635  16.801 -2.0688 -0.2262 -0.3828
 4266SOL     OW24256   2.413   1.310   3.070 -0.4722 -0.2596 -1.0025
 4266SOL    HW124257   2.451   1.224   3.085  1.1930  0.7393  0.5381
 4266SOL    HW224258   2.494   1.360   3.057  0.6271 -1.9485 -0.7063
 4267SOL     OW24259   3.427   1.566   1.877  0.6896  0.1466  0.1919
 4267SOL    HW124260   3.383   1.515   1.944  1.4864  0.1588  0.7209
 4267SOL    HW224261   3.385   1.651   1.869  0.5410  0.0004 -0.6394
 4268SOL     OW24262   2.670   3.057   8.845 -0.2515  0.2993 -0.3057
 4268SOL    HW124263   2.718   3.139   8.851 -0.7556  0.8019 -2.9498
 4268SOL    HW224264   2.648   3.061   8.938 -0.2504 -0.1668 -0.2815
 4269SOL     OW24265   3.360   0.403   4.522  0.4370  0.3883  0.3771
 4269SOL    HW124266   3.424   0.369   4.584 -0.7391 -0.0666  1.3518
 4269SOL    HW224267   3.286   0.344   4.535  1.0934 -0.1408  1.6458
 4270SOL     OW24268   0.407   2.647   2.601  0.2811  0.4792  0.0758
 4270SOL    HW124269   0.406   2.671   2.693  1.7509 -0.9540  0.4771
 4270SOL    HW224270   0.352   2.570   2.617  2.5773 -1.3501 -0.7703
 4271SOL     OW24271   3.482   0.710   8.761 -0.5683  0.5851  0.5931
 4271SOL    HW124272   3.542   0.780   8.734  1.4731 -1.5681 -0.5675
 4271SOL    HW224273   3.479   0.660   8.680  0.6020  1.1524  0.1876
 4272SOL     OW24274   1.527   3.179  10.931  0.2543 -0.0109  0.2175
 4272SOL    HW124275   1.580   3.102  10.909 -0.9495 -0.1104 -2.3305
 4272SOL    HW224276   1.435   3.152  10.922  0.3440  0.2391 -1.5477
 4273SOL     OW24277   4.029   4.619  13.879 -0.2529 -0.3442 -0.0601
 4273SOL    HW124278   4.063   4.641  13.792 -2.1861  1.0971 -0.4416
 4273SOL    HW224279   4.103   4.628  13.940  1.8040 -1.9920 -2.2920
 4274SOL     OW24280   1.952   0.247   9.259  0.2805 -0.5595 -0.1524
 4274SOL    HW124281   1.981   0.160   9.232  0.2384 -0.5490 -0.2302
 4274SOL    HW224282   1.908   0.230   9.342  0.2108  3.0589  0.5365
 4275SOL     OW24283   2.942   0.110   4.446  0.3270 -0.1005  0.5391
 4275SOL    HW124284   2.888   0.176   4.404  1.4908  0.6413  0.2077
 4275SOL    HW224285   2.875   0.046   4.469  0.9990 -0.7217  0.7940
 4276SOL     OW24286   1.857   1.825  13.313 -0.8495 -0.0372 -0.1883
 4276SOL    HW124287   1.933   1.881  13.330 -0.4998 -0.5749  0.0434
 4276SOL    HW224288   1.801   1.843  13.388  1.6413 -0.5238  1.8179
 4277SOL     OW24289   3.818   3.541   1.458  0.6029 -0.0397 -0.3918
 4277SOL    HW124290   3.779   3.453   1.463  0.2263  0.3222  3.0162
 4277SOL    HW224291   3.768   3.591   1.523 -1.0635  1.0540 -2.5421
 4278SOL     OW24292   1.555   2.656   7.282  0.3966  0.4198 -0.3480
 4278SOL    HW124293   1.530   2.676   7.372 -0.5047 -2.2269 -0.0150
 4278SOL    HW224294   1.611   2.581   7.301  0.2031 -0.4589 -3.2521
 4279SOL     OW24295   2.325   2.238   2.997 -0.0249 -0.0064  0.3223
 4279SOL    HW124296   2.353   2.249   3.088  1.4408  1.8559 -0.3374
 4279SOL    HW224297   2.374   2.158   2.978  2.3052  1.7319 -1.0517
 4280SOL     OW24298   4.515   3.214  12.679 -0.2863  0.1758  0.3130
 4280SOL    HW124299   4.604   3.181  12.684 -0.2361  0.1369 -0.8641
 4280SOL    HW224300   4.511   3.285  12.743  1.6821  0.3357  0.2298
 4281SOL     OW24301   3.066   4.661   3.247 -0.2565 -0.0005  0.2274
 4281SOL    HW124302   2.971   4.676   3.246 -0.5612 -1.7495  3.0413
 4281SOL    HW224303   3.082   4.655   3.341 -1.6984  1.2938  0.5611
 4282SOL     OW24304   3.927   3.910  13.406 -0.0308  0.2191  0.4860
 4282SOL    HW124305   3.837   3.908  13.374 -0.0003  0.4277  0.3841
 4282SOL    HW224306   3.920   3.913  13.501 -1.2456  0.3578  0.3986
 4283SOL     OW24307   4.185   0.675   5.082  0.3011 -0.4186  0.3268
 4283SOL    HW124308   4.166   0.586   5.112 -0.5100  0.0727  1.2721
 4283SOL    HW224309   4.193   0.651   4.990  2.3531 -0.9516  0.6307
 4284SOL     OW24310   4.464   4.225   3.136  0.6105 -0.1270  0.2071
 4284SOL    HW124311   4.450   4.316   3.111  2.5838  0.3811  0.9213
 4284SOL    HW224312   4.540   4.233   3.194  0.5772  1.3315  0.0648
 4285SOL     OW24313   2.843   2.181   3.390 -0.0625  0.0229 -0.5102
 4285SOL    HW124314   2.754   2.188   3.355  0.4911  0.9635 -1.7335
 4285SOL    HW224315   2.895   2.216   3.317 -1.2203  0.7604 -0.9777
 4286SOL     OW24316   4.260   1.494  11.432  0.1343 -0.5385 -0.2982
 4286SOL    HW124317   4.270   1.579  11.389  1.1534 -0.2605  0.4768
 4286SOL    HW224318   4.231   1.521  11.519 -0.0197 -0.9435 -0.2249
 4287SOL     OW24319   4.487   3.241   6.130 -0.1561 -0.2441  0.0541
 4287SOL    HW124320   4.512   3.176   6.196  1.6877 -0.4001 -0.8058
 4287SOL    HW224321   4.407   3.204   6.091  0.9814 -2.6887  0.0654
 4288SOL     OW24322   1.036   2.379   4.890 -0.7030 -0.2801 -0.1530
 4288SOL    HW124323   0.944   2.386   4.916 -0.7471  0.9335 -0.6454
 4288SOL    HW224324   1.040   2.441   4.817  0.8616 -1.6008 -1.1821
 4289SOL     OW24325   2.287   1.495  10.658 -0.5440 -0.1920  0.0052
 4289SOL    HW124326   2.335   1.564  10.613  0.3385 -0.7496  0.0893
 4289SOL    HW224327   2.217   1.472  10.597 -0.5795  0.5218 -0.2245
 4290SOL     OW24328   3.808   2.252   4.591 -0.3862 -0.0644  0.0992
 4290SOL    HW124329   3.761   2.325   4.631  0.8040  1.2348 -0.8733
 4290SOL    HW224330   3.876   2.291   4.536  1.2707 -2.2956  0.5597
 4291SOL     OW24331   3.687   4.064  13.925  0.0939 -0.1452 -0.0171
 4291SOL    HW124332   3.651   4.100  14.006  1.3545 -1.4090  1.1148
 4291SOL    HW224333   3.752   3.997  13.945  0.2222  0.2327  0.8063
 4292SOL     OW24334   1.710   0.549  10.907 -0.3311 -0.4248  0.0476
 4292SOL    HW124335   1.631   0.548  10.853 -0.3419  1.0230  0.0281
 4292SOL    HW224336   1.778   0.552  10.840 -0.1413  0.5481  0.2704
 4293SOL     OW24337   2.036   2.662   8.308 -0.6235 -0.3829 -0.2995
 4293SOL    HW124338   2.114   2.718   8.305 -1.5985  1.1399  3.0928
 4293SOL    HW224339   1.984   2.693   8.234 -1.5307 -0.8055  0.1585
 4294SOL     OW24340   3.439   2.008   9.889  0.2912  0.1373  0.2452
 4294SOL    HW124341   3.512   1.978   9.834  1.3067 -0.3909  1.8538
 4294SOL    HW224342   3.427   1.946   9.962 -1.5871  1.1383  0.7755
 4295SOL     OW24343   2.802   4.276   5.719 -0.6053 -0.5292 -0.2088
 4295SOL    HW124344   2.878   4.332   5.702 -1.2780  1.1063  2.1366
 4295SOL    HW224345   2.834   4.214   5.785 -0.1005  0.1212  0.1657
 4296SOL     OW24346   4.364   0.842   5.720  0.0689  0.3967 -0.2019
 4296SOL    HW124347   4.449   0.836   5.675 -0.1902 -1.5381 -0.4543
 4296SOL    HW224348   4.394   0.804   5.802 -0.1220  1.4259  0.3423
 4297SOL     OW24349   3.536   2.918   4.966  0.5647  0.1339  0.4309
 4297SOL    HW124350   3.468   2.895   4.903  1.6673 -3.4544  0.6030
 4297SOL    HW224351   3.489   2.984   5.018 -0.7001 -0.7303  0.3527
 4298SOL     OW24352   2.154   0.733   3.066 -1.2311  0.6172 -0.0282
 4298SOL    HW124353   2.109   0.666   3.015  0.2322 -1.3589  1.3118
 4298SOL    HW224354   2.238   0.728   3.021 -0.6621  0.6243  1.0373
 4299SOL     OW24355   4.163   1.577   6.942  0.3745  0.3378 -0.0226
 4299SOL    HW124356   4.245   1.621   6.961  0.5797 -0.7940  1.6104
 4299SOL    HW224357   4.106   1.650   6.914 -0.0237  0.8157  2.0655
 4300SOL     OW24358   4.445   2.796   5.693 -0.0235  0.0612 -0.3347
 4300SOL    HW124359   4.475   2.762   5.609  0.4150  2.5630 -1.2025
 4300SOL    HW224360   4.434   2.715   5.743 -1.2163  0.6565  0.3546
 4301SOL     OW24361   2.562   0.357   5.719  0.3671 -0.4443  0.1116
 4301SOL    HW124362   2.519   0.295   5.660 -0.5951 -0.5634  0.9416
 4301SOL    HW224363   2.489   0.406   5.757  0.5402 -0.2573  0.2046
 4302SOL     OW24364   1.285   2.277   4.572 -0.6910  0.3601 -0.3558
 4302SOL    HW124365   1.340   2.203   4.548 -1.6790 -1.1037  1.8419
 4302SOL    HW224366   1.213   2.242   4.626  1.7792 -0.2421  2.5349
 4303SOL     OW24367   0.822   3.870  14.035  0.2668  0.0160 -0.2443
 4303SOL    HW124368   0.741   3.919  14.051 -1.0347 -2.0512 -0.4593
 4303SOL    HW224369   0.865   3.920  13.965  1.2771  0.7689  0.9143
 4304SOL     OW24370   1.365   3.668  15.646 -0.0430 -0.3322  0.0125
 4304SOL    HW124371   1.273   3.695  15.645  0.1800  0.4353  0.4636
 4304SOL    HW224372   1.406   3.735  15.701 -1.1847  0.8931 -0.6210
 4305SOL     OW24373   2.021   1.237  17.579 -0.0294 -0.5988 -0.0487
 4305SOL    HW124374   2.058   1.320  17.609  0.6724  0.2006 -3.0977
 4305SOL    HW224375   1.941   1.237  17.632 -1.5152  0.8172 -2.2894
 4306SOL     OW24376   3.918   1.210   0.930 -0.3201 -0.2413 -0.0885
 4306SOL    HW124377   3.850   1.198   0.996 -1.8299  2.7136 -1.1142
 4306SOL    HW224378   3.947   1.119   0.922  1.4511  0.2737  0.3437
 4307SOL     OW24379   2.421   3.249   2.985 -0.1346 -0.3064 -0.4137
 4307SOL    HW124380   2.443   3.223   2.895  1.2705  3.6111 -1.2090
 4307SOL    HW224381   2.372   3.330   2.970  0.6590  0.6012  1.8265
 4308SOL     OW24382   4.363   2.462   4.352 -0.4996 -1.0075 -0.5317
 4308SOL    HW124383   4.359   2.556   4.372  0.8372 -1.0600 -0.0739
 4308SOL    HW224384   4.422   2.468   4.278  0.5232 -1.0421  0.2778
 4309SOL     OW24385   3.549   4.629   3.307 -0.2300 -0.0515 -0.0133
 4309SOL    HW124386   3.501   4.710   3.328  1.8626  0.6538  2.0397
 4309SOL    HW224387   3.519   4.616   3.217  0.8015 -1.1883 -0.1877
 4310SOL     OW24388   0.853   0.628   0.740 -0.3305 -0.0334 -0.9211
 4310SOL    HW124389   0.822   0.584   0.661 -1.0473 -0.4631 -0.3956
 4310SOL    HW224390   0.915   0.682   0.690  1.1924  0.2067  1.2041
 4311SOL     OW24391   0.507   1.090   7.179  0.3073 -0.2315 -0.1082
 4311SOL    HW124392   0.485   1.050   7.094 -0.4601  0.1764 -0.0985
 4311SOL    HW224393   0.416   1.111   7.197  0.4557 -1.1739  1.7312
 4312SOL     OW24394   1.513   0.876   8.633  0.2767  0.3543 -0.1079
 4312SOL    HW124395   1.454   0.816   8.680 -0.4549  0.4262 -0.9447
 4312SOL    HW224396   1.589   0.822   8.611 -0.0580 -1.1371  2.3843
 4313SOL     OW24397   2.492   2.041  10.423 -0.5247  0.2926 -0.7180
 4313SOL    HW124398   2.531   2.042  10.511 -0.7866 -0.1352 -0.5954
 4313SOL    HW224399   2.477   2.133  10.403  1.3230  0.3270 -1.9358
 4314SOL     OW24400   2.680   3.913   1.432 -0.6643  0.6030  0.4442
 4314SOL    HW124401   2.622   3.966   1.377  0.2701  0.5675 -0.5867
 4314SOL    HW224402   2.765   3.942   1.397 -0.8343 -1.4386 -1.6476
 4315SOL     OW24403   2.541   0.939   4.503 -0.7637 -0.2597 -0.1826
 4315SOL    HW124404   2.627   0.897   4.513 -0.5364  0.3335  0.3417
 4315SOL    HW224405   2.481   0.901   4.567 -2.8722  1.5866 -1.0582
 4316SOL     OW24406   3.475   0.909   4.182 -0.0237  0.5492  0.3613
 4316SOL    HW124407   3.480   0.821   4.146  1.5003 -0.9640  4.2778
 4316SOL    HW224408   3.427   0.965   4.121  1.3651  0.6339 -0.6402
 4317SOL     OW24409   1.386   4.452   0.558  0.0789 -0.2172  0.1119
 4317SOL    HW124410   1.428   4.490   0.636 -1.1654  2.8654 -0.7271
 4317SOL    HW224411   1.463   4.407   0.523  0.2008 -0.2516  0.4194
 4318SOL     OW24412   4.207   1.709   8.885  0.1028  0.5807 -0.0149
 4318SOL    HW124413   4.189   1.646   8.816  3.5659 -0.6573  0.2163
 4318SOL    HW224414   4.264   1.648   8.933  0.5135 -0.2080 -1.5161
 4319SOL     OW24415   0.025   0.189   4.003 -0.5754 -0.3680  0.3133
 4319SOL    HW124416   0.101   0.187   3.946  0.4082  0.8427  1.5898
 4319SOL    HW224417   4.672   0.220   3.952  0.4318 -0.0837 -0.9799
 4320SOL     OW24418   4.192   1.989   6.488 -0.0977 -0.5894  0.1014
 4320SOL    HW124419   4.232   2.034   6.562 -0.3708 -1.1957  0.6231
 4320SOL    HW224420   4.188   2.060   6.424 -0.1824  0.3237  1.1122
 4321SOL     OW24421   1.667   1.592  14.418 -0.6903  0.1705  0.2607
 4321SOL    HW124422   1.642   1.509  14.378 -0.0054 -0.4249  1.0733
 4321SOL    HW224423   1.657   1.581  14.512  1.2021 -3.0080  0.0682
 4322SOL     OW24424   1.301   1.680   7.338 -0.0521  0.2238  0.8010
 4322SOL    HW124425   1.219   1.662   7.384 -0.5999 -2.2230 -1.1371
 4322SOL    HW224426   1.280   1.640   7.254 -0.6444  2.1010  0.0593
 4323SOL     OW24427   3.840   1.365  15.433 -0.0407  0.0661 -0.3440
 4323SOL    HW124428   3.858   1.287  15.380  0.6877  0.2801 -0.4175
 4323SOL    HW224429   3.769   1.407  15.386 -1.3590 -3.8811 -1.8943
 4324SOL     OW24430   4.272   4.556  16.068 -0.1899  0.0816 -0.2084
 4324SOL    HW124431   4.317   4.528  15.989 -2.0880 -1.0817 -0.8690
 4324SOL    HW224432   4.187   4.514  16.056 -0.8851  1.4047  0.0386
 4325SOL     OW24433   4.220   0.183   9.023 -0.6348 -0.4549 -0.4182
 4325SOL    HW124434   4.218   0.266   9.071  1.5131 -0.1104 -0.9335
 4325SOL    HW224435   4.210   0.116   9.091 -2.2942  0.0412 -0.1613
 4326SOL     OW24436   0.573   4.650  10.252  0.6402  0.0128  0.4779
 4326SOL    HW124437   0.661   4.651  10.288  0.3884  1.3936  1.0454
 4326SOL    HW224438   0.577   4.582  10.185 -3.7030  0.0462  0.1568
 4327SOL     OW24439   4.341   2.700  11.246  0.1927 -0.4115 -0.2568
 4327SOL    HW124440   4.371   2.745  11.167 -0.0986  2.1654  1.1099
 4327SOL    HW224441   4.423   2.693  11.296  0.1759  0.5473 -0.1058
 4328SOL     OW24442   4.501   2.293  12.347  0.5378  0.9330 -0.4910
 4328SOL    HW124443   4.595   2.301  12.328  0.7927  1.4076  0.9286
 4328SOL    HW224444   4.477   2.273  12.256 -0.5546  0.6598 -0.1398
 4329SOL     OW24445   1.958   4.358   0.930  0.3086  0.2578  0.5233
 4329SOL    HW124446   1.906   4.417   0.983  0.9913  0.4306  1.0018
 4329SOL    HW224447   1.905   4.279   0.926 -1.4188  1.5037 -1.1446
 4330SOL     OW24448   2.533   0.137   7.146 -0.1399 -0.5155  0.3431
 4330SOL    HW124449   2.625   0.142   7.119 -0.6611  1.6596 -0.9720
 4330SOL    HW224450   2.528   0.084   7.225 -3.4295 -2.2911 -1.0647
 4331SOL     OW24451   0.469   1.082   2.647 -0.9914  0.1618 -0.5356
 4331SOL    HW124452   0.407   1.088   2.574  0.7840  1.9914 -1.8977
 4331SOL    HW224453   0.487   1.175   2.665  1.8279 -0.3477 -0.7324
 4332SOL     OW24454   1.717   3.798  17.120 -0.2497  0.4137 -0.2525
 4332SOL    HW124455   1.710   3.794  17.024 -2.2904  2.5537 -0.1897
 4332SOL    HW224456   1.797   3.751  17.144 -0.1125 -0.0103 -1.5428
 4333SOL     OW24457   0.340   0.503   8.124 -0.1995 -0.1427 -0.5030
 4333SOL    HW124458   0.352   0.519   8.218  0.1223 -2.3397 -0.1695
 4333SOL    HW224459   0.415   0.448   8.101  1.1785  0.9293  1.4429
 4334SOL     OW24460   2.013   1.653  17.492 -0.2060  0.0925 -0.5298
 4334SOL    HW124461   1.980   1.648  17.581  0.2500  1.5786 -0.2791
 4334SOL    HW224462   1.937   1.648  17.434 -0.7208 -2.9332  0.4086
 4335SOL     OW24463   3.839   3.173  13.820 -0.2753  0.1626 -0.1867
 4335SOL    HW124464   3.797   3.212  13.743  0.7950  0.5420 -0.5823
 4335SOL    HW224465   3.856   3.084  13.789  2.8328  0.3699  0.9201
 4336SOL     OW24466   4.472   2.537   4.105  0.1168  0.2925  0.2905
 4336SOL    HW124467   4.509   2.453   4.078  0.3966  0.2633  0.7563
 4336SOL    HW224468   4.409   2.551   4.035 -0.3423 -0.0573  0.6326
 4337SOL     OW24469   1.295   3.410   6.600 -0.1803  0.2272  0.1813
 4337SOL    HW124470   1.275   3.497   6.634 -1.5913 -0.6130  1.4904
 4337SOL    HW224471   1.212   3.362   6.605 -0.3814  0.4032 -1.5958
 4338SOL     OW24472   0.240   0.963   4.767  0.2356  0.3985  0.1880
 4338SOL    HW124473   0.300   0.969   4.693  1.7632 -0.2579  1.3673
 4338SOL    HW224474   0.163   0.985   4.716  0.3253  0.7936  0.2272
 4339SOL     OW24475   2.929   3.690   1.330  0.0204 -0.8481 -0.3564
 4339SOL    HW124476   2.971   3.766   1.369 -0.4589 -0.8695  0.2007
 4339SOL    HW224477   2.972   3.693   1.245  0.5022  1.2169 -0.0359
 4340SOL     OW24478   3.500   0.417  14.407  0.0122  0.2850  1.0649
 4340SOL    HW124479   3.472   0.430  14.317 -1.1417 -3.5912  0.8624
 4340SOL    HW224480   3.536   0.503  14.429  0.1867  0.3582  0.4764
 4341SOL     OW24481   0.299   2.941   8.027  0.3441 -0.0151 -0.3691
 4341SOL    HW124482   0.327   2.892   7.950  2.4849  0.1125  0.3192
 4341SOL    HW224483   0.368   3.008   8.030  1.4074 -0.9849 -3.1028
 4342SOL     OW24484   3.373   3.446   6.165 -0.0884  0.0759 -0.0637
 4342SOL    HW124485   3.444   3.486   6.216 -1.3365 -0.4734  2.0740
 4342SOL    HW224486   3.415   3.437   6.079 -1.9038  0.7184 -1.0205
 4343SOL     OW24487   3.819   2.016   8.823  0.3545 -0.3072  0.4371
 4343SOL    HW124488   3.782   1.936   8.861  1.4513 -0.4234  1.2637
 4343SOL    HW224489   3.826   2.064   8.905 -0.2760 -0.3571  0.5199
 4344SOL     OW24490   2.655   4.152   9.963  0.4627  0.0414  0.1191
 4344SOL    HW124491   2.747   4.132   9.944  0.0782  1.1924 -3.0199
 4344SOL    HW224492   2.660   4.130  10.056  1.7390  2.1241  0.5483
 4345SOL     OW24493   1.531   3.197   5.726  0.2168 -0.0931  0.7979
 4345SOL    HW124494   1.606   3.243   5.690  1.6129 -2.4356  0.7378
 4345SOL    HW224495   1.469   3.236   5.664  0.2466 -0.0853  0.7734
 4346SOL     OW24496   1.791   2.863   4.475 -0.6430  1.0806 -0.9131
 4346SOL    HW124497   1.778   2.820   4.560 -2.0447  3.3259  0.0203
 4346SOL    HW224498   1.828   2.794   4.420  0.9549 -0.7907  2.4902
 4347SOL     OW24499   1.621   4.586  11.794  0.1383  0.1150 -0.2195
 4347SOL    HW124500   1.632   4.636  11.875 -0.4004 -0.2825  0.0940
 4347SOL    HW224501   1.698   4.609  11.741  0.0040  0.1327 -0.4057
 4348SOL     OW24502   1.260   3.277   4.659 -0.1379  0.8908 -0.1501
 4348SOL    HW124503   1.182   3.222   4.658 -0.1636  0.9184  0.5317
 4348SOL    HW224504   1.325   3.226   4.612  0.1499 -1.0530  2.4378
 4349SOL     OW24505   1.720   3.565   7.531  0.1971 -0.2957  0.7276
 4349SOL    HW124506   1.689   3.493   7.476 -0.1817  0.1400  0.3692
 4349SOL    HW224507   1.741   3.623   7.458  0.1733 -1.3697 -0.1458
 4350SOL     OW24508   4.703   3.879   0.745  0.7565 -0.2159 -0.2210
 4350SOL    HW124509   4.701   3.970   0.716  0.9710 -0.3875 -0.7748
 4350SOL    HW224510   4.687   3.829   0.665 -0.2026 -2.4541  1.3685
 4351SOL     OW24511   4.537   4.122   8.957  0.0456 -0.0191  0.3253
 4351SOL    HW124512   4.484   4.070   9.018 -0.0528  1.0762  1.1657
 4351SOL    HW224513   4.516   4.095   8.867  0.7253 -2.7425  0.9725
 4352SOL     OW24514   4.180   0.017   7.338  0.5495 -0.2740  0.6698
 4352SOL    HW124515   4.160   0.098   7.385 -0.4311 -0.3799  0.4245
 4352SOL    HW224516   4.258   0.041   7.287 -0.6129 -0.4793 -1.2229
 4353SOL     OW24517   0.987   0.900   2.661  0.3549 -0.5426  0.1302
 4353SOL    HW124518   0.985   0.805   2.665 -0.6709 -0.6458 -2.9775
 4353SOL    HW224519   0.897   0.925   2.640  0.1515  0.1386  1.7725
 4354SOL     OW24520   4.700   3.625   1.726  0.0817  0.3871 -0.0649
 4354SOL    HW124521   4.673   3.657   1.640 -0.9413  0.9733  0.4662
 4354SOL    HW224522   4.620   3.580   1.751 -0.4944  0.8684 -1.0112
 4355SOL     OW24523   0.423   4.225   8.942 -0.4503 -0.1556 -0.4482
 4355SOL    HW124524   0.413   4.192   9.032  2.7993 -1.6789 -0.6252
 4355SOL    HW224525   0.513   4.259   8.935  0.3382 -2.2103 -0.2646
 4356SOL     OW24526   0.080   3.852   1.798  0.0832  0.2043  1.2608
 4356SOL    HW124527   0.028   3.861   1.878 -1.0285 -0.6823  0.6490
 4356SOL    HW224528   0.044   3.768   1.769  0.1483  0.1236  1.4156
 4357SOL     OW24529   1.308   3.906   1.790 -0.6368 -0.2503 -0.1927
 4357SOL    HW124530   1.323   3.953   1.708  1.3426 -0.5637 -0.0027
 4357SOL    HW224531   1.308   3.980   1.851 -3.6242  0.0421 -0.5649
 4358SOL     OW24532   2.002   2.754   9.880  0.0698 -0.5976 -0.0262
 4358SOL    HW124533   2.066   2.784   9.816  1.1410 -2.7195  0.0299
 4358SOL    HW224534   2.053   2.713   9.950 -0.1439 -1.2650 -0.2584
 4359SOL     OW24535   0.980   4.155   4.377  0.6718 -0.0032 -0.7067
 4359SOL    HW124536   0.979   4.072   4.425 -0.4543  0.1921 -0.3992
 4359SOL    HW224537   1.046   4.136   4.310  0.5532 -0.2595 -0.7493
 4360SOL     OW24538   4.329   4.294   2.690  0.1709 -0.1119  0.4956
 4360SOL    HW124539   4.344   4.311   2.597 -0.1601 -0.3276  0.4033
 4360SOL    HW224540   4.404   4.340   2.728 -0.3065  0.4499  0.7673
 4361SOL     OW24541   1.068   0.241  11.330  0.4148 -0.0905 -0.0011
 4361SOL    HW124542   0.998   0.189  11.369 -0.9803  1.2560 -0.7128
 4361SOL    HW224543   1.022   0.274  11.252  0.6543 -1.3964 -0.7023
 4362SOL     OW24544   3.110   2.995   4.029 -0.1237  0.0651  0.8590
 4362SOL    HW124545   3.179   3.061   4.032 -0.8710  0.9879 -1.7838
 4362SOL    HW224546   3.155   2.926   3.980 -0.9309 -0.6569  1.1184
 4363SOL     OW24547   2.316   3.597   4.833 -0.4831 -0.3107 -0.2555
 4363SOL    HW124548   2.277   3.514   4.807 -1.5159  0.4529 -1.1519
 4363SOL    HW224549   2.237   3.640   4.863 -0.1149  1.3498 -1.6609
 4364SOL     OW24550   1.909   4.470  15.562 -0.0131  0.4908  0.3377
 4364SOL    HW124551   1.906   4.525  15.484 -1.6291  0.3890  0.3349
 4364SOL    HW224552   1.840   4.517  15.609 -0.2371 -1.0227  1.5130
 4365SOL     OW24553   0.558   3.851   9.144 -0.1088 -0.2401 -0.1274
 4365SOL    HW124554   0.465   3.871   9.154 -0.2678 -0.3165 -1.4622
 4365SOL    HW224555   0.577   3.914   9.075  1.2997 -0.0841  0.4065
 4366SOL     OW24556   0.000   2.933   4.289  0.3426  0.2895  0.5085
 4366SOL    HW124557   0.037   2.970   4.368 -1.7169  0.1405  1.5279
 4366SOL    HW224558   4.716   3.004   4.225  2.1336  0.2017  0.2300
 4367SOL     OW24559   1.914   2.332   6.075 -0.1485 -0.5251 -0.3543
 4367SOL    HW124560   1.825   2.344   6.109 -0.1737 -1.7202 -0.0034
 4367SOL    HW224561   1.931   2.242   6.102  0.2307 -0.3538 -0.0191
 4368SOL     OW24562   2.708   3.846  10.085  0.1562 -0.6951  0.2632
 4368SOL    HW124563   2.750   3.791  10.019  0.0596 -0.8610  0.3420
 4368SOL    HW224564   2.785   3.883  10.130  0.2806 -3.1057  1.9905
 4369SOL     OW24565   4.722   3.108   0.290  0.5547  0.4365 -0.3093
 4369SOL    HW124566   4.693   3.195   0.319 -0.1174  0.6142 -1.5161
 4369SOL    HW224567   0.076   3.140   0.241  1.3154  0.3390  0.8164
 4370SOL     OW24568   2.472   2.468   4.779  0.3075  0.1587  0.3771
 4370SOL    HW124569   2.513   2.532   4.837 -1.9875  2.1514 -0.2187
 4370SOL    HW224570   2.552   2.436   4.738  0.8259  0.5557  1.0841
 4371SOL     OW24571   0.268   0.871   6.487  0.2234  0.6668 -0.1886
 4371SOL    HW124572   0.211   0.945   6.469 -2.0783 -1.5286 -1.8986
 4371SOL    HW224573   0.197   0.822   6.528  0.2358  1.8120  1.1888
 4372SOL     OW24574   1.671   1.692   9.089  0.6125 -0.7467 -0.8742
 4372SOL    HW124575   1.671   1.717   9.182  1.4396 -0.8036 -0.8646
 4372SOL    HW224576   1.705   1.603   9.088  2.6584  0.0359 -0.6194
 4373SOL     OW24577   4.061   1.086  15.941 -0.1857 -0.0386  0.4603
 4373SOL    HW124578   4.152   1.097  15.968 -0.7088 -0.4815  2.4071
 4373SOL    HW224579   4.033   1.010  15.992  1.6147 -1.3473 -0.4989
 4374SOL     OW24580   0.330   3.555   2.569 -0.5784 -0.1264  0.5553
 4374SOL    HW124581   0.327   3.520   2.658  0.1881 -0.3351  0.4951
 4374SOL    HW224582   0.417   3.520   2.550 -0.2382  0.8181  0.4121
 4375SOL     OW24583   2.052   0.593   1.735 -0.3136  0.0559  0.2934
 4375SOL    HW124584   1.966   0.604   1.775 -0.5726  2.0121 -0.7755
 4375SOL    HW224585   2.062   0.680   1.695 -0.1442  0.1613  0.5599
 4376SOL     OW24586   0.787   3.658   6.455  0.0462 -0.1717 -0.0673
 4376SOL    HW124587   0.859   3.718   6.475 -2.4431  3.0418 -0.6674
 4376SOL    HW224588   0.759   3.693   6.370 -0.4543 -1.7553 -0.5554
 4377SOL     OW24589   0.514   4.047   8.563 -0.0390  0.1079 -0.4841
 4377SOL    HW124590   0.555   3.963   8.541  0.9850  0.7127 -0.9059
 4377SOL    HW224591   0.457   4.024   8.636  0.4635 -0.2588 -0.2055
 4378SOL     OW24592   0.764   0.622   1.801 -0.3533 -0.1504  0.2531
 4378SOL    HW124593   0.801   0.557   1.861 -1.1252 -1.3128 -0.5327
 4378SOL    HW224594   0.757   0.577   1.716  3.5227  1.8387 -1.1096
 4379SOL     OW24595   4.444   3.117   3.401  0.1774  0.1363 -1.3243
 4379SOL    HW124596   4.403   3.190   3.355 -1.2729  0.7553  0.9521
 4379SOL    HW224597   4.371   3.085   3.454 -1.5212  0.4435 -3.5083
 4380SOL     OW24598   4.704   2.229   3.268 -0.5192  0.1305 -0.5644
 4380SOL    HW124599   4.698   2.312   3.220 -1.7618  0.8557  0.8280
 4380SOL    HW224600   0.045   2.181   3.214 -1.1625 -3.3841  1.8031
 4381SOL     OW24601   2.610   2.985   6.103  0.5899 -0.4252 -0.2775
 4381SOL    HW124602   2.600   2.890   6.095  0.2004 -0.4947  0.9206
 4381SOL    HW224603   2.658   3.015   6.026  0.2922 -1.2009 -0.7606
 4382SOL     OW24604   3.712   1.091   3.840  0.0910 -0.4756 -0.1055
 4382SOL    HW124605   3.684   0.999   3.844 -2.9496  0.5423  1.6461
 4382SOL    HW224606   3.730   1.111   3.932  3.5762 -1.9675 -0.4381
 4383SOL     OW24607   0.437   4.437   3.671  0.2099 -0.0967  0.0646
 4383SOL    HW124608   0.414   4.450   3.579  1.0174 -0.1524 -0.1461
 4383SOL    HW224609   0.532   4.442   3.666  0.2121  0.3929  0.7650
 4384SOL     OW24610   0.392   1.212   5.766 -0.6673 -0.1089 -0.3526
 4384SOL    HW124611   0.314   1.159   5.786  0.6292 -0.9749  2.3546
 4384SOL    HW224612   0.375   1.205   5.672 -1.7448 -4.0291  0.1448
 4385SOL     OW24613   0.805   2.123   6.035  0.3619  0.0013  0.0649
 4385SOL    HW124614   0.896   2.094   6.026  0.0754 -0.1203 -2.4498
 4385SOL    HW224615   0.780   2.168   5.955 -3.0887  2.7922  2.6857
 4386SOL     OW24616   0.592   3.708  14.523  0.1309  0.6549  0.0587
 4386SOL    HW124617   0.649   3.770  14.479 -1.4778  0.2470 -2.5976
 4386SOL    HW224618   0.557   3.763  14.593  0.7597  0.2230  0.7141
 4387SOL     OW24619   2.752   0.330   3.570 -0.1139 -0.7844  0.0271
 4387SOL    HW124620   2.776   0.243   3.537  0.7499 -0.5951  0.1635
 4387SOL    HW224621   2.769   0.396   3.502 -0.0508 -1.3326 -0.4918
 4388SOL     OW24622   0.459   3.480   1.398 -0.2270 -0.2824 -0.3153
 4388SOL    HW124623   0.405   3.499   1.321 -0.0772 -0.0669 -0.3670
 4388SOL    HW224624   0.393   3.495   1.465 -0.0648 -2.4465  0.3342
 4389SOL     OW24625   0.494   0.317   2.951 -0.0882 -0.6170  0.1227
 4389SOL    HW124626   0.522   0.387   3.010 -0.7650 -0.3652  0.1482
 4389SOL    HW224627   0.535   0.326   2.866 -2.9799  1.6072 -1.0385
 4390SOL     OW24628   3.150   2.021   3.782  0.4404  0.2812 -0.7649
 4390SOL    HW124629   3.176   1.951   3.842  3.2724  0.6575 -1.5189
 4390SOL    HW224630   3.056   2.017   3.800  0.2853  0.0008 -1.6492
 4391SOL     OW24631   2.296   2.223   3.610 -0.0619  0.0162 -0.2554
 4391SOL    HW124632   2.249   2.222   3.527 -0.3028 -0.3039 -0.1154
 4391SOL    HW224633   2.236   2.181   3.672 -0.4387  1.3747  0.3156
 4392SOL     OW24634   4.530   1.912   4.730  0.3568 -0.5494 -0.6936
 4392SOL    HW124635   4.507   1.915   4.822  3.4624  1.0132  0.0489
 4392SOL    HW224636   4.458   1.862   4.692  0.2794 -1.3641  0.5187
 4393SOL     OW24637   0.351   4.311   0.329  0.3809 -0.4979 -0.1349
 4393SOL    HW124638   0.262   4.294   0.299  0.5701 -1.8109  0.0716
 4393SOL    HW224639   0.381   4.360   0.252 -0.7189  1.3893  0.6387
 4394SOL     OW24640   2.527   4.075   1.238  0.0143 -0.3835  0.2154
 4394SOL    HW124641   2.591   4.136   1.201 -3.1052  1.7210 -1.6797
 4394SOL    HW224642   2.486   4.044   1.157  1.3942  1.6735 -1.2865
 4395SOL     OW24643   4.171   2.704  11.719 -0.6770 -0.2219 -0.2220
 4395SOL    HW124644   4.148   2.670  11.633  1.6123  0.4074 -1.0770
 4395SOL    HW224645   4.169   2.798  11.701  0.6690 -0.4269 -1.4463
 4396SOL     OW24646   3.900   2.238   2.562 -0.0010 -0.0475 -0.4042
 4396SOL    HW124647   3.902   2.257   2.468 -1.9840 -1.5632 -0.7546
 4396SOL    HW224648   3.900   2.323   2.605 -0.1806 -0.5826  0.6416
 4397SOL     OW24649   0.160   3.538   0.759 -0.4853  0.0561  0.2792
 4397SOL    HW124650   0.102   3.608   0.790  1.2199  2.6090 -2.2755
 4397SOL    HW224651   0.241   3.562   0.803 -0.2306 -2.2730  1.0604
 4398SOL     OW24652   1.852   2.868   3.259 -0.3710 -0.3652  0.3234
 4398SOL    HW124653   1.929   2.844   3.208 -2.0638 -2.1465 -1.4488
 4398SOL    HW224654   1.891   2.944   3.300  0.2463  1.7173 -4.1794
 4399SOL     OW24655   2.553   3.727  12.144 -0.0885  0.4265  1.0014
 4399SOL    HW124656   2.619   3.672  12.101 -1.2386 -0.4150  0.3445
 4399SOL    HW224657   2.528   3.774  12.064 -1.0823  0.0735  1.1098
 4400SOL     OW24658   0.639   3.242   5.097 -0.0043  0.1078  0.4152
 4400SOL    HW124659   0.662   3.225   5.006 -1.8920 -0.3186  0.0225
 4400SOL    HW224660   0.617   3.335   5.094  1.4760  0.4919  1.2133
 4401SOL     OW24661   0.295   0.711  15.613  0.0732  0.2941 -0.1650
 4401SOL    HW124662   0.232   0.663  15.668  0.6521 -0.2992 -0.0214
 4401SOL    HW224663   0.315   0.643  15.549 -0.3599  0.6050 -0.6359
 4402SOL     OW24664   2.464   1.332   8.506 -0.2090  0.1695  0.1987
 4402SOL    HW124665   2.434   1.276   8.434 -0.1371 -0.2483  0.4888
 4402SOL    HW224666   2.425   1.415   8.480 -1.0584  0.8875  3.7442
 4403SOL     OW24667   1.863   4.161   6.095 -0.3375 -0.7642 -0.1220
 4403SOL    HW124668   1.896   4.095   6.157 -1.8827 -1.1702  0.2765
 4403SOL    HW224669   1.784   4.124   6.057  0.6467 -2.5554 -0.4449
 4404SOL     OW24670   2.660   1.054  13.218  0.0713  0.3179 -0.2649
 4404SOL    HW124671   2.696   0.974  13.180 -1.4640 -0.5903  0.1936
 4404SOL    HW224672   2.721   1.122  13.190 -0.3382  0.1771 -1.4972
 4405SOL     OW24673   1.755   3.055   5.585 -0.6271  0.8878 -0.8560
 4405SOL    HW124674   1.777   3.002   5.662 -1.3597  2.1285  0.2102
 4405SOL    HW224675   1.678   3.010   5.551 -0.4848  1.1421 -1.5079
 4406SOL     OW24676   1.470   2.831  14.074 -0.3513 -0.1773  0.5131
 4406SOL    HW124677   1.418   2.909  14.053  0.5740  0.9398  2.3820
 4406SOL    HW224678   1.460   2.783  13.992  0.5442  0.4250  0.0626
 4407SOL     OW24679   2.341   1.567   8.413 -0.1696 -0.2809 -0.3826
 4407SOL    HW124680   2.268   1.610   8.459  0.6611  1.6914 -0.8841
 4407SOL    HW224681   2.402   1.639   8.399  0.3865 -1.3860 -3.5981
 4408SOL     OW24682   3.310   0.493   5.046 -0.3680  0.2156  0.4423
 4408SOL    HW124683   3.220   0.508   5.075 -1.8277 -1.9347 -3.0707
 4408SOL    HW224684   3.313   0.533   4.959  1.1839 -2.5042 -0.7570
 4409SOL     OW24685   3.974   4.323   5.946  0.1130 -0.2461  0.1525
 4409SOL    HW124686   4.018   4.389   5.999 -0.5180  1.1290 -1.0399
 4409SOL    HW224687   4.042   4.309   5.880  1.4861  1.7768  1.1394
 4410SOL     OW24688   3.171   1.842   6.202  0.7531  0.0632 -0.1573
 4410SOL    HW124689   3.226   1.904   6.250 -0.8667  1.7786 -0.5132
 4410SOL    HW224690   3.205   1.762   6.241 -1.2781 -1.1184 -0.7744
 4411SOL     OW24691   4.122   0.784  17.376  0.0020  0.1573  0.2486
 4411SOL    HW124692   4.122   0.777  17.281 -1.9148  2.4055  0.0702
 4411SOL    HW224693   4.213   0.767  17.399 -0.3466 -0.1941  1.3730
 4412SOL     OW24694   3.476   4.480   3.755  0.3054 -0.1324  0.0845
 4412SOL    HW124695   3.422   4.473   3.833 -1.6556 -0.1185 -1.2676
 4412SOL    HW224696   3.462   4.392   3.719  1.5357  0.1654 -1.1304
 4413SOL     OW24697   4.432   3.535   7.544 -0.2454 -0.0895  0.1732
 4413SOL    HW124698   4.496   3.465   7.538  1.9900  1.8057  2.2973
 4413SOL    HW224699   4.410   3.524   7.636  2.2045  0.5260  0.8323
 4414SOL     OW24700   3.943   3.205   5.125 -0.0317  0.0102 -0.1953
 4414SOL    HW124701   3.857   3.188   5.164 -0.3843 -1.0510 -1.4470
 4414SOL    HW224702   3.927   3.195   5.031  0.9432 -1.4575 -0.2060
 4415SOL     OW24703   3.810   2.980   0.055  0.0064 -0.5180  0.2942
 4415SOL    HW124704   3.869   2.970  17.668  0.5997 -0.1323  0.7109
 4415SOL    HW224705   3.869   2.945   0.121 -0.0781 -1.6777 -0.2345
 4416SOL     OW24706   1.991   3.320   2.326 -0.1730  0.4943 -0.4406
 4416SOL    HW124707   1.899   3.334   2.306  0.0514  2.8274  0.1798
 4416SOL    HW224708   2.001   3.247   2.387 -1.9307 -0.4233 -1.2518
 4417SOL     OW24709   0.049   2.812  16.840  0.1375 -1.1087  0.1901
 4417SOL    HW124710   0.096   2.732  16.817  1.9180  0.3509 -1.1952
 4417SOL    HW224711   0.084   2.856  16.918  0.1179  1.2912 -1.1782
 4418SOL     OW24712   3.270   0.779   6.862 -0.4470  0.2076 -0.0748
 4418SOL    HW124713   3.343   0.787   6.923 -0.9617  0.2323  0.5349
 4418SOL    HW224714   3.248   0.868   6.836  0.9021  0.3012 -0.8706
 4419SOL     OW24715   1.879   1.355   8.711  0.0582  0.9972 -0.1480
 4419SOL    HW124716   1.940   1.397   8.652 -0.6643  0.4251 -1.3031
 4419SOL    HW224717   1.839   1.292   8.651  0.0799 -0.4152  1.2882
 4420SOL     OW24718   1.608   2.172   2.034 -0.1853  0.4954  0.0675
 4420SOL    HW124719   1.628   2.238   1.968  1.2419  0.2270  0.2254
 4420SOL    HW224720   1.515   2.170   2.014 -0.4881  1.4306  1.4172
 4421SOL     OW24721   1.061   1.277   5.217  0.5089 -0.5138 -0.4523
 4421SOL    HW124722   0.986   1.222   5.239 -0.9797  1.3034 -1.0347
 4421SOL    HW224723   1.023   1.326   5.144  1.2197 -0.2382 -0.6342
 4422SOL     OW24724   3.517   0.154  13.721  0.4111  0.0279  0.1117
 4422SOL    HW124725   3.491   0.244  13.705 -0.1860 -0.3329 -0.9803
 4422SOL    HW224726   3.525   0.142  13.815 -3.5552 -2.3096  0.1632
 4423SOL     OW24727   1.763   1.997   0.254  0.0470  0.0739 -0.5863
 4423SOL    HW124728   1.681   2.046   0.265  0.1354  0.3010 -0.9537
 4423SOL    HW224729   1.773   1.940   0.330  4.1283  0.6342 -0.7173
 4424SOL     OW24730   0.644   0.751  15.108  1.0072 -0.2047 -0.6208
 4424SOL    HW124731   0.663   0.788  15.194 -1.8106  0.4419 -0.2880
 4424SOL    HW224732   0.652   0.823  15.047 -0.8209  0.7120  0.2340
 4425SOL     OW24733   0.899   4.355   4.918 -0.0010 -0.2988 -0.0361
 4425SOL    HW124734   0.960   4.360   4.991  0.2317  2.1883 -0.4236
 4425SOL    HW224735   0.942   4.292   4.860  1.4534  0.1036  0.6164
 4426SOL     OW24736   2.596   3.146   1.359  0.3579 -0.3155  0.2522
 4426SOL    HW124737   2.671   3.199   1.386  1.7886 -1.7430 -0.8732
 4426SOL    HW224738   2.529   3.214   1.366 -0.1470 -0.9013  0.9658
 4427SOL     OW24739   3.286   0.606  14.604 -0.1689 -0.3770  0.6752
 4427SOL    HW124740   3.356   0.607  14.539 -0.5172  2.4387  0.3446
 4427SOL    HW224741   3.330   0.581  14.685  1.7058 -0.9237 -0.5442
 4428SOL     OW24742   1.066   0.519  12.054 -0.3395  0.2035 -0.0101
 4428SOL    HW124743   1.161   0.535  12.046 -0.7005  2.0367 -0.7416
 4428SOL    HW224744   1.064   0.429  12.023  1.2575  0.5960 -1.2969
 4429SOL     OW24745   1.008   0.625   3.419 -0.4965  0.3224 -0.2785
 4429SOL    HW124746   0.920   0.646   3.387 -0.1171  2.3197  0.0360
 4429SOL    HW224747   1.067   0.692   3.386 -0.5698  0.6664  0.2889
 4430SOL     OW24748   1.328   0.356  15.630  0.0277 -0.0100  0.1314
 4430SOL    HW124749   1.340   0.261  15.639 -1.0304  0.0662  2.2036
 4430SOL    HW224750   1.249   0.374  15.680 -1.3776 -0.7598 -1.8000
 4431SOL     OW24751   2.129   4.374   2.150 -0.5831  0.5722  0.6850
 4431SOL    HW124752   2.110   4.430   2.074 -0.2633 -1.4488 -0.8869
 4431SOL    HW224753   2.224   4.381   2.157 -0.5265 -0.9797  1.2929
 4432SOL     OW24754   2.195   2.167   8.516  0.3564  0.0354 -0.1244
 4432SOL    HW124755   2.121   2.163   8.455 -3.0840  1.5298  3.9509
 4432SOL    HW224756   2.241   2.092   8.477  1.7661  0.7823  0.1031
 4433SOL     OW24757   4.579   2.754  10.326  0.0529 -0.2114  0.2952
 4433SOL    HW124758   4.566   2.662  10.306 -0.0423  0.0426 -0.7990
 4433SOL    HW224759   4.623   2.746  10.411  1.6609  2.4899 -0.2560
 4434SOL     OW24760   2.270   1.854  13.681 -0.0107 -0.1268  0.9432
 4434SOL    HW124761   2.313   1.939  13.679  2.4722 -1.3752  0.8491
 4434SOL    HW224762   2.188   1.882  13.641  0.1418 -1.5567 -0.3927
 4435SOL     OW24763   0.911   4.143   6.496  0.0076  0.1959 -0.0113
 4435SOL    HW124764   1.000   4.149   6.459  1.5136 -1.7066  3.3747
 4435SOL    HW224765   0.873   4.102   6.418 -0.6558 -0.2921  0.5687
 4436SOL     OW24766   1.608   0.749   6.057  0.6466  0.0900  0.5535
 4436SOL    HW124767   1.548   0.683   6.091 -0.3177 -0.7046 -2.6318
 4436SOL    HW224768   1.613   0.712   5.968 -2.1562  0.5703  0.1999
 4437SOL     OW24769   1.194   3.505   0.993  0.3673  0.3487  0.5266
 4437SOL    HW124770   1.250   3.583   0.996  0.2911  0.4050  0.4943
 4437SOL    HW224771   1.124   3.527   0.931  1.2560  0.1061 -0.5706
 4438SOL     OW24772   0.722   0.417   4.347 -0.1903 -0.3057  0.2899
 4438SOL    HW124773   0.751   0.446   4.434  1.4479 -0.2851 -0.2507
 4438SOL    HW224774   0.793   0.362   4.314 -1.9261 -3.2752  1.5658
 4439SOL     OW24775   3.732   3.698   4.167  0.3699 -0.1646 -0.2208
 4439SOL    HW124776   3.807   3.728   4.115  1.3407 -0.0841  1.2187
 4439SOL    HW224777   3.687   3.782   4.177  2.4980  0.9744 -0.1215
 4440SOL     OW24778   4.045   2.630   7.186 -0.1052  0.1862 -0.2113
 4440SOL    HW124779   3.985   2.670   7.249  0.6423  0.9506  0.0277
 4440SOL    HW224780   4.133   2.636   7.225  0.1469  0.8476 -0.8758
 4441SOL     OW24781   1.031   0.608   7.245 -0.4144 -0.2680  0.1385
 4441SOL    HW124782   1.016   0.603   7.339 -1.5622 -1.2920 -0.1019
 4441SOL    HW224783   1.013   0.515   7.229 -0.3109 -0.0543 -1.2245
 4442SOL     OW24784   2.965   1.619   7.150 -0.2327 -0.3383  0.0118
 4442SOL    HW124785   2.874   1.634   7.127 -0.2583  1.3261  1.2085
 4442SOL    HW224786   3.009   1.604   7.067 -1.7531  0.7709 -0.9958
 4443SOL     OW24787   4.323   1.716  15.623 -0.3119 -0.2702 -0.1698
 4443SOL    HW124788   4.233   1.705  15.591  0.1905 -0.1615 -1.6038
 4443SOL    HW224789   4.352   1.625  15.627 -2.6923 -0.8989  2.5101
 4444SOL     OW24790   1.279   2.316  11.121 -0.1126 -0.0049 -0.1976
 4444SOL    HW124791   1.226   2.238  11.102 -1.5765  0.9311  0.0377
 4444SOL    HW224792   1.280   2.353  11.033 -1.3430  1.0626  0.2387
 4445SOL     OW24793   2.246   0.641  11.383  0.7961  0.3325  0.5196
 4445SOL    HW124794   2.232   0.735  11.383  0.4979  0.2885 -0.1845
 4445SOL    HW224795   2.201   0.625  11.300  0.9083 -0.8527  0.6820
 4446SOL     OW24796   2.251   4.201   6.997 -1.1683 -0.0306 -0.0687
 4446SOL    HW124797   2.232   4.114   6.962 -0.2545 -0.2227 -0.0869
 4446SOL    HW224798   2.234   4.254   6.920 -0.6480  2.7226  1.7092
 4447SOL     OW24799   1.174   3.828   3.355 -0.0905  0.2365 -0.6169
 4447SOL    HW124800   1.177   3.784   3.271  1.8236 -0.6101 -0.1270
 4447SOL    HW224801   1.269   3.842   3.357 -0.1094  0.3853 -0.8091
 4448SOL     OW24802   3.248   4.206   4.147 -0.4234 -0.1649  0.4066
 4448SOL    HW124803   3.231   4.194   4.241 -1.5668  2.0754  0.4881
 4448SOL    HW224804   3.242   4.302   4.148  0.0437 -0.1083 -1.9013
 4449SOL     OW24805   2.739   0.996   4.846  0.6748  0.5426  0.2115
 4449SOL    HW124806   2.781   0.941   4.779 -3.0462 -3.2598  0.9372
 4449SOL    HW224807   2.817   1.026   4.892 -0.0011  3.1596 -0.3775
 4450SOL     OW24808   1.713   3.535   9.149  0.1189 -0.1469 -0.2913
 4450SOL    HW124809   1.685   3.497   9.232  0.6080 -1.7872 -0.8737
 4450SOL    HW224810   1.631   3.526   9.100  0.1312  2.5494 -0.7858
 4451SOL     OW24811   0.610   0.964   8.319  0.0706 -0.4730 -0.1713
 4451SOL    HW124812   0.616   0.896   8.386  2.7163  0.7519  0.8263
 4451SOL    HW224813   0.585   1.037   8.376  0.1553 -0.1708 -0.5271
 4452SOL     OW24814   3.431   1.416   2.472 -0.1799  0.4246 -0.3803
 4452SOL    HW124815   3.409   1.323   2.460  3.2380 -0.4033 -0.4342
 4452SOL    HW224816   3.365   1.430   2.540  0.2082 -0.0334  0.1010
 4453SOL     OW24817   2.406   2.643   9.642  0.0553 -0.2033 -0.3837
 4453SOL    HW124818   2.501   2.645   9.641  0.0089  1.5119  0.0540
 4453SOL    HW224819   2.382   2.621   9.732 -0.9547 -1.6327 -0.9965
 4454SOL     OW24820   2.596   0.738   2.257 -0.2190  0.4307  0.2898
 4454SOL    HW124821   2.647   0.793   2.316 -0.0249 -0.0888  0.5956
 4454SOL    HW224822   2.565   0.807   2.197 -1.1563 -2.3505 -2.4399
 4455SOL     OW24823   1.695   3.072   3.062  0.0026 -0.1649 -0.6081
 4455SOL    HW124824   1.650   3.076   3.146 -0.1915 -0.0995 -0.7149
 4455SOL    HW224825   1.761   3.004   3.073 -0.2936 -0.6213 -1.6120
 4456SOL     OW24826   2.234   1.670   8.008  0.8591  0.0285 -0.3401
 4456SOL    HW124827   2.286   1.623   8.073  1.2383 -1.6097 -1.8513
 4456SOL    HW224828   2.193   1.737   8.063  1.3275 -0.0940  0.1581
 4457SOL     OW24829   3.628   3.280   8.172  0.1889 -0.0390  0.0333
 4457SOL    HW124830   3.698   3.281   8.238  0.0486  0.3871  0.1726
 4457SOL    HW224831   3.642   3.365   8.131 -1.8354  0.5729  0.6460
 4458SOL     OW24832   2.602   2.862  17.336  0.3923  0.2971  0.3823
 4458SOL    HW124833   2.664   2.793  17.310 -1.1611  0.1648 -3.0125
 4458SOL    HW224834   2.652   2.943  17.328 -1.1206  1.2625  0.9074
 4459SOL     OW24835   4.167   4.062   6.880 -0.2698 -0.2815 -0.7428
 4459SOL    HW124836   4.131   4.066   6.792 -1.2580 -2.2131 -0.4123
 4459SOL    HW224837   4.082   4.065   6.923  0.5731  1.3036  0.8426
 4460SOL     OW24838   3.544   1.989   2.878 -0.0719 -0.5811  0.6614
 4460SOL    HW124839   3.493   2.010   2.800  1.2840  0.2680 -0.0055
 4460SOL    HW224840   3.474   1.968   2.939 -0.0774 -0.8897  0.5503
 4461SOL     OW24841   1.696   2.247   2.614  0.6380  0.6955 -0.1480
 4461SOL    HW124842   1.758   2.274   2.546  0.0946 -0.8635 -1.2818
 4461SOL    HW224843   1.719   2.306   2.685 -0.5638  0.7245  0.2281
 4462SOL     OW24844   1.236   1.222   3.202  0.1297  0.2381  1.1689
 4462SOL    HW124845   1.235   1.128   3.189  0.1518  0.2877  0.8106
 4462SOL    HW224846   1.293   1.252   3.132 -1.0835 -1.5462 -0.5785
 4463SOL     OW24847   3.043   3.654   7.136 -0.2966 -0.8066  0.7260
 4463SOL    HW124848   3.132   3.655   7.172  0.1024  0.9299 -0.3366
 4463SOL    HW224849   3.013   3.733   7.181  1.0606  0.4441 -0.5148
 4464SOL     OW24850   1.450   2.997   9.501  0.2212 -0.4530  0.4862
 4464SOL    HW124851   1.438   2.944   9.580  0.2784 -1.9040 -0.4740
 4464SOL    HW224852   1.370   2.973   9.455  1.3744 -0.5191 -1.5317
 4465SOL     OW24853   3.827   1.143  14.164  0.0789  0.3316  0.3047
 4465SOL    HW124854   3.792   1.066  14.209 -0.7610 -0.1614 -1.2078
 4465SOL    HW224855   3.916   1.137  14.197  0.2234 -1.6372 -0.4251
 4466SOL     OW24856   2.178   0.286   6.484  0.0898 -0.1391 -0.0062
 4466SOL    HW124857   2.129   0.299   6.565  1.0304  0.2357  0.5017
 4466SOL    HW224858   2.131   0.332   6.414 -1.1711 -1.4861 -0.0362
 4467SOL     OW24859   2.240   2.892  11.267  0.0652 -0.4899  0.3269
 4467SOL    HW124860   2.189   2.828  11.316 -0.0142 -0.8226 -0.1897
 4467SOL    HW224861   2.331   2.876  11.292  0.3025  1.4401  0.6992
 4468SOL     OW24862   2.344   0.883   6.073  0.1671 -0.2739 -0.0896
 4468SOL    HW124863   2.257   0.876   6.113  0.1077 -1.5495 -0.4538
 4468SOL    HW224864   2.394   0.832   6.136  1.4567 -0.4499 -1.2688
 4469SOL     OW24865   0.342   0.879  15.127 -0.0919  0.7026 -0.1155
 4469SOL    HW124866   0.342   0.863  15.221 -2.0988 -0.0580 -0.2373
 4469SOL    HW224867   0.370   0.793  15.094  0.4450  0.2365  1.5326
 4470SOL     OW24868   2.925   2.436   3.958  0.0115  0.0153 -0.8328
 4470SOL    HW124869   2.877   2.470   3.883  0.8944 -0.2524 -1.5207
 4470SOL    HW224870   2.965   2.520   3.982  1.5731 -1.3281  1.2730
 4471SOL     OW24871   4.365   2.810  15.768 -0.1085 -0.6372 -0.1925
 4471SOL    HW124872   4.383   2.811  15.862 -0.5712  1.9508 -0.1327
 4471SOL    HW224873   4.352   2.715  15.768  0.8668 -0.7719 -0.2760
 4472SOL     OW24874   0.502   0.009   4.266 -0.4217 -0.0525  0.3528
 4472SOL    HW124875   0.541   4.663   4.210 -3.6267 -0.7825 -1.0056
 4472SOL    HW224876   0.500   0.073   4.195 -0.2610  0.1841  0.5639
 4473SOL     OW24877   4.572   0.213   8.919  0.3889  0.1977 -0.0788
 4473SOL    HW124878   4.583   0.162   8.999 -0.1915 -0.0520 -0.1591
 4473SOL    HW224879   4.492   0.176   8.881  0.1127  1.2435 -0.5317
 4474SOL     OW24880   1.357   2.495   6.542 -0.3838 -1.0561 -0.0407
 4474SOL    HW124881   1.332   2.570   6.596  0.4347 -1.2847  0.6540
 4474SOL    HW224882   1.271   2.461   6.516  0.4185 -3.8699  1.0273
 4475SOL     OW24883   4.073   3.113   6.941  0.7839 -0.2434  0.3133
 4475SOL    HW124884   3.989   3.111   6.986  0.8949 -2.4026  0.4350
 4475SOL    HW224885   4.114   3.193   6.975  0.2527 -0.6342  1.8833
 4476SOL     OW24886   0.856   3.892  15.026  0.2526 -0.4210 -0.0514
 4476SOL    HW124887   0.890   3.980  15.043  0.2016 -0.3739 -0.1904
 4476SOL    HW224888   0.817   3.919  14.943 -0.3172  0.0075  0.3598
 4477SOL     OW24889   3.153   0.242   4.613  0.0427 -0.3652  0.2765
 4477SOL    HW124890   3.184   0.153   4.632 -0.4304 -0.5902  0.0089
 4477SOL    HW224891   3.063   0.227   4.583  0.0967 -2.1073  0.9460
 4478SOL     OW24892   2.832   1.498   0.108 -0.3138 -0.2902 -0.3531
 4478SOL    HW124893   2.872   1.553   0.176 -3.0222 -1.1698  1.9693
 4478SOL    HW224894   2.900   1.493   0.042  0.0253  0.5204 -0.0635
 4479SOL     OW24895   1.872   2.541   4.958  0.0447 -0.3498  0.7221
 4479SOL    HW124896   1.881   2.469   5.020  0.4625  0.2624  1.3623
 4479SOL    HW224897   1.930   2.509   4.889 -0.9896  0.2083 -0.4210
 4480SOL     OW24898   1.418   2.507   2.540  0.3107  0.3679  0.0778
 4480SOL    HW124899   1.398   2.554   2.620 -0.2608 -0.8147  0.6326
 4480SOL    HW224900   1.386   2.418   2.558  2.6094 -0.8260 -1.6177
 4481SOL     OW24901   3.238   3.565   8.062 -0.0823 -0.0782 -0.1977
 4481SOL    HW124902   3.209   3.476   8.043  0.7138 -0.6172  1.1053
 4481SOL    HW224903   3.267   3.554   8.153 -2.4741  0.7717  0.6594
 4482SOL     OW24904   1.118   3.526  15.906  0.3637  0.2319  0.0219
 4482SOL    HW124905   1.144   3.447  15.858  1.4436  0.4902  0.1881
 4482SOL    HW224906   1.152   3.502  15.992 -1.7914 -0.2735  0.7177
 4483SOL     OW24907   1.362   1.206   7.987 -0.4200 -0.2137 -0.1444
 4483SOL    HW124908   1.370   1.300   7.970  1.1911 -0.1925  0.7242
 4483SOL    HW224909   1.393   1.166   7.906  1.7005 -2.6993  1.8722
 4484SOL     OW24910   3.731   0.641   1.152 -0.0006  0.5721  0.3513
 4484SOL    HW124911   3.673   0.654   1.227 -0.0274  0.7002  0.3088
 4484SOL    HW224912   3.729   0.545   1.149 -1.8065  0.5622  1.7222
 4485SOL     OW24913   0.842   1.819   2.181 -0.0294  0.3003 -0.6350
 4485SOL    HW124914   0.864   1.732   2.149  0.0276 -0.8441  2.4356
 4485SOL    HW224915   0.923   1.859   2.150  0.4130 -0.0302  0.0673
 4486SOL     OW24916   1.584   0.043   7.094 -0.0998 -0.5804  0.4320
 4486SOL    HW124917   1.650   0.030   7.027 -0.9392 -1.3486 -0.2522
 4486SOL    HW224918   1.596   0.136   7.110 -1.2698 -0.7255  2.2889
 4487SOL     OW24919   0.683   0.159   5.373  0.1161 -0.2614  0.2036
 4487SOL    HW124920   0.629   0.137   5.298 -0.1027  0.9471  0.0102
 4487SOL    HW224921   0.663   0.077   5.418 -0.2398 -0.4556 -0.3212
 4488SOL     OW24922   2.019   0.803  10.262 -0.0506  0.1352 -0.1947
 4488SOL    HW124923   2.058   0.890  10.254  0.4278 -0.1903 -1.4342
 4488SOL    HW224924   2.058   0.771  10.180 -0.4842 -2.7121  0.7020
 4489SOL     OW24925   0.944   0.467  13.020 -0.0862  0.2551  0.0924
 4489SOL    HW124926   0.930   0.404  12.949  0.3962  1.6879 -1.2709
 4489SOL    HW224927   0.905   0.429  13.099 -2.5574  4.8250  1.0486
 4490SOL     OW24928   2.754   1.961   7.336 -1.1092 -0.7934  0.1223
 4490SOL    HW124929   2.723   1.944   7.247  1.8754 -0.6229 -0.9334
 4490SOL    HW224930   2.750   2.056   7.345 -0.4788 -1.0496  3.1033
 4491SOL     OW24931   0.184   4.353   5.164  0.6842  0.1541 -0.2536
 4491SOL    HW124932   0.204   4.342   5.257 -0.2097  1.1040  0.0576
 4491SOL    HW224933   0.090   4.373   5.173  0.6713 -0.1137  0.2318
 4492SOL     OW24934   4.560   1.554   3.938  0.1266 -0.0593 -0.3885
 4492SOL    HW124935   4.557   1.647   3.918 -1.0454  0.2319  1.1675
 4492SOL    HW224936   4.642   1.533   3.893 -1.1627 -3.2950 -1.2734
 4493SOL     OW24937   2.031   2.471   4.746 -0.2420 -0.3768 -0.2203
 4493SOL    HW124938   1.995   2.411   4.680  0.1628 -2.2361  1.2363
 4493SOL    HW224939   2.094   2.524   4.697 -0.9298  1.5057  0.9529
 4494SOL     OW24940   2.851   2.749   6.732  0.0275 -0.0073  0.3164
 4494SOL    HW124941   2.889   2.764   6.645 -3.6011  2.9908 -0.7545
 4494SOL    HW224942   2.759   2.757   6.706 -0.0170 -0.8905  0.2108
 4495SOL     OW24943   2.784   2.736  11.789  0.4579 -0.2863  0.1184
 4495SOL    HW124944   2.805   2.828  11.804 -1.2993 -0.3787  3.0103
 4495SOL    HW224945   2.846   2.695  11.849  1.4925  2.4864  0.9352
 4496SOL     OW24946   2.767   0.671   4.463 -0.3288  0.0459 -0.1609
 4496SOL    HW124947   2.788   0.628   4.380  0.8157  2.5785 -1.1760
 4496SOL    HW224948   2.825   0.746   4.448 -0.7701  0.5741  0.8107
 4497SOL     OW24949   1.578   1.575   3.862 -0.3987  0.2197 -0.1692
 4497SOL    HW124950   1.510   1.633   3.827 -0.6974 -1.3259 -2.1522
 4497SOL    HW224951   1.583   1.506   3.796  1.6085 -0.5184  0.7531
 4498SOL     OW24952   0.188   2.993  16.671 -0.1175  0.8067  0.2049
 4498SOL    HW124953   0.144   2.944  16.741  0.9419  0.2097  0.4486
 4498SOL    HW224954   0.120   3.052  16.639 -1.8893 -1.0467  0.5064
 4499SOL     OW24955   0.925   1.413  15.621  1.0664 -0.4012 -0.3965
 4499SOL    HW124956   0.954   1.322  15.613 -1.8718 -1.3488 -0.3076
 4499SOL    HW224957   1.006   1.455  15.593  0.1726  1.9799  0.6211
 4500SOL     OW24958   1.726   0.061  11.986 -0.0836 -0.1553 -0.0363
 4500SOL    HW124959   1.636   0.076  12.011 -0.6142  0.5427 -2.3183
 4500SOL    HW224960   1.778   0.093  12.060 -1.0431 -1.1197  1.0350
 4501SOL     OW24961   0.572   4.453   4.155  0.2707 -0.1385 -0.1753
 4501SOL    HW124962   0.491   4.434   4.203  0.4211 -2.3000 -0.7680
 4501SOL    HW224963   0.635   4.385   4.181  0.1250 -0.9789 -2.0485
 4502SOL     OW24964   1.177   1.982   8.428  0.4413 -0.1364  0.0585
 4502SOL    HW124965   1.177   1.901   8.377  0.2387  0.2876 -0.6179
 4502SOL    HW224966   1.087   1.980   8.459  0.2811 -1.5292 -0.5025
 4503SOL     OW24967   1.698   1.020   4.044 -0.1721  0.2610  0.4889
 4503SOL    HW124968   1.663   1.102   4.080 -0.2744  0.2333  0.4549
 4503SOL    HW224969   1.629   0.956   4.062  2.1562 -2.1388  0.9253
 4504SOL     OW24970   1.095   4.572   2.702 -0.2181 -0.2773 -0.4359
 4504SOL    HW124971   1.137   4.656   2.684  2.3860 -1.6831 -0.8631
 4504SOL    HW224972   1.127   4.555   2.790 -0.7980  0.3174 -0.1090
 4505SOL     OW24973   4.520   0.608   7.131  0.2602 -0.2381 -0.0214
 4505SOL    HW124974   4.573   0.687   7.116  1.2813 -0.8284  0.4708
 4505SOL    HW224975   4.587   0.541   7.143 -0.2934 -0.8799 -0.5425
 4506SOL     OW24976   3.557   0.506   6.920 -0.1111 -0.0039  0.1338
 4506SOL    HW124977   3.610   0.427   6.913  1.0656  0.7219  0.8772
 4506SOL    HW224978   3.488   0.489   6.856 -1.6829 -2.2961  2.4573
 4507SOL     OW24979   4.266   2.307   3.891  0.1142  0.1727 -0.4834
 4507SOL    HW124980   4.336   2.344   3.836 -0.3275  1.6547 -0.0360
 4507SOL    HW224981   4.302   2.303   3.979 -1.2186 -0.5035  0.0216
 4508SOL     OW24982   4.074   2.509   0.433 -0.5012 -0.1535  0.0647
 4508SOL    HW124983   4.069   2.480   0.342  0.8670  0.8412 -0.3290
 4508SOL    HW224984   4.089   2.601   0.411 -0.3591 -0.2769 -0.3582
 4509SOL     OW24985   4.622   1.256  11.216 -0.3076 -0.3082  0.1169
 4509SOL    HW124986   4.555   1.252  11.148  0.7005 -0.4759 -0.8484
 4509SOL    HW224987   4.668   1.175  11.196 -0.4452 -0.3293 -0.1069
 4510SOL     OW24988   4.631   3.718   7.318  0.8619 -0.1910  0.0077
 4510SOL    HW124989   4.670   3.804   7.302  1.0026  0.0354  1.4946
 4510SOL    HW224990   4.704   3.658   7.305  1.1766 -0.2236  1.9229
 4511SOL     OW24991   0.664   1.027   9.428 -0.4757  0.2553 -0.2315
 4511SOL    HW124992   0.602   1.042   9.500 -1.5780  0.9958 -1.3438
 4511SOL    HW224993   0.626   0.954   9.379  0.7225 -0.3676 -0.2361
 4512SOL     OW24994   2.125   4.693   4.249 -0.7674 -0.4635 -0.0254
 4512SOL    HW124995   2.076   0.005   4.175  0.4251 -0.1489 -0.6811
 4512SOL    HW224996   2.077   4.718   4.328  1.9304 -2.1413  2.1938
 4513SOL     OW24997   0.424   1.732   0.644 -0.3618 -0.2015 -0.4778
 4513SOL    HW124998   0.482   1.807   0.657  0.4969 -1.4737  3.3004
 4513SOL    HW224999   0.437   1.716   0.551 -0.3683 -1.0900 -0.3278
 4514SOL     OW25000   3.578   1.087   4.363  0.6600 -0.0341 -0.2668
 4514SOL    HW125001   3.537   1.018   4.310 -0.4081  1.5232 -1.4722
 4514SOL    HW225002   3.667   1.062   4.337  1.5102  0.1930  2.4636
 4515SOL     OW25003   1.457   3.722   3.554  0.3645 -0.2166  0.1362
 4515SOL    HW125004   1.506   3.801   3.578  2.6405 -1.3669 -0.7829
 4515SOL    HW225005   1.438   3.722   3.461 -0.4154  4.6978  0.2772
 4516SOL     OW25006   4.334   1.923   2.705  0.4428  0.2423  0.3017
 4516SOL    HW125007   4.396   1.897   2.636 -1.6266  1.1658 -1.9082
 4516SOL    HW225008   4.283   1.992   2.662 -0.3688 -0.4931  0.0956
 4517SOL     OW25009   0.920   0.985   3.414 -0.7995  0.4835 -0.1643
 4517SOL    HW125010   0.990   0.935   3.371 -0.0087 -0.1581  1.9060
 4517SOL    HW225011   0.890   1.024   3.332 -2.7217  0.5669  0.5690
 4518SOL     OW25012   3.482   4.697   1.709  0.5093  0.4114 -0.2642
 4518SOL    HW125013   3.513   4.607   1.700 -0.6209 -0.1501  1.3704
 4518SOL    HW225014   3.488   0.016   1.622  0.2257 -1.9085 -1.3750
 4519SOL     OW25015   3.737   2.317  10.639 -0.1571 -0.2195  0.3418
 4519SOL    HW125016   3.670   2.250  10.654 -0.9455  0.0415 -1.9526
 4519SOL    HW225017   3.805   2.260  10.603 -0.4502  1.1646 -2.4356
 4520SOL     OW25018   3.191   0.388   8.629 -0.1903  0.4128 -0.0383
 4520SOL    HW125019   3.159   0.363   8.542  1.3190 -2.0681  0.1095
 4520SOL    HW225020   3.230   0.305   8.656 -1.2039  0.4746  1.5600
 4521SOL     OW25021   4.139   0.416   3.667 -0.3656  0.0620  0.3902
 4521SOL    HW125022   4.215   0.462   3.633 -0.3224 -0.4639 -0.2238
 4521SOL    HW225023   4.186   0.343   3.709 -0.1666  0.4044  0.7570
 4522SOL     OW25024   3.511   0.736   3.169 -0.0601  0.5503  0.7675
 4522SOL    HW125025   3.515   0.832   3.176 -1.5507  0.5648  1.4471
 4522SOL    HW225026   3.517   0.704   3.259 -0.1747 -1.5461  0.0145
 4523SOL     OW25027   0.889   2.978  14.564  0.6655 -0.2821  0.6775
 4523SOL    HW125028   0.882   3.048  14.499  1.6172 -1.8798 -1.1542
 4523SOL    HW225029   0.798   2.948  14.565 -0.0470  1.9033 -3.0575
 4524SOL     OW25030   4.031   1.446   6.735 -0.2631  0.0052  0.0270
 4524SOL    HW125031   4.088   1.488   6.800 -0.4589  1.0535 -0.4855
 4524SOL    HW225032   4.081   1.365   6.724  0.1607  0.2582  0.0971
 4525SOL     OW25033   2.260   3.415   4.386 -0.3552  0.3285  0.3030
 4525SOL    HW125034   2.219   3.500   4.368 -0.4267  0.7257  2.2696
 4525SOL    HW225035   2.265   3.380   4.298  1.6269  2.9070 -0.5963
 4526SOL     OW25036   3.079   2.465   7.069 -0.0293 -0.0965  0.5069
 4526SOL    HW125037   3.058   2.490   6.979  1.4347 -2.5275 -0.5235
 4526SOL    HW225038   3.046   2.535   7.125 -0.1714  0.0276  0.2670
 4527SOL     OW25039   4.521   0.476   9.439 -0.0331 -0.5867 -0.6848
 4527SOL    HW125040   4.437   0.477   9.393  0.0421  2.0375 -0.7395
 4527SOL    HW225041   4.501   0.543   9.504  1.6887 -1.1180  0.3697
 4528SOL     OW25042   4.257   2.551   3.582  0.3561  0.7598  0.2523
 4528SOL    HW125043   4.320   2.492   3.539  0.0100  0.7669 -0.2559
 4528SOL    HW225044   4.178   2.502   3.603  0.6903  0.0257 -0.1864
 4529SOL     OW25045   2.889   4.015   9.294  0.4914  0.7983 -0.0874
 4529SOL    HW125046   2.975   3.979   9.273 -0.0390 -2.0905  2.5707
 4529SOL    HW225047   2.841   3.932   9.292  0.8864  0.6191 -1.6815
 4530SOL     OW25048   0.672   1.700   3.445 -0.0220 -0.2801 -0.2554
 4530SOL    HW125049   0.597   1.684   3.503  0.3110  1.0564  0.5423
 4530SOL    HW225050   0.733   1.635   3.479  1.0309  0.3456 -0.9613
 4531SOL     OW25051   2.179   0.874   5.575  0.1089 -0.4217  0.1973
 4531SOL    HW125052   2.231   0.954   5.584  0.1382 -0.7433  3.0601
 4531SOL    HW225053   2.195   0.832   5.660  0.5476  1.1632  0.9055
 4532SOL     OW25054   0.661   2.563   5.916  0.1071 -0.3829 -1.0059
 4532SOL    HW125055   0.685   2.633   5.855  0.2979  0.0720 -0.4007
 4532SOL    HW225056   0.670   2.488   5.858  0.6975 -0.1636 -1.1955
 4533SOL     OW25057   1.783   1.620  10.093 -0.1775  0.8412  0.6980
 4533SOL    HW125058   1.769   1.527  10.073 -1.6069  0.8888  1.5011
 4533SOL    HW225059   1.701   1.660  10.065 -1.9499 -1.7103  2.2702
 4534SOL     OW25060   3.632   1.444   7.150 -0.1928  0.4390  0.3073
 4534SOL    HW125061   3.713   1.495   7.160 -0.0439  0.0573  1.0907
 4534SOL    HW225062   3.664   1.412   7.066 -0.0759  2.2858 -0.3474
 4535SOL     OW25063   1.491   0.848   9.965 -0.4239 -0.3731 -0.0380
 4535SOL    HW125064   1.510   0.764   9.924  1.4834 -1.4631  3.0828
 4535SOL    HW225065   1.463   0.897   9.888 -0.6675 -0.6248 -0.1091
 4536SOL     OW25066   1.466   0.142   1.712  0.1769 -0.6976  0.0233
 4536SOL    HW125067   1.509   0.222   1.681 -1.8369  0.6932  0.8098
 4536SOL    HW225068   1.463   0.086   1.634  1.8729  2.6249 -2.4039
 4537SOL     OW25069   1.745   1.185   5.341  0.6042  0.5521  0.4803
 4537SOL    HW125070   1.698   1.104   5.324  0.5690  0.6373  0.1703
 4537SOL    HW225071   1.747   1.179   5.437  1.8116 -0.3719  0.4036
 4538SOL     OW25072   0.420   3.715   0.551 -0.1164  0.6575 -0.3855
 4538SOL    HW125073   0.440   3.771   0.476  1.9732  1.5847  0.8500
 4538SOL    HW225074   0.339   3.760   0.577  0.5810  1.5127  0.3106
 4539SOL     OW25075   1.557   0.689   6.368  0.5311 -0.2040  0.2652
 4539SOL    HW125076   1.595   0.777   6.360  0.3609 -0.3492 -2.0186
 4539SOL    HW225077   1.476   0.689   6.317  2.4798 -0.1727 -2.7813
 4540SOL     OW25078   0.097   1.379   9.145 -0.1814  0.2373  0.4741
 4540SOL    HW125079   0.165   1.313   9.133 -0.1974  0.4325 -0.7335
 4540SOL    HW225080   0.144   1.462   9.149 -0.2947  0.3082  0.3385
 4541SOL     OW25081   2.256   1.331   6.718 -0.2625  0.1284 -0.3628
 4541SOL    HW125082   2.349   1.314   6.732 -0.2705 -1.7900 -2.5694
 4541SOL    HW225083   2.218   1.345   6.804  1.5227  0.4132  0.3739
 4542SOL     OW25084   4.210   1.723   5.085  0.1501  0.2759  0.2734
 4542SOL    HW125085   4.191   1.817   5.085  0.7470  0.3909 -0.9147
 4542SOL    HW225086   4.241   1.712   5.175  4.0045 -0.6527 -1.1707
 4543SOL     OW25087   3.536   4.531   5.609  0.3926  0.2338 -0.8256
 4543SOL    HW125088   3.528   4.606   5.669 -1.1385 -0.1374 -0.5731
 4543SOL    HW225089   3.503   4.462   5.666 -0.8924  0.1198 -1.7138
 4544SOL     OW25090   2.358   2.318   3.248 -0.2498  0.0792  0.1182
 4544SOL    HW125091   2.434   2.363   3.284 -0.6246  2.5442 -2.2373
 4544SOL    HW225092   2.295   2.356   3.309  1.6014  2.5293  0.4954
 4545SOL     OW25093   1.995   2.174  13.376 -0.3060  0.3711 -0.3883
 4545SOL    HW125094   1.931   2.246  13.374 -2.1099 -1.2175  0.0904
 4545SOL    HW225095   2.063   2.217  13.323  0.1321  0.9279  0.6322
 4546SOL     OW25096   4.616   3.488   3.391  0.2366 -0.1080 -0.4410
 4546SOL    HW125097   4.654   3.499   3.304 -0.1734  0.3091 -0.5723
 4546SOL    HW225098   4.523   3.503   3.372 -0.1067 -1.0281  0.4712
 4547SOL     OW25099   0.320   1.316   5.498  0.8431 -0.6926  0.4167
 4547SOL    HW125100   0.374   1.389   5.527  2.4248 -1.6302 -0.1549
 4547SOL    HW225101   0.262   1.360   5.437  2.6381  0.5328 -0.4217
 4548SOL     OW25102   4.269   2.756   0.242  0.5057  0.4302 -0.2727
 4548SOL    HW125103   4.350   2.805   0.237  1.5550 -1.5124 -2.5949
 4548SOL    HW225104   4.308   2.674   0.275  1.1901  1.4239  1.3857
 4549SOL     OW25105   4.050   1.503   8.366  0.7986  0.0964 -0.0705
 4549SOL    HW125106   4.004   1.581   8.335  1.4146  0.8264  0.8435
 4549SOL    HW225107   3.975   1.454   8.401  0.6200  0.0174 -0.5559
 4550SOL     OW25108   1.908   2.305   0.098 -0.4679  0.5596  0.2001
 4550SOL    HW125109   1.963   2.356   0.157  0.3061  0.2718 -0.2549
 4550SOL    HW225110   1.944   2.217   0.107  0.5672  1.0821  1.0890
 4551SOL     OW25111   1.309   3.274  16.147  0.1030  0.1874  0.8061
 4551SOL    HW125112   1.270   3.360  16.163 -1.4046 -0.2109 -0.7271
 4551SOL    HW225113   1.234   3.217  16.163  0.2601 -0.5172 -0.8974
 4552SOL     OW25114   3.017   4.368  11.865  0.2461 -0.3002 -0.0124
 4552SOL    HW125115   2.947   4.318  11.908  0.7807  0.1168  1.3348
 4552SOL    HW225116   2.983   4.381  11.776  0.0507  0.6750  0.2095
 4553SOL     OW25117   4.520   2.641   6.496 -0.0384  0.1774 -0.2150
 4553SOL    HW125118   4.590   2.579   6.519  1.3143  1.3044 -1.3206
 4553SOL    HW225119   4.458   2.635   6.569  0.9534 -2.1114  0.4797
 4554SOL     OW25120   1.424   0.486   7.843  0.1057  0.3954  0.2333
 4554SOL    HW125121   1.470   0.544   7.904 -1.4507  1.3708  0.4727
 4554SOL    HW225122   1.399   0.551   7.777 -1.9817 -1.8009 -1.1462
 4555SOL     OW25123   4.388   3.589   8.060  0.1572 -0.1088 -0.1991
 4555SOL    HW125124   4.321   3.582   8.128  0.2959 -0.6108 -0.1088
 4555SOL    HW225125   4.435   3.670   8.078 -0.4003  0.1725 -0.0201
 4556SOL     OW25126   3.422   2.250  15.804  0.7101  0.1998 -0.7617
 4556SOL    HW125127   3.516   2.251  15.820  0.4322  0.5677  0.9141
 4556SOL    HW225128   3.432   2.287  15.717 -0.9589  0.5272 -0.8231
 4557SOL     OW25129   2.740   2.425   6.373 -0.2018 -0.7019  0.3896
 4557SOL    HW125130   2.797   2.442   6.448 -0.3755 -2.8931  1.0290
 4557SOL    HW225131   2.683   2.502   6.381  0.1098 -0.2328 -1.8179
 4558SOL     OW25132   3.367   1.294   8.215 -0.0618  0.1638 -0.7146
 4558SOL    HW125133   3.291   1.318   8.162 -0.2273  0.2188 -0.4491
 4558SOL    HW225134   3.322   1.249   8.286  1.0272 -1.2030 -0.8823
 4559SOL     OW25135   2.805   2.666   5.450 -0.1932 -0.8823  0.5052
 4559SOL    HW125136   2.831   2.671   5.358 -1.2561  1.7734  0.3440
 4559SOL    HW225137   2.784   2.757   5.469  0.3677 -0.6330 -0.0714
 4560SOL     OW25138   3.229   2.323   5.012  0.0769  0.1772  0.2271
 4560SOL    HW125139   3.144   2.360   4.986 -0.5007 -0.5223  1.1325
 4560SOL    HW225140   3.254   2.291   4.925  0.3187 -0.5824  0.5802
 4561SOL     OW25141   3.125   3.713   7.395  0.1727 -0.5459 -0.4309
 4561SOL    HW125142   3.167   3.629   7.417  0.4989 -0.0116  0.9631
 4561SOL    HW225143   3.041   3.703   7.440  2.0531 -0.0419  3.2002
 4562SOL     OW25144   0.017   1.460  14.393 -0.1099 -0.8677 -0.0839
 4562SOL    HW125145   0.052   1.527  14.334 -0.3519 -1.7053 -1.1737
 4562SOL    HW225146   0.062   1.384  14.356 -0.9217 -1.5667  0.3910
 4563SOL     OW25147   3.140   2.061  15.233 -0.0147  0.3096 -0.4660
 4563SOL    HW125148   3.140   2.116  15.312 -0.0822  0.1203 -0.3360
 4563SOL    HW225149   3.047   2.045  15.222 -0.3372  0.2105  2.4095
 4564SOL     OW25150   4.602   4.180   3.736  0.7230  0.3594  0.0271
 4564SOL    HW125151   4.540   4.223   3.677 -0.2665 -0.1232  0.7129
 4564SOL    HW225152   4.579   4.087   3.733  0.3285  0.4513  0.2329
 4565SOL     OW25153   3.952   3.516   7.138 -0.1277  0.3611  0.0028
 4565SOL    HW125154   3.918   3.472   7.216 -2.1577  1.5844 -0.1896
 4565SOL    HW225155   3.891   3.590   7.135 -1.7060 -0.8575  1.7898
 4566SOL     OW25156   1.403   0.311   3.617 -0.1391 -0.1990  0.6843
 4566SOL    HW125157   1.452   0.243   3.663  0.2791  1.0592  2.0658
 4566SOL    HW225158   1.365   0.263   3.543 -0.2063 -0.4041  0.8513
 4567SOL     OW25159   2.094   1.654   5.554  0.1081  0.6015 -0.2101
 4567SOL    HW125160   2.099   1.627   5.646 -1.9264 -0.4745 -0.4259
 4567SOL    HW225161   2.071   1.576   5.504 -1.7666  0.5880  0.6817
 4568SOL     OW25162   0.692   2.054   1.366  0.2107 -0.6914 -0.0125
 4568SOL    HW125163   0.615   1.996   1.363  1.1387 -1.7845 -2.6101
 4568SOL    HW225164   0.737   2.047   1.282  1.0994 -1.0102  0.4885
 4569SOL     OW25165   1.896   1.111   9.862  0.2797  0.5683 -0.2614
 4569SOL    HW125166   1.911   1.187   9.806 -0.5823  0.0120 -1.2322
 4569SOL    HW225167   1.812   1.079   9.830 -0.8668  1.9101  1.3723
 4570SOL     OW25168   2.807   3.179   5.328  0.4998 -0.3216 -0.3889
 4570SOL    HW125169   2.883   3.221   5.287  1.5367 -0.9476  0.8824
 4570SOL    HW225170   2.734   3.240   5.331 -0.8808 -2.0622  1.1975
 4571SOL     OW25171   3.947   2.862   6.170 -0.3162  0.0034 -0.3663
 4571SOL    HW125172   3.859   2.888   6.145 -1.3203  0.3435  3.5911
 4571SOL    HW225173   3.958   2.908   6.253  0.8816 -0.0436 -0.4868
 4572SOL     OW25174   3.799   2.693   8.462 -0.1612 -0.0005 -0.3943
 4572SOL    HW125175   3.884   2.659   8.434 -0.9113 -0.3013 -2.3764
 4572SOL    HW225176   3.787   2.767   8.403 -0.3977 -1.0394 -1.6636
 4573SOL     OW25177   0.047   2.789   7.629 -0.2178  0.1316 -0.3665
 4573SOL    HW125178   0.073   2.704   7.596  4.6941  1.4726  0.1013
 4573SOL    HW225179   0.003   2.763   7.710 -1.4382 -3.0713 -2.0969
 4574SOL     OW25180   1.516   2.929   9.176  0.0025  0.2188  0.1057
 4574SOL    HW125181   1.460   2.939   9.252 -0.1749 -1.5903  0.2238
 4574SOL    HW225182   1.584   2.868   9.205  0.0065 -0.3094 -1.0025
 4575SOL     OW25183   0.427   2.796   7.150  0.0463  0.6202  0.1215
 4575SOL    HW125184   0.460   2.833   7.068 -0.9946 -0.7923 -0.9411
 4575SOL    HW225185   0.494   2.822   7.213  0.4748  0.3059 -0.2054
 4576SOL     OW25186   2.552   2.978   2.981  0.3810  1.0423 -0.0818
 4576SOL    HW125187   2.512   3.061   3.005 -1.2138  0.7129 -1.5554
 4576SOL    HW225188   2.526   2.981   2.889 -0.5783 -0.5230  0.1381
 4577SOL     OW25189   3.930   2.521   5.562 -0.0475 -0.4374 -0.0360
 4577SOL    HW125190   3.948   2.453   5.497  0.3208 -1.4387  1.1104
 4577SOL    HW225191   3.903   2.591   5.503  0.2399  0.3563  0.7690
 4578SOL     OW25192   0.749   1.552   9.517 -0.6011  1.0797  0.3829
 4578SOL    HW125193   0.733   1.488   9.448 -0.8277 -1.8544  3.1197
 4578SOL    HW225194   0.741   1.633   9.467  1.6706  0.6821 -0.6342
 4579SOL     OW25195   2.671   3.812  12.647 -0.2686  0.2110 -0.3107
 4579SOL    HW125196   2.621   3.741  12.688 -0.7288 -0.4541 -2.0346
 4579SOL    HW225197   2.630   3.806  12.561 -0.1877  0.1881 -0.3471
 4580SOL     OW25198   2.691   3.192  10.273  0.1290  0.4049  0.1212
 4580SOL    HW125199   2.608   3.160  10.237  0.4759 -0.5633  0.1724
 4580SOL    HW225200   2.668   3.276  10.312  0.8679  0.9595 -0.6586
 4581SOL     OW25201   0.193   0.566  13.872 -0.0260 -0.4539  0.0703
 4581SOL    HW125202   0.134   0.591  13.802  0.6996  0.2535 -0.2979
 4581SOL    HW225203   0.280   0.559  13.833 -0.4859 -0.7717 -0.8846
 4582SOL     OW25204   1.331   4.219   5.314  0.0482 -0.6606 -0.2081
 4582SOL    HW125205   1.398   4.154   5.294  0.9318 -0.0086  0.6226
 4582SOL    HW225206   1.254   4.170   5.285  0.3224 -1.0144 -0.3326
 4583SOL     OW25207   2.300   2.996   6.616 -0.6135  0.1998 -0.2410
 4583SOL    HW125208   2.356   3.031   6.685 -2.0099 -2.0855  2.0480
 4583SOL    HW225209   2.227   2.964   6.668  0.4278 -1.8717 -0.0392
 4584SOL     OW25210   3.940   4.593   2.426  0.0381 -0.3636  0.0224
 4584SOL    HW125211   3.955   4.687   2.422  2.5443 -0.7675 -0.0423
 4584SOL    HW225212   4.011   4.557   2.479  1.6082 -0.9533 -2.4934
 4585SOL     OW25213   2.549   1.837   3.468  0.2137 -0.3100 -0.6028
 4585SOL    HW125214   2.579   1.927   3.455 -0.3158 -0.2180 -1.2101
 4585SOL    HW225215   2.459   1.841   3.503  0.5882  1.9582  0.0949
 4586SOL     OW25216   2.052   2.859   1.475 -0.2137 -0.1351 -0.2631
 4586SOL    HW125217   2.087   2.943   1.505 -1.5067  0.1310  0.5303
 4586SOL    HW225218   2.051   2.808   1.556 -0.4217 -1.4373 -1.0841
 4587SOL     OW25219   2.250   0.332   9.576 -0.0071  0.5979  0.7319
 4587SOL    HW125220   2.255   0.427   9.567  1.4225  0.4511 -0.0475
 4587SOL    HW225221   2.188   0.307   9.508 -0.6628  0.1365  1.5073
 4588SOL     OW25222   4.358   0.842  15.940 -0.0260  0.5174 -0.3360
 4588SOL    HW125223   4.380   0.818  16.031 -0.5078 -1.6750 -0.8025
 4588SOL    HW225224   4.405   0.923  15.921  0.9153  0.3323  1.1230
 4589SOL     OW25225   1.769   4.247   4.804  0.3039  0.1800 -0.0968
 4589SOL    HW125226   1.834   4.181   4.780 -0.6423 -1.1752  1.0668
 4589SOL    HW225227   1.751   4.279   4.716 -1.5890  1.5160  0.7668
 4590SOL     OW25228   1.261   2.587   5.196  0.7240 -0.5512  0.0783
 4590SOL    HW125229   1.203   2.636   5.138  1.6927  0.4759 -0.0280
 4590SOL    HW225230   1.286   2.510   5.145  1.5354  1.5081 -2.6172
 4591SOL     OW25231   1.877   4.610   3.007  0.1113  0.6729 -0.2142
 4591SOL    HW125232   1.839   4.605   2.919  1.5514 -0.9116 -0.7489
 4591SOL    HW225233   1.916   4.697   3.006 -1.0204  1.1797 -1.1245
 4592SOL     OW25234   4.316   1.761   4.352  0.3233 -0.5552 -0.5204
 4592SOL    HW125235   4.408   1.749   4.328  0.5272  3.3250 -1.5923
 4592SOL    HW225236   4.276   1.727   4.272 -0.7583  2.9494 -1.4811
 4593SOL     OW25237   4.446   2.900   5.047  0.2052  0.9243 -0.2290
 4593SOL    HW125238   4.412   2.956   5.117 -0.3060  3.9263 -2.8973
 4593SOL    HW225239   4.420   2.813   5.078 -0.3479  1.3847  0.5742
 4594SOL     OW25240   2.301   2.629   6.088 -0.6307 -0.3972  0.9327
 4594SOL    HW125241   2.273   2.706   6.040  2.1442 -0.8067 -1.3542
 4594SOL    HW225242   2.219   2.601   6.129 -1.2205 -0.7743 -0.4812
 4595SOL     OW25243   3.142   4.307   2.276  0.3955  0.3358  0.5139
 4595SOL    HW125244   3.225   4.345   2.245  0.2152 -2.1795 -2.9836
 4595SOL    HW225245   3.092   4.385   2.251 -1.2834 -0.0232  2.7858
 4596SOL     OW25246   0.636   3.656   0.725  0.2600  1.3014 -0.1771
 4596SOL    HW125247   0.679   3.587   0.674 -0.2525  0.1063  1.0273
 4596SOL    HW225248   0.556   3.674   0.676 -0.0411 -1.3561 -0.6495
 4597SOL     OW25249   4.144   2.912   8.273 -0.3287 -0.1306  0.6928
 4597SOL    HW125250   4.156   2.982   8.209  2.0806  0.4244  1.7641
 4597SOL    HW225251   4.150   2.832   8.221 -0.2460 -1.7708  3.2158
 4598SOL     OW25252   1.226   2.806   3.864 -0.6271  0.7521 -0.1642
 4598SOL    HW125253   1.307   2.843   3.828  0.5723 -0.3294  1.4286
 4598SOL    HW225254   1.159   2.871   3.842 -1.3448 -0.7043 -2.2615
 4599SOL     OW25255   1.660   1.452   9.727  0.5103 -0.2710 -0.3120
 4599SOL    HW125256   1.753   1.475   9.731  0.6123 -0.3713 -2.0815
 4599SOL    HW225257   1.659   1.401   9.646  0.6774  2.0891 -1.7995
 4600SOL     OW25258   3.844   3.349   8.338  0.4855  0.5165  0.0728
 4600SOL    HW125259   3.921   3.306   8.375 -0.1054 -1.0784 -0.5384
 4600SOL    HW225260   3.889   3.429   8.311  2.4769 -0.8957 -0.7190
 4601SOL     OW25261   4.041   4.539   7.226 -0.3447  0.3126  0.2494
 4601SOL    HW125262   4.102   4.607   7.257 -1.8601  1.4220  0.7755
 4601SOL    HW225263   3.985   4.529   7.302  1.9197  0.6183  1.9703
 4602SOL     OW25264   2.794   1.432   5.919 -0.1780 -0.8578 -0.1478
 4602SOL    HW125265   2.816   1.367   5.852  0.6570 -0.5808 -0.1487
 4602SOL    HW225266   2.703   1.460   5.910 -0.0878 -0.3973  0.3474
 4603SOL     OW25267   0.286   3.526   1.212 -0.3381 -0.3750 -0.0781
 4603SOL    HW125268   0.279   3.497   1.121 -1.4061 -1.5738  0.3844
 4603SOL    HW225269   0.196   3.537   1.243 -0.1873 -0.5672  0.4443
 4604SOL     OW25270   1.383   0.337  11.856 -0.1762  0.5416  0.5271
 4604SOL    HW125271   1.402   0.414  11.910 -0.1328  1.4237 -0.7554
 4604SOL    HW225272   1.444   0.359  11.786 -0.6525  0.5262  0.1090
 4605SOL     OW25273   3.803   3.229   0.114  0.5285  0.5910  0.1783
 4605SOL    HW125274   3.805   3.140   0.078  0.7912 -0.6208  3.2216
 4605SOL    HW225275   3.799   3.209   0.207  0.1818  2.7794  0.6298
 4606SOL     OW25276   1.893   0.318   2.024  0.1642 -0.2013 -0.3800
 4606SOL    HW125277   1.904   0.305   1.930 -0.3968 -1.5934 -0.2637
 4606SOL    HW225278   1.831   0.390   2.033  0.1625 -0.4429  1.5564
 4607SOL     OW25279   3.845   0.393   9.089  0.5648  0.1276  0.3483
 4607SOL    HW125280   3.882   0.348   9.165  0.8697 -0.4149 -0.1204
 4607SOL    HW225281   3.877   0.482   9.105 -1.2290  0.7390  0.6142
 4608SOL     OW25282   0.370   4.325   5.988  0.8197  0.3369 -0.0349
 4608SOL    HW125283   0.287   4.336   6.035 -0.4448 -1.8247 -1.7325
 4608SOL    HW225284   0.421   4.303   6.066  2.9231 -2.0975 -2.1100
 4609SOL     OW25285   4.054   4.677   7.830 -0.0554  0.2710  0.4712
 4609SOL    HW125286   4.051   0.015   7.755 -2.4935 -2.1385 -1.3513
 4609SOL    HW225287   4.122   4.615   7.803 -1.8346 -1.5053  0.0163
 4610SOL     OW25288   3.970   0.173   8.851 -0.2448 -0.0796 -0.9291
 4610SOL    HW125289   3.951   0.267   8.855  1.4549  0.2860 -1.4003
 4610SOL    HW225290   3.945   0.140   8.937 -0.4286 -0.1536 -1.0106
 4611SOL     OW25291   1.433   4.408   7.704 -0.2804  0.9323  0.1115
 4611SOL    HW125292   1.483   4.395   7.624 -0.5980 -0.0071  0.0742
 4611SOL    HW225293   1.371   4.336   7.698  0.2271  0.6328 -1.6241
 4612SOL     OW25294   2.664   0.788   1.952 -0.4822  0.6055  0.2925
 4612SOL    HW125295   2.636   0.699   1.971  3.6462 -0.7775 -0.0770
 4612SOL    HW225296   2.738   0.785   2.012  0.7879 -2.2512 -1.4100
 4613SOL     OW25297   0.038   4.329   4.872 -0.1889  0.2881 -0.0847
 4613SOL    HW125298   4.681   4.338   4.819  0.2356  0.0332 -0.7618
 4613SOL    HW225299   0.048   4.234   4.883 -1.0870  0.2553  0.4483
 4614SOL     OW25300   3.952   0.196  16.738 -0.4917  0.5287 -0.2332
 4614SOL    HW125301   3.863   0.205  16.773  0.2637  1.4417  1.4671
 4614SOL    HW225302   3.963   0.103  16.721 -1.0478  0.2447  1.0320
 4615SOL     OW25303   3.815   2.546   9.002 -0.3607  0.4536  0.1186
 4615SOL    HW125304   3.858   2.479   8.950 -0.4339  0.5675 -0.0868
 4615SOL    HW225305   3.887   2.608   9.010  0.7837 -0.6297 -2.1594
 4616SOL     OW25306   1.033   3.510   2.967  0.0597 -0.0027 -0.0762
 4616SOL    HW125307   1.036   3.569   2.892  0.3670  0.8682  0.6191
 4616SOL    HW225308   0.945   3.534   2.994  0.1488 -0.2164  0.4038
 4617SOL     OW25309   2.773   3.700   2.730 -0.5048 -0.2494 -0.4297
 4617SOL    HW125310   2.775   3.604   2.732  0.7209 -0.1799  1.7448
 4617SOL    HW225311   2.701   3.716   2.669 -1.5789 -2.2192  0.3080
 4618SOL     OW25312   0.244   0.055   9.435  0.1158 -0.5890 -0.2474
 4618SOL    HW125313   0.339   0.060   9.428  0.1298  2.1177  1.9529
 4618SOL    HW225314   0.230   4.696   9.385  0.4289 -0.3286 -0.7549
 4619SOL     OW25315   0.329   3.970   6.142  0.8756 -0.0300 -0.4957
 4619SOL    HW125316   0.268   3.937   6.076  1.6806 -0.3838 -1.0624
 4619SOL    HW225317   0.410   3.950   6.094 -1.2352 -4.0661 -2.3257
 4620SOL     OW25318   4.283   4.393   4.627  0.4579  0.0675  0.4802
 4620SOL    HW125319   4.254   4.459   4.563 -0.6188  0.7370  1.6762
 4620SOL    HW225320   4.216   4.407   4.693  0.2765 -0.4723  0.4074
 4621SOL     OW25321   2.958   0.956   3.781 -0.2515 -0.6355  0.7039
 4621SOL    HW125322   3.011   0.932   3.857 -2.0257  1.3335  2.5729
 4621SOL    HW225323   3.014   1.027   3.749 -1.8284  1.0399  1.6195
 4622SOL     OW25324   0.405   4.430   4.638 -0.3983  0.0445 -0.5198
 4622SOL    HW125325   0.314   4.456   4.621  0.3542  1.5749 -2.1443
 4622SOL    HW225326   0.440   4.517   4.620 -0.6325  0.6019  1.6526
 4623SOL     OW25327   2.467   4.492  13.438 -0.0788  0.3396  0.3348
 4623SOL    HW125328   2.540   4.434  13.462  1.0040  1.0368 -1.2918
 4623SOL    HW225329   2.495   4.583  13.449  0.9539  0.0046  0.4803
 4624SOL     OW25330   1.353   2.257   8.832 -0.7958 -0.0568  0.4155
 4624SOL    HW125331   1.377   2.345   8.805 -0.1539 -0.6920 -1.0739
 4624SOL    HW225332   1.382   2.211   8.754 -0.1677 -1.0730  1.2497
 4625SOL     OW25333   3.806   4.152   3.667  0.1465  0.1776 -0.7827
 4625SOL    HW125334   3.755   4.131   3.588  1.6510  0.3328 -1.7881
 4625SOL    HW225335   3.876   4.207   3.633 -1.4022  1.6558 -1.5973
 4626SOL     OW25336   4.123   0.127   1.118  0.0578  0.2593 -0.4132
 4626SOL    HW125337   4.135   0.204   1.174  1.2683 -0.0329 -0.2796
 4626SOL    HW225338   4.217   0.115   1.105 -0.2413  0.8743 -3.2375
 4627SOL     OW25339   2.348   2.599   5.712  0.3485 -0.5798 -0.3622
 4627SOL    HW125340   2.377   2.674   5.660  0.5788 -0.1803  0.3606
 4627SOL    HW225341   2.436   2.572   5.739 -1.3942 -0.1056  5.6896
 4628SOL     OW25342   3.856   0.590   3.322  0.1161  0.4862 -0.1219
 4628SOL    HW125343   3.850   0.576   3.227 -0.0678  0.6954 -0.1426
 4628SOL    HW225344   3.867   0.500   3.352 -1.4726  0.3098 -0.0663
 4629SOL     OW25345   3.959   2.704   7.779 -0.4276 -0.7687 -0.0617
 4629SOL    HW125346   4.034   2.661   7.739 -1.9563  0.0788 -3.7854
 4629SOL    HW225347   4.001   2.751   7.851 -0.4202 -0.6303 -0.1556
 4630SOL     OW25348   0.350   2.845   8.387 -0.2434  0.2770 -0.3120
 4630SOL    HW125349   0.350   2.881   8.298 -1.5110  0.0111 -0.4115
 4630SOL    HW225350   0.436   2.803   8.392  0.9105  2.6225 -0.1286
 4631SOL     OW25351   2.491   4.578  16.526 -0.4242 -0.2050 -0.3750
 4631SOL    HW125352   2.560   4.592  16.461 -0.4391 -1.9010 -0.7582
 4631SOL    HW225353   2.409   4.555  16.482 -0.6968 -1.5313  0.8116
 4632SOL     OW25354   2.883   2.457  16.511 -0.3330 -0.2973 -0.2722
 4632SOL    HW125355   2.890   2.398  16.586  0.1873  1.9499  1.4750
 4632SOL    HW225356   2.934   2.535  16.535  1.2844 -1.6185  0.5679
 4633SOL     OW25357   1.138   1.820   2.324  0.2340 -0.4038 -0.0924
 4633SOL    HW125358   1.098   1.743   2.285  1.6333 -0.8161 -0.7114
 4633SOL    HW225359   1.123   1.806   2.418 -0.7938  0.2320 -0.1620
 4634SOL     OW25360   2.792   4.505  11.419 -0.6727 -0.0285  0.3512
 4634SOL    HW125361   2.751   4.589  11.441 -2.9817 -1.9263  3.1699
 4634SOL    HW225362   2.716   4.453  11.394 -2.5577  2.2840  1.2073
 4635SOL     OW25363   2.783   3.740   6.983 -0.1884 -0.5139  0.1136
 4635SOL    HW125364   2.749   3.768   6.897 -1.3235 -1.6693  0.1838
 4635SOL    HW225365   2.869   3.713   6.950 -0.5944 -0.8913 -0.6430
 4636SOL     OW25366   1.629   2.350   7.003  0.6043  0.1897  0.5036
 4636SOL    HW125367   1.619   2.280   6.938 -1.5634  0.7457  0.2729
 4636SOL    HW225368   1.578   2.419   6.962  0.5726  1.4878  2.7108
 4637SOL     OW25369   2.858   0.134   8.880  0.5932  0.1928  0.7853
 4637SOL    HW125370   2.840   0.159   8.971 -1.4842 -0.3713  0.5190
 4637SOL    HW225371   2.781   0.164   8.831  0.4447 -0.7578  0.4471
 4638SOL     OW25372   2.283   0.271  16.757  0.8833 -0.1217  0.4276
 4638SOL    HW125373   2.222   0.303  16.824 -0.1120 -0.2043 -0.4493
 4638SOL    HW225374   2.248   0.186  16.729 -0.7666  0.7136 -0.0029
 4639SOL     OW25375   3.218   2.900   1.778 -0.0155  0.0690  0.0022
 4639SOL    HW125376   3.236   2.935   1.691 -2.8935  1.0813 -0.1890
 4639SOL    HW225377   3.308   2.908   1.809  0.5225 -1.1391 -1.2510
 4640SOL     OW25378   3.142   2.767   5.515  0.5635 -0.1979 -0.0152
 4640SOL    HW125379   3.173   2.677   5.527  1.0759 -0.2130 -1.4720
 4640SOL    HW225380   3.127   2.768   5.420 -1.7193  0.4385  0.3591
 4641SOL     OW25381   3.941   4.378   7.015  0.2116 -0.5613 -0.2167
 4641SOL    HW125382   3.990   4.408   7.091 -1.9602  0.3118  0.8410
 4641SOL    HW225383   3.851   4.366   7.046  0.3213  2.2223  1.1625
 4642SOL     OW25384   3.702   0.783  14.609 -0.0847  0.2825 -0.5862
 4642SOL    HW125385   3.771   0.804  14.546  0.8165  0.3198  0.4119
 4642SOL    HW225386   3.729   0.827  14.689  2.3855  0.7566 -1.6776
 4643SOL     OW25387   2.376   0.581   3.434 -0.5276 -0.2224 -0.1493
 4643SOL    HW125388   2.295   0.575   3.484  0.1359  2.8704  1.3455
 4643SOL    HW225389   2.439   0.610   3.500 -2.0675 -0.9607  1.6487
 4644SOL     OW25390   2.298   1.816  14.536  0.6897 -0.0031  0.0770
 4644SOL    HW125391   2.254   1.777  14.460  0.5454  0.3609 -0.0260
 4644SOL    HW225392   2.390   1.818  14.510  0.7462  0.3346  0.3113
 4645SOL     OW25393   0.928   0.793   7.034 -0.7004  0.0706 -0.6273
 4645SOL    HW125394   0.923   0.725   7.101  3.4387 -1.6404 -2.0873
 4645SOL    HW225395   0.835   0.794   7.010 -1.1089 -0.2837  0.9472
 4646SOL     OW25396   0.795   1.779   9.323  0.5301  0.0859 -0.1266
 4646SOL    HW125397   0.806   1.796   9.229 -1.0195  3.5969  0.3120
 4646SOL    HW225398   0.873   1.732   9.353  1.2088  1.1339 -0.2316
 4647SOL     OW25399   4.648   4.362   3.940  0.3333 -0.3325 -0.1379
 4647SOL    HW125400   4.634   4.452   3.913 -0.5402 -0.3766  0.1448
 4647SOL    HW225401   4.639   4.317   3.856 -0.1673  0.0267 -0.2736
 4648SOL     OW25402   0.992   0.895   5.965 -0.6870  0.1866  0.0544
 4648SOL    HW125403   0.924   0.827   5.962  1.2276 -1.7694  1.3909
 4648SOL    HW225404   0.975   0.940   5.883 -0.3097  0.4142  0.1029
 4649SOL     OW25405   1.386   4.440   6.426 -0.2139  0.9183  0.0285
 4649SOL    HW125406   1.350   4.442   6.515  3.8914 -0.5484  1.7006
 4649SOL    HW225407   1.480   4.425   6.438 -1.0978 -3.2500  1.6763
 4650SOL     OW25408   2.507   4.511   3.497 -0.3363 -0.1758  0.1569
 4650SOL    HW125409   2.586   4.517   3.550  0.6202  0.8227 -1.3734
 4650SOL    HW225410   2.512   4.590   3.444  1.7131  0.9381  2.0350
 4651SOL     OW25411   2.135   3.056   1.661 -0.1868 -0.1628  0.7707
 4651SOL    HW125412   2.093   3.042   1.746  0.4232 -0.1087  1.0766
 4651SOL    HW225413   2.176   3.140   1.681 -0.7358  0.6194 -1.3570
 4652SOL     OW25414   2.058   0.841   1.636 -0.0131 -0.1472  0.2957
 4652SOL    HW125415   2.142   0.887   1.628 -0.0865  0.1091  0.9772
 4652SOL    HW225416   1.992   0.903   1.605 -0.5330 -0.0592  1.5680
 4653SOL     OW25417   2.110   3.990   1.151  0.0977  0.6159 -0.1595
 4653SOL    HW125418   2.181   3.970   1.212 -1.4988  0.8046  1.7514
 4653SOL    HW225419   2.075   3.901   1.139  1.6453 -0.0838  0.5277
 4654SOL     OW25420   3.029   0.441  12.313 -0.0134  0.0018  0.4186
 4654SOL    HW125421   2.939   0.408  12.317 -0.0774  0.2085  0.6198
 4654SOL    HW225422   3.077   0.362  12.336 -0.5301 -1.3098 -2.9589
 4655SOL     OW25423   2.406   0.854   7.830  0.1263 -0.4767  0.1541
 4655SOL    HW125424   2.420   0.947   7.847 -2.3614 -0.5340  2.4831
 4655SOL    HW225425   2.355   0.831   7.908 -2.6933  2.2118 -0.9144
 4656SOL     OW25426   0.758   4.668   1.979  0.8155 -0.3438  0.0447
 4656SOL    HW125427   0.676   4.668   1.930  1.6724 -1.8930 -1.3921
 4656SOL    HW225428   0.812   0.014   1.936 -0.5081  0.0656 -0.9922
 4657SOL     OW25429   3.511   3.108   0.676  0.0203 -0.4536 -0.2721
 4657SOL    HW125430   3.517   3.013   0.663  1.6659 -0.1529 -1.6206
 4657SOL    HW225431   3.482   3.140   0.591 -2.8382  0.0783  0.8961
 4658SOL     OW25432   1.755   3.151   1.165 -0.4017 -0.2839  0.5223
 4658SOL    HW125433   1.690   3.220   1.159 -1.0228 -0.7100  2.3488
 4658SOL    HW225434   1.713   3.100   1.234  2.0417 -1.3596  1.2263
 4659SOL     OW25435   2.688   4.005   2.344  0.0172  0.1905 -0.8265
 4659SOL    HW125436   2.646   3.938   2.289  0.5232  0.1142 -1.1151
 4659SOL    HW225437   2.768   3.958   2.368  1.2171  1.2530 -2.7501
 4660SOL     OW25438   3.910   1.615   5.473 -0.3541  0.1689  0.3351
 4660SOL    HW125439   3.852   1.639   5.545  0.4791  1.6861  0.4953
 4660SOL    HW225440   3.983   1.675   5.486  0.4964 -1.4444  2.9307
 4661SOL     OW25441   0.349   3.394   2.106 -0.4439 -0.3145  0.5605
 4661SOL    HW125442   0.422   3.383   2.046 -1.3873  1.1643 -0.8621
 4661SOL    HW225443   0.311   3.307   2.115 -0.3913 -0.3326  0.6049
 4662SOL     OW25444   2.152   4.282   1.231 -0.0375 -0.2072 -0.4215
 4662SOL    HW125445   2.171   4.209   1.171  0.7564  0.2668 -0.7499
 4662SOL    HW225446   2.228   4.336   1.213 -0.4672  0.8631  1.0161
 4663SOL     OW25447   3.827   3.655  12.220  0.1807  0.6673 -0.2024
 4663SOL    HW125448   3.785   3.570  12.234 -0.2231  0.6422 -1.5349
 4663SOL    HW225449   3.750   3.695  12.180 -0.2827  0.4535  0.4828
 4664SOL     OW25450   1.325   3.576  12.027  0.6264 -0.1813  0.8993
 4664SOL    HW125451   1.389   3.530  12.082 -1.3555 -0.8000  2.7069
 4664SOL    HW225452   1.372   3.645  11.981  0.9522  0.0769  1.6188
 4665SOL     OW25453   3.763   2.595   3.007 -0.2589 -0.5221 -0.2123
 4665SOL    HW125454   3.854   2.622   3.013 -0.0268 -1.3195 -0.1565
 4665SOL    HW225455   3.779   2.501   3.019  0.3188  0.0075  2.9444
 4666SOL     OW25456   3.434   0.151  12.362 -0.1805 -0.1190  0.0913
 4666SOL    HW125457   3.498   0.180  12.427  0.3170 -0.6838 -0.1497
 4666SOL    HW225458   3.499   0.126  12.296 -0.3023 -0.9112  0.2636
 4667SOL     OW25459   1.148   1.210   5.594  0.1068 -0.0027  0.4079
 4667SOL    HW125460   1.235   1.172   5.582 -0.1299 -0.2813 -0.3599
 4667SOL    HW225461   1.132   1.246   5.507  0.5432  0.1985  0.4119
 4668SOL     OW25462   1.530   3.851   0.774  0.7048  0.4101  0.3139
 4668SOL    HW125463   1.541   3.908   0.698  1.6642  2.0435  1.6971
 4668SOL    HW225464   1.484   3.776   0.736  3.2056 -1.3761  0.8234
 4669SOL     OW25465   4.674   2.378   7.831  0.1876  0.3279 -0.3506
 4669SOL    HW125466   4.670   2.355   7.923 -1.1377 -0.7091 -0.6633
 4669SOL    HW225467   4.599   2.438   7.830  0.8196  1.1327  1.0145
 4670SOL     OW25468   0.251   3.234  14.096  0.5302 -0.2777 -0.6124
 4670SOL    HW125469   0.286   3.158  14.144 -2.1089  0.2939  2.1827
 4670SOL    HW225470   0.225   3.198  14.011  1.6888  0.6136 -1.3518
 4671SOL     OW25471   0.779   2.112   9.500  0.0264  0.0207  0.3291
 4671SOL    HW125472   0.697   2.158   9.482 -1.6476 -2.8933  0.3250
 4671SOL    HW225473   0.752   2.044   9.562  2.8612 -1.1880  0.2388
 4672SOL     OW25474   2.503   3.470  10.076 -0.0712 -0.2658  0.6189
 4672SOL    HW125475   2.415   3.480  10.038  0.4772  3.6059  0.3816
 4672SOL    HW225476   2.565   3.454  10.005 -2.5459  0.0154 -1.6496
 4673SOL     OW25477   1.108   1.175  14.026  0.5529 -0.2319  0.0979
 4673SOL    HW125478   1.086   1.249  14.082  0.1671 -0.1564 -0.1542
 4673SOL    HW225479   1.025   1.165  13.979  1.1491 -0.6941 -0.8690
 4674SOL     OW25480   2.314   1.139   5.134 -0.2217 -0.1519 -0.4562
 4674SOL    HW125481   2.326   1.172   5.045  2.0576  1.3219  0.4116
 4674SOL    HW225482   2.383   1.074   5.148 -1.2431 -1.7043 -2.5791
 4675SOL     OW25483   3.729   1.131   1.884  0.7606 -0.0444  0.0499
 4675SOL    HW125484   3.773   1.131   1.969  0.5566 -2.8499  0.1409
 4675SOL    HW225485   3.801   1.146   1.823  1.4616 -2.2607  0.3582
 4676SOL     OW25486   2.825   2.230  14.423  0.3768  0.1169 -0.3216
 4676SOL    HW125487   2.817   2.217  14.329 -0.8963  2.6858 -0.5673
 4676SOL    HW225488   2.833   2.324  14.437  2.1766 -0.3240  1.6399
 4677SOL     OW25489   3.780   2.332   3.393  0.5019 -0.0919  0.0657
 4677SOL    HW125490   3.744   2.393   3.458 -0.0152  1.3222 -1.5604
 4677SOL    HW225491   3.769   2.254   3.448 -2.7155 -0.5220 -1.2105
 4678SOL     OW25492   3.242   1.660   4.919  0.2736  0.3131 -0.0495
 4678SOL    HW125493   3.233   1.724   4.848  0.0591 -0.4618 -0.7167
 4678SOL    HW225494   3.333   1.639   4.896  0.7737  0.1427  2.1261
 4679SOL     OW25495   3.862   1.965   9.832  0.0989 -0.5784 -1.0099
 4679SOL    HW125496   3.835   2.032   9.769 -1.2685  1.0795  1.3269
 4679SOL    HW225497   3.795   1.905   9.799  0.2429 -1.0112 -0.5161
 4680SOL     OW25498   1.258   0.110   9.231  0.2108  0.0694  0.0645
 4680SOL    HW125499   1.177   0.076   9.270  0.8154 -3.4902 -1.7749
 4680SOL    HW225500   1.237   0.203   9.222 -0.8239 -0.1466  0.2488
 4681SOL     OW25501   4.637   2.732  12.439 -0.4638  0.0489 -0.1667
 4681SOL    HW125502   4.595   2.676  12.374 -0.4520  0.1375 -0.2517
 4681SOL    HW225503   4.652   2.674  12.513 -1.9171  1.6574  1.3702
 4682SOL     OW25504   3.528   1.241   3.712 -0.8332  0.5825 -0.7196
 4682SOL    HW125505   3.461   1.273   3.773  0.0241  0.3120  0.3433
 4682SOL    HW225506   3.588   1.192   3.768  1.4095  1.9982 -1.8752
 4683SOL     OW25507   3.457   1.018   9.643 -0.2637 -0.1627 -0.3217
 4683SOL    HW125508   3.362   1.008   9.642 -0.4782  1.7073  2.2632
 4683SOL    HW225509   3.477   1.060   9.727 -1.9885 -1.9348  0.9493
 4684SOL     OW25510   0.971   3.338   7.271  0.3941  0.0085 -0.0727
 4684SOL    HW125511   0.954   3.257   7.319 -3.0282  1.0808  0.5180
 4684SOL    HW225512   0.893   3.348   7.217  0.4806  0.4564 -0.1113
 4685SOL     OW25513   1.407   0.926  10.421  0.1002  0.7395  0.2731
 4685SOL    HW125514   1.346   0.955  10.489  2.2655  0.2888  2.3917
 4685SOL    HW225515   1.408   0.831  10.429 -0.8557  0.7558  0.5793
 4686SOL     OW25516   2.868   2.669   0.167  0.0651  0.0404  0.4849
 4686SOL    HW125517   2.863   2.578   0.139 -1.3419 -0.1725  1.4557
 4686SOL    HW225518   2.789   2.699   0.122  1.0869  0.0891 -1.3024
 4687SOL     OW25519   0.216   0.410  11.292 -0.4869  0.1094 -0.3835
 4687SOL    HW125520   0.131   0.424  11.335  0.5800  1.7962  1.1582
 4687SOL    HW225521   0.270   0.451  11.360 -2.4541 -0.4452  1.5478
 4688SOL     OW25522   2.325   1.038   6.409 -0.4517 -0.4600  0.4356
 4688SOL    HW125523   2.250   0.987   6.380 -2.1237  1.2911  1.7256
 4688SOL    HW225524   2.376   0.975   6.462  0.0296 -2.2908 -2.1962
 4689SOL     OW25525   2.598   2.393   3.474 -0.6584  0.1166  0.0079
 4689SOL    HW125526   2.608   2.353   3.560  1.5595 -0.1551 -0.3745
 4689SOL    HW225527   2.690   2.397   3.449 -0.6543 -0.9974 -0.1432
 4690SOL     OW25528   4.585   2.528  14.918 -0.5856 -0.4597  0.0154
 4690SOL    HW125529   4.557   2.581  14.843 -2.9658 -0.7943  0.6636
 4690SOL    HW225530   4.532   2.558  14.992  3.3602 -0.6961  2.9238
 4691SOL     OW25531   4.133   2.111  10.932 -0.3319  0.1956 -0.2397
 4691SOL    HW125532   4.149   2.100  10.839  1.0457  2.1581 -0.2216
 4691SOL    HW225533   4.071   2.185  10.936  1.1812  1.3833  1.3823
 4692SOL     OW25534   2.483   1.440   6.413  0.1170 -0.3253  0.2347
 4692SOL    HW125535   2.399   1.401   6.389  0.4022 -1.0317  0.4014
 4692SOL    HW225536   2.489   1.481   6.326 -0.7137 -1.2372 -0.2489
 4693SOL     OW25537   2.598   3.661  16.795  0.5987 -0.5011 -0.0562
 4693SOL    HW125538   2.569   3.608  16.722  0.5780 -1.4689  0.6570
 4693SOL    HW225539   2.682   3.623  16.819  0.9015 -0.1826 -0.6146
 4694SOL     OW25540   4.662   1.259  14.826 -0.5382  0.0603  0.8739
 4694SOL    HW125541   0.029   1.238  14.796 -0.9243 -0.3484  0.0084
 4694SOL    HW225542   4.626   1.301  14.748  1.6963  1.6535  0.7135
 4695SOL     OW25543   1.519   0.305  16.425 -0.5591 -0.6067 -0.2123
 4695SOL    HW125544   1.501   0.251  16.348  0.3888  0.5240 -1.2378
 4695SOL    HW225545   1.529   0.238  16.493  0.3162 -0.0244  0.2284
 4696SOL     OW25546   0.381   0.186  13.017 -0.4732 -0.8117  0.5588
 4696SOL    HW125547   0.336   0.166  12.935 -0.7998 -3.0958  1.3066
 4696SOL    HW225548   0.306   0.211  13.070 -0.8491 -0.8449  0.0431
 4697SOL     OW25549   0.214   2.003  10.510 -0.6186 -0.3989 -0.0900
 4697SOL    HW125550   0.301   1.991  10.473 -0.4051 -1.6944  0.8431
 4697SOL    HW225551   0.190   2.088  10.471  0.9217  0.3043  0.5267
 4698SOL     OW25552   1.125   2.082   8.007 -0.0039  1.1822 -0.6396
 4698SOL    HW125553   1.132   2.048   7.917  2.5604  2.4347 -0.9009
 4698SOL    HW225554   1.089   2.001   8.045 -0.4982  1.3286 -0.7921
 4699SOL     OW25555   3.551   1.793   5.259 -0.0562 -0.0986  0.0325
 4699SOL    HW125556   3.543   1.699   5.248 -0.8615 -0.1796  1.2661
 4699SOL    HW225557   3.645   1.789   5.273  0.0993  2.0815 -0.3339
 4700SOL     OW25558   4.348   3.632   4.289 -0.1332 -0.2478  0.0840
 4700SOL    HW125559   4.315   3.545   4.312 -2.2646  0.5899  0.2104
 4700SOL    HW225560   4.303   3.688   4.352  0.3641 -0.7673  0.9090
 4701SOL     OW25561   1.424   1.267   5.171  0.4514 -0.3353  0.4154
 4701SOL    HW125562   1.332   1.293   5.160  0.1453 -0.7513  2.0164
 4701SOL    HW225563   1.407   1.182   5.130 -1.7274  0.4721 -0.3862
 4702SOL     OW25564   1.163   1.579   9.437 -0.1357 -0.6861 -0.2491
 4702SOL    HW125565   1.109   1.505   9.409 -0.7333 -0.6276  0.7590
 4702SOL    HW225566   1.155   1.647   9.371  0.1609 -0.8662 -0.4694
 4703SOL     OW25567   3.055   0.007   8.231 -0.2206  0.0557 -0.6042
 4703SOL    HW125568   2.981   4.672   8.252  0.8554 -0.0941  2.7116
 4703SOL    HW225569   3.121   4.678   8.278  0.9850  1.6573 -0.5912
 4704SOL     OW25570   1.537   0.659   2.206 -0.0932 -0.3082 -0.8339
 4704SOL    HW125571   1.621   0.634   2.243 -0.3699  0.6934  0.4535
 4704SOL    HW225572   1.563   0.718   2.134  0.8089 -1.1919 -1.2244
 4705SOL     OW25573   4.296   0.194   5.086  0.0427 -0.1722  0.0368
 4705SOL    HW125574   4.208   0.156   5.087  0.1431 -0.3554  2.7865
 4705SOL    HW225575   4.354   0.121   5.107 -0.6981 -0.6232  0.5251
 4706SOL     OW25576   4.540   2.930  11.528 -0.1561 -0.2768 -0.0634
 4706SOL    HW125577   4.549   2.891  11.441 -2.0412  0.5713 -0.6372
 4706SOL    HW225578   4.543   2.852  11.584  0.5061 -0.8998 -0.9577
 4707SOL     OW25579   4.043   2.348   6.017 -0.4045 -0.1845  0.2066
 4707SOL    HW125580   4.045   2.339   5.922  1.6114  1.0891  0.1390
 4707SOL    HW225581   4.044   2.443   6.016  2.6840 -0.1929  1.5610
 4708SOL     OW25582   2.263   0.506   7.552  0.0913  0.2473  0.0491
 4708SOL    HW125583   2.261   0.426   7.501 -0.3077  0.2885 -0.0007
 4708SOL    HW225584   2.168   0.523   7.554 -0.2818 -1.6959 -1.5149
 4709SOL     OW25585   1.759   0.484   4.704  0.3727 -0.1160  0.1982
 4709SOL    HW125586   1.730   0.416   4.764  3.7649 -0.8296  1.0316
 4709SOL    HW225587   1.783   0.550   4.769 -0.6167 -1.8420  2.3313
 4710SOL     OW25588   3.019   0.408   9.961  0.4947 -0.4971 -0.6142
 4710SOL    HW125589   3.069   0.338  10.004  0.5131 -0.7151 -0.9923
 4710SOL    HW225590   2.935   0.382   9.998 -0.4356 -2.3498 -4.1204
 4711SOL     OW25591   3.720   3.593   7.450  0.7216  0.0654  0.0420
 4711SOL    HW125592   3.803   3.557   7.418  1.7256  0.5748  2.0641
 4711SOL    HW225593   3.744   3.609   7.541  1.9833 -1.2648 -0.0488
 4712SOL     OW25594   4.652   4.158   0.646  0.1425  0.0539  0.5240
 4712SOL    HW125595   4.595   4.222   0.604  0.5061 -0.1142 -0.2158
 4712SOL    HW225596   4.717   4.136   0.579  0.0858  0.8794  0.2043
 4713SOL     OW25597   2.321   3.503   8.054  0.1924  0.3869  0.1961
 4713SOL    HW125598   2.252   3.451   8.095 -0.8880  1.0770 -0.7255
 4713SOL    HW225599   2.388   3.435   8.042 -2.3701 -2.2237  0.6628
 4714SOL     OW25600   1.791   0.303   6.893 -0.1352 -0.0104 -0.2498
 4714SOL    HW125601   1.739   0.373   6.853  0.5741  1.9507  2.2775
 4714SOL    HW225602   1.782   0.241   6.821  1.4987 -1.7022  1.0016
 4715SOL     OW25603   1.170   2.337   9.026  0.0612 -0.5164 -0.0463
 4715SOL    HW125604   1.228   2.391   9.080 -0.0427 -1.2422  0.8025
 4715SOL    HW225605   1.233   2.292   8.970  2.6552  1.8209  0.9999
 4716SOL     OW25606   0.743   4.611   4.661 -0.6150 -0.9823  0.5601
 4716SOL    HW125607   0.658   4.640   4.626 -0.2310  2.2108  2.2664
 4716SOL    HW225608   0.803   4.658   4.604 -2.1661 -1.3262 -1.3568
 4717SOL     OW25609   3.565   2.664  11.924  0.0266  0.4728 -0.3550
 4717SOL    HW125610   3.593   2.734  11.983 -2.0637 -1.1436  2.5555
 4717SOL    HW225611   3.651   2.633  11.897  0.0678  0.2773 -0.0012
 4718SOL     OW25612   2.667   2.453  14.131  0.3697 -0.0452  0.1646
 4718SOL    HW125613   2.738   2.517  14.128 -2.2386  2.8603  0.2212
 4718SOL    HW225614   2.659   2.406  14.048  1.0707  1.8937 -1.0019
 4719SOL     OW25615   1.681   1.322   3.194  0.4332 -0.6659  0.4393
 4719SOL    HW125616   1.677   1.230   3.221 -1.1238 -0.4562  0.9275
 4719SOL    HW225617   1.765   1.331   3.149  1.0106  3.9056  2.4817
 4720SOL     OW25618   2.384   0.371   8.179 -0.4734  0.8014  0.0223
 4720SOL    HW125619   2.344   0.381   8.092  0.7941  0.5821 -0.5975
 4720SOL    HW225620   2.356   0.282   8.199  1.1436  0.6698  1.7175
 4721SOL     OW25621   3.330   3.589   8.701  0.0943  0.8191  0.0480
 4721SOL    HW125622   3.321   3.542   8.784  0.7928  0.1922 -0.2297
 4721SOL    HW225623   3.269   3.542   8.644  1.8825 -1.8241  0.3027
 4722SOL     OW25624   2.600   1.549  14.519 -0.3847  0.1506  0.4815
 4722SOL    HW125625   2.575   1.604  14.593  1.7381  1.0925  0.4988
 4722SOL    HW225626   2.558   1.604  14.452 -0.4863  0.9089  1.1722
 4723SOL     OW25627   1.358   4.246   3.729  0.2062 -0.3380 -0.2103
 4723SOL    HW125628   1.284   4.288   3.685  1.4397  1.2384 -0.7660
 4723SOL    HW225629   1.424   4.314   3.726 -0.6832  0.4847 -1.1247
 4724SOL     OW25630   4.694   3.357  11.695 -0.0385  0.2316 -0.0702
 4724SOL    HW125631   0.027   3.386  11.768  0.4514  0.4695 -0.5310
 4724SOL    HW225632   4.615   3.331  11.742  0.1173  1.0799  0.6548
 4725SOL     OW25633   3.429   2.380  12.314  0.0957  0.6432  0.2189
 4725SOL    HW125634   3.453   2.301  12.264  0.6616 -1.3270  3.5992
 4725SOL    HW225635   3.361   2.413  12.256 -0.7758  0.0880  0.9406
 4726SOL     OW25636   2.165   2.561   6.336 -0.3617 -0.6670  0.4643
 4726SOL    HW125637   2.129   2.646   6.362 -0.3358 -0.8305  1.0390
 4726SOL    HW225638   2.081   2.526   6.308 -1.3312 -0.3759  3.0453
 4727SOL     OW25639   3.216   0.649  17.294  0.1912  0.3987 -0.1242
 4727SOL    HW125640   3.268   0.644  17.214  0.6804 -0.7360  0.2557
 4727SOL    HW225641   3.284   0.691  17.348  1.4728  0.5062 -1.8272
 4728SOL     OW25642   3.659   4.221  14.822  0.4698 -0.2779 -0.1540
 4728SOL    HW125643   3.732   4.221  14.759  0.2321 -0.3706 -0.4286
 4728SOL    HW225644   3.707   4.272  14.888  1.0880 -0.5740 -0.3682
 4729SOL     OW25645   3.706   2.039   2.558  0.0258 -0.1574  0.5156
 4729SOL    HW125646   3.625   2.070   2.597 -0.7662 -2.2058  0.4827
 4729SOL    HW225647   3.769   2.111   2.566  0.2209 -0.3100  0.3496
 4730SOL     OW25648   4.615   1.458  10.661 -0.3709 -0.1031 -0.2913
 4730SOL    HW125649   4.610   1.370  10.623  1.4251 -0.4804  0.3438
 4730SOL    HW225650   4.704   1.458  10.695 -0.7667 -0.1598  0.7407
 4731SOL     OW25651   1.082   0.080   0.872  1.0319  0.0802 -0.0472
 4731SOL    HW125652   1.084   0.173   0.852  0.3592 -0.0383 -0.6512
 4731SOL    HW225653   1.087   0.048   0.782 -1.3478  1.4563 -0.6571
 4732SOL     OW25654   4.349   2.823  10.477  0.2600  0.8622  0.4546
 4732SOL    HW125655   4.286   2.873  10.425  1.4753  1.7466 -0.1560
 4732SOL    HW225656   4.406   2.801  10.403 -1.6520 -1.5893 -0.2663
 4733SOL     OW25657   2.111   3.441   6.090 -0.0614  0.3378 -0.1431
 4733SOL    HW125658   2.036   3.444   6.030  2.2839  0.9086 -3.0570
 4733SOL    HW225659   2.147   3.530   6.083  0.0745  0.4641  2.0279
 4734SOL     OW25660   2.710   3.233   9.773 -0.0122  0.4984  0.3977
 4734SOL    HW125661   2.692   3.323   9.800 -0.2263  0.3967  0.5996
 4734SOL    HW225662   2.621   3.196   9.774 -0.1129  0.7544  0.8686
 4735SOL     OW25663   2.746   1.496   9.834  0.3016 -0.5967  0.8041
 4735SOL    HW125664   2.735   1.523   9.743  1.1946  1.0385  1.1876
 4735SOL    HW225665   2.813   1.428   9.825  1.5782  0.7039  0.6494
 4736SOL     OW25666   3.079   3.497  15.303  0.2055  0.2878  0.3124
 4736SOL    HW125667   3.153   3.557  15.310 -1.1339  2.3386 -2.8742
 4736SOL    HW225668   3.014   3.566  15.323  0.4417  0.7246 -0.4162
 4737SOL     OW25669   2.519   2.608   8.909 -0.3152  0.4010  0.6941
 4737SOL    HW125670   2.513   2.674   8.979  0.3648  0.4062  0.7502
 4737SOL    HW225671   2.425   2.593   8.899 -0.3874  2.1259 -1.1192
 4738SOL     OW25672   0.466   3.766   7.023  0.3857  0.0688  0.1458
 4738SOL    HW125673   0.393   3.793   7.078  0.5965  0.5221  0.2085
 4738SOL    HW225674   0.419   3.757   6.940  2.6542 -2.4648 -0.8662
 4739SOL     OW25675   2.592   2.820   7.260 -0.1194 -0.0987 -0.2797
 4739SOL    HW125676   2.582   2.802   7.353 -0.0947  1.2018 -0.0269
 4739SOL    HW225677   2.613   2.914   7.263  0.0957 -0.1122 -1.5467
 4740SOL     OW25678   1.043   4.534  13.030  0.0189 -0.2200  0.1202
 4740SOL    HW125679   0.972   4.593  13.005 -0.5061 -0.4134  1.1230
 4740SOL    HW225680   1.099   4.602  13.068  1.0215  0.2007 -2.1604
 4741SOL     OW25681   0.135   0.774   0.880  0.3173 -0.0613 -0.1484
 4741SOL    HW125682   0.111   0.733   0.964  0.5749 -1.1338 -0.5999
 4741SOL    HW225683   0.229   0.754   0.891  0.0299 -1.4995 -0.2628
 4742SOL     OW25684   0.493   0.105   0.891 -0.6069 -0.1717 -0.0949
 4742SOL    HW125685   0.406   0.066   0.887 -0.1303 -1.1030 -1.3095
 4742SOL    HW225686   0.499   0.129   0.798  0.5553  0.5061  0.1586
 4743SOL     OW25687   3.635   1.626   8.577  0.8572  0.3704  0.0514
 4743SOL    HW125688   3.587   1.705   8.554 -1.1284 -1.0012 -0.5915
 4743SOL    HW225689   3.616   1.568   8.504  0.1193 -1.4900  1.7004
 4744SOL     OW25690   0.866   1.660   5.993  0.1088  0.5562 -0.6994
 4744SOL    HW125691   0.960   1.675   6.003  0.5609 -1.1648 -2.1554
 4744SOL    HW225692   0.836   1.738   5.946 -2.5819  0.4887  0.9031
 4745SOL     OW25693   3.833   3.004   1.933 -0.0402  0.8587  0.4709
 4745SOL    HW125694   3.875   3.085   1.903 -1.3256  1.2844 -0.1495
 4745SOL    HW225695   3.868   2.934   1.877 -0.3663  1.2119 -0.1728
 4746SOL     OW25696   1.674   3.607  14.798 -0.2689  0.2007 -0.2009
 4746SOL    HW125697   1.714   3.626  14.713  0.6756  2.3915  0.7319
 4746SOL    HW225698   1.738   3.542  14.829  0.0715  1.1536  1.1161
 4747SOL     OW25699   1.911   2.883   5.727 -0.0919  0.1826  0.6542
 4747SOL    HW125700   1.827   2.885   5.773 -0.0898 -3.2467  0.8210
 4747SOL    HW225701   1.938   2.793   5.742  1.9328  0.7132  0.2143
 4748SOL     OW25702   4.092   0.292  12.901 -0.8497 -0.3789  0.3329
 4748SOL    HW125703   4.077   0.198  12.892 -0.8926 -0.3654  0.2642
 4748SOL    HW225704   4.005   0.321  12.874 -1.0382 -0.1800  1.1511
 4749SOL     OW25705   3.248   2.633  15.669  0.3205 -0.1562  0.0426
 4749SOL    HW125706   3.257   2.691  15.744  0.2149 -0.1230  0.0299
 4749SOL    HW225707   3.190   2.685  15.614  0.6684 -0.8403 -0.9878
 4750SOL     OW25708   2.561   0.451   8.582 -0.2591  0.2026  0.8570
 4750SOL    HW125709   2.541   0.544   8.578  2.1522  0.7328  1.1523
 4750SOL    HW225710   2.476   0.408   8.566 -0.4188  0.5799  0.6856
 4751SOL     OW25711   0.060   4.113   0.176  0.0538 -0.1654  0.3720
 4751SOL    HW125712   0.067   4.076   0.088  0.0240 -0.1909  0.3806
 4751SOL    HW225713   0.102   4.198   0.160 -2.2366  0.8557 -0.2058
 4752SOL     OW25714   4.375   4.034   4.658 -0.1472  0.0379 -0.1260
 4752SOL    HW125715   4.456   4.077   4.632 -0.5215  0.0517 -1.2543
 4752SOL    HW225716   4.313   4.042   4.585 -0.6598 -0.6432  0.2396
 4753SOL     OW25717   1.171   1.018   3.683 -0.6468 -0.5058  0.0891
 4753SOL    HW125718   1.232   1.002   3.611 -1.7269  1.8243 -1.3690
 4753SOL    HW225719   1.118   0.939   3.682  2.5305 -2.5330 -5.1763
 4754SOL     OW25720   1.688   0.601   3.550  0.2468  0.1449  0.0144
 4754SOL    HW125721   1.649   0.628   3.633 -1.8355 -1.1531 -0.5505
 4754SOL    HW225722   1.665   0.508   3.544  0.0599  0.0440  2.0604
 4755SOL     OW25723   3.005   2.408  15.911  0.4178 -0.4113 -0.3918
 4755SOL    HW125724   3.068   2.405  15.983  1.5878  1.7544 -1.3336
 4755SOL    HW225725   2.940   2.341  15.933 -0.1299 -0.0468 -0.8855
 4756SOL     OW25726   1.196   1.838  17.417  0.1870 -0.2245 -0.3488
 4756SOL    HW125727   1.159   1.903  17.476 -0.6050  1.8205 -3.1117
 4756SOL    HW225728   1.191   1.761  17.474 -0.2846  0.5488  0.6561
 4757SOL     OW25729   2.897   0.799   8.203  0.0541 -0.1211  0.4119
 4757SOL    HW125730   2.870   0.709   8.221  1.1493 -0.7760 -1.2274
 4757SOL    HW225731   2.869   0.847   8.282 -0.6877 -0.1107  0.1435
 4758SOL     OW25732   1.394   1.132   5.476 -0.4134 -0.8879 -0.2754
 4758SOL    HW125733   1.416   1.061   5.415 -0.0000  1.4520 -2.8236
 4758SOL    HW225734   1.448   1.205   5.447 -1.5245 -0.4144 -1.1366
 4759SOL     OW25735   3.533   3.768   7.311 -0.3209 -0.3266 -0.0216
 4759SOL    HW125736   3.470   3.798   7.377  1.1842 -1.0797  1.7456
 4759SOL    HW225737   3.591   3.711   7.361  0.7063  0.6641 -0.0658
 4760SOL     OW25738   3.592   2.116  16.476  0.6365  0.1476  0.1574
 4760SOL    HW125739   3.614   2.208  16.490 -1.1840  0.3697  1.4409
 4760SOL    HW225740   3.607   2.081  16.563 -0.9274 -3.2748 -0.9680
 4761SOL     OW25741   1.000   0.913  11.087 -0.2830  0.3698 -0.5186
 4761SOL    HW125742   0.954   0.884  11.166  0.8359 -1.5764 -0.5694
 4761SOL    HW225743   1.019   1.001  11.118  3.4983 -0.4846 -0.3875
 4762SOL     OW25744   2.867   2.879  17.523  0.0173  0.2697  0.5796
 4762SOL    HW125745   2.937   2.849  17.581  1.2340 -1.9007 -2.0464
 4762SOL    HW225746   2.792   2.831  17.557 -1.5266  2.8305  0.7894
 4763SOL     OW25747   1.089   3.759   1.969  0.0944 -0.4175 -0.5473
 4763SOL    HW125748   1.128   3.698   2.032 -0.9992 -0.6289 -0.0785
 4763SOL    HW225749   1.162   3.768   1.908  2.6219 -3.9096  1.8979
 4764SOL     OW25750   2.883   3.164   4.525 -0.1206 -0.2100 -0.6806
 4764SOL    HW125751   2.931   3.145   4.445 -1.1907  1.4023 -1.6957
 4764SOL    HW225752   2.792   3.158   4.497  0.1232 -0.8230 -1.3364
 4765SOL     OW25753   4.645   2.276   5.189 -0.3070  0.1360  0.3040
 4765SOL    HW125754   0.017   2.277   5.167 -0.0744 -2.2189  1.1572
 4765SOL    HW225755   4.596   2.273   5.107 -0.6792  0.2402  0.5234
 4766SOL     OW25756   4.567   2.805   6.283 -0.1784  0.1598  0.2005
 4766SOL    HW125757   4.473   2.822   6.281 -0.5405 -1.9406 -0.5082
 4766SOL    HW225758   4.563   2.752   6.362  0.7701 -0.4872 -0.1849
 4767SOL     OW25759   3.366   3.068   8.921  0.1613  0.3319 -0.4494
 4767SOL    HW125760   3.283   3.039   8.959 -0.6804  2.2492 -0.8691
 4767SOL    HW225761   3.378   3.017   8.840  0.6487  0.9622 -0.7758
 4768SOL     OW25762   4.116   4.452   2.576 -0.2509 -0.1241  0.8487
 4768SOL    HW125763   4.149   4.400   2.503 -2.8131 -0.5417  0.0095
 4768SOL    HW225764   4.198   4.463   2.625  0.2466 -1.2039  0.2666
 4769SOL     OW25765   1.706   1.308   7.103 -0.0904  0.0413 -0.7593
 4769SOL    HW125766   1.623   1.354   7.114 -0.2105 -0.4169  0.2363
 4769SOL    HW225767   1.729   1.348   7.019 -3.7962 -0.5201 -2.0503
 4770SOL     OW25768   0.089   1.604   0.570  0.0736  0.0996  0.1085
 4770SOL    HW125769   0.095   1.695   0.601 -1.1806  0.4899 -0.7878
 4770SOL    HW225770   0.048   1.614   0.484  2.0888 -1.3601 -1.0321
 4771SOL     OW25771   2.310   1.055   9.274 -0.1705 -0.0859  0.7690
 4771SOL    HW125772   2.229   1.015   9.242  1.0884 -0.4393 -2.0022
 4771SOL    HW225773   2.336   1.112   9.201 -1.2301 -1.9021 -1.0583
 4772SOL     OW25774   3.577   2.269   6.052  0.1725 -0.1277 -0.0537
 4772SOL    HW125775   3.556   2.359   6.027  1.0920  0.3659  0.9715
 4772SOL    HW225776   3.558   2.267   6.145 -0.9204  0.0153 -0.2678
 4773SOL     OW25777   2.416   3.856   2.309 -0.2489 -0.1189  0.4115
 4773SOL    HW125778   2.418   3.940   2.263  1.4204 -0.7870 -0.7181
 4773SOL    HW225779   2.388   3.796   2.240 -2.9539 -1.0429  2.2950
 4774SOL     OW25780   4.710   1.319   6.468 -0.6935 -0.4135  0.1543
 4774SOL    HW125781   0.038   1.372   6.405 -1.8849  1.3669  0.7341
 4774SOL    HW225782   4.641   1.379   6.496 -0.4456 -0.2599  0.4248
 4775SOL     OW25783   3.459   1.824  10.096 -0.3415 -0.1714  0.0921
 4775SOL    HW125784   3.455   1.730  10.113  0.2303 -0.1156  0.4953
 4775SOL    HW225785   3.554   1.826  10.107 -0.4687  3.4825  0.5283
 4776SOL     OW25786   0.394   2.040   1.024 -0.1800 -0.2900  0.1322
 4776SOL    HW125787   0.327   1.979   1.054  1.4810 -1.2838  1.7903
 4776SOL    HW225788   0.462   2.021   1.088 -0.0658 -1.8628 -0.4463
 4777SOL     OW25789   0.080   3.142   2.904  0.2524 -1.0448  0.3432
 4777SOL    HW125790   0.162   3.124   2.859  0.2915  1.8307 -0.7753
 4777SOL    HW225791   0.111   3.161   2.992  2.7657 -0.8420 -0.5916
 4778SOL     OW25792   2.053   1.442  15.353  0.1858 -0.8525 -0.0814
 4778SOL    HW125793   2.004   1.360  15.348  1.7593 -1.6624 -2.4456
 4778SOL    HW225794   2.026   1.488  15.273 -0.1598 -0.7884  0.0695
 4779SOL     OW25795   0.899   4.044  10.245  0.3426  0.4178  0.2254
 4779SOL    HW125796   0.974   4.026  10.301 -1.8519 -0.5306  2.8268
 4779SOL    HW225797   0.926   4.003  10.163  0.2961  0.0825  0.3810
 4780SOL     OW25798   0.746   4.413  17.291 -0.1695  0.4015  0.1894
 4780SOL    HW125799   0.832   4.380  17.316 -0.8207 -0.9823  0.5665
 4780SOL    HW225800   0.771   4.500  17.258  0.5867 -0.2315 -0.8775
 4781SOL     OW25801   2.578   3.928   3.916  0.9361  0.6116  0.4203
 4781SOL    HW125802   2.640   3.862   3.886 -0.8795 -1.0596  0.3861
 4781SOL    HW225803   2.596   4.003   3.859 -1.5962  1.0718  0.2337
 4782SOL     OW25804   2.666   2.167   1.752  0.0394  0.0731 -0.0307
 4782SOL    HW125805   2.589   2.219   1.774  0.6242  0.5822  0.8379
 4782SOL    HW225806   2.717   2.241   1.718 -0.1456  0.0587 -0.3302
 4783SOL     OW25807   0.290   0.273   6.527  0.0040 -0.0293 -0.4549
 4783SOL    HW125808   0.367   0.324   6.552  0.0524 -0.1273 -0.4067
 4783SOL    HW225809   0.270   0.233   6.611 -2.1782 -0.9667 -1.4104
 4784SOL     OW25810   0.792   0.707   1.165  0.4679  0.4836 -0.4316
 4784SOL    HW125811   0.841   0.789   1.153  1.1663 -0.1039 -1.5622
 4784SOL    HW225812   0.820   0.675   1.251 -1.1003  1.7166  0.5653
 4785SOL     OW25813   3.397   0.156   3.286 -0.4976  0.2948  0.4226
 4785SOL    HW125814   3.342   0.142   3.209  1.5062  2.5207 -1.4260
 4785SOL    HW225815   3.474   0.199   3.248 -0.3608  0.9395  1.4091
 4786SOL     OW25816   3.793   0.754   4.740 -0.6756 -0.5739 -1.0196
 4786SOL    HW125817   3.820   0.836   4.698  1.4203 -0.5552  0.3947
 4786SOL    HW225818   3.856   0.694   4.701 -0.0697 -1.2010  0.9524
 4787SOL     OW25819   4.482   3.363   4.195 -0.0868  1.0613  0.0700
 4787SOL    HW125820   4.554   3.390   4.252  0.5726 -1.9597  0.7069
 4787SOL    HW225821   4.413   3.387   4.257  1.4808  2.6676  1.2027
 4788SOL     OW25822   2.395   3.580   1.175  0.2563  0.0929  0.4602
 4788SOL    HW125823   2.477   3.624   1.196 -0.9189  1.7976  1.4670
 4788SOL    HW225824   2.388   3.515   1.246 -0.0676 -1.1325 -0.6989
 4789SOL     OW25825   3.930   3.808   2.491 -0.6619  0.5207 -0.1024
 4789SOL    HW125826   3.884   3.812   2.407 -2.0573 -0.6391  0.6145
 4789SOL    HW225827   3.858   3.819   2.554  0.2951  0.3890  1.0121
 4790SOL     OW25828   1.847   0.939   7.946  0.4632 -0.5827 -0.0065
 4790SOL    HW125829   1.805   0.995   7.880  0.3918  1.5508  1.8502
 4790SOL    HW225830   1.781   0.927   8.014 -1.6093 -1.3033 -2.1647
 4791SOL     OW25831   1.093   0.040   4.668  0.0951  0.0963  0.4586
 4791SOL    HW125832   1.036   0.021   4.594  0.1189 -0.5251  0.5960
 4791SOL    HW225833   1.110   4.673   4.700  2.4000  0.0492 -0.8733
 4792SOL     OW25834   0.486   0.199   9.553  0.1485  0.0081  0.7992
 4792SOL    HW125835   0.538   0.270   9.590 -2.7969  2.5939 -0.0441
 4792SOL    HW225836   0.510   0.128   9.613  1.0755  0.2056  0.6506
 4793SOL     OW25837   0.055   4.614   6.114 -0.3791  0.0681 -0.0924
 4793SOL    HW125838   4.704   4.674   6.131 -0.3999  0.4596 -1.5698
 4793SOL    HW225839   0.019   4.545   6.058 -3.1439  0.5734  1.0479
 4794SOL     OW25840   3.859   4.390  14.975 -0.5674 -0.0487 -0.0442
 4794SOL    HW125841   3.898   4.327  15.035  0.9199  1.4615  0.5904
 4794SOL    HW225842   3.799   4.429  15.038 -0.0302  0.1046  0.3747
 4795SOL     OW25843   0.821   4.068  12.240  0.6183 -0.5195  0.3975
 4795SOL    HW125844   0.748   4.123  12.269 -0.1686 -1.6773  0.6305
 4795SOL    HW225845   0.848   4.026  12.322  0.1074 -0.8745  0.3809
 4796SOL     OW25846   1.171   4.154   8.457  0.3905 -0.2653  0.0540
 4796SOL    HW125847   1.077   4.144   8.438  0.8642 -0.2944 -2.2787
 4796SOL    HW225848   1.176   4.094   8.532  2.2912 -0.3142 -0.1106
 4797SOL     OW25849   3.818   2.464   2.723 -0.8569 -0.1817  0.2068
 4797SOL    HW125850   3.842   2.537   2.779 -1.7882  0.4112 -0.1673
 4797SOL    HW225851   3.833   2.514   2.643  1.1333 -0.6217  0.3048
 4798SOL     OW25852   0.810   3.741   6.170 -0.1736  0.5858 -0.1774
 4798SOL    HW125853   0.716   3.739   6.150 -0.4373 -0.1851  1.1601
 4798SOL    HW225854   0.832   3.648   6.165 -2.2089  0.1012 -0.4795
 4799SOL     OW25855   1.942   3.271   4.639  0.6048 -0.1237 -0.4876
 4799SOL    HW125856   1.852   3.305   4.647  0.8127  0.3592 -0.1970
 4799SOL    HW225857   1.938   3.214   4.562 -0.0894 -0.2172 -0.3851
 4800SOL     OW25858   4.089   1.655  12.899 -0.0101 -0.5706 -0.5817
 4800SOL    HW125859   4.159   1.592  12.881 -0.4344 -1.6719  1.6273
 4800SOL    HW225860   4.092   1.708  12.819  2.3458  1.6285  0.9650
 4801SOL     OW25861   4.637   1.059   0.985  0.4752  0.2890  0.1482
 4801SOL    HW125862   4.621   0.974   1.027  1.3205  1.6351  3.2417
 4801SOL    HW225863   0.007   1.078   1.003  0.2938  0.2833  1.0946
 4802SOL     OW25864   4.720   2.239   9.963 -0.7213  0.2511  0.1982
 4802SOL    HW125865   4.684   2.320   9.929 -0.2718 -1.2720 -3.9808
 4802SOL    HW225866   4.637   2.195   9.983 -0.3565  0.0888  1.3292
 4803SOL     OW25867   4.276   3.946   3.637 -0.9201 -0.0713  0.5810
 4803SOL    HW125868   4.368   3.931   3.614 -1.1917 -0.2601 -0.3601
 4803SOL    HW225869   4.271   4.017   3.701 -2.1084  1.1312 -0.8558
 4804SOL     OW25870   2.551   1.344   5.523  0.3279  0.0219  0.1094
 4804SOL    HW125871   2.644   1.340   5.501  0.2225 -0.2335 -0.2799
 4804SOL    HW225872   2.535   1.249   5.524 -1.8553  0.4182  1.8180
 4805SOL     OW25873   3.460   2.588  11.643  0.3455  0.2339 -0.6743
 4805SOL    HW125874   3.365   2.578  11.640  0.3602  0.8755 -3.1889
 4805SOL    HW225875   3.468   2.626  11.731  0.7446 -2.0310  0.2514
 4806SOL     OW25876   3.444   1.256   1.826  0.5724  0.4330  0.5589
 4806SOL    HW125877   3.399   1.289   1.904 -0.2595  2.2360 -0.6649
 4806SOL    HW225878   3.435   1.161   1.830  2.3091  0.2154 -0.8325
 4807SOL     OW25879   0.183   0.280  13.756 -0.2839 -0.3667  0.0129
 4807SOL    HW125880   0.242   0.297  13.830 -2.9299  1.3840  1.7077
 4807SOL    HW225881   0.199   0.366  13.715 -0.9308 -0.7363 -1.0043
 4808SOL     OW25882   2.751   3.715  13.335  0.0308 -0.2312 -0.1185
 4808SOL    HW125883   2.660   3.736  13.313  0.2535 -0.6996 -1.4913
 4808SOL    HW225884   2.792   3.691  13.253  1.1934  2.4223 -0.3236
 4809SOL     OW25885   2.597   1.723   9.299 -0.3513  0.1144  0.5449
 4809SOL    HW125886   2.533   1.661   9.264  1.4280 -1.6690  0.4525
 4809SOL    HW225887   2.536   1.776   9.349 -1.3240 -1.0350  0.5822
 4810SOL     OW25888   0.503   3.263   5.607  0.3274 -0.0894  0.0099
 4810SOL    HW125889   0.550   3.223   5.680 -1.7256  0.5126  1.6704
 4810SOL    HW225890   0.571   3.306   5.556 -1.0327  2.0964  0.0277
 4811SOL     OW25891   0.398   3.988   7.259 -0.5590 -0.7021  0.4494
 4811SOL    HW125892   0.327   3.983   7.323  0.1879 -5.1389  0.9342
 4811SOL    HW225893   0.469   4.002   7.321 -2.1889  1.4328  1.8498
 4812SOL     OW25894   1.946   2.119   7.216 -0.3924  0.4273 -0.3036
 4812SOL    HW125895   1.924   2.066   7.139  0.4276  0.1391 -0.3375
 4812SOL    HW225896   2.029   2.082   7.245 -0.1765 -0.4954 -2.1022
 4813SOL     OW25897   2.940   3.473  11.892 -0.3250  0.2069  0.0752
 4813SOL    HW125898   2.998   3.446  11.821  0.0326  1.1173  0.0137
 4813SOL    HW225899   2.939   3.388  11.937 -2.4815  0.4075  0.4150
 4814SOL     OW25900   3.590   2.417   6.928  0.5574 -0.5820 -0.3389
 4814SOL    HW125901   3.594   2.413   6.832 -1.0051 -0.7691 -0.4020
 4814SOL    HW225902   3.501   2.452   6.931  1.4620  1.6392  0.3194
 4815SOL     OW25903   1.911   2.357   7.045  0.0242  0.0777 -0.1481
 4815SOL    HW125904   1.905   2.296   7.119  0.9970  0.9131  0.6356
 4815SOL    HW225905   1.821   2.382   7.026  0.0072  0.8581  0.9445
 4816SOL     OW25906   2.170   2.067   4.759 -0.0088  0.2392 -0.0040
 4816SOL    HW125907   2.090   2.112   4.789  0.1327 -0.3236  1.1999
 4816SOL    HW225908   2.157   1.974   4.778  1.1380  0.2600  0.8133
 4817SOL     OW25909   4.040   4.671   2.723  0.4615  0.4225  0.4443
 4817SOL    HW125910   3.960   4.648   2.770 -0.1466  2.6067  0.4790
 4817SOL    HW225911   4.077   4.588   2.691  2.2557  1.3636  0.0760
 4818SOL     OW25912   3.048   4.164   6.736  0.0144  0.0294  0.2647
 4818SOL    HW125913   3.036   4.116   6.818 -0.2804  1.2400  0.9317
 4818SOL    HW225914   3.032   4.248   6.779  0.8577  1.7661 -2.8168
 4819SOL     OW25915   1.703   0.234  11.754 -0.1236  0.7046  0.1337
 4819SOL    HW125916   1.665   0.148  11.736  0.0398  0.2550  1.9399
 4819SOL    HW225917   1.784   0.214  11.802  1.1579  0.2528 -2.1806
 4820SOL     OW25918   4.442   1.443   2.790 -0.4045  0.2753 -0.2941
 4820SOL    HW125919   4.495   1.517   2.759  0.0734 -0.2692 -0.7637
 4820SOL    HW225920   4.377   1.491   2.840  1.1792  1.1866  0.8829
 4821SOL     OW25921   0.733   3.560  13.070 -0.2232  0.1226  0.4691
 4821SOL    HW125922   0.820   3.524  13.052 -0.5365 -0.4993  0.2013
 4821SOL    HW225923   0.723   3.575  13.164 -1.3083  2.2126  0.0147
 4822SOL     OW25924   2.203   3.021   4.403  0.1524 -0.0800 -0.3922
 4822SOL    HW125925   2.113   2.998   4.426 -0.0627  2.5846  1.4257
 4822SOL    HW225926   2.231   3.070   4.480  1.7511 -1.2846 -0.2055
 4823SOL     OW25927   3.875   0.942   2.984 -0.4018  0.3254  0.2348
 4823SOL    HW125928   3.838   1.029   2.996  1.8627  1.3845 -0.5263
 4823SOL    HW225929   3.924   0.924   3.065 -0.3863  0.4346  0.2505
 4824SOL     OW25930   1.085   0.848   6.806 -0.2115 -0.3360  0.3123
 4824SOL    HW125931   1.014   0.838   6.870  1.2252 -0.4660  1.8883
 4824SOL    HW225932   1.087   0.940   6.780 -0.4140 -0.0175  1.4103
 4825SOL     OW25933   0.550   2.422   0.120 -0.0601 -0.0478  0.0635
 4825SOL    HW125934   0.637   2.425   0.079 -1.2740  1.3698 -2.3796
 4825SOL    HW225935   0.549   2.330   0.147 -2.3745 -0.2961 -0.9198
 4826SOL     OW25936   0.665   0.580   0.944  0.1166 -0.4069 -0.1295
 4826SOL    HW125937   0.728   0.590   0.873 -1.6087  1.7873 -1.3460
 4826SOL    HW225938   0.728   0.600   1.013  1.3504  0.3411 -1.4658
 4827SOL     OW25939   0.996   2.002   4.300 -0.2617  0.4806 -0.5665
 4827SOL    HW125940   0.909   2.025   4.333 -0.6204  0.8063 -1.7244
 4827SOL    HW225941   1.050   2.018   4.377  0.6634 -3.1188 -0.4906
 4828SOL     OW25942   2.278   1.678   4.223  0.1074 -0.0553  0.5430
 4828SOL    HW125943   2.194   1.679   4.268  0.1528  2.8974  0.5805
 4828SOL    HW225944   2.255   1.638   4.140  0.4039 -0.6167  0.7308
 4829SOL     OW25945   4.555   2.448   9.865 -0.3447  0.3204 -0.1936
 4829SOL    HW125946   4.598   2.503   9.800  0.6549 -0.9175 -0.5982
 4829SOL    HW225947   4.481   2.409   9.819  0.9361  0.2156 -2.1673
 4830SOL     OW25948   1.871   0.332   4.264  0.0010  0.5051  0.4306
 4830SOL    HW125949   1.916   0.347   4.347 -0.7968  0.1108  0.9315
 4830SOL    HW225950   1.949   0.333   4.208  0.8080 -1.5843  1.4811
 4831SOL     OW25951   0.874   2.962  16.218  0.3484  0.0572  0.1124
 4831SOL    HW125952   0.821   2.936  16.294  2.2073 -0.1990  1.3153
 4831SOL    HW225953   0.843   2.889  16.165  1.9968 -0.7369  0.2454
 4832SOL     OW25954   4.424   3.979   7.275  0.1309 -0.0399 -0.0468
 4832SOL    HW125955   4.451   3.911   7.213 -0.6648 -0.2643 -0.1509
 4832SOL    HW225956   4.420   4.055   7.217 -1.8766 -0.5943 -0.6458
 4833SOL     OW25957   0.064   2.886   9.403  0.2820 -0.0502 -0.0633
 4833SOL    HW125958   0.142   2.937   9.381  0.2132 -0.0826 -0.3871
 4833SOL    HW225959   0.019   2.956   9.450  0.9179  0.4574 -0.2241
 4834SOL     OW25960   1.296   3.412   2.237 -0.4137 -0.2705  1.0443
 4834SOL    HW125961   1.208   3.446   2.228  0.1261  0.7194 -0.3802
 4834SOL    HW225962   1.332   3.440   2.153  0.6728 -2.3924  0.7991
 4835SOL     OW25963   1.242   0.188  12.487  0.2569 -0.4458  0.5020
 4835SOL    HW125964   1.210   0.098  12.479  0.0027 -0.3004 -0.1623
 4835SOL    HW225965   1.307   0.202  12.418 -0.1340 -1.0156  0.0173
 4836SOL     OW25966   3.227   3.177   7.624  0.2499 -0.1348  0.0741
 4836SOL    HW125967   3.268   3.091   7.633  2.8511  1.3026  1.8722
 4836SOL    HW225968   3.286   3.229   7.679  1.1781 -0.4315 -0.6459
 4837SOL     OW25969   1.408   2.909   7.943 -0.1812  0.1971  0.6566
 4837SOL    HW125970   1.495   2.910   7.903  0.2219 -0.0428  1.5285
 4837SOL    HW225971   1.433   2.909   8.036 -2.0470 -1.2614  1.1664
 4838SOL     OW25972   4.423   0.805  16.213 -0.0976  0.2146 -0.0059
 4838SOL    HW125973   4.417   0.888  16.260  0.8547 -1.5955  3.2297
 4838SOL    HW225974   4.515   0.783  16.221 -0.4776 -0.5488  2.0619
 4839SOL     OW25975   4.407   3.550   5.758  0.0531 -0.3512  0.2691
 4839SOL    HW125976   4.464   3.526   5.831 -0.4662 -1.1681  0.4146
 4839SOL    HW225977   4.325   3.509   5.786  1.1604 -2.3003  0.6670
 4840SOL     OW25978   2.091   1.274   9.234 -0.3645 -0.0542 -0.1191
 4840SOL    HW125979   2.157   1.269   9.303  0.0046  2.7364 -0.2432
 4840SOL    HW225980   2.079   1.369   9.227 -2.7677 -0.3393  0.4315
 4841SOL     OW25981   3.823   1.837   7.568  0.0806  0.1852  0.1732
 4841SOL    HW125982   3.852   1.749   7.590 -2.9563 -0.6681  0.6472
 4841SOL    HW225983   3.735   1.842   7.604 -0.0002  3.2176 -0.3671
 4842SOL     OW25984   2.907   0.586  12.550  0.1015  0.0981  0.0777
 4842SOL    HW125985   2.969   0.527  12.507 -1.8113 -0.3605 -2.0308
 4842SOL    HW225986   2.967   0.640  12.602 -0.1916  0.0375  0.4811
 4843SOL     OW25987   2.214   0.957   7.113 -0.2348  0.2781 -0.2894
 4843SOL    HW125988   2.244   1.027   7.170 -1.0562 -0.7225  1.3548
 4843SOL    HW225989   2.291   0.901   7.098 -0.4460  0.2369 -1.2135
 4844SOL     OW25990   1.711   4.111   1.583  0.3691  0.0269 -0.5187
 4844SOL    HW125991   1.635   4.051   1.582  2.1276 -2.1861 -2.4333
 4844SOL    HW225992   1.669   4.176   1.639 -0.3772 -0.8464 -0.0552
 4845SOL     OW25993   2.463   0.909   5.244 -0.1721 -0.3036  0.3760
 4845SOL    HW125994   2.488   0.851   5.316  0.8935 -0.1022  0.1815
 4845SOL    HW225995   2.497   0.861   5.168 -0.1694  1.5075 -0.7637
 4846SOL     OW25996   0.922   2.251   5.734  0.2994 -0.3412 -0.4521
 4846SOL    HW125997   0.958   2.317   5.676  1.8086 -0.8376 -0.0687
 4846SOL    HW225998   0.925   2.171   5.681  0.8388 -0.4537 -0.2469
 4847SOL     OW25999   3.390   2.965   8.658 -0.0148 -0.8399  0.6442
 4847SOL    HW126000   3.439   2.886   8.637  1.2030 -0.0011  0.3385
 4847SOL    HW226001   3.428   3.024   8.593 -0.6124  0.0602  1.1156
 4848SOL     OW26002   4.059   3.513   8.025  0.0414 -0.1883 -0.7663
 4848SOL    HW126003   4.112   3.509   8.105 -0.7168 -0.7394 -0.2922
 4848SOL    HW226004   4.109   3.467   7.958  0.9011  0.8477 -0.8413
 4849SOL     OW26005   0.154   2.278  12.061  0.2578  0.0559 -0.3660
 4849SOL    HW126006   0.121   2.264  12.149  1.5143 -0.8244 -0.0330
 4849SOL    HW226007   0.080   2.323  12.022 -0.9970  0.8115  2.9053
 4850SOL     OW26008   4.414   0.865   2.208  0.2805 -0.1340 -0.7678
 4850SOL    HW126009   4.408   0.946   2.258  0.9643 -0.3519 -0.3197
 4850SOL    HW226010   4.368   0.894   2.130  0.7537 -3.7739 -2.4168
 4851SOL     OW26011   2.393   2.746   0.087 -0.3398  0.1568 -0.3703
 4851SOL    HW126012   2.397   2.679   0.155  0.1554  1.7158  1.1387
 4851SOL    HW226013   2.372   2.820   0.144  1.0278 -0.6697  1.2031
 4852SOL     OW26014   1.878   3.382  14.829  0.0980  0.4197  0.4143
 4852SOL    HW126015   1.955   3.358  14.778  0.1373 -0.5159  0.9022
 4852SOL    HW226016   1.854   3.308  14.886 -2.8864 -0.3760 -1.8855
 4853SOL     OW26017   2.413   4.048  10.109  0.1370  0.2708  0.0731
 4853SOL    HW126018   2.374   4.134  10.125 -2.6315 -0.5442 -2.2180
 4853SOL    HW226019   2.344   4.012  10.052  2.0818 -1.2294 -1.3154
 4854SOL     OW26020   2.441   3.433   5.424 -0.1825  0.2242  0.3170
 4854SOL    HW126021   2.493   3.371   5.373  2.3647  2.2957  0.3659
 4854SOL    HW226022   2.459   3.511   5.372  1.0224  0.1658  0.6463
 4855SOL     OW26023   2.541   1.057   4.194  0.1606  0.2622  0.1644
 4855SOL    HW126024   2.556   1.041   4.287 -3.6466  3.3072  1.3145
 4855SOL    HW226025   2.465   1.000   4.183 -1.2526  2.3244 -0.8190
 4856SOL     OW26026   0.668   0.394  16.930  0.8775 -0.0192 -0.8859
 4856SOL    HW126027   0.669   0.448  16.851 -2.6612  1.7448  0.2809
 4856SOL    HW226028   0.577   0.365  16.928  1.2223 -1.0714 -1.2434
 4857SOL     OW26029   4.282   0.959  15.210  0.4928  0.0897  0.1687
 4857SOL    HW126030   4.201   0.913  15.188 -0.6291  1.1114  2.1609
 4857SOL    HW226031   4.343   0.894  15.245 -0.0525  0.2691  1.4229
 4858SOL     OW26032   3.303   1.378   2.797 -1.0379  0.3646  0.3558
 4858SOL    HW126033   3.365   1.438   2.839 -0.9608  0.0104  0.7463
 4858SOL    HW226034   3.240   1.365   2.867 -0.7366 -1.3118  0.3180
 4859SOL     OW26035   1.159   0.753  13.498  0.2761 -0.0281  0.0727
 4859SOL    HW126036   1.166   0.776  13.591 -2.3929 -1.2433  0.5835
 4859SOL    HW226037   1.176   0.659  13.492 -0.7761 -0.1504 -1.0075
 4860SOL     OW26038   4.716   0.862   2.265 -0.1028  0.3310 -0.3824
 4860SOL    HW126039   0.039   0.939   2.230  0.4510 -0.3294 -1.1154
 4860SOL    HW226040   4.625   0.892   2.259 -0.2405 -0.1019 -0.4073
 4861SOL     OW26041   1.603   2.018   4.728 -0.0824 -0.0858  0.4099
 4861SOL    HW126042   1.691   1.982   4.737 -0.5744 -1.4066  0.0252
 4861SOL    HW226043   1.556   1.956   4.785 -0.1916 -0.6928 -0.3406
 4862SOL     OW26044   0.161   2.800  12.481 -0.3977  0.0988  0.8086
 4862SOL    HW126045   0.168   2.892  12.455  2.6238 -0.4025 -0.0730
 4862SOL    HW226046   0.069   2.779  12.462 -0.0087 -0.5761 -0.3031
 4863SOL     OW26047   1.952   3.241   1.517 -0.0129 -0.0308  0.0808
 4863SOL    HW126048   1.981   3.159   1.557 -0.9866  0.4898  1.8878
 4863SOL    HW226049   1.872   3.212   1.475 -0.0048  1.4555 -0.9734
 4864SOL     OW26050   3.663   3.904  13.345 -0.0445 -0.0851 -0.2153
 4864SOL    HW126051   3.616   3.845  13.404  1.6936 -1.5515 -0.2875
 4864SOL    HW226052   3.589   3.943  13.298 -0.6464  0.0006  0.8211
 4865SOL     OW26053   0.765   0.165   1.017  0.2277 -0.4082 -0.1718
 4865SOL    HW126054   0.749   0.226   0.944 -1.9121 -0.5575  0.1652
 4865SOL    HW226055   0.695   0.101   1.002 -0.0315  0.8497 -4.5473
 4866SOL     OW26056   4.414   1.051   4.573 -0.1625 -0.6548  0.4616
 4866SOL    HW126057   4.335   0.999   4.582 -1.3020  1.0866  0.6170
 4866SOL    HW226058   4.448   1.015   4.491  1.9144 -0.0830  1.0642
 4867SOL     OW26059   2.650   1.402  14.906 -0.4626  0.5167 -0.8022
 4867SOL    HW126060   2.718   1.377  14.969 -0.7753  1.6405 -0.0258
 4867SOL    HW226061   2.678   1.350  14.830  0.5496 -0.4091  0.2100
 4868SOL     OW26062   3.462   2.399   3.586 -0.1495 -0.2864  0.1804
 4868SOL    HW126063   3.390   2.349   3.547  0.0166  1.0406 -1.8563
 4868SOL    HW226064   3.498   2.328   3.639 -1.2829 -1.4077 -0.5408
 4869SOL     OW26065   1.578   2.911   3.277  0.0708 -0.0888  0.5349
 4869SOL    HW126066   1.671   2.890   3.272 -0.3287 -1.6240 -0.4183
 4869SOL    HW226067   1.531   2.830   3.261 -2.3557  1.2210  1.0082
 4870SOL     OW26068   3.120   4.010   0.502 -0.3932  0.3916 -0.1266
 4870SOL    HW126069   3.203   4.049   0.529 -0.4365  2.1110 -2.4073
 4870SOL    HW226070   3.087   4.080   0.446 -1.6840 -0.2174 -0.1338
 4871SOL     OW26071   4.527   3.580   4.591  0.1556 -0.1836 -0.6427
 4871SOL    HW126072   4.594   3.646   4.607  0.3130 -1.0815  2.4898
 4871SOL    HW226073   4.444   3.627   4.600 -0.1724 -1.2786  2.0176
 4872SOL     OW26074   1.008   4.606   8.214 -0.3001  0.6169  0.2807
 4872SOL    HW126075   1.025   4.682   8.269  0.2503  0.8013 -0.1413
 4872SOL    HW226076   1.093   4.595   8.171  0.3930  0.5498  1.6658
 4873SOL     OW26077   1.835   3.621   5.443  0.1668  0.4077 -0.3220
 4873SOL    HW126078   1.855   3.713   5.427  1.6825  0.1028 -0.1312
 4873SOL    HW226079   1.920   3.602   5.483  0.7237  1.2288 -1.1319
 4874SOL     OW26080   0.861   2.319   8.377 -0.2500  0.0562 -0.6151
 4874SOL    HW126081   0.950   2.293   8.356 -0.3809 -0.5016 -0.4845
 4874SOL    HW226082   0.880   2.366   8.458  0.9578  0.4307 -1.1250
 4875SOL     OW26083   1.441   2.555  11.844  0.5925  0.7469  0.0704
 4875SOL    HW126084   1.390   2.635  11.848 -1.4345 -0.7189  4.3604
 4875SOL    HW226085   1.491   2.573  11.924 -0.1582  1.0049  0.4797
 4876SOL     OW26086   0.134   0.710   7.023 -0.3949  0.0867 -0.5622
 4876SOL    HW126087   0.124   0.779   7.089  0.5102 -0.0325 -0.2996
 4876SOL    HW226088   0.086   0.749   6.950  0.7119  2.3897 -0.0700
 4877SOL     OW26089   0.088   0.502  12.196  0.5055  0.1964 -0.8038
 4877SOL    HW126090   0.152   0.442  12.233 -0.8911 -1.0584 -0.4260
 4877SOL    HW226091   0.054   0.458  12.118 -0.2146 -1.0933  0.2524
 4878SOL     OW26092   1.378   1.009   1.373  0.4817  0.6398  0.2163
 4878SOL    HW126093   1.384   0.951   1.297  0.8765 -1.5401  1.9177
 4878SOL    HW226094   1.428   1.086   1.345 -0.3517  1.4560  0.9872
 4879SOL     OW26095   4.682   2.267  11.529  0.3350 -0.3504  0.0446
 4879SOL    HW126096   0.011   2.234  11.603 -3.0901  0.1505  2.6133
 4879SOL    HW226097   4.693   2.195  11.466 -1.5850 -0.4207 -0.2305
 4880SOL     OW26098   0.072   2.513   7.123  0.9650 -0.2352  0.0125
 4880SOL    HW126099   0.162   2.493   7.148  1.3725 -0.9423 -1.9935
 4880SOL    HW226100   0.080   2.603   7.091 -1.5580 -0.4089 -1.1263
 4881SOL     OW26101   1.053   3.174  16.214 -0.2247 -0.2176  0.1968
 4881SOL    HW126102   0.987   3.107  16.195 -1.2767  1.2625 -1.3722
 4881SOL    HW226103   1.082   3.145  16.301  0.3973 -3.1129 -0.9683
 4882SOL     OW26104   3.335   0.887   0.813 -0.0342  0.3311 -0.1854
 4882SOL    HW126105   3.396   0.866   0.883 -0.7254  3.4223  1.3293
 4882SOL    HW226106   3.249   0.864   0.849  0.5155  1.0251  1.5691
 4883SOL     OW26107   2.340   0.808   4.142  0.4553  0.3630  0.1490
 4883SOL    HW126108   2.294   0.851   4.214 -0.0538  0.4217 -0.2104
 4883SOL    HW226109   2.324   0.718   4.169  1.1943  0.5401  1.1822
 4884SOL     OW26110   0.919   1.219   2.684 -0.2228 -0.0275  0.0529
 4884SOL    HW126111   0.851   1.228   2.617 -0.8019 -1.3728  0.4538
 4884SOL    HW226112   0.973   1.151   2.644  2.5187  0.0806  3.5020
 4885SOL     OW26113   0.996   2.609   8.088  0.7271  0.4087 -0.6159
 4885SOL    HW126114   0.959   2.528   8.123  0.5329  1.0296  0.6146
 4885SOL    HW226115   1.084   2.612   8.126  1.3893  1.6853 -2.2607
 4886SOL     OW26116   4.368   1.138   7.654 -0.2850  0.1572 -0.1462
 4886SOL    HW126117   4.391   1.190   7.731 -1.5864  1.5565 -0.7075
 4886SOL    HW226118   4.310   1.209   7.626 -0.0931  0.2588 -0.2888
 4887SOL     OW26119   3.049   3.138   6.324  0.3243  0.2366 -0.1497
 4887SOL    HW126120   3.104   3.179   6.257  1.4586 -0.9112  0.0867
 4887SOL    HW226121   2.976   3.106   6.272  1.3777 -0.2090 -1.3498
 4888SOL     OW26122   4.037   0.418   7.565 -0.1537  0.3690  0.2933
 4888SOL    HW126123   4.113   0.456   7.521  0.9165 -1.2473  0.7498
 4888SOL    HW226124   3.968   0.412   7.499 -0.0206 -0.6501  0.2530
 4889SOL     OW26125   0.957   1.043   8.568  0.4575 -0.3293 -0.5306
 4889SOL    HW126126   0.912   1.125   8.588 -0.5692 -1.3068  1.0849
 4889SOL    HW226127   1.015   1.031   8.643  0.2011  2.6149  0.1520
 4890SOL     OW26128   3.289   2.863   7.154 -0.5977 -0.2046  0.4218
 4890SOL    HW126129   3.313   2.828   7.240  0.7915  2.5168  1.1373
 4890SOL    HW226130   3.364   2.827   7.107 -0.6205 -0.3560  0.5009
 4891SOL     OW26131   3.055   1.307   4.105  0.2353  0.1194 -0.3329
 4891SOL    HW126132   3.072   1.396   4.135  0.1653 -0.2574  0.8130
 4891SOL    HW226133   2.962   1.301   4.125  0.3552 -0.3047  0.1103
 4892SOL     OW26134   1.408   4.121   9.981  0.1923  0.2273  0.2139
 4892SOL    HW126135   1.497   4.134  10.014  0.7161 -1.5198 -0.5188
 4892SOL    HW226136   1.433   4.067   9.905 -2.1346 -0.3382 -0.1671
 4893SOL     OW26137   4.621   3.194   8.726  0.4723 -0.3994  0.3222
 4893SOL    HW126138   4.554   3.125   8.731 -0.4620  0.5261  0.4785
 4893SOL    HW226139   4.699   3.162   8.771  0.5673 -0.3608  0.1867
 4894SOL     OW26140   2.917   4.123   7.318  0.0150  0.0275  0.0445
 4894SOL    HW126141   2.852   4.080   7.261  3.0093  0.7952 -3.9827
 4894SOL    HW226142   2.963   4.042   7.341  3.1716  1.3511 -1.5710
 4895SOL     OW26143   0.151   4.365   0.142  0.4808  0.2765  0.3274
 4895SOL    HW126144   0.113   4.451   0.159 -0.0542  0.3397 -1.1925
 4895SOL    HW226145   0.239   4.392   0.116  1.1408 -1.2114  1.0062
 4896SOL     OW26146   2.519   4.586   7.678 -0.0599 -0.1402 -0.1658
 4896SOL    HW126147   2.547   4.509   7.628 -1.5210 -1.2932  0.7905
 4896SOL    HW226148   2.452   4.619   7.618 -3.3112 -3.0303  1.9092
 4897SOL     OW26149   1.401   1.678  11.698 -0.9989  0.7225 -0.5048
 4897SOL    HW126150   1.311   1.677  11.666 -1.0121 -3.0006 -0.3470
 4897SOL    HW226151   1.439   1.600  11.657  2.9079  1.6790  1.3162
 4898SOL     OW26152   3.129   0.710   4.234 -0.2353  0.2885  0.1133
 4898SOL    HW126153   3.222   0.699   4.249 -0.1822  1.2913  0.4831
 4898SOL    HW226154   3.109   0.723   4.327 -1.1066 -1.3307  0.1640
 4899SOL     OW26155   4.623   3.016   9.793 -0.4363 -0.2649 -0.2074
 4899SOL    HW126156   4.696   2.956   9.776  0.7610  0.9891  0.4813
 4899SOL    HW226157   4.588   2.965   9.866  2.5133 -1.9736  0.0164
 4900SOL     OW26158   2.837   2.804   3.293 -0.4728 -0.7208  0.4088
 4900SOL    HW126159   2.791   2.765   3.219 -1.3701  0.5871  0.2711
 4900SOL    HW226160   2.913   2.846   3.252  0.5503 -2.6792  0.2994
 4901SOL     OW26161   3.444   1.728   4.169  0.0523 -0.6829  0.1108
 4901SOL    HW126162   3.476   1.796   4.229 -1.3939  1.1592 -1.2254
 4901SOL    HW226163   3.506   1.656   4.178  1.2389  0.2248 -0.8863
 4902SOL     OW26164   2.823   0.840  16.767  0.2702 -0.3102 -0.0350
 4902SOL    HW126165   2.853   0.927  16.741 -1.9852  0.1779 -1.0171
 4902SOL    HW226166   2.796   0.853  16.858  0.2530 -0.5133 -0.0113
 4903SOL     OW26167   3.168   4.642  12.407 -0.5235 -0.1357 -0.5056
 4903SOL    HW126168   3.259   4.635  12.380 -0.6334 -1.2109 -0.6012
 4903SOL    HW226169   3.174   4.609  12.496 -2.2972 -1.8766 -1.0288
 4904SOL     OW26170   4.162   2.095   7.202  0.5271  0.3163  0.5907
 4904SOL    HW126171   4.248   2.087   7.245  0.9815  0.9370 -0.2058
 4904SOL    HW226172   4.102   2.124   7.271  1.8768  0.6643  1.6209
 4905SOL     OW26173   4.343   3.462  12.627 -0.1815 -0.1009  1.2814
 4905SOL    HW126174   4.262   3.501  12.595  1.1204 -0.0498 -1.9388
 4905SOL    HW226175   4.329   3.367  12.628 -2.0953  0.1694  1.0177
 4906SOL     OW26176   1.489   3.501   5.826 -0.2097 -0.1170  0.0015
 4906SOL    HW126177   1.529   3.422   5.861 -1.4972 -1.0902 -0.7275
 4906SOL    HW226178   1.556   3.546   5.775 -1.4255  1.1098 -0.5261
 4907SOL     OW26179   0.249   4.603   6.299 -0.2977  0.0270 -0.1091
 4907SOL    HW126180   0.190   4.630   6.228  0.1161  1.3094  0.0372
 4907SOL    HW226181   0.192   4.546   6.350  0.3880  1.6226  2.4250
 4908SOL     OW26182   3.254   3.688  14.850 -0.2556 -0.1879  0.9877
 4908SOL    HW126183   3.177   3.635  14.869  0.9519 -2.6026 -0.9613
 4908SOL    HW226184   3.235   3.770  14.896  1.2333  0.2243  0.8742
 4909SOL     OW26185   1.169   0.485  13.371  0.2515 -0.1034  0.1671
 4909SOL    HW126186   1.157   0.531  13.287 -1.1147 -0.1389  0.3435
 4909SOL    HW226187   1.153   0.396  13.338 -1.5603  0.7496 -1.2872
 4910SOL     OW26188   3.643   3.854   3.167  0.7156 -0.1212  0.2310
 4910SOL    HW126189   3.636   3.948   3.155  1.7307 -0.1989 -0.9363
 4910SOL    HW226190   3.738   3.840   3.161  0.5198 -0.3867 -2.3394
 4911SOL     OW26191   3.609   0.514   5.473  0.5969 -1.1651  0.1456
 4911SOL    HW126192   3.671   0.580   5.440  0.3235 -0.4546  1.0567
 4911SOL    HW226193   3.582   0.467   5.394  1.9381  0.6798 -1.4078
 4912SOL     OW26194   1.059   1.097   8.298 -0.1423 -0.1151  0.2200
 4912SOL    HW126195   1.123   1.053   8.355 -1.3487  0.7987  2.2933
 4912SOL    HW226196   0.984   1.085   8.356  1.2483 -4.1383  1.2055
 4913SOL     OW26197   2.244   1.806   5.366 -0.3339  0.5350 -0.1292
 4913SOL    HW126198   2.195   1.752   5.428 -1.9976 -0.2425 -2.1084
 4913SOL    HW226199   2.247   1.890   5.411  0.4776 -0.1073  1.0168
 4914SOL     OW26200   3.762   1.744   6.627 -0.2914 -0.0650  0.0999
 4914SOL    HW126201   3.827   1.709   6.566  0.5804 -0.1826  1.0746
 4914SOL    HW226202   3.729   1.660   6.656 -1.5361  0.8350  1.2761
 4915SOL     OW26203   0.731   4.147   1.472  0.5682  0.2667  0.1504
 4915SOL    HW126204   0.687   4.111   1.394  1.9512  1.2059 -1.0551
 4915SOL    HW226205   0.769   4.065   1.505 -0.4545  1.0360  3.2495
 4916SOL     OW26206   4.544   1.666   4.200  0.1201 -0.1787 -0.4215
 4916SOL    HW126207   4.550   1.606   4.126 -0.3970  0.1611 -0.7429
 4916SOL    HW226208   4.621   1.651   4.253 -2.4007 -1.2842  2.9354
 4917SOL     OW26209   1.351   3.784   3.800 -0.0998  0.5418 -0.2216
 4917SOL    HW126210   1.368   3.762   3.708 -0.1192 -0.6751  0.0663
 4917SOL    HW226211   1.322   3.873   3.781 -0.0155  0.6985  0.4019
 4918SOL     OW26212   0.408   4.487   3.413 -0.0609  0.1124 -0.1276
 4918SOL    HW126213   0.407   4.442   3.329 -3.6698  0.0774 -0.0880
 4918SOL    HW226214   0.475   4.551   3.390  1.7488 -1.3519  1.1142
 4919SOL     OW26215   2.803   1.384   6.873 -0.4071 -0.3186  0.1267
 4919SOL    HW126216   2.856   1.463   6.865 -0.7634 -0.2237 -1.3580
 4919SOL    HW226217   2.727   1.413   6.823  0.2599  1.2233  0.0051
 4920SOL     OW26218   3.464   1.081   3.101  0.2520 -0.4821 -0.0485
 4920SOL    HW126219   3.492   1.154   3.157 -2.0760  0.4630 -0.1265
 4920SOL    HW226220   3.423   1.033   3.173  1.5947  0.2603  1.2150
 4921SOL     OW26221   4.071   3.377  15.020 -0.4433  0.1739 -0.3444
 4921SOL    HW126222   4.085   3.471  15.034  2.5866 -0.2841 -0.1117
 4921SOL    HW226223   4.158   3.356  15.055 -0.4423  0.2301 -0.3131
 4922SOL     OW26224   2.373   0.158  13.076  0.3058  0.7690  0.1038
 4922SOL    HW126225   2.456   0.134  13.117  1.1835  3.0922 -0.2653
 4922SOL    HW226226   2.310   0.123  13.137  0.9888 -0.5131  0.0742
 4923SOL     OW26227   0.599   2.676   4.323  0.1947 -0.0066  0.3157
 4923SOL    HW126228   0.553   2.598   4.292  2.3184 -1.5528  1.0134
 4923SOL    HW226229   0.533   2.720   4.376  0.2224 -1.6808  1.7407
 4924SOL     OW26230   4.358   1.261   5.129 -0.3359 -0.0605  0.4553
 4924SOL    HW126231   4.443   1.271   5.086 -0.2871  0.4037  0.6609
 4924SOL    HW226232   4.375   1.196   5.197 -0.7597 -0.0950  0.5286
 4925SOL     OW26233   2.841   0.564   4.999  1.1079  0.2649 -0.9050
 4925SOL    HW126234   2.826   0.470   5.008 -0.1521  0.4848 -0.7977
 4925SOL    HW226235   2.816   0.579   4.907 -1.0481 -2.6120 -0.7806
 4926SOL     OW26236   2.397   0.122   9.657  0.9811  0.3803  0.2457
 4926SOL    HW126237   2.451   0.090   9.585  1.8171 -0.8169  1.4159
 4926SOL    HW226238   2.361   0.206   9.627 -1.1230 -0.0761  1.5103
 4927SOL     OW26239   4.290   2.318  14.436  0.6195  0.0615  0.1226
 4927SOL    HW126240   4.281   2.384  14.505 -2.7014 -2.3546  2.0041
 4927SOL    HW226241   4.203   2.282  14.416  0.9692 -0.1991 -0.9440
 4928SOL     OW26242   2.661   4.694   2.196 -0.0032  0.3058 -0.4323
 4928SOL    HW126243   2.657   4.609   2.241  1.7047  0.5483  0.1505
 4928SOL    HW226244   2.596   4.675   2.128 -0.4415 -0.2767  0.1459
 4929SOL     OW26245   3.157   4.369   7.873  0.5641 -0.7796 -0.0155
 4929SOL    HW126246   3.251   4.383   7.868  0.7891 -1.7031  2.0148
 4929SOL    HW226247   3.147   4.364   7.968  0.1684  1.1948  0.0399
 4930SOL     OW26248   4.204   4.044   4.427 -0.7468  0.1249 -0.4995
 4930SOL    HW126249   4.157   3.982   4.371  0.4519 -0.6729 -0.6181
 4930SOL    HW226250   4.177   4.121   4.378  3.3764 -0.2642 -3.3339
 4931SOL     OW26251   3.127   1.400   5.507  1.0576  0.4999 -1.2550
 4931SOL    HW126252   3.137   1.452   5.586 -2.4430 -4.1831  2.2457
 4931SOL    HW226253   3.210   1.353   5.503  0.9864  0.3196 -0.4737
 4932SOL     OW26254   0.581   0.247  10.892 -0.1505  0.0809 -0.1800
 4932SOL    HW126255   0.575   0.151  10.886  1.5694  0.0517 -1.3783
 4932SOL    HW226256   0.510   0.264  10.954  1.2097  0.0394  1.3884
 4933SOL     OW26257   2.955   4.393   7.154 -0.4171  0.1364  0.1924
 4933SOL    HW126258   3.011   4.423   7.226  0.4298 -0.6749 -0.1167
 4933SOL    HW226259   2.944   4.301   7.180  0.7151 -0.7801 -2.5762
 4934SOL     OW26260   2.880   2.375   7.836 -0.7242  0.1179  0.5109
 4934SOL    HW126261   2.839   2.409   7.916  0.6201  1.8238  0.4685
 4934SOL    HW226262   2.828   2.297   7.819 -1.1238  0.2876  0.9413
 4935SOL     OW26263   1.198   1.564   3.821 -0.1413 -0.5848 -0.2103
 4935SOL    HW126264   1.204   1.617   3.741  1.5460 -1.6347 -0.7811
 4935SOL    HW226265   1.121   1.607   3.857 -1.1201 -1.5034 -1.1850
 4936SOL     OW26266   0.486   2.284  15.646 -0.3542 -0.0238  0.0880
 4936SOL    HW126267   0.467   2.193  15.625 -0.7331 -0.1339  0.8978
 4936SOL    HW226268   0.431   2.334  15.586 -0.5462  0.5043  0.7077
 4937SOL     OW26269   0.064   1.732   4.590 -0.1485  0.3998  0.0134
 4937SOL    HW126270   4.692   1.715   4.594  0.2873 -1.7078  1.3928
 4937SOL    HW226271   0.060   1.819   4.629  1.8323  0.5307 -0.0776
 4938SOL     OW26272   3.859   3.658  15.240  0.7383 -0.9950  0.6538
 4938SOL    HW126273   3.879   3.692  15.153 -4.2922 -1.2515 -0.5842
 4938SOL    HW226274   3.803   3.581  15.230  1.4775 -1.2195 -1.8567
 4939SOL     OW26275   1.667   4.227   3.030  0.6286 -0.2000 -0.5716
 4939SOL    HW126276   1.599   4.222   2.962 -1.6380 -1.1129  1.7744
 4939SOL    HW226277   1.739   4.244   2.968  1.2676 -0.0773  0.2057
 4940SOL     OW26278   1.154   3.718   4.551  0.6110  0.0057 -0.2815
 4940SOL    HW126279   1.211   3.668   4.609  0.2532  1.6563  1.4864
 4940SOL    HW226280   1.148   3.659   4.476  0.6347 -0.3003 -0.0449
 4941SOL     OW26281   4.606   2.873   3.397 -0.0752  0.2848 -0.0873
 4941SOL    HW126282   4.553   2.918   3.463 -0.6501  1.9003 -1.6628
 4941SOL    HW226283   4.558   2.900   3.319 -1.9503  1.4467  1.4584
 4942SOL     OW26284   1.708   3.495  16.897  0.6217 -0.3092  0.2134
 4942SOL    HW126285   1.702   3.589  16.878  0.9470 -0.4893 -0.7652
 4942SOL    HW226286   1.763   3.469  16.823 -0.2660 -0.8952 -0.2332
 4943SOL     OW26287   0.692   4.300   1.009 -0.5212  0.1155 -0.1388
 4943SOL    HW126288   0.671   4.322   0.919 -0.5970  1.0026  0.0967
 4943SOL    HW226289   0.666   4.209   1.001 -0.4842  0.1552 -0.7201
 4944SOL     OW26290   2.943   3.121  14.611  0.0358  0.3150 -0.0248
 4944SOL    HW126291   3.026   3.114  14.659  0.9629  5.9801 -0.7466
 4944SOL    HW226292   2.908   3.201  14.651 -2.2170 -0.0083 -1.3475
 4945SOL     OW26293   3.411   2.394   9.916 -0.1988 -0.1460  0.3292
 4945SOL    HW126294   3.489   2.350   9.884  0.2716  1.6552 -1.0029
 4945SOL    HW226295   3.371   2.421   9.833  1.2438  0.1656 -0.2505
 4946SOL     OW26296   2.263   1.538  16.190 -0.9934 -0.4631 -0.4891
 4946SOL    HW126297   2.324   1.464  16.196 -1.0159 -0.5263 -1.0168
 4946SOL    HW226298   2.224   1.515  16.105 -0.8797 -1.1184 -0.3679
 4947SOL     OW26299   1.972   1.207   4.404  0.0906  0.0894  0.3429
 4947SOL    HW126300   1.927   1.126   4.425  1.9598 -1.5404 -1.9638
 4947SOL    HW226301   2.043   1.161   4.359  0.9364 -0.4630  2.2869
 4948SOL     OW26302   3.365   0.404   5.667 -0.1161  0.1144  0.3627
 4948SOL    HW126303   3.279   0.367   5.647  1.6363 -2.5555 -2.0573
 4948SOL    HW226304   3.428   0.377   5.600  0.1741  0.2440  0.5827
 4949SOL     OW26305   3.771   3.153  14.466 -0.6750 -0.1725  0.0812
 4949SOL    HW126306   3.749   3.071  14.422  0.4443 -0.0980 -0.6061
 4949SOL    HW226307   3.689   3.203  14.471  0.0920  0.9851  0.9734
 4950SOL     OW26308   3.036   0.483   7.203  0.1040  0.7997  0.1141
 4950SOL    HW126309   3.105   0.470   7.268 -0.3234 -1.5971  0.1040
 4950SOL    HW226310   3.055   0.576   7.193 -0.3825  0.7695 -1.0976
 4951SOL     OW26311   0.224   0.376   1.084 -0.2743 -0.2153  0.2830
 4951SOL    HW126312   0.212   0.343   1.173  0.9047 -1.1142  0.1117
 4951SOL    HW226313   0.313   0.410   1.094 -0.6647  1.0718 -0.6778
 4952SOL     OW26314   2.816   4.467   6.468  0.3666 -0.6562  0.1407
 4952SOL    HW126315   2.909   4.481   6.454 -0.0720  2.5333  0.5383
 4952SOL    HW226316   2.809   4.408   6.543 -3.2221 -1.3078 -0.7122
 4953SOL     OW26317   2.357   1.665   7.257  0.1019  0.1893 -0.4582
 4953SOL    HW126318   2.373   1.574   7.281  1.9939  0.6088 -0.1026
 4953SOL    HW226319   2.444   1.705   7.264 -0.8045  1.5985  2.7075
 4954SOL     OW26320   0.845   2.540  12.118  0.0733  0.2190 -0.2244
 4954SOL    HW126321   0.791   2.504  12.047  0.1249 -0.4048  0.0480
 4954SOL    HW226322   0.868   2.627  12.086 -3.7671  0.3484 -2.6049
 4955SOL     OW26323   4.434   1.134  12.964  0.0466  0.1289 -0.0927
 4955SOL    HW126324   4.452   1.207  13.022 -1.1519  1.6926 -1.6970
 4955SOL    HW226325   4.407   1.073  13.033  3.9127 -1.9146 -0.3855
 4956SOL     OW26326   0.978   1.704   3.883 -0.4761 -0.0947  0.4675
 4956SOL    HW126327   0.980   1.784   3.936  0.6052  1.2716 -1.6456
 4956SOL    HW226328   0.887   1.677   3.898 -1.0789  0.9607 -1.3088
 4957SOL     OW26329   2.755   2.132  12.816 -0.1565 -0.2442 -0.4100
 4957SOL    HW126330   2.801   2.176  12.744  3.2386 -1.4844  0.9971
 4957SOL    HW226331   2.673   2.181  12.821  0.9966  1.5495  0.8364
 4958SOL     OW26332   3.924   2.928   5.293 -0.2936 -0.5035 -0.1578
 4958SOL    HW126333   4.002   2.917   5.348  0.2437  0.4132 -0.7363
 4958SOL    HW226334   3.905   3.021   5.307  1.3096  0.0886 -1.9010
 4959SOL     OW26335   3.614   4.170   8.370  0.4489  0.1222  0.7019
 4959SOL    HW126336   3.691   4.218   8.340 -0.0284  1.1651  1.1445
 4959SOL    HW226337   3.632   4.197   8.460  0.0320  1.7935  0.2721
 4960SOL     OW26338   1.248   0.145  11.150 -0.1482  0.2037  0.1560
 4960SOL    HW126339   1.325   0.201  11.163 -0.2521  1.2857 -3.9794
 4960SOL    HW226340   1.202   0.162  11.232  0.2714  0.7446  0.2807
 4961SOL     OW26341   2.067   2.636   9.279  0.3590 -0.0887  0.2141
 4961SOL    HW126342   2.014   2.715   9.287 -0.7869 -0.9078  0.7277
 4961SOL    HW226343   2.013   2.573   9.232 -0.5050  2.4603 -2.1884
 4962SOL     OW26344   3.282   4.268  11.872 -0.0434  0.0318 -0.2607
 4962SOL    HW126345   3.237   4.232  11.795 -2.0909 -0.1280  1.0163
 4962SOL    HW226346   3.208   4.292  11.927  0.0860  1.5622 -0.7549
 4963SOL     OW26347   0.538   2.289   8.236  0.5656 -0.8232  0.3333
 4963SOL    HW126348   0.556   2.242   8.155  2.3379 -2.2378  1.5371
 4963SOL    HW226349   0.502   2.212   8.280  0.1687  0.8626  2.9562
 4964SOL     OW26350   0.567   0.431  13.484 -0.8761 -0.4416  0.0926
 4964SOL    HW126351   0.607   0.388  13.408 -1.5883  0.1354 -0.6123
 4964SOL    HW226352   0.544   0.356  13.538 -3.0548  0.7613  0.8256
 4965SOL     OW26353   3.646   0.190   5.095  0.4467 -0.3648  0.2459
 4965SOL    HW126354   3.635   0.236   5.178 -0.4607 -1.7136  0.8572
 4965SOL    HW226355   3.569   0.134   5.095  0.2159 -0.0470  0.5434
 4966SOL     OW26356   2.878   3.815   2.379 -0.2329 -0.0135  0.0298
 4966SOL    HW126357   2.938   3.811   2.305 -2.8059  0.5883 -2.0884
 4966SOL    HW226358   2.920   3.757   2.441  3.3433  2.2319 -0.2902
 4967SOL     OW26359   1.286   0.260   8.449  0.1734 -0.2357  0.1623
 4967SOL    HW126360   1.285   0.177   8.401 -1.3025 -0.0240 -0.1609
 4967SOL    HW226361   1.283   0.322   8.377  1.1268 -0.9329 -0.4808
 4968SOL     OW26362   2.375   0.968  10.142  0.1214  0.5777  0.1038
 4968SOL    HW126363   2.421   1.040  10.100  0.8121 -1.1333 -2.0185
 4968SOL    HW226364   2.309   1.014  10.193 -0.3765  0.5126 -0.4822
 4969SOL     OW26365   3.214   3.367   2.827  0.3537 -0.4232 -0.0771
 4969SOL    HW126366   3.226   3.344   2.920  1.8340 -0.0710 -0.1749
 4969SOL    HW226367   3.255   3.453   2.816  0.6717 -0.7121 -1.1448
 4970SOL     OW26368   1.130   0.721  17.055  0.3703 -0.4661 -0.2425
 4970SOL    HW126369   1.127   0.626  17.057  0.7521 -0.4705  0.2162
 4970SOL    HW226370   1.037   0.731  17.034  0.6798 -2.2491 -2.3234
 4971SOL     OW26371   1.536   0.306   8.586 -0.3242  0.5297 -0.0651
 4971SOL    HW126372   1.457   0.330   8.536  0.6755  1.3253 -1.2575
 4971SOL    HW226373   1.600   0.326   8.517 -0.5126  0.4832 -0.2552
 4972SOL     OW26374   1.888   1.587   7.276  0.2785 -0.3483  0.0067
 4972SOL    HW126375   1.980   1.569   7.255 -0.4074 -3.1818 -0.5139
 4972SOL    HW226376   1.862   1.632   7.196 -1.4574 -1.0036  0.2104
 4973SOL     OW26377   0.814   1.927   6.717 -0.3220  0.1145  0.1570
 4973SOL    HW126378   0.798   1.834   6.736  1.2113 -0.3771 -0.9966
 4973SOL    HW226379   0.811   1.921   6.621 -1.8210  3.4037 -0.0061
 4974SOL     OW26380   3.718   1.245   6.469  0.1106 -0.1633  0.0609
 4974SOL    HW126381   3.748   1.283   6.552  0.5465 -1.7911  0.6491
 4974SOL    HW226382   3.780   1.177   6.441  0.3026  0.4734 -1.0603
 4975SOL     OW26383   2.911   4.423   8.105  0.0975  0.0086  0.0930
 4975SOL    HW126384   2.988   4.366   8.109 -1.1974 -1.6193  1.7896
 4975SOL    HW226385   2.837   4.365   8.087  0.7718 -0.2361 -1.8943
 4976SOL     OW26386   1.901   2.359   2.430  0.0042 -0.2730  0.2195
 4976SOL    HW126387   1.954   2.438   2.420  2.0821 -1.8163 -1.0980
 4976SOL    HW226388   1.891   2.335   2.338 -1.6321 -0.4695  0.4607
 4977SOL     OW26389   3.417   3.325  16.305  0.3222 -0.4804 -0.2855
 4977SOL    HW126390   3.413   3.237  16.342  0.6897 -0.7429 -0.8723
 4977SOL    HW226391   3.459   3.288  16.227  2.0347 -2.7398  1.6907
 4978SOL     OW26392   4.458   1.366   6.891 -0.6248  0.0519 -0.3355
 4978SOL    HW126393   4.544   1.355   6.849 -0.8824  0.0470 -0.8626
 4978SOL    HW226394   4.455   1.457   6.919 -0.9642  0.2879 -1.1385
 4979SOL     OW26395   0.523   1.903   6.363  0.3277  0.0665  0.3184
 4979SOL    HW126396   0.570   1.821   6.381 -0.8636 -0.7361 -0.3035
 4979SOL    HW226397   0.452   1.911   6.427  0.8181  1.8193  0.6428
 4980SOL     OW26398   2.491   1.090   4.858  0.3638  0.4856  0.0322
 4980SOL    HW126399   2.582   1.067   4.875  0.8335  2.3941  0.0165
 4980SOL    HW226400   2.516   1.178   4.833  1.5114 -0.0083 -0.5583
 4981SOL     OW26401   1.712   1.451  15.059  0.4511  0.5178 -0.2569
 4981SOL    HW126402   1.701   1.421  14.969 -0.9934 -1.6434  0.6356
 4981SOL    HW226403   1.636   1.500  15.088 -0.8275  0.1342 -2.9342
 4982SOL     OW26404   0.432   4.535  14.529 -0.4733  0.2330 -0.3458
 4982SOL    HW126405   0.426   4.473  14.602  1.4001  1.2893  0.6975
 4982SOL    HW226406   0.340   4.531  14.502 -0.3423  0.8339 -0.8652
 4983SOL     OW26407   1.210   3.569   7.038  0.1388  0.0526  0.0936
 4983SOL    HW126408   1.282   3.619   7.076 -1.5207  4.1672 -2.2026
 4983SOL    HW226409   1.216   3.587   6.945  1.4585  1.5018  0.4686
 4984SOL     OW26410   2.697   3.722   6.478 -0.4820 -0.0997  0.4645
 4984SOL    HW126411   2.695   3.628   6.492  0.4251 -0.5284 -2.3439
 4984SOL    HW226412   2.789   3.741   6.493  0.2138 -1.2755 -2.3676
 4985SOL     OW26413   1.354   3.613   5.277 -0.8136 -0.3240 -0.0474
 4985SOL    HW126414   1.328   3.621   5.369 -0.3073  1.8948 -0.1012
 4985SOL    HW226415   1.443   3.582   5.294 -0.4375  0.2017 -1.0462
 4986SOL     OW26416   1.261   2.789   5.953 -0.1202  0.0470  0.0936
 4986SOL    HW126417   1.288   2.876   5.982  0.2180  0.1620 -0.5713
 4986SOL    HW226418   1.311   2.740   6.019 -1.7031  1.2143  2.1751
 4987SOL     OW26419   1.239   1.973   3.814  0.4992 -0.1738 -0.1573
 4987SOL    HW126420   1.202   1.937   3.895  3.3035  3.1741  2.5898
 4987SOL    HW226421   1.212   2.065   3.815  0.2538 -0.2452 -0.1154
 4988SOL     OW26422   2.094   0.025   7.727 -0.0580  0.3382 -0.2808
 4988SOL    HW126423   2.069   4.672   7.672  1.7615  1.2250 -2.3002
 4988SOL    HW226424   2.188   0.021   7.709  0.0773  1.0781  0.2699
 4989SOL     OW26425   2.810   0.105   7.221  0.1516  0.0554 -0.0098
 4989SOL    HW126426   2.768   0.024   7.251 -2.7166  0.7077 -2.2748
 4989SOL    HW226427   2.857   0.133   7.299  1.0079  0.2171 -0.5830
 4990SOL     OW26428   1.268   2.097   7.403  0.2305 -0.2774  0.3700
 4990SOL    HW126429   1.261   2.186   7.437  2.5283 -0.2557  0.7750
 4990SOL    HW226430   1.280   2.110   7.309  2.8164 -1.0335  0.5841
 4991SOL     OW26431   0.307   3.528   3.765  0.0957  0.2365  0.4918
 4991SOL    HW126432   0.359   3.608   3.768  0.6055 -0.1023  0.6939
 4991SOL    HW226433   0.258   3.539   3.684  1.6511 -0.0537 -0.4761
 4992SOL     OW26434   1.977   0.777   4.342 -0.2243 -0.2059 -0.1301
 4992SOL    HW126435   1.902   0.723   4.317 -0.5067  0.0789  0.1023
 4992SOL    HW226436   1.982   0.838   4.268  2.8825  0.7533  0.9096
 4993SOL     OW26437   4.014   0.951   2.391  0.5458  0.3662  0.1221
 4993SOL    HW126438   4.052   0.980   2.474  1.4475 -1.9481  0.5381
 4993SOL    HW226439   3.961   1.021   2.354  5.7410  3.3526 -1.7351
 4994SOL     OW26440   3.290   2.662   2.727 -0.3483 -0.0754 -0.7180
 4994SOL    HW126441   3.350   2.731   2.754 -1.6608 -0.2041  2.5476
 4994SOL    HW226442   3.292   2.608   2.806 -2.0326  1.5253  0.4134
 4995SOL     OW26443   2.379   2.980   0.587  0.7525 -0.0522 -0.0757
 4995SOL    HW126444   2.437   3.017   0.653 -1.4296  1.4110  0.9851
 4995SOL    HW226445   2.324   2.929   0.646  1.1592  0.3791  0.6667
 4996SOL     OW26446   2.020   2.015  11.998 -0.1515 -0.0354 -0.0585
 4996SOL    HW126447   2.051   2.024  12.088  0.2051  1.4679 -0.3262
 4996SOL    HW226448   1.968   2.093  11.982 -3.2082 -2.1645 -0.5019
 4997SOL     OW26449   4.173   2.084   6.906  0.3104 -0.3601 -0.2042
 4997SOL    HW126450   4.105   2.131   6.857 -0.2068 -0.1247  0.7489
 4997SOL    HW226451   4.134   2.080   6.993 -0.9327  0.0395 -0.7382
 4998SOL     OW26452   1.081   3.975   5.348 -0.4778  0.1172 -0.1010
 4998SOL    HW126453   1.082   3.941   5.437 -2.8817  0.0240 -0.1086
 4998SOL    HW226454   1.162   3.945   5.307  0.6408  0.5730  1.8040
 4999SOL     OW26455   1.404   4.489   3.037  0.2866 -0.8136 -0.6553
 4999SOL    HW126456   1.428   4.511   2.947  1.1251  1.6534  0.1500
 4999SOL    HW226457   1.382   4.396   3.028 -1.2663 -0.5316  0.2747
 5000SOL     OW26458   3.270   1.498   6.067  0.3488 -0.3751  0.5386
 5000SOL    HW126459   3.312   1.580   6.039 -0.6844  0.3669  1.1661
 5000SOL    HW226460   3.325   1.473   6.141  0.9460  0.6719  0.4565
 5001SOL     OW26461   3.310   4.188  12.261 -0.1043 -0.3708 -0.1574
 5001SOL    HW126462   3.236   4.220  12.211 -0.1705 -1.4036 -0.7199
 5001SOL    HW226463   3.303   4.231  12.346 -1.5668  0.3910 -0.6769
 5002SOL     OW26464   0.130   4.402   5.597  0.2582 -0.3562 -0.2835
 5002SOL    HW126465   0.111   4.403   5.690 -0.9824 -1.6297 -0.5205
 5002SOL    HW226466   0.073   4.474   5.570  0.6992  1.2286  3.0250
 5003SOL     OW26467   1.321   2.269   4.144 -0.0617 -0.3414  0.2035
 5003SOL    HW126468   1.254   2.241   4.206  1.1455  1.1861  2.2189
 5003SOL    HW226469   1.357   2.188   4.108  2.3647  0.4365  0.8838
 5004SOL     OW26470   0.229   3.225   6.181 -0.0043 -0.6171 -0.1355
 5004SOL    HW126471   0.150   3.178   6.153  0.9917 -1.0511 -2.2305
 5004SOL    HW226472   0.266   3.239   6.094 -2.8116 -1.5953 -1.5033
 5005SOL     OW26473   1.188   1.429   2.396 -0.3118  0.1325 -0.7838
 5005SOL    HW126474   1.149   1.489   2.333  1.3233  1.9729 -0.0760
 5005SOL    HW226475   1.111   1.398   2.443  0.4670 -0.3046  0.2109
 5006SOL     OW26476   3.527   2.226  12.523  0.0811 -0.1983  0.0770
 5006SOL    HW126477   3.472   2.286  12.472  1.4774  2.3169  1.5697
 5006SOL    HW226478   3.597   2.283  12.552  1.0304 -1.0289 -0.5793
 5007SOL     OW26479   2.280   0.124  13.742  0.6596  0.4794 -0.3212
 5007SOL    HW126480   2.274   0.149  13.835 -2.3355  0.9814 -0.6621
 5007SOL    HW226481   2.365   0.161  13.717  1.1155 -0.1541  0.3105
 5008SOL     OW26482   1.190   3.683  15.332 -0.1166 -0.1294  1.1063
 5008SOL    HW126483   1.261   3.687  15.396 -1.0639 -1.0686  2.2066
 5008SOL    HW226484   1.167   3.776  15.330  1.6065  0.3091  1.6840
 5009SOL     OW26485   2.462   4.189  13.389 -0.0943  0.5857  0.3874
 5009SOL    HW126486   2.511   4.265  13.419  1.2438 -0.7686  1.6482
 5009SOL    HW226487   2.406   4.232  13.325 -0.2604  0.3229  0.3552
 5010SOL     OW26488   1.564   3.031   4.433 -0.1004 -0.4184 -0.1249
 5010SOL    HW126489   1.640   2.973   4.433 -1.1053 -1.7599  1.4719
 5010SOL    HW226490   1.493   2.985   4.479 -0.4002  1.0982  0.9345
 5011SOL     OW26491   2.817   3.496   4.289 -0.3913  0.0924  0.4886
 5011SOL    HW126492   2.733   3.521   4.328 -1.1952  0.8046 -1.7260
 5011SOL    HW226493   2.814   3.401   4.300 -2.0180 -0.1252 -1.9250
 5012SOL     OW26494   1.596   4.464   2.395 -0.0502  0.3048 -0.5098
 5012SOL    HW126495   1.560   4.407   2.463  0.3522 -0.8712 -1.2785
 5012SOL    HW226496   1.609   4.410   2.317 -0.7781  0.9264 -1.0627
 5013SOL     OW26497   1.680   0.886   8.185 -0.5201  0.3696  0.2934
 5013SOL    HW126498   1.596   0.912   8.223 -1.4302 -0.0469 -1.4605
 5013SOL    HW226499   1.739   0.881   8.261 -0.6429  0.7820  0.4125
 5014SOL     OW26500   4.301   2.373   3.049  0.7794  0.2081 -0.1062
 5014SOL    HW126501   4.369   2.379   2.983 -0.0779  0.6863 -0.9421
 5014SOL    HW226502   4.251   2.294   3.027 -1.1502  0.9519  1.6322
 5015SOL     OW26503   0.781   4.676   7.337  0.5876  0.1622  0.0016
 5015SOL    HW126504   0.706   4.619   7.319  1.0779 -0.3455 -0.4376
 5015SOL    HW226505   0.856   4.631   7.298  0.7996 -0.1177  0.7243
 5016SOL     OW26506   1.936   3.286  14.511  0.1071 -0.1288 -0.0364
 5016SOL    HW126507   2.012   3.281  14.568 -0.5414  0.4628  0.8836
 5016SOL    HW226508   1.961   3.361  14.458 -1.6275 -0.1784 -0.9226
 5017SOL     OW26509   2.673   1.140  11.942 -0.2256 -0.2210 -0.1999
 5017SOL    HW126510   2.675   1.228  11.903 -1.6640 -0.8728 -1.7254
 5017SOL    HW226511   2.586   1.115  11.912  0.3356 -1.9096 -0.3966
 5018SOL     OW26512   0.566   2.481   8.458  0.0618 -0.6469  0.3078
 5018SOL    HW126513   0.560   2.396   8.415 -0.2182 -0.6355  0.3291
 5018SOL    HW226514   0.658   2.481   8.487  0.2272  0.8446 -0.2150
 5019SOL     OW26515   1.340   4.383   2.602  0.4541  0.5954  0.6733
 5019SOL    HW126516   1.411   4.438   2.633  0.3238 -0.2361  2.4144
 5019SOL    HW226517   1.304   4.364   2.688  1.3320  0.5612  1.0238
 5020SOL     OW26518   0.283   0.130   3.037 -0.7759 -0.1458 -0.0977
 5020SOL    HW126519   0.337   0.053   3.055 -2.5131 -1.5389 -0.8737
 5020SOL    HW226520   0.350   0.181   2.992 -2.1826  2.4360  0.7483
 5021SOL     OW26521   1.449   4.435   4.673 -0.0660  0.2330 -0.0489
 5021SOL    HW126522   1.480   4.370   4.611 -1.1998 -1.4617  1.1665
 5021SOL    HW226523   1.353   4.429   4.666 -0.3029  2.3462  1.2310
 5022SOL     OW26524   0.144   3.322  17.649 -0.5819 -0.0999  1.0772
 5022SOL    HW126525   0.160   3.316   0.054  1.2796 -1.7212  0.6638
 5022SOL    HW226526   0.049   3.310  17.645 -0.5358 -0.2934  0.5411
 5023SOL     OW26527   2.860   2.388   4.226 -0.4943 -1.2451 -0.0099
 5023SOL    HW126528   2.934   2.410   4.282  0.8018  1.1272 -2.6503
 5023SOL    HW226529   2.908   2.368   4.145 -1.0028 -2.2447 -0.0742
 5024SOL     OW26530   3.688   3.432   3.514  0.0703  0.1997 -0.1452
 5024SOL    HW126531   3.680   3.499   3.447 -2.5918 -0.6959 -0.7013
 5024SOL    HW226532   3.761   3.471   3.563  0.3116 -1.3922  0.7629
 5025SOL     OW26533   3.058   3.144   8.539 -0.1388 -0.1007  0.0438
 5025SOL    HW126534   2.973   3.101   8.546 -0.3647  0.2314 -0.6455
 5025SOL    HW226535   3.093   3.114   8.623 -0.5490  0.7766  0.5234
 5026SOL     OW26536   0.672   3.995   0.110  0.1447 -0.2040  0.1299
 5026SOL    HW126537   0.626   4.064   0.063  0.3090  0.5438  1.0699
 5026SOL    HW226538   0.645   4.020   0.198  0.5817  3.3716 -0.7575
 5027SOL     OW26539   3.531   3.006  15.200  0.3850 -0.2460  0.2259
 5027SOL    HW126540   3.605   2.984  15.144  0.3821  1.9625 -0.6530
 5027SOL    HW226541   3.525   3.101  15.191 -1.0287 -0.0560  3.1230
 5028SOL     OW26542   4.145   0.877   3.216 -0.2316  0.0256  0.4048
 5028SOL    HW126543   4.232   0.841   3.234 -0.4104  0.0546  1.3360
 5028SOL    HW226544   4.090   0.845   3.288 -0.5402 -0.4441 -0.0464
 5029SOL     OW26545   1.376   1.737   5.241  0.3743  0.2158  0.4409
 5029SOL    HW126546   1.398   1.822   5.281  0.2936  0.7307 -0.6169
 5029SOL    HW226547   1.390   1.671   5.309  2.4806  1.2696  1.0323
 5030SOL     OW26548   2.003   2.095  10.056 -0.2325 -0.1038  0.6466
 5030SOL    HW126549   1.978   2.004  10.070  2.0011 -1.1236 -2.0845
 5030SOL    HW226550   2.045   2.115  10.140 -0.0205 -0.5125  0.6370
 5031SOL     OW26551   3.499   3.481   7.129 -0.5739 -0.0577 -0.4862
 5031SOL    HW126552   3.423   3.529   7.094 -0.8191 -0.2022 -0.1454
 5031SOL    HW226553   3.458   3.398   7.152  0.9322 -0.3749  0.9768
 5032SOL     OW26554   2.587   4.214   1.972 -0.4546 -0.2925 -0.0800
 5032SOL    HW126555   2.535   4.230   1.894  1.3481 -1.3655 -1.4864
 5032SOL    HW226556   2.628   4.300   1.985  0.4444 -1.0892  2.3336
 5033SOL     OW26557   4.322   0.907   4.106 -0.0634 -0.5010 -0.2707
 5033SOL    HW126558   4.319   0.961   4.027 -0.7398 -1.3963 -0.8565
 5033SOL    HW226559   4.255   0.841   4.090 -0.6477 -0.5608  2.4619
 5034SOL     OW26560   0.015   0.490  11.460  0.1470  0.1699  0.4573
 5034SOL    HW126561   4.714   0.583  11.459  1.3155  0.4587  0.6210
 5034SOL    HW226562   4.656   0.443  11.440  2.1080 -1.9792 -2.3734
 5035SOL     OW26563   0.987   2.470   5.586  0.1543 -0.9318  0.0703
 5035SOL    HW126564   0.943   2.549   5.618  0.5858 -0.8349  0.4163
 5035SOL    HW226565   1.062   2.510   5.543 -0.3817  0.7550  0.7110
 5036SOL     OW26566   3.140   2.867   8.646 -0.0988  0.4364  0.0991
 5036SOL    HW126567   3.220   2.917   8.664 -0.1158  0.6337 -0.3827
 5036SOL    HW226568   3.094   2.879   8.729 -1.0650  1.4562 -0.5778
 5037SOL     OW26569   1.207   0.831   5.487 -0.9077 -0.3727  0.0528
 5037SOL    HW126570   1.234   0.767   5.420  0.3410 -0.3869  0.5738
 5037SOL    HW226571   1.168   0.893   5.425  0.4268 -0.7922 -1.2207
 5038SOL     OW26572   1.968   0.866   7.088  0.0114  0.2601  0.4894
 5038SOL    HW126573   2.056   0.905   7.089  1.8309 -3.8006  0.7222
 5038SOL    HW226574   1.924   0.949   7.070 -1.4941 -1.0306 -1.6346
 5039SOL     OW26575   0.897   0.462   6.894  0.0642 -0.1535 -0.1249
 5039SOL    HW126576   0.968   0.508   6.850  1.0384 -1.1438  0.4202
 5039SOL    HW226577   0.934   0.375   6.877  0.7105 -0.0344  0.7327
 5040SOL     OW26578   4.215   0.703  11.074  0.6134  0.3607 -0.0340
 5040SOL    HW126579   4.148   0.758  11.033 -0.6205 -1.0430  0.0917
 5040SOL    HW226580   4.286   0.722  11.012  2.5549 -3.0509  1.1403
 5041SOL     OW26581   3.510   0.703  14.456 -0.2947 -0.5835 -0.0551
 5041SOL    HW126582   3.566   0.738  14.525 -0.0661 -1.8096  0.3785
 5041SOL    HW226583   3.536   0.757  14.381 -0.3296 -2.0120 -1.0805
 5042SOL     OW26584   3.675   3.897   8.297 -0.0504 -0.2188 -0.4600
 5042SOL    HW126585   3.607   3.903   8.229 -0.1007  0.9657 -0.3046
 5042SOL    HW226586   3.674   3.989   8.324 -0.0716  0.1966 -1.8513
 5043SOL     OW26587   2.750   3.981   7.127  0.3471 -0.0465  0.5738
 5043SOL    HW126588   2.675   4.027   7.089  1.1314  1.2762  0.6619
 5043SOL    HW226589   2.741   3.895   7.085 -1.8207  0.1955  0.5570
 5044SOL     OW26590   1.465   0.904   4.077  0.3800 -0.4342  0.0678
 5044SOL    HW126591   1.429   0.984   4.038 -0.7534  0.1242  2.2567
 5044SOL    HW226592   1.395   0.885   4.139  1.5976 -1.9695  0.9590
 5045SOL     OW26593   0.524   4.059   1.315  0.8159  0.4245  0.1858
 5045SOL    HW126594   0.477   3.994   1.367 -0.4902 -1.1960 -3.0231
 5045SOL    HW226595   0.572   4.009   1.249 -0.0103  0.1930 -0.2258
 5046SOL     OW26596   3.154   1.018   6.762 -0.3634  0.2595  0.2930
 5046SOL    HW126597   3.135   1.052   6.849 -0.2665 -0.8359  0.7470
 5046SOL    HW226598   3.072   1.007   6.714 -0.1913  2.2174 -0.4160
 5047SOL     OW26599   2.985   1.655  12.053  0.1645 -0.2279  0.1418
 5047SOL    HW126600   2.967   1.566  12.084 -0.1438  0.5640  2.1943
 5047SOL    HW226601   3.049   1.635  11.984  2.0939  2.2752  1.2386
 5048SOL     OW26602   4.638   2.483   9.206  0.1722 -0.7502  0.5567
 5048SOL    HW126603   4.587   2.447   9.279  1.1711 -0.8801  1.1820
 5048SOL    HW226604   4.656   2.408   9.149  3.2249  0.2107  0.2735
 5049SOL     OW26605   4.036   4.299   2.816  0.1082  0.2308 -0.4117
 5049SOL    HW126606   4.032   4.312   2.721 -1.6803  0.8755 -0.2381
 5049SOL    HW226607   4.086   4.217   2.819  0.6982  0.6536  1.2442
 5050SOL     OW26608   0.374   2.875   4.128  0.1766  0.5666 -0.0214
 5050SOL    HW126609   0.387   2.860   4.222  1.9726 -0.8989 -0.5050
 5050SOL    HW226610   0.278   2.877   4.133  0.1421  0.7450 -0.8144
 5051SOL     OW26611   4.691   4.216   6.802 -0.1915 -0.0372 -0.3798
 5051SOL    HW126612   0.052   4.168   6.807  0.2310  0.6747 -0.4700
 5051SOL    HW226613   4.645   4.172   6.732 -2.6970  0.3062  1.0578
 5052SOL     OW26614   1.694   1.885   2.473 -0.1228  0.3327  0.0899
 5052SOL    HW126615   1.675   1.893   2.380  0.0518  1.4374  0.1537
 5052SOL    HW226616   1.606   1.876   2.510 -0.0245 -0.6024  0.0858
 5053SOL     OW26617   1.692   2.471   5.586  0.0584  0.1200  0.5011
 5053SOL    HW126618   1.770   2.524   5.599  0.1617  0.4832 -1.6908
 5053SOL    HW226619   1.646   2.484   5.670 -0.9934  0.0730 -0.0671
 5054SOL     OW26620   4.271   2.585   6.877 -0.3025  0.2248 -0.1901
 5054SOL    HW126621   4.364   2.569   6.863 -0.5488 -0.2738 -1.2786
 5054SOL    HW226622   4.268   2.670   6.920  0.8519  0.7079 -1.0549
 5055SOL     OW26623   0.440   2.839   3.300  0.1992  0.5061  0.2838
 5055SOL    HW126624   0.418   2.931   3.288  3.2961  1.7124  3.5731
 5055SOL    HW226625   0.450   2.841   3.395 -0.4958 -2.2670  0.3993
 5056SOL     OW26626   1.792   2.513  17.084 -0.4229 -0.1518  0.1891
 5056SOL    HW126627   1.804   2.585  17.022  1.8079  1.0346  2.0232
 5056SOL    HW226628   1.824   2.442  17.028  0.1761 -0.1915  0.5964
 5057SOL     OW26629   2.442   3.438   0.679  1.0938 -1.1044 -0.0486
 5057SOL    HW126630   2.421   3.427   0.772 -2.3753 -1.3311 -0.8724
 5057SOL    HW226631   2.446   3.533   0.665 -2.3797 -1.1205 -1.3122
 5058SOL     OW26632   2.120   4.354   6.238 -0.2759  0.3739 -0.2768
 5058SOL    HW126633   2.084   4.436   6.272 -1.6852 -0.8858  1.1787
 5058SOL    HW226634   2.192   4.346   6.301 -0.2266 -0.9034 -0.4959
 5059SOL     OW26635   0.032   1.208   9.368 -0.0939 -0.4532 -0.2980
 5059SOL    HW126636   0.038   1.245   9.280  1.9583  0.6381  0.3092
 5059SOL    HW226637   0.108   1.151   9.358  0.7830  0.8642 -1.0431
 5060SOL     OW26638   4.500   4.200   6.308  0.2270  0.5733 -0.4281
 5060SOL    HW126639   4.539   4.149   6.379  2.0171 -0.2596 -1.9977
 5060SOL    HW226640   4.470   4.266   6.370 -1.0688 -1.8949  1.5635
 5061SOL     OW26641   4.080   2.587   8.377 -0.1106  0.0031  0.1533
 5061SOL    HW126642   4.021   2.550   8.311 -1.4756  1.0482  0.7837
 5061SOL    HW226643   4.141   2.516   8.395 -0.7157 -0.5180  0.1348
 5062SOL     OW26644   3.268   2.800  14.804  0.4885  0.1256 -0.1477
 5062SOL    HW126645   3.245   2.710  14.780  0.6231  0.4701 -1.5336
 5062SOL    HW226646   3.296   2.797  14.896  0.8080  0.9131 -0.2196
 5063SOL     OW26647   3.208   0.126   3.081 -1.4369  0.1183 -0.4271
 5063SOL    HW126648   3.190   0.081   2.999 -2.2072  1.2795 -0.8884
 5063SOL    HW226649   3.166   0.063   3.139 -0.1724  1.3305  1.8279
 5064SOL     OW26650   1.325   4.655  13.876 -0.3760  0.2046 -0.1264
 5064SOL    HW126651   1.271   4.585  13.912  0.7045 -0.3952  0.3336
 5064SOL    HW226652   1.350   4.619  13.790 -0.7261 -0.8395  0.2018
 5065SOL     OW26653   0.405   0.352  10.643  0.1917 -0.0716  0.5728
 5065SOL    HW126654   0.329   0.339  10.699  0.4810  0.8789  1.1890
 5065SOL    HW226655   0.405   0.258  10.623  2.2340 -0.1892  1.1250
 5066SOL     OW26656   0.398   0.170   7.041 -0.4518 -0.6347 -0.6525
 5066SOL    HW126657   0.375   0.245   7.095 -0.1585 -0.6774 -0.4724
 5066SOL    HW226658   0.493   0.180   7.038 -0.6071  0.9191 -0.4112
 5067SOL     OW26659   3.318   1.681   6.647  0.0907 -0.6037 -0.3815
 5067SOL    HW126660   3.374   1.739   6.595 -1.5834  0.7221 -0.7320
 5067SOL    HW226661   3.366   1.599   6.640 -0.9971 -1.1461 -1.4120
 5068SOL     OW26662   3.013   1.551   5.188  0.2214  0.5378  0.0585
 5068SOL    HW126663   3.074   1.523   5.257 -0.2296 -2.5096 -0.7795
 5068SOL    HW226664   2.942   1.493   5.216 -0.0004  0.6783 -0.2182
 5069SOL     OW26665   1.251   4.575   0.958  0.0040 -0.5616  0.6431
 5069SOL    HW126666   1.195   4.646   0.929  0.1011 -0.7434  0.0175
 5069SOL    HW226667   1.298   4.602   1.037 -2.0253  2.4947  0.7968
 5070SOL     OW26668   4.256   3.183  15.542 -0.2798  0.2043 -0.2685
 5070SOL    HW126669   4.320   3.135  15.594  1.1046  2.1279 -0.2121
 5070SOL    HW226670   4.286   3.272  15.562 -1.4947  0.5255  0.1479
 5071SOL     OW26671   2.308   2.942   7.204  0.7600 -0.2906  0.0480
 5071SOL    HW126672   2.387   2.892   7.184  0.7261  0.4076 -1.8244
 5071SOL    HW226673   2.325   3.028   7.165 -0.5089  0.0369  0.2154
 5072SOL     OW26674   0.441   1.079   5.418  0.0224 -0.3470 -0.0608
 5072SOL    HW126675   0.399   1.161   5.442  1.3727 -0.0615  1.3311
 5072SOL    HW226676   0.371   1.019   5.392 -0.3632 -0.3014  0.9017
 5073SOL     OW26677   4.449   0.671   5.156 -0.2135  0.4402 -0.5443
 5073SOL    HW126678   4.457   0.577   5.141 -0.7720  0.4770 -1.0594
 5073SOL    HW226679   4.357   0.680   5.132 -0.9865 -1.3239  1.7080
 5074SOL     OW26680   4.081   1.722   4.855 -0.1193 -0.6845  0.2569
 5074SOL    HW126681   4.138   1.701   4.929 -0.4092  0.2957  0.7632
 5074SOL    HW226682   4.024   1.646   4.842  1.3342 -1.5874 -0.8121
 5075SOL     OW26683   2.312   0.515   5.622 -0.1847  0.0643  0.4497
 5075SOL    HW126684   2.232   0.463   5.632  1.0843 -1.6100  2.1563
 5075SOL    HW226685   2.304   0.590   5.680  0.8830  0.8673 -0.4479
 5076SOL     OW26686   1.477   0.306  13.234  0.4160 -0.2391 -0.0655
 5076SOL    HW126687   1.457   0.218  13.267 -1.6564  0.1517 -0.2370
 5076SOL    HW226688   1.401   0.338  13.185 -0.0122  0.4485  1.0339
 5077SOL     OW26689   2.894   2.764  10.925  0.1819  0.6325  0.2038
 5077SOL    HW126690   2.869   2.672  10.940  4.5318 -0.3396  1.3628
 5077SOL    HW226691   2.988   2.766  10.911  0.1430  0.9908  0.0138
 5078SOL     OW26692   0.581   2.833  16.131 -0.2406 -0.4312 -0.1662
 5078SOL    HW126693   0.526   2.891  16.183  2.1750  1.7439 -0.0658
 5078SOL    HW226694   0.513   2.773  16.101  0.9669 -0.5070 -2.7503
 5079SOL     OW26695   0.428   2.723   2.876 -0.7883 -0.3047  0.5632
 5079SOL    HW126696   0.337   2.750   2.865 -0.0680  1.4017 -1.2236
 5079SOL    HW226697   0.464   2.809   2.899  1.2855 -1.1487  0.5157
 5080SOL     OW26698   1.792   1.847   9.795  0.0131 -0.1580  0.8095
 5080SOL    HW126699   1.845   1.767   9.795 -0.2240 -0.3056  2.3724
 5080SOL    HW226700   1.859   1.915   9.794  0.4424 -0.5980 -0.2645
 5081SOL     OW26701   3.377   4.403   9.413  0.3539  0.1014  0.1587
 5081SOL    HW126702   3.455   4.369   9.459  2.7377  2.5679 -2.0698
 5081SOL    HW226703   3.350   4.474   9.470  0.1196 -0.3893  0.6600
 5082SOL     OW26704   3.209   3.990   6.087 -0.3103 -0.6982  0.1887
 5082SOL    HW126705   3.293   4.031   6.067 -0.3729 -0.9395 -0.5400
 5082SOL    HW226706   3.221   3.913   6.032 -1.4289 -1.2648  0.7563
 5083SOL     OW26707   3.250   2.045   4.417 -0.0554 -0.0757 -0.0515
 5083SOL    HW126708   3.258   2.103   4.341  0.3553 -2.6205 -1.9865
 5083SOL    HW226709   3.330   1.992   4.413 -0.2540 -0.3940  0.1380
 5084SOL     OW26710   0.684   0.011   2.945  0.1557 -0.2667 -0.5105
 5084SOL    HW126711   0.623   0.006   2.872 -0.7154 -0.5310  0.2374
 5084SOL    HW226712   0.692   4.643   2.977  1.3321 -0.6912 -2.0204
 5085SOL     OW26713   2.051   2.657   3.835  0.1340 -0.3785 -0.2789
 5085SOL    HW126714   2.139   2.682   3.807  0.7540 -0.9359  1.1554
 5085SOL    HW226715   2.046   2.561   3.830 -1.8321 -0.3220  0.8695
 5086SOL     OW26716   1.530   3.501   4.029  0.4337  0.2679 -0.2845
 5086SOL    HW126717   1.566   3.429   3.977 -1.0917 -0.6864 -0.0087
 5086SOL    HW226718   1.588   3.500   4.105  0.8125 -3.0243 -0.6376
 5087SOL     OW26719   4.050   1.711  11.135  0.2737 -0.5186  0.0498
 5087SOL    HW126720   4.070   1.621  11.112  0.2189 -0.3612 -0.6115
 5087SOL    HW226721   4.094   1.725  11.219  1.7444  0.4728 -0.8650
 5088SOL     OW26722   2.992   2.504   5.754 -0.1705 -0.1380 -0.0876
 5088SOL    HW126723   2.975   2.459   5.837  0.3802  1.3517  0.8384
 5088SOL    HW226724   2.989   2.424   5.702  0.0124  2.1734 -3.5994
 5089SOL     OW26725   2.514   2.116   7.184  0.3435  0.2791 -0.4327
 5089SOL    HW126726   2.501   2.046   7.120 -1.8024 -1.3075  1.7426
 5089SOL    HW226727   2.570   2.177   7.136 -0.0341 -0.1374 -1.3943
 5090SOL     OW26728   3.071   1.663   6.869  0.3399  0.3059 -0.3322
 5090SOL    HW126729   3.133   1.653   6.797  0.3528 -2.1604  0.0071
 5090SOL    HW226730   3.125   1.714   6.929 -0.7985  0.5930  0.4493
 5091SOL     OW26731   4.403   4.027   6.805 -0.4004 -0.2130 -0.2010
 5091SOL    HW126732   4.429   3.941   6.837  1.6132  0.0484 -1.1663
 5091SOL    HW226733   4.314   4.026   6.840 -0.1355  1.4914  0.5309
 5092SOL     OW26734   0.605   2.010   8.363  0.3251 -0.3217 -0.4983
 5092SOL    HW126735   0.643   1.922   8.366  3.0743  0.7991 -2.0634
 5092SOL    HW226736   0.566   2.015   8.450  0.0337  1.1036 -0.7159
 5093SOL     OW26737   0.740   2.152  17.616 -0.5046  0.0430  0.1288
 5093SOL    HW126738   0.709   2.158   0.017 -2.5263 -0.0995 -0.5623
 5093SOL    HW226739   0.787   2.069  17.601 -0.4372  0.2055 -0.5596
 5094SOL     OW26740   1.392   4.661   7.771 -0.2115 -0.2093  0.0527
 5094SOL    HW126741   1.418   4.573   7.744 -0.2041 -0.7964  1.9789
 5094SOL    HW226742   1.476   4.687   7.809  0.3175 -0.6346 -0.8223
 5095SOL     OW26743   2.445   0.503   5.235 -0.5758 -0.5785  0.5348
 5095SOL    HW126744   2.404   0.418   5.216 -1.7531  0.2684 -0.7243
 5095SOL    HW226745   2.363   0.551   5.243 -0.0040  0.7469 -1.6954
 5096SOL     OW26746   0.893   1.886  17.623  0.0851 -0.0837 -0.8450
 5096SOL    HW126747   0.932   1.799  17.613  0.0610 -0.1386 -0.4531
 5096SOL    HW226748   0.928   1.906   0.022 -1.2791 -2.1837  0.1620
 5097SOL     OW26749   1.658   1.172   1.639 -0.3025  0.4680 -0.2935
 5097SOL    HW126750   1.589   1.124   1.686 -1.9386  0.0762 -3.0739
 5097SOL    HW226751   1.593   1.220   1.588 -0.8689  2.3025  2.1519
 5098SOL     OW26752   4.623   0.841  15.675  0.0029  0.3405  0.2917
 5098SOL    HW126753   4.552   0.777  15.662 -0.0302 -0.1588  2.8460
 5098SOL    HW226754   4.686   0.781  15.714  0.0997  1.0686  1.2508
 5099SOL     OW26755   3.904   1.112  11.261  0.0165  0.3718 -0.1914
 5099SOL    HW126756   3.993   1.075  11.258 -1.0749 -2.2805  0.8073
 5099SOL    HW226757   3.904   1.160  11.344 -2.5221 -1.1774  0.7048
 5100SOL     OW26758   3.405   4.227  14.977 -0.0942 -0.0948  0.4119
 5100SOL    HW126759   3.497   4.210  14.957 -0.7637  0.1742 -2.8150
 5100SOL    HW226760   3.367   4.263  14.898  0.3509  0.9059  0.6491
 5101SOL     OW26761   4.268   1.828  13.279  0.2101  0.1658  0.3147
 5101SOL    HW126762   4.251   1.894  13.345 -3.0275 -1.0455  0.6938
 5101SOL    HW226763   4.355   1.865  13.264 -0.6247  2.0163  0.0574
 5102SOL     OW26764   3.301   0.878   4.935  0.3344  0.0656  0.0234
 5102SOL    HW126765   3.276   0.907   5.023  1.6466  1.1211  0.0550
 5102SOL    HW226766   3.243   0.930   4.880 -1.0934 -2.1638 -0.5683
 5103SOL     OW26767   1.918   1.871   5.523  0.0807 -0.2766 -0.1773
 5103SOL    HW126768   1.913   1.870   5.618 -0.9584 -0.3110 -0.2253
 5103SOL    HW226769   1.993   1.815   5.504  1.0704  1.5035 -1.5972
 5104SOL     OW26770   4.093   3.475  14.401  0.2290  0.0229  0.5274
 5104SOL    HW126771   4.064   3.427  14.479 -2.2545  1.7037  0.6509
 5104SOL    HW226772   4.008   3.516  14.382  0.6798  0.0309 -1.4923
 5105SOL     OW26773   4.375   0.450   7.789  0.0606  0.2637 -0.0177
 5105SOL    HW126774   4.310   0.391   7.749  0.7959  0.8124 -2.0162
 5105SOL    HW226775   4.365   0.430   7.882  0.0367  0.5168  0.0341
 5106SOL     OW26776   4.654   4.591   4.964  0.3984 -0.3545 -0.0580
 5106SOL    HW126777   0.016   4.633   4.945 -0.0363  1.0159  1.0688
 5106SOL    HW226778   4.664   4.501   4.933  0.8089  0.8352 -3.3164
 5107SOL     OW26779   4.528   1.382   3.091 -0.3208  0.1110  0.2510
 5107SOL    HW126780   4.527   1.394   3.185  1.7120 -1.4207  0.4650
 5107SOL    HW226781   4.463   1.448   3.068 -0.1858  0.1165 -0.1185
 5108SOL     OW26782   1.312   1.277  10.691  0.2024 -0.3581  0.1524
 5108SOL    HW126783   1.364   1.278  10.610  0.1929  0.8054  0.1635
 5108SOL    HW226784   1.231   1.323  10.668  0.0217  0.0106  1.5572
 5109SOL     OW26785   1.730   3.813   2.303  0.4098 -0.0081 -0.3997
 5109SOL    HW126786   1.815   3.855   2.302  0.6193 -0.4255  0.0479
 5109SOL    HW226787   1.741   3.736   2.358 -2.3104 -0.2676 -0.1758
 5110SOL     OW26788   3.226   2.198   4.194 -0.1291 -0.5147 -0.2309
 5110SOL    HW126789   3.163   2.178   4.125  0.2361  0.5928 -0.8929
 5110SOL    HW226790   3.264   2.278   4.158 -2.3860  1.1057  0.9342
 5111SOL     OW26791   1.529   2.007   6.551  0.1922 -0.0165 -0.4108
 5111SOL    HW126792   1.520   2.094   6.589  1.9706  0.6856 -1.5789
 5111SOL    HW226793   1.482   2.012   6.468  1.3491  0.8382 -1.0249
 5112SOL     OW26794   1.380   1.301  13.431 -0.0929 -0.5105  0.2874
 5112SOL    HW126795   1.317   1.310  13.359  1.5975  0.2413 -1.1046
 5112SOL    HW226796   1.318   1.273  13.497 -1.7959  1.2362 -0.5546
 5113SOL     OW26797   4.028   1.377  15.615  0.2199 -0.1795  0.5518
 5113SOL    HW126798   3.957   1.397  15.554 -0.2325  1.1577  1.4983
 5113SOL    HW226799   4.082   1.326  15.556  1.0218  1.0540  0.2141
 5114SOL     OW26800   1.547   0.320   2.738  0.1156  0.4374  0.1395
 5114SOL    HW126801   1.498   0.277   2.808 -0.8018 -0.4782 -1.0772
 5114SOL    HW226802   1.550   0.254   2.670 -0.1466  1.3247 -0.7322
 5115SOL     OW26803   3.239   2.014   1.872  0.2734  0.9641 -0.1023
 5115SOL    HW126804   3.214   1.957   1.799  2.3827  0.5559 -0.4966
 5115SOL    HW226805   3.309   1.964   1.913  0.4836  1.5976  0.2967
 5116SOL     OW26806   3.516   4.018   2.776  0.4670  0.1736  0.0205
 5116SOL    HW126807   3.508   3.973   2.860  0.8383 -2.6119 -1.4396
 5116SOL    HW226808   3.452   4.089   2.777  0.5146  0.2114  0.2541
 5117SOL     OW26809   1.553   3.796   1.802  0.1895  0.3345 -0.3521
 5117SOL    HW126810   1.471   3.841   1.823 -0.0922  0.9021 -2.6295
 5117SOL    HW226811   1.550   3.798   1.706 -0.1598  0.2929 -0.3424
 5118SOL     OW26812   3.601   3.853   6.429  0.0839  0.1857  0.6892
 5118SOL    HW126813   3.681   3.894   6.394 -0.4195  0.7473  0.1974
 5118SOL    HW226814   3.632   3.795   6.499  0.0903 -0.1003  0.4532
 5119SOL     OW26815   4.583   2.702  16.449 -0.2158 -0.6124 -0.2483
 5119SOL    HW126816   4.492   2.692  16.474 -0.7550  0.5996 -1.7602
 5119SOL    HW226817   4.597   2.796  16.450 -1.7928 -0.4183  2.1951
 5120SOL     OW26818   2.687   1.594   7.103  0.2036  0.6692  0.0562
 5120SOL    HW126819   2.674   1.618   7.195 -1.1298 -2.0691  0.5613
 5120SOL    HW226820   2.641   1.511   7.089  0.6391  0.9100 -2.9333
 5121SOL     OW26821   3.677   2.088   3.229  0.2503  0.3011  0.1507
 5121SOL    HW126822   3.684   2.010   3.174 -0.3543  0.9163 -0.7981
 5121SOL    HW226823   3.727   2.068   3.308  0.7830 -0.6155 -0.4141
 5122SOL     OW26824   4.050   3.540  15.782  0.4263  0.6672  0.8468
 5122SOL    HW126825   3.954   3.542  15.778  0.3687 -1.6491  1.0479
 5122SOL    HW226826   4.077   3.605  15.847 -0.7991 -0.3225  2.3459
 5123SOL     OW26827   0.509   4.159   3.675 -0.2779  0.5017  0.4295
 5123SOL    HW126828   0.574   4.089   3.674 -0.3734  0.4356 -0.4686
 5123SOL    HW226829   0.502   4.188   3.584 -0.0157  1.3945  0.6872
 5124SOL     OW26830   2.888   4.453  15.592 -0.1936  0.2506  0.2182
 5124SOL    HW126831   2.840   4.448  15.510 -0.2290  3.0687  0.0791
 5124SOL    HW226832   2.821   4.435  15.658 -0.7512  3.0329  0.4076
 5125SOL     OW26833   2.408   3.880   7.144 -0.2412  0.0532 -0.5125
 5125SOL    HW126834   2.375   3.927   7.221  1.5611  2.4952 -1.2431
 5125SOL    HW226835   2.466   3.949   7.112  0.1175  0.0479  0.1428
 5126SOL     OW26836   0.590   0.671  10.855 -0.8143  0.4078 -0.2958
 5126SOL    HW126837   0.519   0.637  10.909  0.7091 -0.6938  1.0013
 5126SOL    HW226838   0.608   0.594  10.801  0.9363  1.3485 -1.0738
 5127SOL     OW26839   1.290   4.097   0.694  0.4877 -0.5049  0.2000
 5127SOL    HW126840   1.310   4.007   0.720 -1.8615 -1.5447 -1.6172
 5127SOL    HW226841   1.374   4.123   0.657  0.8053  0.2742  1.4544
 5128SOL     OW26842   3.139   3.085   4.318 -0.0530  0.1462  0.4470
 5128SOL    HW126843   3.191   3.029   4.376 -0.4230  1.3919  1.9618
 5128SOL    HW226844   3.180   3.171   4.326 -0.4912  0.5526 -1.6127
 5129SOL     OW26845   3.813   3.577   4.433 -0.5029  0.2272  0.3818
 5129SOL    HW126846   3.804   3.596   4.526  2.7476  1.0113  0.5320
 5129SOL    HW226847   3.781   3.655   4.387 -1.6652  0.0863  0.9553
 5130SOL     OW26848   0.466   4.354   9.493  0.2907  0.4214 -0.0197
 5130SOL    HW126849   0.470   4.260   9.511 -0.2147  0.6317  1.2020
 5130SOL    HW226850   0.413   4.371   9.571  1.5692  2.2764  0.4574
 5131SOL     OW26851   0.422   3.332   4.795  0.4649  0.5261 -0.0376
 5131SOL    HW126852   0.420   3.388   4.718 -0.9623 -0.0955 -0.4520
 5131SOL    HW226853   0.395   3.252   4.750  1.9703  0.8415 -1.4823
 5132SOL     OW26854   1.377   1.524   6.764 -0.1027 -0.2462 -0.2459
 5132SOL    HW126855   1.419   1.606   6.738  0.0019  0.0053  0.7095
 5132SOL    HW226856   1.316   1.507   6.692 -1.2000  2.3808  0.0829
 5133SOL     OW26857   3.121   4.288   0.627 -0.0226  0.2636  0.2923
 5133SOL    HW126858   3.101   4.381   0.618 -1.4125 -0.1576 -1.0211
 5133SOL    HW226859   3.044   4.239   0.599 -0.5849  2.1716 -1.4454
 5134SOL     OW26860   2.091   3.456   3.078 -0.1741  0.4226  0.1758
 5134SOL    HW126861   2.029   3.528   3.065 -0.4392  0.0765 -0.4662
 5134SOL    HW226862   2.180   3.490   3.065  0.6181 -0.9151  2.0559
 5135SOL     OW26863   3.534   2.000   0.397 -0.2003  0.0913 -0.2210
 5135SOL    HW126864   3.553   2.025   0.488  0.4979 -0.3981 -0.2368
 5135SOL    HW226865   3.506   1.910   0.414  0.6180  0.0003  0.6982
 5136SOL     OW26866   1.067   2.159  16.690  0.0563 -0.0349  0.1450
 5136SOL    HW126867   1.125   2.152  16.613  1.1838  0.8213  0.9153
 5136SOL    HW226868   0.976   2.150  16.662  0.4520 -0.7050 -0.9175
 5137SOL     OW26869   4.069   1.710  15.505  0.5738 -0.4777 -0.0797
 5137SOL    HW126870   4.104   1.655  15.435 -2.3072  0.9529 -2.6419
 5137SOL    HW226871   4.003   1.771  15.471  0.6632 -0.8758 -0.9551
 5138SOL     OW26872   3.633   2.882   6.847 -0.4353  0.3688  0.0417
 5138SOL    HW126873   3.634   2.977   6.852 -0.8036  0.3545  0.3625
 5138SOL    HW226874   3.618   2.884   6.753  1.2167  0.0114 -0.2356
 5139SOL     OW26875   0.747   4.564   4.922  0.4180  0.0099  0.2428
 5139SOL    HW126876   0.762   4.591   4.832 -0.9903  1.4992  0.4448
 5139SOL    HW226877   0.794   4.481   4.918 -1.7292 -1.2311  0.4170
 5140SOL     OW26878   0.164   1.039   3.624 -0.0707 -0.5164 -0.1605
 5140SOL    HW126879   0.128   0.970   3.567 -0.4988  0.3619 -0.9564
 5140SOL    HW226880   0.162   0.998   3.711  2.8686 -0.9062 -0.3006
 5141SOL     OW26881   3.576   0.824   3.863  1.0931  0.4459 -0.6268
 5141SOL    HW126882   3.553   0.749   3.808 -1.0494  1.0556 -0.5435
 5141SOL    HW226883   3.550   0.791   3.949 -0.0753 -0.5720 -1.3724
 5142SOL     OW26884   1.816   1.845   6.045 -0.0887 -0.8992  0.2456
 5142SOL    HW126885   1.876   1.769   6.041  1.2865  0.1411  1.1933
 5142SOL    HW226886   1.729   1.808   6.057 -0.3927 -0.7163 -1.3870
 5143SOL     OW26887   1.375   1.064   9.728 -0.5744 -0.7096  0.0217
 5143SOL    HW126888   1.377   1.142   9.672 -0.2480 -1.5211 -1.1136
 5143SOL    HW226889   1.325   1.100   9.801  1.2469  1.3627  0.2226
 5144SOL     OW26890   0.395   0.681   0.853 -0.0602 -0.2098  0.1768
 5144SOL    HW126891   0.465   0.680   0.919  1.3595  1.0733 -1.3246
 5144SOL    HW226892   0.429   0.729   0.778  0.9511 -0.2079  0.6351
 5145SOL     OW26893   1.942   4.559   5.630 -0.0195  0.1657 -0.1808
 5145SOL    HW126894   1.967   4.536   5.541 -0.6458  0.4906 -0.4354
 5145SOL    HW226895   1.889   4.479   5.639  0.2884 -0.0600 -0.3935
 5146SOL     OW26896   0.288   3.086   0.646 -0.5882  0.3279 -0.2657
 5146SOL    HW126897   0.274   3.013   0.585  2.7574 -0.3956 -0.1865
 5146SOL    HW226898   0.232   3.054   0.717  1.9160 -1.8099  0.7610
 5147SOL     OW26899   4.499   1.557   4.568 -0.1117  0.1420  0.4064
 5147SOL    HW126900   4.520   1.465   4.585  1.8758  0.4544 -0.3652
 5147SOL    HW226901   4.404   1.557   4.580 -0.1089  0.1570  0.4281
 5148SOL     OW26902   4.281   1.292   6.459 -0.2631 -0.1453 -0.2835
 5148SOL    HW126903   4.255   1.224   6.521 -1.8518 -0.6028 -1.4391
 5148SOL    HW226904   4.360   1.251   6.424  0.4274  1.9989 -1.1879
 5149SOL     OW26905   2.152   3.222   6.535  0.0532  0.3109  0.1396
 5149SOL    HW126906   2.203   3.276   6.474 -1.7592 -0.4613 -2.0410
 5149SOL    HW226907   2.205   3.143   6.544  0.2688  0.5098  0.5847
 5150SOL     OW26908   3.013   0.223   3.347  0.1919 -0.0144 -0.3371
 5150SOL    HW126909   2.949   0.156   3.373  2.4947 -1.5021  1.5497
 5150SOL    HW226910   2.954   0.272   3.290 -1.1412 -2.3075 -0.9519
 5151SOL     OW26911   0.304   0.641   8.858  0.1013 -0.2119  0.0464
 5151SOL    HW126912   0.285   0.630   8.765  0.7950 -0.2222 -0.1014
 5151SOL    HW226913   0.235   0.586   8.893 -0.7130  0.0058 -1.2080
 5152SOL     OW26914   3.095   2.408   1.996 -0.3245 -0.0288 -0.1512
 5152SOL    HW126915   3.133   2.391   1.909  2.8114  2.8205  0.6548
 5152SOL    HW226916   3.111   2.502   2.005 -1.8264  0.4575 -2.4364
 5153SOL     OW26917   2.420   0.103   6.086 -0.0690  0.0016 -0.3046
 5153SOL    HW126918   2.414   0.164   6.012 -0.4240  1.1315  0.6471
 5153SOL    HW226919   2.378   0.030   6.042 -0.5898 -0.4683  0.9625
 5154SOL     OW26920   1.885   3.739   9.041 -0.7138 -0.3291 -0.1392
 5154SOL    HW126921   1.890   3.811   9.104  0.7952 -1.5247  1.0941
 5154SOL    HW226922   1.825   3.678   9.085 -2.2202  1.7834  0.7882
 5155SOL     OW26923   1.800   4.414   7.546  0.3751  0.4856 -0.1136
 5155SOL    HW126924   1.719   4.389   7.502  0.3380  1.1473 -0.4222
 5155SOL    HW226925   1.770   4.455   7.627 -0.2434 -0.2599  0.0365
 5156SOL     OW26926   0.502   2.940  11.862  0.3864  0.7682  0.3758
 5156SOL    HW126927   0.449   2.983  11.795 -2.7126  0.8245  2.8755
 5156SOL    HW226928   0.590   2.976  11.850  0.4908  0.3100 -0.2112
 5157SOL     OW26929   4.369   0.165   4.318  0.3853  0.1529 -0.3796
 5157SOL    HW126930   4.308   0.226   4.276 -0.4949 -0.5511 -0.1290
 5157SOL    HW226931   4.446   0.189   4.266 -1.1216  0.3617 -2.5106
 5158SOL     OW26932   0.603   1.161  13.813 -0.1455 -0.6374  0.2087
 5158SOL    HW126933   0.550   1.175  13.891 -0.2503  2.1201 -0.3523
 5158SOL    HW226934   0.541   1.125  13.749  0.8128 -0.1933 -0.9596
 5159SOL     OW26935   3.261   2.945   4.512  0.4828  0.3716  0.1039
 5159SOL    HW126936   3.198   2.963   4.582 -0.1409  3.5221 -1.2656
 5159SOL    HW226937   3.249   2.850   4.506  0.6887  0.4736 -1.8476
 5160SOL     OW26938   1.230   1.155   7.317 -0.3282 -0.3705 -0.6988
 5160SOL    HW126939   1.175   1.094   7.269  0.2583  1.2198 -3.3925
 5160SOL    HW226940   1.170   1.229   7.327 -1.0663 -0.5712 -3.6703
 5161SOL     OW26941   1.733   2.298   5.367 -0.3587  0.0518 -0.3018
 5161SOL    HW126942   1.759   2.348   5.444  0.0314 -1.3190  0.4715
 5161SOL    HW226943   1.800   2.231   5.355  1.0484  1.4361 -0.0423
 5162SOL     OW26944   0.070   2.581  11.240 -0.4399  0.0328 -0.2052
 5162SOL    HW126945   0.090   2.594  11.148 -1.4018 -0.2583 -0.4537
 5162SOL    HW226946   0.116   2.502  11.271 -1.9909 -0.4124  0.9655
 5163SOL     OW26947   3.633   1.376   3.523 -0.0978 -0.1341  0.7137
 5163SOL    HW126948   3.674   1.452   3.565  1.0158  0.9388 -2.2933
 5163SOL    HW226949   3.586   1.324   3.589 -3.0528  2.3370  0.6102
 5164SOL     OW26950   1.551   0.705  11.867  0.2123 -0.1847  0.2911
 5164SOL    HW126951   1.537   0.793  11.834 -1.0031  0.8722  3.6173
 5164SOL    HW226952   1.646   0.695  11.859  0.3024 -0.2749  1.4825
 5165SOL     OW26953   1.580   3.573   3.057 -0.0927  0.8263 -0.0053
 5165SOL    HW126954   1.626   3.489   3.062 -0.4760  0.7191  1.8288
 5165SOL    HW226955   1.620   3.630   2.991  1.0242  0.0761  0.0199
 5166SOL     OW26956   2.504   0.418  12.153  0.0435  0.0710 -0.1046
 5166SOL    HW126957   2.502   0.430  12.058  2.1834 -0.1508 -0.1838
 5166SOL    HW226958   2.477   0.507  12.174 -0.1038  0.1936 -0.7899
 5167SOL     OW26959   1.511   1.952   8.263  0.0457 -0.0033 -0.2834
 5167SOL    HW126960   1.567   1.875   8.269 -0.9167 -0.7434 -0.8604
 5167SOL    HW226961   1.458   1.926   8.188 -0.5777  2.2957 -0.6526
 5168SOL     OW26962   3.630   1.656   9.195  0.0794 -0.5148  0.1958
 5168SOL    HW126963   3.698   1.592   9.217  0.5297  1.1979  3.7683
 5168SOL    HW226964   3.571   1.641   9.269  0.2171  0.5966  0.5270
 5169SOL     OW26965   1.124   3.736   1.512  0.4707 -0.4137  0.4396
 5169SOL    HW126966   1.169   3.725   1.429  1.9587 -1.5359  1.3923
 5169SOL    HW226967   1.052   3.674   1.498  1.5870 -1.2780 -1.3971
 5170SOL     OW26968   0.178   1.982   7.118 -0.0910  0.0667  0.1044
 5170SOL    HW126969   0.101   1.991   7.174 -0.7062 -1.3062 -0.5187
 5170SOL    HW226970   0.167   2.066   7.072 -2.2375 -0.5820 -0.5451
 5171SOL     OW26971   0.438   4.364   9.968 -0.3213  0.3096 -0.4958
 5171SOL    HW126972   0.443   4.453   9.933 -0.0965 -0.5997 -2.8180
 5171SOL    HW226973   0.515   4.364  10.025 -0.6853 -0.5007 -0.0102
 5172SOL     OW26974   2.209   4.054   2.385 -0.4010 -0.0060 -0.0258
 5172SOL    HW126975   2.261   4.013   2.317  0.3760  2.4591 -0.9288
 5172SOL    HW226976   2.278   4.062   2.451 -0.6473 -0.2986  0.2712
 5173SOL     OW26977   0.465   0.075   9.031  0.7312  0.2281 -0.6995
 5173SOL    HW126978   0.487   0.163   9.000  0.5739  0.2990 -0.6123
 5173SOL    HW226979   0.500   0.065   9.119 -3.3802  1.1060  1.0168
 5174SOL     OW26980   4.599   3.403   5.266  0.1670 -0.0852 -0.1560
 5174SOL    HW126981   4.558   3.418   5.351 -0.8387  0.6002 -0.7575
 5174SOL    HW226982   4.639   3.317   5.274 -0.1415 -0.2896 -0.7824
 5175SOL     OW26983   1.212   1.444   0.962  0.3005 -0.1055 -0.3228
 5175SOL    HW126984   1.120   1.418   0.954 -0.0732  1.3575 -0.8027
 5175SOL    HW226985   1.214   1.539   0.950 -0.2294 -0.0810 -0.2256
 5176SOL     OW26986   1.004   4.386   8.641  0.1139 -0.2822 -0.3856
 5176SOL    HW126987   1.078   4.338   8.679 -0.4519  0.0838  1.1747
 5176SOL    HW226988   1.039   4.389   8.551  1.0429 -0.6571 -0.0429
 5177SOL     OW26989   1.233   2.716   4.422  0.2603 -0.2404 -0.0596
 5177SOL    HW126990   1.204   2.634   4.461 -0.7353 -0.5131 -1.3883
 5177SOL    HW226991   1.153   2.734   4.373 -0.0921  1.0683  0.9965
 5178SOL     OW26992   4.327   0.637   8.560 -0.6590 -0.4845  0.2817
 5178SOL    HW126993   4.411   0.614   8.601 -0.3083  2.5712  1.3478
 5178SOL    HW226994   4.327   0.733   8.566  4.2395 -0.4653  0.1844
 5179SOL     OW26995   3.073   2.783   0.448 -0.8603  0.0807 -0.7521
 5179SOL    HW126996   3.052   2.692   0.466 -1.6135  0.0367 -1.8904
 5179SOL    HW226997   3.144   2.799   0.511 -1.5581  1.2338 -0.2639
 5180SOL     OW26998   2.309   0.126   8.044  0.4650  0.2571  0.2302
 5180SOL    HW126999   2.347   0.067   8.109 -1.7566  1.3851  2.6124
 5180SOL    HW227000   2.336   0.089   7.961  2.0282  2.0326 -0.0644
 5181SOL     OW27001   0.333   1.787   4.839  0.2063 -0.5718  0.2599
 5181SOL    HW127002   0.364   1.866   4.884 -0.3612 -0.6167  0.7171
 5181SOL    HW227003   0.256   1.755   4.886  0.7634 -0.1258  1.4841
 5182SOL     OW27004   0.787   1.540   1.774  0.1360  0.3518 -0.5681
 5182SOL    HW127005   0.741   1.456   1.785  1.6217 -0.5387 -1.2351
 5182SOL    HW227006   0.786   1.542   1.678  2.2544  1.0702 -0.5639
 5183SOL     OW27007   1.533   2.850  11.233 -0.3730 -0.2059 -0.1641
 5183SOL    HW127008   1.500   2.837  11.145  0.4109 -0.0207 -0.4859
 5183SOL    HW227009   1.456   2.822  11.284 -1.6583  0.4914 -1.7383
 5184SOL     OW27010   3.097   4.291   0.900  0.1290  0.0129 -0.0732
 5184SOL    HW127011   3.009   4.321   0.922 -0.3806 -2.3009  1.0546
 5184SOL    HW227012   3.100   4.296   0.805  0.2721 -2.0098 -0.1706
 5185SOL     OW27013   0.005   3.764   4.753  0.0395 -0.3130 -0.4487
 5185SOL    HW127014   0.036   3.831   4.815  0.0775 -1.8819  1.2372
 5185SOL    HW227015   4.634   3.767   4.780  0.0862  0.9498 -0.4473
 5186SOL     OW27016   0.811   1.875   7.788 -0.4118  0.3149  0.4282
 5186SOL    HW127017   0.781   1.966   7.792 -1.9750  0.0052 -4.2802
 5186SOL    HW227018   0.872   1.868   7.862  1.2926  1.4513 -0.8824
 5187SOL     OW27019   2.784   2.642   8.209  0.2807 -0.5055 -0.0597
 5187SOL    HW127020   2.848   2.590   8.258 -0.4826 -2.6561 -1.3421
 5187SOL    HW227021   2.819   2.730   8.217  1.0622 -0.7756 -0.4814
 5188SOL     OW27022   2.678   3.593   1.747 -0.1599  0.4344 -0.1043
 5188SOL    HW127023   2.632   3.666   1.705  0.0393  2.0737  2.5546
 5188SOL    HW227024   2.757   3.600   1.693  0.4040 -0.6035  0.6032
 5189SOL     OW27025   0.998   4.333   7.671  0.1394 -0.1638  0.1414
 5189SOL    HW127026   1.040   4.308   7.753  2.5251 -1.1895 -1.3687
 5189SOL    HW227027   0.961   4.420   7.683 -1.7133 -0.7347 -1.3633
 5190SOL     OW27028   1.642   0.664   9.807  0.8001  0.4068  0.5245
 5190SOL    HW127029   1.607   0.721   9.739  0.0848 -0.3604  0.2515
 5190SOL    HW227030   1.737   0.671   9.794  0.2649  2.2501 -2.3143
 5191SOL     OW27031   1.245   0.157   1.863 -0.0844  0.6880 -0.6413
 5191SOL    HW127032   1.183   0.175   1.792 -2.2049 -3.1903  0.3091
 5191SOL    HW227033   1.325   0.152   1.810  1.2963 -0.6221  1.5710
 5192SOL     OW27034   2.154   0.380   2.088  0.6149 -0.5047  0.0668
 5192SOL    HW127035   2.174   0.397   1.996 -0.0375 -4.3710 -0.7905
 5192SOL    HW227036   2.066   0.343   2.078 -0.4620  1.7645  1.1289
 5193SOL     OW27037   1.505   2.831   2.397 -0.7925 -0.3045 -0.0433
 5193SOL    HW127038   1.540   2.752   2.356  1.1186  1.1059 -1.1536
 5193SOL    HW227039   1.433   2.800   2.452  0.1690  0.9868  1.9715
 5194SOL     OW27040   4.473   1.165   6.312 -0.4406 -0.6852 -0.4223
 5194SOL    HW127041   4.484   1.214   6.231  1.0587  0.7075  0.6003
 5194SOL    HW227042   4.510   1.077   6.301  3.1049  1.2028 -3.5708
 5195SOL     OW27043   0.582   1.651   9.101  0.6155 -0.1475 -0.1983
 5195SOL    HW127044   0.654   1.714   9.102 -0.1473  0.7434 -2.0914
 5195SOL    HW227045   0.517   1.698   9.049  0.7734 -1.0654 -1.2341
 5196SOL     OW27046   3.475   4.375   7.587 -0.0108 -0.6207 -0.1398
 5196SOL    HW127047   3.439   4.459   7.616 -0.6110 -0.7265 -0.5812
 5196SOL    HW227048   3.433   4.361   7.502 -0.6949  1.4330 -0.1615
 5197SOL     OW27049   3.431   3.579  10.565  0.1654 -1.0672 -0.0627
 5197SOL    HW127050   3.474   3.651  10.518  0.4361 -1.6109 -0.6539
 5197SOL    HW227051   3.496   3.574  10.635  1.1079  1.9254 -0.7118
 5198SOL     OW27052   0.415   3.774   8.829  0.2753  0.2233  0.0557
 5198SOL    HW127053   0.402   3.868   8.820  1.4024  0.3569 -0.1764
 5198SOL    HW227054   0.363   3.723   8.766 -3.3730  0.4963  2.8547
 5199SOL     OW27055   2.810   2.325   1.973  0.7309  0.2903  0.2966
 5199SOL    HW127056   2.830   2.243   1.928  3.0658  0.2365  1.4429
 5199SOL    HW227057   2.890   2.327   2.026  1.1959 -1.8124 -0.3001
 5200SOL     OW27058   2.582   0.248   4.086  0.4865  0.2937 -0.3758
 5200SOL    HW127059   2.511   0.193   4.120  1.1080  0.1294  0.6490
 5200SOL    HW227060   2.650   0.185   4.064 -1.6629 -1.9380 -0.6316
 5201SOL     OW27061   4.090   1.421   7.943 -0.0397 -0.2145  0.5744
 5201SOL    HW127062   4.001   1.394   7.921  0.2647  0.6468 -1.6862
 5201SOL    HW227063   4.067   1.508   7.977 -1.8200 -0.5288  0.1972
 5202SOL     OW27064   0.087   3.978  17.635 -0.3781  0.3347 -0.5166
 5202SOL    HW127065   0.068   3.897  17.682 -2.3520 -0.1798 -2.2186
 5202SOL    HW227066   0.181   3.990  17.648 -0.3177 -0.3673 -0.3183
 5203SOL     OW27067   3.231   3.068  12.633  0.7556 -0.0875 -0.0863
 5203SOL    HW127068   3.310   3.091  12.682  0.6262  1.6117 -0.6797
 5203SOL    HW227069   3.194   3.007  12.697 -0.6720 -0.8138 -1.6041
 5204SOL     OW27070   2.756   2.605   7.649 -0.1993  0.5767 -0.4892
 5204SOL    HW127071   2.826   2.664   7.677  0.8677 -1.2379  0.6684
 5204SOL    HW227072   2.764   2.540   7.719  1.1959  0.9457 -0.3262
 5205SOL     OW27073   1.667   2.557   9.197  0.3038 -0.0324  0.3311
 5205SOL    HW127074   1.725   2.632   9.208  1.0722 -0.2461 -2.3067
 5205SOL    HW227075   1.676   2.511   9.280 -0.9722  2.7377  2.0177
 5206SOL     OW27076   3.133   1.768  15.348  0.5728 -0.2364 -0.1463
 5206SOL    HW127077   3.114   1.678  15.375 -0.2959 -0.1285 -0.3964
 5206SOL    HW227078   3.170   1.796  15.432  1.4986 -0.4455 -0.4867
 5207SOL     OW27079   4.120   1.814  17.648 -0.0932 -0.0927  0.1868
 5207SOL    HW127080   4.127   1.889   0.017 -2.0007  0.2087  0.0215
 5207SOL    HW227081   4.119   1.746   0.027  0.7519 -0.8721 -0.5885
 5208SOL     OW27082   1.321   0.855  11.575  0.2218 -0.2861  0.0445
 5208SOL    HW127083   1.247   0.916  11.568  0.7645  0.2758 -0.7734
 5208SOL    HW227084   1.338   0.824  11.486  0.7439  0.0822  0.0200
 5209SOL     OW27085   3.693   2.166   4.139  0.7988  0.3371  0.1037
 5209SOL    HW127086   3.624   2.224   4.174 -2.0566 -2.4247 -0.9522
 5209SOL    HW227087   3.766   2.227   4.134  2.0254 -1.1342  0.1942
 5210SOL     OW27088   1.915   4.231   2.922  0.0855 -0.0125 -0.5815
 5210SOL    HW127089   1.978   4.206   2.990 -0.9238 -2.6210 -0.6164
 5210SOL    HW227090   1.934   4.171   2.851 -0.1638 -1.3918  0.5278
 5211SOL     OW27091   4.180   2.683   8.069  0.5161  0.4191 -0.3805
 5211SOL    HW127092   4.176   2.621   7.996 -1.1448 -0.7740  0.7460
 5211SOL    HW227093   4.267   2.664   8.104 -0.4353 -2.8162  0.1919
 5212SOL     OW27094   0.568   2.358   7.441  0.2416 -0.1978 -0.0288
 5212SOL    HW127095   0.493   2.415   7.457  2.9558  3.1943  0.6761
 5212SOL    HW227096   0.584   2.323   7.529 -0.8118  0.0418  0.2505
 5213SOL     OW27097   0.993   1.671   6.684 -0.1299 -0.2696 -0.5971
 5213SOL    HW127098   0.944   1.650   6.605 -0.2638  2.5169 -1.2703
 5213SOL    HW227099   0.922   1.683   6.747  0.1545  3.2753 -0.9492
 5214SOL     OW27100   2.618   2.798   7.513 -0.0754 -0.0892 -0.5358
 5214SOL    HW127101   2.649   2.721   7.562 -0.2769 -1.0474 -1.9273
 5214SOL    HW227102   2.698   2.850   7.504 -0.3479  0.5290  0.6440
 5215SOL     OW27103   0.929   0.790   8.530  0.0986 -0.5739 -0.0200
 5215SOL    HW127104   0.914   0.879   8.560  0.6143 -0.2095 -0.8547
 5215SOL    HW227105   1.025   0.789   8.520 -0.0742  1.2591 -1.6689
 5216SOL     OW27106   1.992   3.898  16.162  0.2546  0.0369  0.3073
 5216SOL    HW127107   1.911   3.935  16.197 -0.3545  0.9289 -2.0300
 5216SOL    HW227108   2.037   3.981  16.146 -2.2156  1.1978 -0.6367
 5217SOL     OW27109   3.265   2.388   1.780  0.3172 -0.7448  0.0576
 5217SOL    HW127110   3.258   2.318   1.715  0.6383 -0.9719  0.2635
 5217SOL    HW227111   3.332   2.448   1.746 -1.0143  0.9369  0.4359
 5218SOL     OW27112   3.321   0.613   0.680  0.4953 -0.0483  0.1223
 5218SOL    HW127113   3.363   0.592   0.596  1.2612  2.5736 -0.1503
 5218SOL    HW227114   3.324   0.709   0.682  0.8057 -0.1262  2.4300
 5219SOL     OW27115   2.883   4.062   1.983  0.1056 -0.6452 -0.3355
 5219SOL    HW127116   2.960   4.064   2.039 -0.5124 -1.3277  0.5374
 5219SOL    HW227117   2.892   3.969   1.962 -2.0408 -0.4299 -2.3127
 5220SOL     OW27118   1.770   4.154   4.522  0.0799  0.0065 -0.3282
 5220SOL    HW127119   1.813   4.173   4.439  0.0889 -1.3514 -0.6399
 5220SOL    HW227120   1.784   4.060   4.539 -4.9677 -0.2831  2.2879
 5221SOL     OW27121   1.668   1.622  14.693  0.2494  0.7291  0.1880
 5221SOL    HW127122   1.599   1.686  14.713  0.7987  1.2651  0.3923
 5221SOL    HW227123   1.744   1.674  14.668  0.4038  1.0027  1.2166
 5222SOL     OW27124   0.439   2.973  16.344  0.0222 -0.1045  0.3750
 5222SOL    HW127125   0.351   2.940  16.329 -0.7835  0.7018  3.4097
 5222SOL    HW227126   0.449   3.061  16.309 -0.6092 -0.7695 -1.4649
 5223SOL     OW27127   2.555   3.778   1.121  0.1287  0.0972 -0.1666
 5223SOL    HW127128   2.611   3.706   1.149 -0.3487 -1.2248 -2.6255
 5223SOL    HW227129   2.613   3.839   1.075 -0.5212  1.0034  0.2127
 5224SOL     OW27130   0.206   3.207  16.312  0.3145 -0.0556  0.3318
 5224SOL    HW127131   0.267   3.192  16.385  1.1275 -1.4450 -0.6179
 5224SOL    HW227132   0.245   3.165  16.235 -2.2684  1.4411 -1.7721
 5225SOL     OW27133   2.238   1.083   2.193  0.7284 -0.1144 -0.6272
 5225SOL    HW127134   2.258   1.103   2.285 -1.8106 -1.1004  0.1406
 5225SOL    HW227135   2.284   0.999   2.186  1.6493  0.2404  1.2238
 5226SOL     OW27136   3.174   4.015  16.529 -0.3650  0.5305 -0.4337
 5226SOL    HW127137   3.129   3.992  16.447 -0.6541  0.4988 -0.2650
 5226SOL    HW227138   3.240   3.947  16.542 -0.7250  0.5374  1.4184
 5227SOL     OW27139   0.928   1.111   7.154 -0.0536  0.6552  0.5587
 5227SOL    HW127140   0.912   1.024   7.118 -1.3682  1.5013 -0.8557
 5227SOL    HW227141   0.880   1.105   7.236  0.5049  2.2223  1.0095
 5228SOL     OW27142   3.346   4.149   6.763 -0.6048 -0.3640  0.6864
 5228SOL    HW127143   3.392   4.223   6.804  1.9613  0.0254 -2.8271
 5228SOL    HW227144   3.287   4.182   6.695  1.7000  1.6308 -0.3447
 5229SOL     OW27145   3.986   1.894   4.576  0.6589  0.4088  0.1212
 5229SOL    HW127146   4.069   1.848   4.579  1.0388  1.0724 -0.1594
 5229SOL    HW227147   4.001   1.966   4.637 -1.2947  0.9275 -0.0115
 5230SOL     OW27148   0.835   1.553   8.273 -0.3382  0.4656  0.3793
 5230SOL    HW127149   0.766   1.487   8.266 -1.0857  1.3084 -0.1672
 5230SOL    HW227150   0.908   1.491   8.270 -0.3334  0.5194 -0.5961
 5231SOL     OW27151   0.488   4.306   6.563 -0.1667  0.1535 -0.5508
 5231SOL    HW127152   0.552   4.376   6.577  0.6790 -1.1638  2.2302
 5231SOL    HW227153   0.418   4.317   6.627  0.2550  0.5587 -0.1541
 5232SOL     OW27154   0.128   0.345   8.263 -0.3590 -0.2631 -0.7505
 5232SOL    HW127155   0.170   0.334   8.349  0.0357  2.5308 -0.5797
 5232SOL    HW227156   0.189   0.392   8.206  0.4501  0.4939  0.7242
 5233SOL     OW27157   3.949   3.422   2.910 -0.3260  0.2346 -0.8141
 5233SOL    HW127158   3.923   3.507   2.873  0.3000 -0.4592 -2.8957
 5233SOL    HW227159   3.904   3.431   2.994  0.2838  1.1645 -0.5829
 5234SOL     OW27160   3.072   2.844   2.626  0.0472  0.3870  0.2341
 5234SOL    HW127161   3.000   2.793   2.663 -1.2429  4.1469  2.9485
 5234SOL    HW227162   3.144   2.801   2.673  0.1928  2.6562  2.0899
 5235SOL     OW27163   0.624   1.677   2.718  0.3140 -0.2018  0.0009
 5235SOL    HW127164   0.573   1.752   2.687  0.1216 -0.1813  0.3633
 5235SOL    HW227165   0.631   1.635   2.633 -1.1474  0.6179 -0.5280
 5236SOL     OW27166   3.873   0.540   6.939 -0.4034 -0.2524 -0.0380
 5236SOL    HW127167   3.862   0.449   6.912 -1.2819 -0.4490  0.9853
 5236SOL    HW227168   3.792   0.581   6.907 -0.3224  0.0920  0.1931
 5237SOL     OW27169   3.926   0.286  14.616 -0.1735 -0.1181  0.2533
 5237SOL    HW127170   3.863   0.225  14.576  0.5028  0.4669 -1.6833
 5237SOL    HW227171   3.862   0.336  14.666  0.3387  0.0201  0.7718
 5238SOL     OW27172   1.411   4.139  15.577  0.4514 -0.2647 -0.2967
 5238SOL    HW127173   1.386   4.164  15.666 -1.1124 -2.6773 -0.0414
 5238SOL    HW227174   1.376   4.050  15.572 -2.7094  1.0015 -0.7264
 5239SOL     OW27175   3.989   1.261  10.668 -0.3147 -0.1866  0.1138
 5239SOL    HW127176   3.980   1.186  10.725 -1.4861 -0.7663 -0.8336
 5239SOL    HW227177   4.083   1.276  10.677 -0.4281  0.9227 -0.4667
 5240SOL     OW27178   1.587   1.181   1.382 -0.0750 -0.2114 -0.2427
 5240SOL    HW127179   1.679   1.164   1.363 -0.3204 -1.3587 -0.4620
 5240SOL    HW227180   1.574   1.269   1.347  0.3091 -0.5760 -1.2973
 5241SOL     OW27181   4.699   4.673   3.535 -0.0271 -0.1406  0.1838
 5241SOL    HW127182   4.676   0.042   3.514  2.5360  0.2585 -0.9943
 5241SOL    HW227183   4.685   4.672   3.630  0.8694 -1.5570  0.3087
 5242SOL     OW27184   2.991   0.168  16.191  0.2605  0.0659  0.4547
 5242SOL    HW127185   2.927   0.097  16.185 -0.7874  1.2486 -2.2064
 5242SOL    HW227186   3.070   0.129  16.153 -0.0494  0.6863 -0.8263
 5243SOL     OW27187   1.758   0.382   9.110  0.1299 -0.5666 -0.6045
 5243SOL    HW127188   1.831   0.331   9.143  1.5028  1.8499  0.0932
 5243SOL    HW227189   1.682   0.337   9.149 -1.0219  0.2214 -1.9362
 5244SOL     OW27190   0.606   0.439   4.888  0.2750  0.0768  0.5806
 5244SOL    HW127191   0.630   0.348   4.906  0.0644  0.1120  1.0366
 5244SOL    HW227192   0.555   0.461   4.966 -0.7019  1.7546 -0.5226
 5245SOL     OW27193   2.658   2.056   5.447  0.2735  0.2568 -0.0641
 5245SOL    HW127194   2.735   2.012   5.410  0.3772  0.8787 -0.5990
 5245SOL    HW227195   2.698   2.092   5.526  0.5389  0.7893 -0.4452
 5246SOL     OW27196   1.110   3.985   1.019 -0.0996 -0.2276 -0.1443
 5246SOL    HW127197   1.201   3.996   1.044  0.2569 -1.6413 -0.8193
 5246SOL    HW227198   1.111   3.905   0.967  0.6623 -0.5769  0.4214
 5247SOL     OW27199   3.404   2.060   0.114 -0.6061  0.2935 -0.1905
 5247SOL    HW127200   3.349   2.066   0.035 -0.3423 -0.0376 -0.3981
 5247SOL    HW227201   3.445   1.975   0.097  0.7167  0.8682  0.1735
 5248SOL     OW27202   0.176   2.295   8.263 -0.0063 -0.6423  0.0443
 5248SOL    HW127203   0.115   2.276   8.335 -0.0413  0.0327  0.1925
 5248SOL    HW227204   0.230   2.216   8.260 -0.6040 -1.0184 -0.7939
 5249SOL     OW27205   0.249   3.555  17.648  0.1032  1.1917 -0.3155
 5249SOL    HW127206   0.213   3.467  17.642 -0.0191  1.1287  1.3868
 5249SOL    HW227207   0.175   3.601  17.687 -0.0034  0.7133  0.0410
 5250SOL     OW27208   1.409   0.252   2.972  0.1589  0.0877 -0.2910
 5250SOL    HW127209   1.320   0.219   2.966  0.1856 -0.3743  1.7714
 5250SOL    HW227210   1.389   0.332   3.021  0.8558 -0.0416  0.2269
 5251SOL     OW27211   3.638   2.584   3.249 -0.0633 -0.4264 -0.2994
 5251SOL    HW127212   3.655   2.556   3.159 -0.1992 -0.1012 -0.4260
 5251SOL    HW227213   3.646   2.680   3.247 -3.6282 -0.1540 -0.0497
 5252SOL     OW27214   3.993   4.304   5.248 -0.3126  0.3182 -0.0243
 5252SOL    HW127215   3.938   4.307   5.326 -0.2830  0.8019 -0.0231
 5252SOL    HW227216   3.957   4.220   5.220  1.6775  0.2273 -2.3446
 5253SOL     OW27217   0.960   4.271   0.432 -0.3167  0.3864 -0.1824
 5253SOL    HW127218   1.052   4.289   0.448 -0.2832  0.3730 -0.3683
 5253SOL    HW227219   0.926   4.341   0.377 -0.1541  0.1472 -0.5852
 5254SOL     OW27220   1.750   4.425   6.117 -0.1373  0.7865 -0.3542
 5254SOL    HW127221   1.794   4.340   6.110  1.4413  1.5154  0.6038
 5254SOL    HW227222   1.662   4.390   6.105 -0.3613  0.4171  2.4174
 5255SOL     OW27223   0.929   2.016   6.353 -0.7324 -0.4738  0.5716
 5255SOL    HW127224   0.903   2.003   6.262 -2.5024 -0.9061  1.1526
 5255SOL    HW227225   0.924   2.110   6.365  0.7757 -0.1447 -1.3570
 5256SOL     OW27226   3.670   4.699   6.392 -0.5926 -0.3258  0.2198
 5256SOL    HW127227   3.595   4.673   6.338  0.5956 -1.0547 -1.0807
 5256SOL    HW227228   3.632   0.050   6.441 -0.0998 -0.6115  1.0250
 5257SOL     OW27229   3.247   1.530  14.565 -0.1264 -0.3281  0.1765
 5257SOL    HW127230   3.231   1.471  14.490 -1.1855  0.1879 -0.0065
 5257SOL    HW227231   3.258   1.467  14.636 -0.7252 -1.3048 -0.5938
 5258SOL     OW27232   3.415   2.895  14.574  0.0748  0.5360  0.0275
 5258SOL    HW127233   3.353   2.895  14.501  0.8157 -0.7053 -0.6108
 5258SOL    HW227234   3.365   2.893  14.656  0.1202 -0.9521  0.0318
 5259SOL     OW27235   0.656   1.186  13.177 -0.0694 -0.7910  0.3110
 5259SOL    HW127236   0.668   1.230  13.261  1.3643 -0.6980  0.0626
 5259SOL    HW227237   0.679   1.098  13.206  1.4500 -0.2290  0.8149
 5260SOL     OW27238   2.157   3.054   5.995  0.1254 -0.1906 -0.5620
 5260SOL    HW127239   2.199   3.119   5.939 -1.8162  1.6779  0.1197
 5260SOL    HW227240   2.181   2.971   5.952 -1.1981 -0.7900 -0.1664
 5261SOL     OW27241   0.105   2.302   5.555  0.0836 -0.1621 -0.2173
 5261SOL    HW127242   0.093   2.262   5.641 -0.8792 -0.9757 -0.7341
 5261SOL    HW227243   0.031   2.258   5.513 -1.2990 -1.0263  3.0811
 5262SOL     OW27244   2.478   4.623  17.673  0.5297  0.1011  0.4308
 5262SOL    HW127245   2.383   4.614  17.674  0.4443  0.7716 -1.7171
 5262SOL    HW227246   2.512   4.617   0.073 -0.6665 -0.3694  0.8447
 5263SOL     OW27247   3.459   3.791   2.369 -0.0190  0.8601 -0.1857
 5263SOL    HW127248   3.413   3.874   2.378 -1.6944 -0.2286  1.0652
 5263SOL    HW227249   3.545   3.819   2.338  0.0602  2.4332  1.4858
 5264SOL     OW27250   0.926   2.744   7.324  0.5148 -0.2683 -0.2553
 5264SOL    HW127251   0.946   2.808   7.392 -1.3689 -0.1117  0.1285
 5264SOL    HW227252   0.995   2.769   7.261 -3.8956  1.4702 -4.3901
 5265SOL     OW27253   0.798   0.697  12.971  0.5192 -0.0661  0.1702
 5265SOL    HW127254   0.739   0.637  12.924 -0.3109  1.3873 -0.6364
 5265SOL    HW227255   0.872   0.642  12.995 -0.3001 -0.2789  2.2962
 5266SOL     OW27256   3.717   0.542   3.985  0.0810  0.5244  0.3274
 5266SOL    HW127257   3.688   0.488   3.912  0.7665  0.9177 -0.2312
 5266SOL    HW227258   3.637   0.566   4.032  1.3519  0.0979  2.7392
 5267SOL     OW27259   2.230   1.507  17.525  0.0551  0.2246 -0.4468
 5267SOL    HW127260   2.304   1.553  17.487 -1.2434  2.1789 -0.6075
 5267SOL    HW227261   2.153   1.548  17.485 -0.9347 -0.2994  0.8810
 5268SOL     OW27262   2.211   3.018   2.094  0.2798  0.3905  0.1317
 5268SOL    HW127263   2.169   3.057   2.170 -0.5106  0.9120 -0.5755
 5268SOL    HW227264   2.153   3.043   2.022  0.7592  0.7235 -0.1417
 5269SOL     OW27265   0.545   1.876   5.683  0.4577 -0.4745 -0.4825
 5269SOL    HW127266   0.526   1.969   5.687  3.2797 -0.0696  3.7590
 5269SOL    HW227267   0.463   1.845   5.722 -0.3357  1.8596 -0.2873
 5270SOL     OW27268   4.305   1.139   0.998  0.0554 -0.0890 -0.0318
 5270SOL    HW127269   4.390   1.157   1.038 -0.4754  0.6886  0.7356
 5270SOL    HW227270   4.266   1.070   1.053 -1.0151 -0.3135 -1.0737
 5271SOL     OW27271   0.779   2.261   2.438 -0.7525 -0.0625  0.2034
 5271SOL    HW127272   0.728   2.237   2.360 -0.8257 -0.2512  0.3110
 5271SOL    HW227273   0.765   2.355   2.426 -0.3766 -0.1698 -1.1080
 5272SOL     OW27274   2.383   1.445  11.285 -0.2887 -0.1960  0.7687
 5272SOL    HW127275   2.412   1.397  11.363  1.1008 -2.0394 -0.9018
 5272SOL    HW227276   2.419   1.531  11.307 -1.0841  0.4400 -0.4159
 5273SOL     OW27277   0.986   4.664  12.348 -0.5364  0.3201 -0.2462
 5273SOL    HW127278   1.068   4.615  12.357 -0.6342 -0.0656 -1.3778
 5273SOL    HW227279   0.941   4.598  12.295  0.4695 -0.4433 -0.1505
 5274SOL     OW27280   4.158   0.648   8.927 -0.3355  0.1965 -0.4152
 5274SOL    HW127281   4.133   0.607   8.845 -0.6308  0.1741 -0.3136
 5274SOL    HW227282   4.204   0.722   8.887 -0.9743  0.8654  0.0796
 5275SOL     OW27283   4.410   3.633   3.606  0.1227  0.6751 -0.1408
 5275SOL    HW127284   4.392   3.651   3.513  0.8252 -0.0714 -0.4171
 5275SOL    HW227285   4.485   3.693   3.616  1.0691 -0.1094 -2.4820
 5276SOL     OW27286   3.385   1.312  13.426 -0.2019 -0.3730  0.0944
 5276SOL    HW127287   3.478   1.293  13.413  0.3317  0.9860  2.0709
 5276SOL    HW227288   3.377   1.378  13.357 -0.8058  2.4153  2.8319
 5277SOL     OW27289   2.102   4.362   0.673  0.3338  0.4591  0.0922
 5277SOL    HW127290   2.182   4.411   0.695  2.0875 -2.9441  1.3194
 5277SOL    HW227291   2.053   4.368   0.755  1.0896 -1.7965  0.7261
 5278SOL     OW27292   0.686   3.786   3.094  0.1247  0.3171  0.0710
 5278SOL    HW127293   0.717   3.746   3.012 -1.6825  1.8808 -1.3763
 5278SOL    HW227294   0.729   3.729   3.158  0.6048 -0.5388 -1.0099
 5279SOL     OW27295   1.155   0.188  13.608 -0.5465  0.1082  0.4522
 5279SOL    HW127296   1.069   0.161  13.576 -0.4085  0.1938  0.0002
 5279SOL    HW227297   1.130   0.280  13.609 -2.3332 -0.3823 -0.1771
 5280SOL     OW27298   3.242   3.620   6.639 -0.4357 -0.1935  0.5750
 5280SOL    HW127299   3.184   3.589   6.569  0.8352 -0.5812 -0.3150
 5280SOL    HW227300   3.185   3.600   6.712 -0.6592 -0.0731  0.4354
 5281SOL     OW27301   4.576   1.289   4.567  0.1337  0.6164  0.3951
 5281SOL    HW127302   4.628   1.305   4.489  0.9633  1.8247  1.2058
 5281SOL    HW227303   4.520   1.218   4.535  0.0155  1.8972 -2.2856
 5282SOL     OW27304   2.799   1.618   2.375  0.1150  0.2354 -0.0283
 5282SOL    HW127305   2.792   1.525   2.355  1.6855  0.1563 -0.2236
 5282SOL    HW227306   2.715   1.632   2.418  1.3722 -1.2042  2.8814
 5283SOL     OW27307   4.140   4.278   5.485  0.6238  0.4862 -0.7322
 5283SOL    HW127308   4.157   4.353   5.427  0.6684 -1.2743 -3.0151
 5283SOL    HW227309   4.054   4.246   5.459  0.2938  1.1808 -0.5028
 5284SOL     OW27310   3.266   3.080   6.997  0.0462 -0.1357 -0.0109
 5284SOL    HW127311   3.243   3.036   6.915  1.4164  0.7451 -0.8682
 5284SOL    HW227312   3.246   3.010   7.059  3.3691  0.4823  1.7601
 5285SOL     OW27313   3.141   0.328   6.905  0.6144  0.9058  0.0689
 5285SOL    HW127314   3.065   0.283   6.867  1.0791  0.8060 -0.7438
 5285SOL    HW227315   3.113   0.363   6.990  0.0753 -1.2599  0.7777
 5286SOL     OW27316   2.500   0.729  12.053 -0.4739 -0.4492  0.1180
 5286SOL    HW127317   2.466   0.724  11.963 -0.5747  1.9248  0.0098
 5286SOL    HW227318   2.590   0.758  12.039 -0.9472  1.1126  0.2718
 5287SOL     OW27319   4.074   2.932   9.997 -0.0611  0.6256 -0.4070
 5287SOL    HW127320   4.070   3.024   9.970 -0.5281  1.3681  2.2333
 5287SOL    HW227321   3.983   2.902   9.997 -0.7539  2.6640 -1.1738
 5288SOL     OW27322   0.238   0.736   5.990 -0.0713 -0.0831 -0.3925
 5288SOL    HW127323   0.177   0.752   6.063 -0.7249  1.0393 -1.1885
 5288SOL    HW227324   0.179   0.715   5.918 -3.0953 -2.6622  2.7996
 5289SOL     OW27325   1.391   1.408  10.254 -0.2165  0.5727  0.5332
 5289SOL    HW127326   1.296   1.400  10.263 -0.1708 -0.1268  0.4187
 5289SOL    HW227327   1.389   1.488  10.203 -2.0405  1.5758  2.1553
 5290SOL     OW27328   3.044   3.484   5.518  0.0886 -0.1404 -0.4040
 5290SOL    HW127329   3.080   3.426   5.585 -3.5794 -0.1883  1.5433
 5290SOL    HW227330   3.110   3.467   5.451  0.2358 -0.7820 -0.0871
 5291SOL     OW27331   4.691   4.677   5.841 -0.4901  0.0457  0.3654
 5291SOL    HW127332   0.012   4.598   5.874 -1.6925  0.9762  4.1209
 5291SOL    HW227333   4.604   4.654   5.872 -2.1320  1.5942 -3.0710
 5292SOL     OW27334   3.479   3.433   7.508  0.0518  0.2142  0.0120
 5292SOL    HW127335   3.544   3.363   7.518 -0.0245  0.2627  0.8506
 5292SOL    HW227336   3.531   3.498   7.460 -2.5147  1.9832 -0.3665
 5293SOL     OW27337   1.968   3.495   7.627 -0.4604 -0.2150  0.9789
 5293SOL    HW127338   1.891   3.507   7.572  0.2217  0.0557  0.0723
 5293SOL    HW227339   1.950   3.541   7.709 -1.4197 -0.3788  0.8517
 5294SOL     OW27340   2.486   1.592  14.788 -1.0849  0.0679  0.2499
 5294SOL    HW127341   2.499   1.524  14.855  1.8919  0.0065 -0.4000
 5294SOL    HW227342   2.403   1.570  14.746 -0.3027 -0.4353 -1.0092
 5295SOL     OW27343   4.155   3.406   4.624 -0.1538  0.1417  0.2040
 5295SOL    HW127344   4.064   3.391   4.603 -0.2168  1.1344 -0.2480
 5295SOL    HW227345   4.174   3.357   4.704 -1.1058 -1.7640 -0.7420
 5296SOL     OW27346   1.511   4.150   2.827 -0.4179 -0.6529 -0.4794
 5296SOL    HW127347   1.553   4.190   2.751  0.4552 -0.0005  0.3523
 5296SOL    HW227348   1.471   4.071   2.792 -0.2642 -1.1944  0.5602
 5297SOL     OW27349   4.393   2.881   2.933  0.1391 -0.1977  0.2836
 5297SOL    HW127350   4.325   2.894   2.867 -0.4649 -2.4168  0.4457
 5297SOL    HW227351   4.466   2.921   2.887 -0.7790  0.9457 -0.1874
 5298SOL     OW27352   0.070   3.387   7.405 -0.0999 -0.4105 -0.0371
 5298SOL    HW127353   4.698   3.369   7.389 -0.2191  1.1942 -1.1624
 5298SOL    HW227354   0.116   3.365   7.324 -1.4224  1.5781 -1.3267
 5299SOL     OW27355   1.542   4.243   0.728 -0.5139  0.3692  0.0736
 5299SOL    HW127356   1.607   4.310   0.707 -1.0647  0.3320 -1.6767
 5299SOL    HW227357   1.495   4.277   0.804  0.2127 -1.1702  1.2090
 5300SOL     OW27358   4.013   3.889   8.942  0.0410  0.3758 -0.3997
 5300SOL    HW127359   3.988   3.979   8.961  2.0714  0.7470  0.4929
 5300SOL    HW227360   4.087   3.907   8.885  2.2965  1.1860  2.7714
 5301SOL     OW27361   2.231   1.359   9.468 -0.2941 -0.3074 -0.3284
 5301SOL    HW127362   2.158   1.314   9.510  0.5600 -1.1988  0.1953
 5301SOL    HW227363   2.244   1.446   9.505 -0.3861 -0.9578  1.2214
 5302SOL     OW27364   1.392   0.249  15.951  0.0870 -0.8143 -0.3754
 5302SOL    HW127365   1.351   0.181  15.897 -1.9506  1.0602 -1.1462
 5302SOL    HW227366   1.335   0.324  15.934  0.8253  0.2453  1.8218
 5303SOL     OW27367   2.711   1.187   8.946  0.0581  0.2355 -0.4939
 5303SOL    HW127368   2.713   1.093   8.963 -0.4010  0.7845  2.5833
 5303SOL    HW227369   2.666   1.197   8.862  1.0455 -0.8637 -1.1615
 5304SOL     OW27370   4.205   0.911   2.895  0.2211  0.5881  0.3480
 5304SOL    HW127371   4.258   0.964   2.955  0.6476  0.9807 -0.3751
 5304SOL    HW227372   4.275   0.886   2.834  0.3744 -0.5240  0.9745
 5305SOL     OW27373   3.634   2.034   7.325 -0.2143 -0.4947  0.3354
 5305SOL    HW127374   3.625   2.076   7.411  0.4948  0.5012 -0.0757
 5305SOL    HW227375   3.553   1.984   7.321 -0.2321 -0.4920  0.6361
 5306SOL     OW27376   1.773   3.876   1.965 -0.2584  0.5156  0.1269
 5306SOL    HW127377   1.750   3.835   2.048 -0.0776 -1.5777 -0.8538
 5306SOL    HW227378   1.715   3.834   1.902 -1.1745  0.0907  1.2584
 5307SOL     OW27379   2.841   3.996  17.354 -0.5418  0.4838  0.2428
 5307SOL    HW127380   2.769   4.051  17.323  1.0418  2.0296 -0.6366
 5307SOL    HW227381   2.798   3.917  17.389  1.8584 -0.6369  0.6676
 5308SOL     OW27382   2.638   0.207  10.284  0.1244 -0.1279  0.3234
 5308SOL    HW127383   2.627   0.300  10.304  0.8381 -0.1811  0.9567
 5308SOL    HW227384   2.708   0.226  10.221  0.0151  1.5826  0.7129
 5309SOL     OW27385   1.614   1.394   6.324 -0.0025 -0.6816 -0.3712
 5309SOL    HW127386   1.689   1.449   6.346 -1.4432  0.9386  0.5014
 5309SOL    HW227387   1.557   1.447   6.379  0.9567  1.6592 -1.6339
 5310SOL     OW27388   0.203   2.283   2.179 -0.1830 -0.2938  0.0438
 5310SOL    HW127389   0.282   2.232   2.201 -0.0559 -0.1863 -0.1740
 5310SOL    HW227390   0.144   2.215   2.146 -0.2174 -0.6102  0.7396
 5311SOL     OW27391   2.266   1.304  10.979 -0.2061 -0.1288  0.5089
 5311SOL    HW127392   2.183   1.341  11.011 -0.6173 -0.7167  0.1170
 5311SOL    HW227393   2.255   1.277  10.887  1.3587 -0.7989  0.5351
 5312SOL     OW27394   0.360   2.875   3.703  0.0384  0.2179  0.1348
 5312SOL    HW127395   0.410   2.900   3.626  0.1168  0.7350  0.3554
 5312SOL    HW227396   0.298   2.948   3.701  0.2286  0.3527 -0.7387
 5313SOL     OW27397   1.645   3.300  14.498  0.5597 -0.2101  0.4895
 5313SOL    HW127398   1.733   3.267  14.483 -0.2738 -1.0855 -2.4474
 5313SOL    HW227399   1.615   3.248  14.573 -1.9977  0.3064 -0.1559
 5314SOL     OW27400   4.663   1.415   3.346 -0.3409  0.0284 -0.2100
 5314SOL    HW127401   4.609   1.337   3.360  0.5157 -0.6105 -0.4708
 5314SOL    HW227402   0.031   1.382   3.352 -0.6888 -0.8516  0.1300
 5315SOL     OW27403   3.625   2.503   1.563  0.4503 -0.3211 -0.9967
 5315SOL    HW127404   3.576   2.499   1.646 -0.9242 -0.7170 -1.8197
 5315SOL    HW227405   3.629   2.409   1.544  0.7392 -0.4007 -0.5512
 5316SOL     OW27406   0.662   1.460   9.283 -0.3160 -0.5134  0.3242
 5316SOL    HW127407   0.632   1.533   9.229  0.5257 -1.3100 -1.1957
 5316SOL    HW227408   0.667   1.389   9.219  1.7275  1.0729 -1.2561
 5317SOL     OW27409   2.833   1.941   7.992 -0.0504  0.0270  0.2447
 5317SOL    HW127410   2.798   2.029   8.004  0.1567  0.1492 -0.0388
 5317SOL    HW227411   2.834   1.917   8.085 -2.3082  0.4554  0.3854
 5318SOL     OW27412   2.240   1.360   5.750  0.2331  0.1336  0.0578
 5318SOL    HW127413   2.201   1.439   5.788 -0.1329 -0.4974  1.0080
 5318SOL    HW227414   2.333   1.386   5.750  0.8465 -2.0669 -2.0867
 5319SOL     OW27415   1.988   4.462   5.384 -0.1853 -0.2163 -0.0150
 5319SOL    HW127416   2.076   4.435   5.356  0.5066  1.9385  0.0689
 5319SOL    HW227417   1.939   4.388   5.347 -1.8101  1.1232 -0.5031
 5320SOL     OW27418   1.271   4.146   1.967  0.0137  0.5144 -0.3710
 5320SOL    HW127419   1.200   4.181   2.021  2.8639  3.6319  1.3307
 5320SOL    HW227420   1.319   4.227   1.949  1.3695 -0.5240 -1.4618
 5321SOL     OW27421   2.008   3.006   1.896  0.2309  0.0216 -0.5952
 5321SOL    HW127422   2.005   2.913   1.916  0.9918  0.3822  1.1400
 5321SOL    HW227423   1.914   3.019   1.880 -0.0607 -1.9992 -0.4652
 5322SOL     OW27424   0.959   2.592   3.333 -0.1023 -0.4272  0.1284
 5322SOL    HW127425   0.918   2.558   3.412  1.2435  2.0424  1.8952
 5322SOL    HW227426   0.925   2.535   3.264 -1.0579 -0.2534  0.4593
 5323SOL     OW27427   1.881   1.250  15.255  0.3153  0.8148 -0.1476
 5323SOL    HW127428   1.795   1.266  15.217  0.1694  0.8849  0.2146
 5323SOL    HW227429   1.875   1.160  15.288  2.4304  0.2348 -1.3067
 5324SOL     OW27430   1.296   0.190   9.547  0.3520  0.8194 -0.7854
 5324SOL    HW127431   1.267   0.223   9.632  1.3113  0.1559 -0.2010
 5324SOL    HW227432   1.324   0.261   9.490 -0.1996  0.5833 -1.3480
 5325SOL     OW27433   0.129   1.149   5.160 -0.1351  0.7907 -0.6434
 5325SOL    HW127434   0.137   1.243   5.170  1.3644  0.3934  1.8705
 5325SOL    HW227435   0.187   1.125   5.088 -0.6749 -2.6442  0.0687
 5326SOL     OW27436   3.345   1.566   7.885 -0.2147  0.1984 -0.1202
 5326SOL    HW127437   3.291   1.493   7.917  0.9655 -0.2552  0.8324
 5326SOL    HW227438   3.279   1.632   7.864 -0.3295 -0.1613 -0.8732
 5327SOL     OW27439   4.109   0.592  13.410 -0.3525  0.1666  0.0813
 5327SOL    HW127440   4.134   0.618  13.321 -1.0210 -0.2897 -0.2383
 5327SOL    HW227441   4.077   0.673  13.448  0.9169  0.4083  0.6587
 5328SOL     OW27442   4.414   2.272  11.435  0.5411 -0.1673 -0.4676
 5328SOL    HW127443   4.499   2.242  11.466  0.4921  0.7846  0.5677
 5328SOL    HW227444   4.439   2.309  11.350 -2.4333  0.8358 -0.8951
 5329SOL     OW27445   2.713   4.153   4.335  0.3243  0.2151 -0.1512
 5329SOL    HW127446   2.706   4.248   4.335 -2.3812  0.0388 -0.8772
 5329SOL    HW227447   2.719   4.128   4.428  1.3286 -1.0648 -0.5635
 5330SOL     OW27448   2.362   1.510   5.271 -0.0152 -0.1206  0.0643
 5330SOL    HW127449   2.409   1.538   5.349  0.6156 -2.1482  0.4235
 5330SOL    HW227450   2.295   1.577   5.265  0.6247  0.5480  0.3938
 5331SOL     OW27451   2.940   0.927   4.387 -0.2698 -0.0808 -0.0780
 5331SOL    HW127452   3.020   0.979   4.386 -0.0979 -0.3426 -0.0421
 5331SOL    HW227453   2.909   0.947   4.299  0.6378  1.0501 -0.1384
 5332SOL     OW27454   1.485   3.262   8.086 -0.5834 -0.1647  0.7214
 5332SOL    HW127455   1.502   3.176   8.125 -2.4840 -1.5782 -1.5845
 5332SOL    HW227456   1.390   3.261   8.079 -0.5054 -0.0821 -0.3921
 5333SOL     OW27457   1.045   2.742   3.025 -0.1198 -0.0616  0.2622
 5333SOL    HW127458   0.983   2.805   3.062  1.3960  1.4896  0.1793
 5333SOL    HW227459   1.099   2.725   3.102 -0.6169 -2.5211  0.0591
 5334SOL     OW27460   2.622   1.171   2.973 -0.1239 -0.4554 -0.4918
 5334SOL    HW127461   2.708   1.211   2.990 -1.5706  1.2747  2.5647
 5334SOL    HW227462   2.617   1.201   2.882 -1.6571  0.5910 -0.0447
 5335SOL     OW27463   3.479   0.515   7.772 -0.2578 -0.4613  0.7397
 5335SOL    HW127464   3.420   0.446   7.801 -1.1588  0.2817  0.6902
 5335SOL    HW227465   3.443   0.584   7.828  0.5745  1.2926 -0.8838
 5336SOL     OW27466   1.860   1.337   2.477 -0.5202  0.0245  0.3571
 5336SOL    HW127467   1.821   1.286   2.548  0.9900 -1.2130  0.3185
 5336SOL    HW227468   1.952   1.343   2.505 -0.3465  0.8558 -0.4213
 5337SOL     OW27469   0.158   2.294  14.038 -0.0109  0.3885  1.1706
 5337SOL    HW127470   0.109   2.284  14.119 -0.6349 -0.0261  0.7345
 5337SOL    HW227471   0.244   2.321  14.070 -0.5307 -0.1101  2.9777
 5338SOL     OW27472   2.895   3.575   1.580  0.7459 -0.2509  0.1946
 5338SOL    HW127473   2.950   3.648   1.607  0.0740  0.6413 -0.8434
 5338SOL    HW227474   2.884   3.597   1.488  0.9489 -2.7226 -0.4141
 5339SOL     OW27475   0.483   2.627   1.728 -0.7924  0.0978  0.1854
 5339SOL    HW127476   0.464   2.690   1.659 -0.4889  1.2629  1.1699
 5339SOL    HW227477   0.437   2.548   1.700 -2.6653  0.9234  0.9935
 5340SOL     OW27478   0.245   1.095  11.170 -0.3373 -0.1881 -0.2568
 5340SOL    HW127479   0.257   1.175  11.221 -0.2546  0.9640 -2.0903
 5340SOL    HW227480   0.298   1.035  11.223  0.5964  0.7282 -0.1392
 5341SOL     OW27481   2.649   1.406   1.230 -0.2337 -0.4993  0.6910
 5341SOL    HW127482   2.557   1.389   1.210  0.5142 -0.9323 -2.2678
 5341SOL    HW227483   2.650   1.439   1.320 -2.9268  2.8503 -0.5304
 5342SOL     OW27484   2.451   1.241  12.617 -0.0794 -0.2570  0.5582
 5342SOL    HW127485   2.439   1.336  12.615 -0.9783 -0.3674  1.1885
 5342SOL    HW227486   2.541   1.227  12.647 -0.1793 -1.4808  0.2851
 5343SOL     OW27487   2.319   0.386   8.472  0.1157 -0.2215  0.0564
 5343SOL    HW127488   2.364   0.422   8.395  0.6906  0.3675  0.6686
 5343SOL    HW227489   2.252   0.452   8.485  0.3185 -0.1552  0.7586
 5344SOL     OW27490   1.772   4.546   6.650 -0.2892  0.6102  0.6276
 5344SOL    HW127491   1.798   4.588   6.568 -2.1274  5.4499  2.5186
 5344SOL    HW227492   1.719   4.477   6.611 -0.5444  0.6880  0.8349
 5345SOL     OW27493   1.059   2.324   0.739 -0.8953 -0.1614 -0.5056
 5345SOL    HW127494   1.053   2.258   0.808 -0.9215 -0.0538 -0.4048
 5345SOL    HW227495   1.105   2.395   0.785  1.0023 -1.3686 -0.5324
 5346SOL     OW27496   2.654   3.797   3.212  0.5519 -0.0330  0.1802
 5346SOL    HW127497   2.591   3.758   3.272  0.4260 -2.9035 -1.8258
 5346SOL    HW227498   2.645   3.734   3.141 -0.5520  0.7187 -0.3406
 5347SOL     OW27499   4.008   2.909   4.491  0.0865  0.0689 -0.1531
 5347SOL    HW127500   3.940   2.903   4.558  1.4154 -1.3747  1.0867
 5347SOL    HW227501   4.086   2.908   4.547  0.3349  0.5374 -0.4871
 5348SOL     OW27502   0.516   1.692   6.671 -0.1328  0.0782  0.5771
 5348SOL    HW127503   0.604   1.685   6.709  0.4391  1.5013 -0.5041
 5348SOL    HW227504   0.491   1.782   6.690 -1.4012  0.0647 -1.0465
 5349SOL     OW27505   2.659   1.748   5.203 -0.3586 -0.7865 -0.3206
 5349SOL    HW127506   2.725   1.808   5.170  0.4781 -2.2458 -1.3386
 5349SOL    HW227507   2.596   1.755   5.131 -0.6979 -0.3100  0.0219
 5350SOL     OW27508   1.617   3.725   8.244  0.7272 -0.0441 -0.0157
 5350SOL    HW127509   1.580   3.637   8.246 -1.2775  0.7797 -0.3379
 5350SOL    HW227510   1.697   3.725   8.192 -0.0525  0.5030 -1.2225
 5351SOL     OW27511   1.627   2.061   7.982 -0.3411 -0.0262  0.4219
 5351SOL    HW127512   1.697   1.996   7.984 -1.0072 -0.7042  1.4095
 5351SOL    HW227513   1.547   2.011   7.998 -0.5396  0.8235  2.0469
 5352SOL     OW27514   3.704   4.489   5.979  0.0683  0.1934 -0.1996
 5352SOL    HW127515   3.714   4.472   6.073  0.9671  1.1982 -0.1267
 5352SOL    HW227516   3.794   4.476   5.950 -0.0526 -0.3278 -0.3568
 5353SOL     OW27517   4.590   3.431   5.975 -0.8770  0.3077  0.1406
 5353SOL    HW127518   4.530   3.380   6.029 -2.1023  0.8827 -0.6761
 5353SOL    HW227519   4.670   3.383   6.000 -0.6741  1.3877  1.5666
 5354SOL     OW27520   1.018   0.830   0.664 -1.0530 -0.3884  0.0057
 5354SOL    HW127521   1.086   0.869   0.608 -3.1868  1.1489 -1.4789
 5354SOL    HW227522   1.042   0.866   0.749  3.7447 -0.4742 -1.2606
 5355SOL     OW27523   3.335   3.846   1.987 -0.4071  0.9429 -0.3313
 5355SOL    HW127524   3.322   3.915   1.922 -1.5803  1.3642  0.3418
 5355SOL    HW227525   3.255   3.795   1.976 -1.0284  1.3450  2.3171
 5356SOL     OW27526   2.142   2.062   4.447 -0.0466 -0.0606 -0.2423
 5356SOL    HW127527   2.184   1.983   4.482  0.0821  0.4194  0.6884
 5356SOL    HW227528   2.104   2.085   4.532 -0.2227 -0.0991 -0.3091
 5357SOL     OW27529   0.482   0.977   5.136 -0.1050  0.3745 -0.3364
 5357SOL    HW127530   0.480   1.022   5.220  2.2759  1.5081 -0.8844
 5357SOL    HW227531   0.427   1.039   5.088  0.1217 -0.5893 -1.8757
 5358SOL     OW27532   2.034   1.186   1.920  0.1435 -0.4666  0.0519
 5358SOL    HW127533   1.983   1.247   1.972  0.4774  0.1836 -0.3715
 5358SOL    HW227534   2.104   1.238   1.879 -0.6442 -0.7267 -1.6312
 5359SOL     OW27535   1.535   0.934  11.735 -0.4080 -0.3160 -0.3770
 5359SOL    HW127536   1.452   0.929  11.687 -0.5533  1.5813 -0.3206
 5359SOL    HW227537   1.523   1.011  11.790  2.9566  0.2401 -0.3843
 5360SOL     OW27538   2.907   3.931   4.717  0.2649  0.5443 -0.4265
 5360SOL    HW127539   2.936   3.913   4.628  4.3875 -2.8239  1.6036
 5360SOL    HW227540   2.874   3.844   4.740 -2.8387  2.4368  2.3205
 5361SOL     OW27541   0.576   0.558   2.774 -0.2184  0.1748  0.3657
 5361SOL    HW127542   0.496   0.506   2.786  0.6316 -0.9597  1.1932
 5361SOL    HW227543   0.634   0.492   2.737 -2.5124 -1.4927 -0.2672
 5362SOL     OW27544   2.099   3.468   0.920  0.4146 -0.7403  0.3061
 5362SOL    HW127545   2.128   3.385   0.881 -3.7747 -2.1293  0.1009
 5362SOL    HW227546   2.102   3.511   0.835  0.4053  1.2894  1.3403
 5363SOL     OW27547   3.317   0.291   7.795 -0.3452  0.0815  0.0197
 5363SOL    HW127548   3.381   0.231   7.832 -0.5348  0.6827  1.3173
 5363SOL    HW227549   3.250   0.284   7.863 -1.3969 -0.0143 -1.0170
 5364SOL     OW27550   3.140   2.352  15.676 -0.2064 -0.0131 -0.5811
 5364SOL    HW127551   3.218   2.405  15.689  2.1170 -3.9690  1.8004
 5364SOL    HW227552   3.080   2.399  15.734 -0.8275 -0.0675 -1.1746
 5365SOL     OW27553   1.630   1.716   5.753 -0.1577  1.3045 -0.5741
 5365SOL    HW127554   1.675   1.664   5.820  0.4178  2.3324 -0.1635
 5365SOL    HW227555   1.635   1.805   5.788 -3.0664  0.9825  0.6996
 5366SOL     OW27556   3.420   3.733   8.266 -0.0454  0.0658 -0.7248
 5366SOL    HW127557   3.479   3.686   8.208 -1.6841 -1.7646 -0.8969
 5366SOL    HW227558   3.457   3.710   8.352 -2.0423 -2.7927 -0.6620
 5367SOL     OW27559   1.215   4.391  11.994 -0.8724  0.2902  0.3071
 5367SOL    HW127560   1.268   4.415  11.919 -1.0161 -0.5560 -0.0641
 5367SOL    HW227561   1.151   4.462  11.994  1.5514  2.4561  1.1145
 5368SOL     OW27562   4.139   3.784   8.350  0.0574  0.5512  0.4340
 5368SOL    HW127563   4.082   3.796   8.275  0.0498 -1.8154  0.0853
 5368SOL    HW227564   4.205   3.852   8.332  0.4677 -0.1279 -0.6261
 5369SOL     OW27565   1.343   2.893   1.858  0.2177 -0.0429  0.1465
 5369SOL    HW127566   1.343   2.924   1.768 -1.0596 -0.8778 -0.1435
 5369SOL    HW227567   1.434   2.866   1.861  0.3883  0.7421  2.2415
 5370SOL     OW27568   4.396   2.120  17.614  0.0284 -0.1562 -0.6350
 5370SOL    HW127569   4.425   2.034  17.643  0.6845 -0.1620 -1.2854
 5370SOL    HW227570   4.389   2.172   0.005  2.5931  0.3196 -0.6959
 5371SOL     OW27571   2.888   3.375  13.158  0.2904  0.1417  0.4329
 5371SOL    HW127572   2.805   3.329  13.149 -0.5791  1.8892 -0.6084
 5371SOL    HW227573   2.941   3.311  13.110 -0.0315  0.4590 -0.3576
 5372SOL     OW27574   4.191   3.023   2.431 -0.2089 -0.3715  0.1124
 5372SOL    HW127575   4.256   3.062   2.489 -0.1138  0.1880 -0.3590
 5372SOL    HW227576   4.127   2.979   2.485 -1.5974  0.1391 -1.1096
 5373SOL     OW27577   3.724   2.665   2.143  0.0304  0.3930 -0.1317
 5373SOL    HW127578   3.742   2.590   2.201 -0.9577 -0.6055 -1.1224
 5373SOL    HW227579   3.636   2.650   2.109  0.8421  0.4928 -2.3001
 5374SOL     OW27580   3.378   3.295   6.862 -0.5640 -0.5812 -0.1514
 5374SOL    HW127581   3.337   3.376   6.891 -0.1009  0.1494 -1.5480
 5374SOL    HW227582   3.307   3.232   6.879  0.6564 -1.8002  0.4593
 5375SOL     OW27583   4.221   1.986   4.874  0.0834 -0.0436 -0.6391
 5375SOL    HW127584   4.212   1.899   4.836 -0.8339 -0.0044 -0.4957
 5375SOL    HW227585   4.136   2.021   4.849 -0.4649 -0.4405  0.6688
 5376SOL     OW27586   0.847   0.298   3.089  0.2432  0.2674  0.3804
 5376SOL    HW127587   0.770   0.243   3.080 -0.2954  1.0008  0.5417
 5376SOL    HW227588   0.813   0.367   3.031 -0.1455  1.2175  1.7415
 5377SOL     OW27589   2.835   0.260   1.840 -0.3050 -0.1949 -0.6429
 5377SOL    HW127590   2.803   0.340   1.881 -1.6582 -0.4556 -1.1725
 5377SOL    HW227591   2.888   0.305   1.774 -0.2677  2.4509  1.2058
 5378SOL     OW27592   4.478   0.602   4.668  0.0817  0.5863 -0.0303
 5378SOL    HW127593   4.433   0.548   4.603  0.3726  1.6600 -1.1173
 5378SOL    HW227594   4.512   0.537   4.730 -0.2516  0.4958  0.0608
 5379SOL     OW27595   3.004   1.701  14.537 -0.7566 -0.2701  0.4305
 5379SOL    HW127596   3.008   1.648  14.616  3.7399 -1.1670 -0.4171
 5379SOL    HW227597   3.090   1.682  14.500 -0.7814 -0.7529  0.6302
 5380SOL     OW27598   3.709   2.528  15.256 -0.1552  0.2084 -0.0573
 5380SOL    HW127599   3.643   2.517  15.188  0.0730  2.2581 -0.6115
 5380SOL    HW227600   3.657   2.577  15.321 -0.4538 -1.6804  1.1126
 5381SOL     OW27601   4.159   2.672  10.013 -0.0749 -0.3843  0.1935
 5381SOL    HW127602   4.103   2.741   9.976 -0.5894 -2.1365 -2.3041
 5381SOL    HW227603   4.206   2.643   9.935  1.3803 -1.1380  1.3558
 5382SOL     OW27604   4.490   1.385  13.623 -0.6354  0.1614  0.0214
 5382SOL    HW127605   4.550   1.338  13.680 -2.3357 -0.0278  1.6670
 5382SOL    HW227606   4.489   1.333  13.542  0.1361  1.0802 -0.5910
 5383SOL     OW27607   4.575   1.932   8.818 -0.7102  0.1195  0.1214
 5383SOL    HW127608   4.581   2.025   8.793  0.1742 -0.7656 -3.0295
 5383SOL    HW227609   4.514   1.905   8.749 -0.2334  1.6493 -0.9168
 5384SOL     OW27610   3.129   3.924   7.210  0.3645  0.0725 -0.7291
 5384SOL    HW127611   3.153   3.849   7.264  0.4253  1.6345  1.4433
 5384SOL    HW227612   3.193   3.992   7.233  1.0727 -0.8427  0.0160
 5385SOL     OW27613   3.909   1.060   6.382 -0.0635 -0.2901 -0.2367
 5385SOL    HW127614   3.945   1.116   6.313  2.1467  0.0277  1.1862
 5385SOL    HW227615   3.986   1.027   6.428 -0.3642 -2.8680 -1.5882
 5386SOL     OW27616   0.100   3.370   4.023  0.2396 -0.1737  0.8681
 5386SOL    HW127617   0.183   3.336   3.989  0.2047 -1.1097  1.7183
 5386SOL    HW227618   0.071   3.291   4.068 -0.6261 -0.1495  0.3552
 5387SOL     OW27619   3.168   0.038   4.329  0.2495 -0.0937 -0.0205
 5387SOL    HW127620   3.094   0.067   4.382  0.5738 -1.0872  0.9821
 5387SOL    HW227621   3.158   4.665   4.343 -2.4175  0.3419  0.9069
 5388SOL     OW27622   3.955   2.017  11.700  0.0876 -0.2397 -0.3033
 5388SOL    HW127623   4.045   2.013  11.666 -0.3940  0.1942 -1.6168
 5388SOL    HW227624   3.934   2.111  11.701  1.4864  0.0706  0.4539
 5389SOL     OW27625   4.434   4.105   9.936  0.2822  0.8079 -0.1007
 5389SOL    HW127626   4.437   4.191   9.977 -0.4415  0.5446  0.5010
 5389SOL    HW227627   4.495   4.046   9.981  2.4508  2.8055 -0.4121
 5390SOL     OW27628   2.488   2.035  13.544 -0.4238 -0.4406 -0.0612
 5390SOL    HW127629   2.582   2.018  13.540 -0.3951 -0.1088 -0.9883
 5390SOL    HW227630   2.475   2.096  13.616 -1.0296 -1.1227  0.3942
 5391SOL     OW27631   4.284   1.077   3.530 -0.3166  0.4482 -0.6783
 5391SOL    HW127632   4.218   1.094   3.597 -0.2966  2.5488 -1.2112
 5391SOL    HW227633   4.304   0.985   3.549  0.7978  0.8740  0.2034
 5392SOL     OW27634   3.446   0.815   6.424  0.1584 -0.1542 -0.6055
 5392SOL    HW127635   3.468   0.893   6.475 -1.0305 -0.2084  0.0057
 5392SOL    HW227636   3.452   0.746   6.490 -2.6965 -0.5704 -0.7845
 5393SOL     OW27637   1.566   1.742   6.048  0.3863  0.3357 -0.0710
 5393SOL    HW127638   1.486   1.717   6.002 -0.2131 -1.0313  1.7107
 5393SOL    HW227639   1.545   1.733   6.141 -1.4637 -2.8868 -0.8247
 5394SOL     OW27640   0.838   2.003   3.849  0.0622 -0.1185 -0.7634
 5394SOL    HW127641   0.900   1.988   3.778  1.6246 -0.6036  0.6840
 5394SOL    HW227642   0.754   1.968   3.821 -0.9259  0.8864  0.9089
 5395SOL     OW27643   0.415   1.588   8.772  0.0361 -0.5524  0.2071
 5395SOL    HW127644   0.393   1.646   8.845  2.2621 -0.5096  0.8793
 5395SOL    HW227645   0.347   1.609   8.709 -0.5201  0.6426  1.2007
 5396SOL     OW27646   4.143   1.084   4.226  0.0291  0.4152  0.3347
 5396SOL    HW127647   4.212   1.025   4.199 -0.5015 -0.5942  1.1774
 5396SOL    HW227648   4.162   1.161   4.172  0.3666 -1.2282 -1.8514
 5397SOL     OW27649   2.648   1.485  17.062  0.2141  0.3989  0.2227
 5397SOL    HW127650   2.554   1.482  17.046  0.4710 -1.4102 -1.0380
 5397SOL    HW227651   2.650   1.520  17.151  1.3413  4.2556 -1.3289
 5398SOL     OW27652   4.381   4.437  15.851 -0.3403  0.3740  0.1655
 5398SOL    HW127653   4.370   4.445  15.756 -1.1681  2.6855  0.4421
 5398SOL    HW227654   4.445   4.366  15.859 -2.0426 -1.2993 -0.9901
 5399SOL     OW27655   4.613   1.912   3.673 -0.0012  0.6395 -0.9229
 5399SOL    HW127656   4.612   1.977   3.602  1.1111 -0.4562 -1.9546
 5399SOL    HW227657   4.565   1.848   3.620 -0.3457  1.1297 -1.2074
 5400SOL     OW27658   0.032   2.625   8.457 -0.3435 -0.0042  0.1792
 5400SOL    HW127659   0.044   2.720   8.460 -2.0782  0.2151  0.1775
 5400SOL    HW227660   0.103   2.606   8.395 -0.5861  0.5444 -0.2651
 5401SOL     OW27661   3.933   0.237   3.940 -0.6136 -0.6174  0.3240
 5401SOL    HW127662   3.908   0.274   3.855 -2.9087  1.7764  2.0849
 5401SOL    HW227663   3.858   0.181   3.959 -0.0879 -1.4584 -0.0205
 5402SOL     OW27664   3.248   2.870  14.341  0.3282  0.0383 -0.1496
 5402SOL    HW127665   3.180   2.936  14.358  0.1103 -0.0353 -0.7364
 5402SOL    HW227666   3.197   2.799  14.303 -0.2815 -0.1117  0.9275
 5403SOL     OW27667   2.907   2.448   7.426  0.6791 -0.2141  0.0833
 5403SOL    HW127668   2.974   2.443   7.495  0.2845  0.9149  0.5551
 5403SOL    HW227669   2.841   2.495   7.477 -0.7373  0.5632 -2.4779
 5404SOL     OW27670   4.158   3.597   6.126  0.1294 -0.0417  0.5793
 5404SOL    HW127671   4.196   3.540   6.192 -1.2446 -2.1484 -0.4687
 5404SOL    HW227672   4.238   3.629   6.083  0.9936  0.0934  2.2807
 5405SOL     OW27673   3.662   3.252   7.575 -0.3142  0.0570 -0.4078
 5405SOL    HW127674   3.738   3.309   7.586 -1.1207  1.0345  0.0673
 5405SOL    HW227675   3.696   3.164   7.561 -0.9851 -0.1999 -0.4045
 5406SOL     OW27676   0.977   4.648   8.760  0.1400  0.1156 -0.0683
 5406SOL    HW127677   0.911   4.632   8.827 -1.3256  1.1587 -1.2612
 5406SOL    HW227678   0.993   4.562   8.720  1.2797  0.0490  0.5390
 5407SOL     OW27679   2.352   3.416   8.935 -0.3757  0.6362 -0.4145
 5407SOL    HW127680   2.370   3.361   8.859 -0.3899 -0.2583  0.2356
 5407SOL    HW227681   2.308   3.491   8.895 -1.3463 -0.0380 -0.5989
 5408SOL     OW27682   2.318   0.147   5.024 -0.1483 -0.4496 -0.7962
 5408SOL    HW127683   2.352   0.236   5.025  2.7856 -1.5689  0.8527
 5408SOL    HW227684   2.224   0.161   5.019  0.1546  2.5630  1.9637
 5409SOL     OW27685   1.523   2.290   6.595  0.0946 -0.4976  0.6397
 5409SOL    HW127686   1.459   2.354   6.625  0.8365  0.2324  0.6464
 5409SOL    HW227687   1.611   2.327   6.609  0.1480  0.0675 -1.2056
 5410SOL     OW27688   1.242   1.844  10.092 -0.2448 -0.2270 -0.2673
 5410SOL    HW127689   1.260   1.925  10.139  0.0487  0.0284 -0.8255
 5410SOL    HW227690   1.200   1.880  10.014  1.2362  0.3651 -0.7967
 5411SOL     OW27691   4.550   0.806   1.424 -0.0768  0.1833 -0.0468
 5411SOL    HW127692   4.545   0.753   1.345 -2.1226 -1.7755  1.4079
 5411SOL    HW227693   4.462   0.790   1.460 -0.3155  1.8908  0.1485
 5412SOL     OW27694   3.429   1.849   0.916 -0.2484  0.4690  0.0994
 5412SOL    HW127695   3.502   1.895   0.958  1.9955 -1.4631 -1.6963
 5412SOL    HW227696   3.466   1.845   0.828 -2.3718  0.9275 -0.8091
 5413SOL     OW27697   4.008   1.326   9.052  0.5942  0.1665  0.4665
 5413SOL    HW127698   4.078   1.351   8.991 -0.2791  2.5669  0.4620
 5413SOL    HW227699   3.999   1.413   9.090 -0.5657 -0.0395  0.6459
 5414SOL     OW27700   2.470   2.848   6.419  0.1284 -0.0804  0.2879
 5414SOL    HW127701   2.394   2.878   6.469 -1.8826 -2.5840 -1.2316
 5414SOL    HW227702   2.459   2.891   6.334  0.4022  1.2290  0.9117
 5415SOL     OW27703   1.486   2.508  11.083 -0.2742  0.9082  0.1127
 5415SOL    HW127704   1.422   2.438  11.068  1.1759 -0.7139  1.5819
 5415SOL    HW227705   1.566   2.458  11.098 -0.2806  0.9939  0.4232
 5416SOL     OW27706   2.456   2.323   6.604 -0.6032 -0.1814  0.2522
 5416SOL    HW127707   2.457   2.339   6.699  0.3612 -1.4952  0.4564
 5416SOL    HW227708   2.433   2.411   6.572 -2.1826 -0.6709  0.0415
 5417SOL     OW27709   2.057   2.600   2.399 -0.0295  0.6765 -0.3628
 5417SOL    HW127710   2.094   2.654   2.468 -0.6015 -0.5403  0.8950
 5417SOL    HW227711   1.964   2.622   2.400 -0.1326  0.1899  0.6786
 5418SOL     OW27712   2.779   1.165   6.074  0.0253 -0.1524 -0.4056
 5418SOL    HW127713   2.693   1.167   6.032 -0.8463  0.3141  1.3968
 5418SOL    HW227714   2.772   1.234   6.140  2.8621 -2.4791  2.3620
 5419SOL     OW27715   0.276   2.326   5.998 -0.0090 -0.1905  0.4163
 5419SOL    HW127716   0.199   2.311   6.052  0.8637  2.1380  2.3044
 5419SOL    HW227717   0.273   2.246   5.945 -2.6535 -1.4964  2.5069
 5420SOL     OW27718   3.229   3.267   8.014 -0.4966  0.1606 -0.5114
 5420SOL    HW127719   3.268   3.285   7.929 -1.9797  2.3756 -0.7180
 5420SOL    HW227720   3.270   3.182   8.028 -0.6155  0.2315  0.2854
 5421SOL     OW27721   2.802   1.039   6.380  0.3323 -0.1033 -0.2393
 5421SOL    HW127722   2.766   0.958   6.416 -1.4601  0.6518 -0.3365
 5421SOL    HW227723   2.715   1.077   6.379  0.8928  1.2394  3.4919
 5422SOL     OW27724   2.399   1.870  11.115 -0.2902  0.7161 -0.8392
 5422SOL    HW127725   2.481   1.826  11.140 -0.3939  2.6634  2.9767
 5422SOL    HW227726   2.344   1.869  11.194 -0.3344 -0.5750 -0.8803
 5423SOL     OW27727   3.172   1.095   4.347  0.1805 -0.1484  0.7179
 5423SOL    HW127728   3.177   1.179   4.300 -1.9031 -1.3701 -1.7121
 5423SOL    HW227729   3.165   1.118   4.439 -1.9658 -2.0918  1.0303
 5424SOL     OW27730   0.006   4.651  17.169 -0.0034  0.5559 -0.3779
 5424SOL    HW127731   4.707   4.574  17.117 -1.1891  1.6162 -1.4864
 5424SOL    HW227732   0.036   4.606  17.247 -0.0255 -1.0061 -1.2729
 5425SOL     OW27733   0.178   3.122   3.654 -0.1740 -0.3455  0.2799
 5425SOL    HW127734   0.139   3.070   3.724 -0.7180  0.7971  0.8188
 5425SOL    HW227735   0.095   3.163   3.627 -0.4453 -1.1198 -0.0580
 5426SOL     OW27736   1.506   1.232  10.945 -0.4885 -0.8076  0.4561
 5426SOL    HW127737   1.421   1.188  10.939 -0.8463 -0.2714  1.5728
 5426SOL    HW227738   1.542   1.204  10.860  0.6085 -0.8460  0.9397
 5427SOL     OW27739   3.559   2.867   0.216 -0.0622  0.5007  0.3441
 5427SOL    HW127740   3.596   2.830   0.296  3.3493  1.8596 -0.6054
 5427SOL    HW227741   3.583   2.794   0.159  3.2065  0.3968  1.9024
 5428SOL     OW27742   2.381   3.623   7.132  0.4036  0.8654 -0.0355
 5428SOL    HW127743   2.468   3.583   7.143 -0.8157 -2.6120 -3.3539
 5428SOL    HW227744   2.407   3.713   7.152 -0.0533  0.5337  2.0749
 5429SOL     OW27745   2.137   4.714   7.289  0.1480 -0.3344 -0.1832
 5429SOL    HW127746   2.133   4.706   7.194 -1.6023 -0.7568 -0.0745
 5429SOL    HW227747   2.075   4.645   7.313 -1.7868  1.9186  1.2973
 5430SOL     OW27748   4.487   1.104   9.345 -0.1315  0.1720  0.1923
 5430SOL    HW127749   4.562   1.147   9.386 -0.8478  2.6458 -1.1041
 5430SOL    HW227750   4.482   1.024   9.397  0.9183  0.3145  0.5210
 5431SOL     OW27751   3.769   2.523  11.790 -0.2261 -0.0294  0.0862
 5431SOL    HW127752   3.792   2.554  11.703 -1.8443 -1.2280 -0.7644
 5431SOL    HW227753   3.737   2.437  11.762 -0.3056  0.5289 -1.5269
 5432SOL     OW27754   3.770   0.613   4.390 -0.2645  0.3119 -0.1159
 5432SOL    HW127755   3.826   0.588   4.463 -0.1489  0.9535  0.0161
 5432SOL    HW227756   3.695   0.652   4.435  3.0132  3.0703  2.9896
 5433SOL     OW27757   4.670   1.226   5.366 -0.0102  0.3550  0.0177
 5433SOL    HW127758   0.026   1.219   5.311 -0.3223  0.2769 -0.4106
 5433SOL    HW227759   4.699   1.176   5.442 -0.0876 -2.0616 -1.5422
 5434SOL     OW27760   3.462   1.288   3.291 -0.1042  0.4450  0.5306
 5434SOL    HW127761   3.428   1.355   3.232 -0.4709  1.0202  1.3820
 5434SOL    HW227762   3.502   1.347   3.355  1.5174  1.0607 -1.0500
 5435SOL     OW27763   1.026   4.175   3.805  0.1156  0.2057  0.1232
 5435SOL    HW127764   1.047   4.130   3.723 -0.3947 -1.0247  0.6626
 5435SOL    HW227765   1.013   4.104   3.868  0.5811 -0.4427 -0.5193
 5436SOL     OW27766   4.069   1.060   5.024  0.0988 -0.2790  0.1530
 5436SOL    HW127767   4.056   1.088   5.114 -1.1838 -0.4097  0.0143
 5436SOL    HW227768   4.158   1.025   5.029  0.1723 -0.1978 -0.5109
 5437SOL     OW27769   1.926   1.826   8.544  0.1539 -0.1642  0.7881
 5437SOL    HW127770   1.851   1.802   8.597  0.3879  0.4406  1.3872
 5437SOL    HW227771   1.965   1.741   8.524 -1.7989 -0.8613 -0.0670
 5438SOL     OW27772   3.385   1.407   5.390  0.1415 -0.7047 -0.1536
 5438SOL    HW127773   3.320   1.364   5.334 -0.0559  0.1034 -0.5402
 5438SOL    HW227774   3.447   1.440   5.325 -0.6958 -0.6006 -0.9012
 5439SOL     OW27775   0.330   3.967   4.998  0.4274 -0.7782 -0.1019
 5439SOL    HW127776   0.360   4.057   4.986 -2.7749  0.5372  1.7294
 5439SOL    HW227777   0.364   3.963   5.088  0.0483 -2.0174 -0.0099
 5440SOL     OW27778   1.028   0.770   1.852 -0.2978 -0.5729 -0.4720
 5440SOL    HW127779   0.969   0.713   1.900  0.8795 -1.0264  0.4334
 5440SOL    HW227780   0.970   0.824   1.798  0.3887  0.8814  0.2354
 5441SOL     OW27781   2.639   3.769   4.313  0.6963 -0.4140  0.8920
 5441SOL    HW127782   2.624   3.768   4.408  1.7224 -3.0636  1.0524
 5441SOL    HW227783   2.579   3.835   4.281  0.6857 -1.5032 -1.3149
 5442SOL     OW27784   3.895   4.195  16.948 -0.3610  0.1736 -0.0139
 5442SOL    HW127785   3.800   4.195  16.947 -0.3379  1.6828 -0.6111
 5442SOL    HW227786   3.921   4.286  16.939 -1.0389  0.5211  1.4983
 5443SOL     OW27787   2.624   3.717   5.507  0.0858 -0.2518  0.4910
 5443SOL    HW127788   2.614   3.654   5.578  0.8510  0.8137  1.5500
 5443SOL    HW227789   2.539   3.762   5.505 -0.8465 -1.8986  2.0849
 5444SOL     OW27790   0.101   2.759   4.918 -0.0005 -1.2411 -0.1191
 5444SOL    HW127791   0.046   2.715   4.854 -0.8953 -1.0245  0.5082
 5444SOL    HW227792   0.096   2.839   4.867  0.3833 -1.1018  0.0611
 5445SOL     OW27793   1.249   3.724  16.788  0.2265 -0.3517 -0.0806
 5445SOL    HW127794   1.301   3.754  16.862 -0.6749  0.7229  0.1168
 5445SOL    HW227795   1.165   3.765  16.807 -0.5236 -0.8369 -2.3389
 5446SOL     OW27796   0.036   1.816  15.670 -0.0052  0.2762 -0.3975
 5446SOL    HW127797   4.681   1.819  15.727  0.3148  0.5215  0.0213
 5446SOL    HW227798   0.024   1.898  15.622  0.5460  1.1103  0.8757
 5447SOL     OW27799   4.365   3.449   3.969  0.1014  0.7443 -0.2459
 5447SOL    HW127800   4.296   3.390   3.999  0.7118  1.0777  1.7939
 5447SOL    HW227801   4.428   3.424   4.036  1.3142  1.9740 -0.9339
 5448SOL     OW27802   0.527   2.629  16.494  0.1521 -0.0141  0.5923
 5448SOL    HW127803   0.477   2.655  16.417  1.0053 -0.6384 -0.1891
 5448SOL    HW227804   0.489   2.691  16.555 -0.2689  2.0048 -1.7266
 5449SOL     OW27805   3.525   2.910   3.527  0.2299  0.3659 -0.2286
 5449SOL    HW127806   3.482   2.932   3.610  3.2892  1.4605  1.0815
 5449SOL    HW227807   3.519   2.815   3.527  1.3803  0.3029 -1.5309
 5450SOL     OW27808   4.267   4.471   2.946 -0.0067  0.0170  0.7258
 5450SOL    HW127809   4.193   4.524   2.976 -1.6873 -1.7494 -0.3037
 5450SOL    HW227810   4.215   4.400   2.908 -0.6065  1.8114 -1.7921
 5451SOL     OW27811   2.973   1.440   8.279 -0.5699  0.0012 -0.0841
 5451SOL    HW127812   2.924   1.362   8.251  1.7160 -1.2357 -0.6118
 5451SOL    HW227813   3.054   1.397   8.305 -0.9204 -1.4191 -1.2896
 5452SOL     OW27814   0.802   2.692   4.496  0.1258  0.3270 -0.6091
 5452SOL    HW127815   0.740   2.693   4.569  0.5069  1.5409 -0.2974
 5452SOL    HW227816   0.745   2.684   4.420  0.3669  0.6060 -0.8187
 5453SOL     OW27817   4.655   0.971   2.888  0.5138  0.0684 -0.7832
 5453SOL    HW127818   4.563   0.994   2.876  1.0005  1.8052 -1.2431
 5453SOL    HW227819   4.652   0.893   2.944 -0.3940  0.4521 -0.3142
 5454SOL     OW27820   3.296   2.729   6.671  0.2415  0.2527  0.2219
 5454SOL    HW127821   3.241   2.652   6.687 -1.4205  2.1843  3.6528
 5454SOL    HW227822   3.270   2.750   6.582 -0.2481 -1.3229 -0.0123
 5455SOL     OW27823   4.708   3.649   3.911  0.3463 -0.1368  0.2341
 5455SOL    HW127824   0.048   3.589   3.953 -0.0960 -0.2914  0.6594
 5455SOL    HW227825   4.636   3.678   3.967 -2.2497 -2.3213 -1.9747
 5456SOL     OW27826   1.010   2.989  14.809  0.2397  0.3442  0.1834
 5456SOL    HW127827   0.970   2.996  14.722  1.2411 -1.5961 -0.4350
 5456SOL    HW227828   1.000   3.079  14.840 -0.3243  0.2150  0.3827
 5457SOL     OW27829   4.512   4.492   5.704  0.2973 -0.0334 -0.7334
 5457SOL    HW127830   4.541   4.570   5.658  1.7056 -1.9468 -3.1242
 5457SOL    HW227831   4.504   4.422   5.639 -0.0159 -0.8966  0.2195
 5458SOL     OW27832   0.978   3.030  11.931 -0.0985  0.0323 -0.2834
 5458SOL    HW127833   0.918   3.083  11.983 -1.1357 -0.1221 -1.3120
 5458SOL    HW227834   1.056   3.085  11.937 -1.0070  1.4503 -1.5126
 5459SOL     OW27835   3.812   3.670   8.335  0.3557 -0.1296 -0.2767
 5459SOL    HW127836   3.741   3.735   8.331  2.5315  2.1701 -2.1856
 5459SOL    HW227837   3.852   3.704   8.415 -0.3838  0.9535 -0.3545
 5460SOL     OW27838   3.515   3.066  10.655  0.3961  0.2904 -0.2551
 5460SOL    HW127839   3.599   3.076  10.701 -0.3551 -0.8007  1.3594
 5460SOL    HW227840   3.474   3.148  10.681 -1.2575 -1.4043  2.4810
 5461SOL     OW27841   3.039   1.184   6.374  0.2600 -0.1444  0.0993
 5461SOL    HW127842   2.954   1.142   6.389  0.2254 -0.8361 -2.1187
 5461SOL    HW227843   3.045   1.174   6.279  1.3513 -4.3428  0.6043
 5462SOL     OW27844   1.170   2.232   3.862  0.0187 -0.0339  0.0937
 5462SOL    HW127845   1.181   2.321   3.829  2.9729  0.0083  1.1651
 5462SOL    HW227846   1.097   2.236   3.923 -0.6244 -0.2545 -0.6680
 5463SOL     OW27847   0.680   1.256  14.381  0.1704  0.1093  0.4027
 5463SOL    HW127848   0.770   1.227  14.397  1.1798  2.6783 -0.4979
 5463SOL    HW227849   0.632   1.180  14.411  0.2128  0.6665  1.8671
 5464SOL     OW27850   0.550   4.294   0.773  0.0648  0.2055 -0.2561
 5464SOL    HW127851   0.460   4.264   0.780 -0.0727  0.9932  1.3427
 5464SOL    HW227852   0.536   4.377   0.726  0.0494 -0.1419 -0.8716
 5465SOL     OW27853   4.456   1.365  10.890 -0.7542 -0.0503  0.0628
 5465SOL    HW127854   4.505   1.422  10.831 -1.3076 -0.4250 -0.7706
 5465SOL    HW227855   4.421   1.425  10.955  0.6207 -0.4407  1.1547
 5466SOL     OW27856   3.310   2.085   6.081  0.3015  0.1883 -0.4232
 5466SOL    HW127857   3.252   2.010   6.065 -1.3209  1.6265 -1.3272
 5466SOL    HW227858   3.260   2.150   6.129 -0.6382  0.1944 -1.4129
 5467SOL     OW27859   0.916   4.172   1.202 -0.3234 -0.2449 -0.5345
 5467SOL    HW127860   0.905   4.239   1.269 -1.4503  0.5426 -1.5232
 5467SOL    HW227861   0.931   4.227   1.126 -0.9012  0.4024 -0.1766
 5468SOL     OW27862   2.207   3.615  14.652 -0.5361  0.3340  0.0167
 5468SOL    HW127863   2.149   3.655  14.586 -0.0262 -0.6833 -1.0454
 5468SOL    HW227864   2.170   3.527  14.655 -0.3202  0.2635  0.5453
 5469SOL     OW27865   3.070   2.842  12.736  0.6960 -0.3711 -0.1230
 5469SOL    HW127866   3.019   2.870  12.812 -2.2602 -2.0330 -1.4889
 5469SOL    HW227867   3.109   2.761  12.767 -0.9343 -0.9645  0.3989
 5470SOL     OW27868   0.318   0.787   5.578 -0.1329  0.8693 -0.1146
 5470SOL    HW127869   0.305   0.814   5.487 -3.3366 -1.2851 -0.2992
 5470SOL    HW227870   0.414   0.783   5.576 -0.1792 -0.9067  0.8772
 5471SOL     OW27871   4.119   2.987  14.508 -0.0331 -0.1921  0.4103
 5471SOL    HW127872   4.083   3.070  14.540 -0.4517 -0.7137  1.2897
 5471SOL    HW227873   4.040   2.934  14.517 -0.5355  0.5885  0.6044
 5472SOL     OW27874   4.140   1.813   7.160  0.7020  0.1209  0.3841
 5472SOL    HW127875   4.146   1.880   7.092 -3.4183  0.5029  0.4357
 5472SOL    HW227876   4.079   1.853   7.221  0.0286 -2.4925  1.4360
 5473SOL     OW27877   4.482   3.216   3.701 -0.4699  0.3199 -0.0600
 5473SOL    HW127878   4.555   3.267   3.737 -0.3383 -1.0258  1.5913
 5473SOL    HW227879   4.417   3.282   3.678 -0.5340  1.0669  2.2523
 5474SOL     OW27880   4.674   0.306  16.300  0.6703  0.6726 -0.2457
 5474SOL    HW127881   4.599   0.255  16.331  1.3260  0.0885  0.3682
 5474SOL    HW227882   4.670   0.282  16.208  0.9821  0.7442 -0.2770
 5475SOL     OW27883   2.869   2.649  14.171  0.0268 -0.3278  0.4560
 5475SOL    HW127884   2.947   2.628  14.222  0.9233 -0.4822 -0.9706
 5475SOL    HW227885   2.850   2.739  14.196  2.4753  0.2036  0.3462
 5476SOL     OW27886   1.815   0.960   6.062  0.1354 -0.2939  0.0979
 5476SOL    HW127887   1.762   0.880   6.063 -0.7663  0.2924 -1.1031
 5476SOL    HW227888   1.819   0.963   5.966 -1.6227  0.0740  0.0341
 5477SOL     OW27889   3.660   4.579   9.031 -0.1831  0.5159 -0.3334
 5477SOL    HW127890   3.670   4.504   9.090 -0.2542  0.3945 -0.4738
 5477SOL    HW227891   3.719   4.643   9.070 -0.8208  1.4857 -0.9736
 5478SOL     OW27892   1.824   4.676   3.464  0.0462  0.6367  0.4808
 5478SOL    HW127893   1.767   4.665   3.389 -0.9940  0.1330  1.3481
 5478SOL    HW227894   1.853   4.585   3.465 -1.5945  0.1439  1.8316
 5479SOL     OW27895   3.309   2.808   3.329 -0.1206  0.1324  0.3252
 5479SOL    HW127896   3.321   2.720   3.293  2.2982  0.6688 -0.1453
 5479SOL    HW227897   3.397   2.826   3.362  0.4772  0.2295 -1.3278
 5480SOL     OW27898   2.495   0.945   2.127 -0.0271  0.0789 -0.1418
 5480SOL    HW127899   2.545   0.914   2.052  1.5320  0.2748  0.8090
 5480SOL    HW227900   2.530   1.034   2.119  0.7514 -0.1759  0.4784
 5481SOL     OW27901   2.578   3.297   6.503 -0.2948  0.1347  0.3989
 5481SOL    HW127902   2.542   3.221   6.456  0.8072  0.9307 -1.7376
 5481SOL    HW227903   2.588   3.356   6.428  2.3451 -0.3183  0.3834
 5482SOL     OW27904   1.788   2.637   3.611  0.6675 -0.5363  0.0154
 5482SOL    HW127905   1.734   2.628   3.532  0.0797 -2.9540  0.6859
 5482SOL    HW227906   1.843   2.711   3.585  1.1169 -0.7697  0.3164
 5483SOL     OW27907   4.462   4.382   9.721  0.0542 -0.6673  0.3133
 5483SOL    HW127908   4.514   4.346   9.650  1.4860  0.1212  0.9765
 5483SOL    HW227909   4.523   4.439   9.767 -1.9309  1.4894  0.2799
 5484SOL     OW27910   2.368   3.497   2.369  0.2461 -0.0581  0.0620
 5484SOL    HW127911   2.413   3.575   2.338  1.9046 -1.3747 -0.8291
 5484SOL    HW227912   2.314   3.475   2.293  0.2006  1.0823 -0.2373
 5485SOL     OW27913   4.325   0.383  11.315 -0.1061  0.3630 -0.4076
 5485SOL    HW127914   4.295   0.412  11.229 -0.7035  1.8186  0.2891
 5485SOL    HW227915   4.252   0.418  11.365 -0.4077  1.1687 -1.4121
 5486SOL     OW27916   1.623   1.755  13.776 -0.0266  0.1010 -0.1449
 5486SOL    HW127917   1.552   1.795  13.726  0.4171  0.7326 -0.2614
 5486SOL    HW227918   1.699   1.788  13.728  0.2913 -1.1545 -0.4939
 5487SOL     OW27919   0.203   1.641   7.560 -0.1003 -0.4376 -0.2757
 5487SOL    HW127920   0.212   1.547   7.543  0.8540 -0.3500 -0.2724
 5487SOL    HW227921   0.112   1.658   7.538 -0.1039  1.2391  1.0674
 5488SOL     OW27922   1.335   3.670   5.000  0.1065 -0.7984  0.0134
 5488SOL    HW127923   1.309   3.638   5.086 -2.3319 -2.9543 -1.5433
 5488SOL    HW227924   1.412   3.613   4.990  1.1021  0.6458 -0.6542
 5489SOL     OW27925   2.955   1.143   8.316 -0.6268 -0.3786  0.3670
 5489SOL    HW127926   2.939   1.112   8.405 -0.4728 -1.0773  0.1450
 5489SOL    HW227927   3.013   1.074   8.285 -2.0946 -2.1526  1.6245
 5490SOL     OW27928   2.432   1.153   7.528 -0.0442 -0.7975  0.0122
 5490SOL    HW127929   2.506   1.129   7.583  0.1555 -1.1135 -0.3958
 5490SOL    HW227930   2.361   1.172   7.590  0.1392  0.3178 -0.1194
 5491SOL     OW27931   3.776   4.287  16.663 -0.7251 -0.1421 -0.5085
 5491SOL    HW127932   3.758   4.358  16.725 -1.3979 -1.2162  0.5119
 5491SOL    HW227933   3.689   4.250  16.647 -1.3500 -0.1807  3.1861
 5492SOL     OW27934   1.138   0.511  16.416 -0.4071  0.0678  0.6050
 5492SOL    HW127935   1.164   0.588  16.466 -0.4382  1.0575 -0.9019
 5492SOL    HW227936   1.168   0.442  16.474 -0.2286 -0.9412 -0.6745
 5493SOL     OW27937   1.408   1.095   1.733 -0.8733  0.0236  0.1512
 5493SOL    HW127938   1.344   1.109   1.663 -1.4097 -0.5091  0.5283
 5493SOL    HW227939   1.357   1.104   1.813 -1.0660  2.2483 -0.2302
 5494SOL     OW27940   2.972   1.594   4.915  0.0918  0.2951  0.5197
 5494SOL    HW127941   2.967   1.570   5.007  2.4338 -1.5345  0.1858
 5494SOL    HW227942   3.067   1.600   4.906 -0.1279  0.1127 -2.0674
 5495SOL     OW27943   0.932   1.940   0.207 -0.1241 -0.3543 -0.3306
 5495SOL    HW127944   0.885   1.944   0.290  0.6272  0.3003  0.0677
 5495SOL    HW227945   0.975   2.025   0.214  0.4340 -0.6961  0.4665
 5496SOL     OW27946   0.329   0.682   6.320  0.4516 -0.1403  0.3311
 5496SOL    HW127947   0.328   0.644   6.408  1.9062  0.9557  0.8040
 5496SOL    HW227948   0.343   0.774   6.341 -1.2174  0.1939  0.0026
 5497SOL     OW27949   3.855   0.719   4.151  0.1607  0.3875  0.0046
 5497SOL    HW127950   3.820   0.685   4.233  2.1259  1.3652  1.2689
 5497SOL    HW227951   3.821   0.668   4.078  1.6772 -0.8131  0.1402
 5498SOL     OW27952   1.241   2.838   7.562  0.4004  0.2288 -0.4029
 5498SOL    HW127953   1.330   2.812   7.539  0.5346  1.2803 -1.1223
 5498SOL    HW227954   1.198   2.752   7.562 -2.7425  1.7794 -0.7962
 5499SOL     OW27955   4.071   0.151   7.615  0.0601 -0.5385 -0.0131
 5499SOL    HW127956   4.064   0.245   7.594  0.5969 -0.2969  0.8608
 5499SOL    HW227957   4.166   0.148   7.602 -0.4222 -0.1400 -3.5153
 5500SOL     OW27958   1.567   1.209   4.172  0.3209 -0.2901  0.1385
 5500SOL    HW127959   1.651   1.243   4.141  1.6674 -2.7871  1.1020
 5500SOL    HW227960   1.509   1.284   4.156 -0.9353 -1.3364 -0.1954
 5501SOL     OW27961   3.618   1.272  16.096 -0.1093  0.3982 -0.3205
 5501SOL    HW127962   3.591   1.321  16.019  1.2324 -0.5013 -1.3637
 5501SOL    HW227963   3.712   1.289  16.086  0.0146  1.6994  3.1119
 5502SOL     OW27964   2.378   1.201   2.430  0.0509  0.1533 -0.4092
 5502SOL    HW127965   2.458   1.175   2.384 -0.0059 -0.4917 -0.1399
 5502SOL    HW227966   2.411   1.211   2.519 -0.0873  1.7219 -0.5181
 5503SOL     OW27967   1.214   2.309   7.658 -0.7131  0.2820  0.2143
 5503SOL    HW127968   1.259   2.364   7.723 -0.6885  1.3579 -0.7165
 5503SOL    HW227969   1.233   2.360   7.579  0.2350 -2.6854 -1.4463
 5504SOL     OW27970   4.441   2.166  10.033 -0.0903 -0.1762 -0.4116
 5504SOL    HW127971   4.394   2.152   9.951 -0.3941 -0.3375 -0.2100
 5504SOL    HW227972   4.397   2.090  10.070  1.4276 -0.0337  1.7090
 5505SOL     OW27973   0.310   4.662   6.947 -0.5998 -0.7306  0.1442
 5505SOL    HW127974   0.336   0.032   6.960  0.0252 -0.7097 -1.3014
 5505SOL    HW227975   0.242   4.654   6.880  1.1941 -2.1017 -1.5064
 5506SOL     OW27976   3.860   2.091  16.879  0.0799 -0.1587  0.6244
 5506SOL    HW127977   3.894   2.133  16.959  0.9417  2.0480 -0.9011
 5506SOL    HW227978   3.860   1.999  16.905 -1.5966 -0.3423 -0.0868
 5507SOL     OW27979   0.179   2.017   2.662 -0.0324 -0.2566 -0.2758
 5507SOL    HW127980   0.118   2.009   2.588  0.4542  0.1637 -0.7135
 5507SOL    HW227981   0.253   1.970   2.623  0.1453 -0.2158  0.0170
 5508SOL     OW27982   4.297   0.502   7.041 -0.3694  0.3841  0.0630
 5508SOL    HW127983   4.305   0.491   6.946  0.0559 -1.3375  0.2860
 5508SOL    HW227984   4.384   0.528   7.072  0.3262 -3.0426  0.9899
 5509SOL     OW27985   1.246   2.886  17.398 -0.6360  0.7332 -0.1970
 5509SOL    HW127986   1.303   2.885  17.321  1.3531  2.1264  1.2625
 5509SOL    HW227987   1.163   2.862  17.358 -0.1171 -1.2351 -0.1312
 5510SOL     OW27988   1.286   3.026   2.300 -0.0718  0.4471 -0.1864
 5510SOL    HW127989   1.248   2.968   2.233  0.6213  0.5101 -0.6310
 5510SOL    HW227990   1.374   2.990   2.305 -0.2781 -0.0386 -0.0635
 5511SOL     OW27991   1.226   2.664  10.757 -0.3578  0.5405 -0.3182
 5511SOL    HW127992   1.135   2.646  10.782  0.6247  1.9058  4.2120
 5511SOL    HW227993   1.219   2.716  10.677  1.7892  0.2527 -0.6843
 5512SOL     OW27994   4.593   2.288  11.961  0.4399 -0.4524 -0.3685
 5512SOL    HW127995   4.511   2.337  11.951  1.3622  1.3228  0.7232
 5512SOL    HW227996   4.561   2.205  11.996 -0.3125 -0.4729 -1.1024
 5513SOL     OW27997   3.868   3.568  13.819  0.2105  0.0252 -0.3417
 5513SOL    HW127998   3.894   3.541  13.731  0.9713  0.8857 -0.3833
 5513SOL    HW227999   3.955   3.572  13.859 -0.4431 -2.1146  1.2426
 5514SOL     OW28000   0.040   2.825   1.258  0.3004 -0.2850  0.4862
 5514SOL    HW128001   0.090   2.855   1.334 -0.0545 -1.1573  1.0518
 5514SOL    HW228002   0.107   2.841   1.191 -1.0315  1.4243 -0.4551
 5515SOL     OW28003   3.098   1.837   4.263  0.5497  0.5948  0.2492
 5515SOL    HW128004   3.067   1.898   4.196  0.2757  1.1262  0.8584
 5515SOL    HW228005   3.115   1.888   4.343 -1.7116  0.1285  1.0208
 5516SOL     OW28006   4.309   4.164   3.817 -0.0328  0.5522 -0.2122
 5516SOL    HW128007   4.251   4.161   3.893  2.4197  0.5380  1.6575
 5516SOL    HW228008   4.381   4.108   3.846 -0.2297 -0.3330 -1.4232
 5517SOL     OW28009   3.819   2.871   4.989  0.5770 -0.2119  0.3335
 5517SOL    HW128010   3.847   2.874   5.080 -0.7167 -2.4086  0.8037
 5517SOL    HW228011   3.726   2.894   4.996  1.6036  3.5353  1.7025
 5518SOL     OW28012   0.609   0.855   0.454 -0.7079 -0.0173 -0.3709
 5518SOL    HW128013   0.530   0.820   0.413 -1.1709  0.4302  0.1372
 5518SOL    HW228014   0.598   0.950   0.441 -0.8602  0.1449  0.9919
 5519SOL     OW28015   0.046   1.601   2.580 -0.3290 -0.1027  0.3976
 5519SOL    HW128016   0.045   1.570   2.489  1.0424 -0.3421  0.4615
 5519SOL    HW228017   0.100   1.534   2.622  0.0471  0.6696  1.1264
 5520SOL     OW28018   2.434   1.867  12.147  0.8602 -0.6792 -0.5048
 5520SOL    HW128019   2.409   1.900  12.061 -0.9434 -0.2987  0.1589
 5520SOL    HW228020   2.352   1.830  12.181  0.4402  1.6534  1.0325
 5521SOL     OW28021   3.889   1.197  13.494 -0.2186  0.4825 -0.0806
 5521SOL    HW128022   3.898   1.177  13.587 -0.1519  3.2722  0.5001
 5521SOL    HW228023   3.970   1.245  13.477 -0.5364  0.2421 -2.2241
 5522SOL     OW28024   2.114   4.464   7.918 -0.4147 -0.0810  0.2121
 5522SOL    HW128025   2.107   4.546   7.966 -0.2210  0.0620 -0.0032
 5522SOL    HW228026   2.163   4.408   7.978 -0.4509  1.2647  1.4803
 5523SOL     OW28027   0.583   3.750   7.384 -0.1029  0.0536  0.1355
 5523SOL    HW128028   0.629   3.756   7.300  0.3896 -0.6710  0.3457
 5523SOL    HW228029   0.505   3.697   7.372  0.3970 -0.3791 -1.3191
 5524SOL     OW28030   4.027   0.441   4.154  0.4903 -0.2817  0.3369
 5524SOL    HW128031   3.946   0.468   4.111  1.0104  0.8354  0.0718
 5524SOL    HW228032   4.082   0.414   4.081  0.1562 -1.2124  0.4281
 5525SOL     OW28033   2.974   0.001   5.837 -0.8135  0.5988  0.0388
 5525SOL    HW128034   2.899   0.059   5.827 -0.4939  1.4467  2.4370
 5525SOL    HW228035   2.939   4.650   5.787 -0.1833 -0.6463  1.3984
 5526SOL     OW28036   1.599   2.371   3.617  0.7607 -0.4232  0.1139
 5526SOL    HW128037   1.689   2.401   3.606  0.0735  1.6388  0.1486
 5526SOL    HW228038   1.547   2.450   3.635 -1.2833 -1.4583 -1.3580
 5527SOL     OW28039   0.084   3.472  11.192 -0.3315 -0.9021  0.1098
 5527SOL    HW128040   0.010   3.474  11.131 -0.5603 -1.7222  0.3690
 5527SOL    HW228041   0.043   3.436  11.270  0.4196  0.7853  1.2842
 5528SOL     OW28042   2.016   1.896  17.363 -0.3303 -0.0174 -0.5886
 5528SOL    HW128043   2.041   1.813  17.405  0.0533  0.5013  0.1980
 5528SOL    HW228044   1.971   1.936  17.437  0.8114  2.8119 -1.4348
 5529SOL     OW28045   0.377   0.799   4.280  0.2228  0.3568 -0.4260
 5529SOL    HW128046   0.373   0.709   4.247  2.7774  1.2118 -3.0248
 5529SOL    HW228047   0.435   0.788   4.355 -1.4500 -0.0330  0.8311
 5530SOL     OW28048   0.915   1.509   9.875  0.3428 -0.2067 -0.3631
 5530SOL    HW128049   0.945   1.447   9.808 -0.8546 -1.8146  0.5890
 5530SOL    HW228050   0.978   1.494   9.945 -1.2238 -3.5749  0.3503
 5531SOL     OW28051   2.723   1.275   8.276  0.6765  0.2347  0.6278
 5531SOL    HW128052   2.737   1.298   8.184  0.7864 -0.6552  0.4240
 5531SOL    HW228053   2.791   1.212   8.298 -0.6173 -0.6932  1.9727
 5532SOL     OW28054   4.623   4.439  12.946 -0.0320  0.0943  0.3586
 5532SOL    HW128055   4.547   4.394  12.982  0.0661  1.0967  1.8457
 5532SOL    HW228056   4.679   4.363  12.963  0.0517  0.2635  0.8557
 5533SOL     OW28057   2.798   1.223  17.074 -0.2136  0.5685  0.3097
 5533SOL    HW128058   2.823   1.258  16.989 -0.2448  0.6772  0.3455
 5533SOL    HW228059   2.767   1.301  17.119 -0.0104  1.2790 -0.7887
 5534SOL     OW28060   2.749   4.010   6.084 -0.0618 -0.0206  0.2825
 5534SOL    HW128061   2.670   4.062   6.102  0.7931  1.0005  1.0544
 5534SOL    HW228062   2.812   4.040   6.149  0.1158  0.1754  0.0136
 5535SOL     OW28063   0.890   2.178   2.968  0.4265  0.5360  0.7456
 5535SOL    HW128064   0.798   2.156   2.981  0.2748  0.0574 -1.0762
 5535SOL    HW228065   0.934   2.131   3.039  0.9014 -2.5212 -1.5754
 5536SOL     OW28066   4.177   2.513   9.151  0.8105 -0.1127 -0.1681
 5536SOL    HW128067   4.238   2.568   9.101  0.4140 -0.3216 -0.8692
 5536SOL    HW228068   4.136   2.579   9.207  0.5196 -1.5446  1.3115
 5537SOL     OW28069   3.057   0.537   2.880 -0.4482  0.3653  0.1470
 5537SOL    HW128070   3.037   0.519   2.789  0.6868 -0.2034  0.0176
 5537SOL    HW228071   2.978   0.585   2.907  0.4418  0.8476  1.9244
 5538SOL     OW28072   0.006   4.565   3.119 -0.0589 -0.7605  0.0035
 5538SOL    HW128073   0.033   4.524   3.200 -0.8698 -0.6512  0.3257
 5538SOL    HW228074   4.638   4.534   3.107 -0.0289 -0.0512 -2.1765
 5539SOL     OW28075   3.991   1.908   5.094  0.5431 -0.2573 -0.0818
 5539SOL    HW128076   3.925   1.857   5.141 -0.2251  0.3622 -0.4977
 5539SOL    HW228077   3.991   1.854   5.015 -1.7269 -1.3965  0.6973
 5540SOL     OW28078   0.605   3.301   2.938  0.1312 -0.3334 -0.2185
 5540SOL    HW128079   0.518   3.295   2.898 -0.2079  2.5538  0.1203
 5540SOL    HW228080   0.653   3.231   2.893 -0.9583 -1.5537  0.4907
 5541SOL     OW28081   0.478   0.448   1.102  0.5506 -0.1065  0.0472
 5541SOL    HW128082   0.519   0.472   1.185 -0.6804  0.0500  0.6097
 5541SOL    HW228083   0.532   0.496   1.039 -0.5653  1.9992  0.6852
 5542SOL     OW28084   4.408   2.674   5.331 -0.2336  0.1738 -0.2834
 5542SOL    HW128085   4.359   2.622   5.394  1.3585 -0.6815  0.2516
 5542SOL    HW228086   4.383   2.638   5.246  0.8648  0.9642 -0.9406
 5543SOL     OW28087   2.138   2.689  11.422 -0.1622 -0.7207 -0.1639
 5543SOL    HW128088   2.227   2.661  11.443  0.3552  1.6772  0.8641
 5543SOL    HW228089   2.083   2.630  11.474  2.1895 -2.4537  0.3509
 5544SOL     OW28090   4.256   2.453   5.497  0.5531  0.1394  0.3746
 5544SOL    HW128091   4.257   2.383   5.432 -0.5972  2.0443 -1.7031
 5544SOL    HW228092   4.255   2.400   5.577  0.2223  1.3504  1.1811
 5545SOL     OW28093   0.053   3.640  16.912  0.2233  0.1565 -0.3392
 5545SOL    HW128094   0.080   3.550  16.895 -0.5146  0.0280 -0.8632
 5545SOL    HW228095   0.137   3.686  16.913 -0.7247  1.9986 -3.8480
 5546SOL     OW28096   3.372   2.246   3.043 -0.3185 -0.0699 -0.2717
 5546SOL    HW128097   3.429   2.277   3.114 -2.1277  0.4596  0.9645
 5546SOL    HW228098   3.381   2.152   3.057  0.0832  0.3011  1.9783
 5547SOL     OW28099   0.839   2.666   5.203  0.1740 -0.0356 -0.2917
 5547SOL    HW128100   0.833   2.662   5.299 -0.8369  2.4500 -0.2592
 5547SOL    HW228101   0.925   2.706   5.186  0.2764  0.7557  2.0525
 5548SOL     OW28102   0.867   1.599  15.147 -0.0260 -0.2011 -0.2965
 5548SOL    HW128103   0.956   1.568  15.167 -0.6921 -0.3916  2.2809
 5548SOL    HW228104   0.814   1.527  15.182  0.2807 -0.3638 -0.1584
 5549SOL     OW28105   1.227   1.021  11.359 -0.3889 -0.1391  0.0296
 5549SOL    HW128106   1.277   1.041  11.280  0.5795  0.2476  0.7385
 5549SOL    HW228107   1.143   0.986  11.330 -1.0470 -0.8025  2.7186
 5550SOL     OW28108   2.040   1.665  13.746 -0.7293  0.2230  0.1454
 5550SOL    HW128109   2.023   1.670  13.651 -1.3586  0.9809  0.2973
 5550SOL    HW228110   1.988   1.586  13.760  0.3974 -0.7524 -1.1110
 5551SOL     OW28111   4.531   2.888   8.572  1.0979 -0.2253  0.1304
 5551SOL    HW128112   4.557   2.934   8.492  2.8161  1.9608  1.9686
 5551SOL    HW228113   4.454   2.843   8.537  1.5945 -0.0045 -1.2458
 5552SOL     OW28114   2.561   0.511   1.998  0.1524  0.4424  0.2293
 5552SOL    HW128115   2.552   0.415   1.997  0.4525  0.4143  0.2393
 5552SOL    HW228116   2.507   0.524   1.920  0.2056 -0.3637  0.0521
 5553SOL     OW28117   3.476   3.100   0.401  0.0554  0.3632 -0.6488
 5553SOL    HW128118   3.504   3.027   0.347  0.5065 -1.1042  1.5519
 5553SOL    HW228119   3.400   3.129   0.351 -2.5065 -0.3834  2.8193
 5554SOL     OW28120   3.494   4.616   3.038 -0.2446  0.8644 -0.7612
 5554SOL    HW128121   3.404   4.594   3.013 -0.3619 -1.4260  1.6377
 5554SOL    HW228122   3.499   4.690   2.977 -2.3036  2.1113  0.5565
 5555SOL     OW28123   3.884   2.628   1.599 -0.0035 -0.3099 -0.0027
 5555SOL    HW128124   3.801   2.583   1.585 -0.6813  0.7896  0.4923
 5555SOL    HW228125   3.900   2.657   1.510  1.3460 -1.8099 -0.2699
 5556SOL     OW28126   0.587   1.724   7.791  0.5131  0.7581 -0.1667
 5556SOL    HW128127   0.662   1.782   7.780  1.1585 -0.7449 -3.7190
 5556SOL    HW228128   0.518   1.763   7.738 -0.7786  0.4138  1.2816
 5557SOL     OW28129   2.487   2.747   6.929 -0.1959 -0.0063  0.5352
 5557SOL    HW128130   2.564   2.711   6.972  0.5750  0.7243 -0.2418
 5557SOL    HW228131   2.527   2.786   6.852  2.4890 -1.7401  1.0676
 5558SOL     OW28132   3.795   1.676   3.976  0.0147 -0.0090 -0.0645
 5558SOL    HW128133   3.806   1.752   4.033  2.1596 -0.2103 -0.2161
 5558SOL    HW228134   3.715   1.711   3.936 -0.0879 -1.4181 -1.0604
 5559SOL     OW28135   2.125   1.573   2.523  0.2828 -0.1848 -0.4124
 5559SOL    HW128136   2.045   1.612   2.487  0.2677  1.0432  0.9403
 5559SOL    HW228137   2.124   1.490   2.476  0.9601 -0.5743  0.2595
 5560SOL     OW28138   2.277   2.131  14.566 -0.0002 -0.0566  0.1131
 5560SOL    HW128139   2.330   2.059  14.533 -0.2640 -1.2166  2.1927
 5560SOL    HW228140   2.268   2.104  14.658  0.4863  4.3686  1.4592
 5561SOL     OW28141   2.591   0.852   7.629  0.1877 -0.5068 -0.0352
 5561SOL    HW128142   2.520   0.867   7.691  0.6470  1.5649 -0.0104
 5561SOL    HW228143   2.591   0.758   7.611 -1.0649 -0.5556  0.2044
 5562SOL     OW28144   1.794   4.695   4.381  0.3678 -0.1559  0.4730
 5562SOL    HW128145   1.735   4.659   4.448 -2.1827  1.8447 -0.7083
 5562SOL    HW228146   1.857   0.029   4.427 -1.2403  0.6270  1.7297
 5563SOL     OW28147   1.817   3.620   2.460 -0.1264 -0.5872 -0.4253
 5563SOL    HW128148   1.778   3.599   2.544  0.9293 -0.2406  0.1515
 5563SOL    HW228149   1.837   3.532   2.430 -1.1839 -1.1201  0.4613
 5564SOL     OW28150   2.616   1.713   6.566 -0.0837  0.1603  0.2675
 5564SOL    HW128151   2.594   1.623   6.592  0.8695 -0.3896 -0.8482
 5564SOL    HW228152   2.529   1.744   6.540 -0.7736 -2.3581 -0.4670
 5565SOL     OW28153   0.653   2.180   0.185 -0.0466  0.1589  0.3210
 5565SOL    HW128154   0.617   2.104   0.231 -1.2996  0.8582  0.4865
 5565SOL    HW228155   0.719   2.201   0.251  0.5097 -1.3813  0.2555
 5566SOL     OW28156   2.308   0.812   3.288  0.4212 -0.8825 -0.2175
 5566SOL    HW128157   2.310   0.722   3.321  1.6751 -0.2076  1.5792
 5566SOL    HW228158   2.229   0.799   3.236 -0.0291 -0.6045  0.4041
 5567SOL     OW28159   4.440   2.936   3.190  0.2790  0.3873  0.4578
 5567SOL    HW128160   4.465   3.027   3.209  0.3424  0.9983 -2.5629
 5567SOL    HW228161   4.420   2.940   3.097  2.9711  0.1555 -0.1354
 5568SOL     OW28162   2.733   1.611   3.913  0.4764 -0.0349 -0.0845
 5568SOL    HW128163   2.720   1.681   3.849  1.4386  0.3122  0.1095
 5568SOL    HW228164   2.690   1.658   3.985  0.8294 -0.0006  0.1028
 5569SOL     OW28165   3.002   0.013   6.560  0.0076  0.0133  0.0129
 5569SOL    HW128166   2.986   0.081   6.625 -0.1222 -1.7657  1.8583
 5569SOL    HW228167   2.928   0.030   6.502 -0.6388 -0.0626  0.8071
 5570SOL     OW28168   1.722   3.846   4.549  0.1709 -0.0074  0.0743
 5570SOL    HW128169   1.642   3.801   4.578 -2.0951  3.7470 -0.4278
 5570SOL    HW228170   1.717   3.854   4.454  1.8558 -1.5014 -0.1502
 5571SOL     OW28171   3.650   3.986   3.470 -0.5439  0.1712 -0.6774
 5571SOL    HW128172   3.609   4.060   3.426 -0.4448 -0.5667 -2.0105
 5571SOL    HW228173   3.733   3.986   3.421  0.4167  1.6890  0.9836
 5572SOL     OW28174   0.562   1.061  12.931 -0.1911  0.5452 -0.0406
 5572SOL    HW128175   0.637   1.011  12.900  0.5759  0.2153  2.3170
 5572SOL    HW228176   0.596   1.113  13.004  0.9045  0.0554 -0.2071
 5573SOL     OW28177   2.258   4.013   1.762 -0.2349  0.2626 -0.2020
 5573SOL    HW128178   2.220   4.031   1.676  0.5050  0.7899 -0.4184
 5573SOL    HW228179   2.215   3.929   1.775  2.2182 -1.0739 -0.7609
 5574SOL     OW28180   3.710   0.248   2.826  0.2204  0.3399 -0.0399
 5574SOL    HW128181   3.794   0.293   2.826 -1.6403  3.8170 -0.4353
 5574SOL    HW228182   3.677   0.274   2.740  0.5085 -2.7121 -1.0521
 5575SOL     OW28183   3.804   3.950   6.275 -0.2071  0.0806  0.0522
 5575SOL    HW128184   3.883   3.931   6.224 -0.7293 -3.3317  0.5162
 5575SOL    HW228185   3.779   4.026   6.222  2.5838  0.7574 -0.2760
 5576SOL     OW28186   1.862   1.365   0.101  0.1179 -0.4967 -0.1523
 5576SOL    HW128187   1.895   1.436   0.046  1.1322 -0.0934  0.9784
 5576SOL    HW228188   1.906   1.379   0.184 -0.9772 -4.9162  1.1840
 5577SOL     OW28189   0.788   1.345   5.792  0.5275  0.1665 -0.5185
 5577SOL    HW128190   0.766   1.253   5.784  0.6793  0.1477 -0.7148
 5577SOL    HW228191   0.742   1.374   5.871 -1.0295 -1.8239 -0.6956
 5578SOL     OW28192   3.519   2.179   4.763 -0.3963 -0.7213  0.7179
 5578SOL    HW128193   3.552   2.262   4.729  0.6780 -1.2661  0.4456
 5578SOL    HW228194   3.592   2.155   4.821  0.0442  3.2505  1.8153
 5579SOL     OW28195   4.320   3.367   9.232 -0.0524 -0.3019 -0.4789
 5579SOL    HW128196   4.355   3.362   9.143  0.0831  0.0824 -0.4464
 5579SOL    HW228197   4.239   3.315   9.225  0.2903 -0.7200 -1.3304
 5580SOL     OW28198   2.862   0.647   5.899  0.0926  0.2778 -0.2980
 5580SOL    HW128199   2.782   0.611   5.860 -1.1007  3.3565 -0.7217
 5580SOL    HW228200   2.859   0.739   5.872  0.3715 -0.0169 -1.3465
 5581SOL     OW28201   2.246   2.649   8.911 -0.4199  0.2044 -0.0354
 5581SOL    HW128202   2.242   2.723   8.851 -0.7329 -1.4682 -2.0664
 5581SOL    HW228203   2.267   2.692   8.994  0.1820  0.1226 -0.1504
 5582SOL     OW28204   4.406   2.627   2.671  0.3413  0.3386  0.2900
 5582SOL    HW128205   4.417   2.567   2.745  0.9312  0.6926  0.4900
 5582SOL    HW228206   4.499   2.608   2.655 -0.0075 -0.6652 -0.6181
 5583SOL     OW28207   2.266   3.234   0.477 -0.0456 -0.1496 -0.4332
 5583SOL    HW128208   2.354   3.197   0.463 -1.4078 -2.8714 -1.8635
 5583SOL    HW228209   2.277   3.295   0.549 -0.7204 -0.6950  0.1231
 5584SOL     OW28210   3.111   3.592   8.976 -0.2017 -0.0839 -0.1408
 5584SOL    HW128211   3.048   3.599   8.904 -0.6351 -1.8028  0.0548
 5584SOL    HW228212   3.055   3.600   9.053  1.3329  0.4886  0.9127
 5585SOL     OW28213   1.372   4.132   1.589 -0.3339  0.0076  0.1517
 5585SOL    HW128214   1.280   4.157   1.596 -1.2838 -2.7561 -2.0879
 5585SOL    HW228215   1.425   4.210   1.606 -1.9578  1.3703 -1.1240
 5586SOL     OW28216   3.573   3.097   8.507  0.1591 -0.8312  0.2233
 5586SOL    HW128217   3.620   3.178   8.527 -1.9004  0.3665  0.1648
 5586SOL    HW228218   3.633   3.026   8.530  2.6575  1.2646  0.2778
 5587SOL     OW28219   2.555   0.270   1.688  0.0923 -0.2147 -0.2841
 5587SOL    HW128220   2.647   0.264   1.663  0.3239  0.4379  0.4512
 5587SOL    HW228221   2.510   0.191   1.656  1.1060 -0.7152 -0.4899
 5588SOL     OW28222   3.394   3.210   8.313  0.0381  0.0832  0.1537
 5588SOL    HW128223   3.450   3.267   8.259 -1.0222  0.5025 -0.5080
 5588SOL    HW228224   3.458   3.172   8.373 -0.0453  1.4101  1.0687
 5589SOL     OW28225   4.077   3.243   8.446  0.2552 -0.5472 -0.5184
 5589SOL    HW128226   4.145   3.204   8.501  0.4794 -0.7818 -0.9641
 5589SOL    HW228227   4.104   3.221   8.356  1.9966  1.7092 -0.5631
 5590SOL     OW28228   2.048   4.073   0.580 -0.3437  0.0283 -0.3640
 5590SOL    HW128229   2.052   4.164   0.608 -1.2093 -0.5583  1.6127
 5590SOL    HW228230   2.037   4.031   0.665 -0.4812 -2.3574 -1.5379
 5591SOL     OW28231   3.602   2.030  16.763  0.0180 -0.0888 -0.3066
 5591SOL    HW128232   3.692   2.062  16.758  0.1225 -0.4065 -0.4573
 5591SOL    HW228233   3.591   2.055  16.855  1.1684  1.3232 -0.5608
 5592SOL     OW28234   0.182   2.775   5.966  0.5670  0.2839 -0.0271
 5592SOL    HW128235   0.157   2.790   5.874 -0.2785  2.8918  0.6289
 5592SOL    HW228236   0.263   2.725   5.973 -0.6825 -1.6127  0.9232
 5593SOL     OW28237   3.168   2.551  14.825  0.3702 -0.2977 -0.5676
 5593SOL    HW128238   3.218   2.472  14.848 -0.8589 -0.5628  1.2500
 5593SOL    HW228239   3.082   2.516  14.800  0.0623 -0.0235  0.1136
 5594SOL     OW28240   3.229   1.949   6.627 -0.4131  0.1709  0.0885
 5594SOL    HW128241   3.228   1.857   6.653 -0.5766 -0.2865 -1.5235
 5594SOL    HW228242   3.322   1.972   6.628 -0.3985  0.1572 -1.4366
 5595SOL     OW28243   2.661   2.699   9.621  0.0755 -0.1639 -0.2189
 5595SOL    HW128244   2.723   2.641   9.665 -0.3336 -0.9910 -0.7253
 5595SOL    HW228245   2.716   2.743   9.557 -0.0751 -0.6724 -0.7029
 5596SOL     OW28246   1.459   2.635   6.058  0.2179 -0.4264  0.3993
 5596SOL    HW128247   1.405   2.618   6.135 -0.5974  1.1352  0.1679
 5596SOL    HW228248   1.550   2.621   6.085 -0.4110 -0.6343  2.4009
 5597SOL     OW28249   2.883   2.090   6.475  0.2916 -0.3367  0.0378
 5597SOL    HW128250   2.826   2.087   6.552  1.7370 -0.5858  1.0910
 5597SOL    HW228251   2.841   2.015   6.432 -0.6251  0.8616 -1.1270
 5598SOL     OW28252   2.227   4.102   3.875  0.3568  0.5789  0.0387
 5598SOL    HW128253   2.320   4.097   3.897 -0.2770  1.3041  2.8834
 5598SOL    HW228254   2.234   4.173   3.810 -0.9182 -0.7398 -1.5313
 5599SOL     OW28255   1.659   3.780   4.932  0.3440  0.4445 -0.2523
 5599SOL    HW128256   1.687   3.715   4.997  0.8746 -0.5059 -1.4502
 5599SOL    HW228257   1.607   3.729   4.870  1.6180  1.2538 -1.9870
 5600SOL     OW28258   1.116   4.203   4.778  0.1815  0.1054 -0.0503
 5600SOL    HW128259   1.147   4.138   4.715  0.6725  0.1837  0.1166
 5600SOL    HW228260   1.145   4.157   4.857 -0.5009 -1.1151 -0.5133
 5601SOL     OW28261   1.245   1.377  11.157 -0.0522 -0.0527 -0.0052
 5601SOL    HW128262   1.177   1.437  11.127  0.0426 -0.2338 -0.5802
 5601SOL    HW228263   1.316   1.416  11.105  1.9650 -1.2076  1.8492
 5602SOL     OW28264   0.452   3.622   3.042  0.7461 -0.1958  0.6057
 5602SOL    HW128265   0.402   3.593   3.118  0.9297 -3.0504 -0.3708
 5602SOL    HW228266   0.518   3.680   3.079  0.8501 -2.6300  4.2148
 5603SOL     OW28267   2.989   0.763  17.200 -0.7304 -0.2351  0.1469
 5603SOL    HW128268   3.056   0.703  17.233 -1.4192 -1.1581 -0.1372
 5603SOL    HW228269   3.018   0.775  17.110  2.2867  1.2502  1.2934
 5604SOL     OW28270   1.584   3.506   0.488 -0.2839  0.4159 -0.0794
 5604SOL    HW128271   1.645   3.578   0.472 -0.2262  0.5077  0.5448
 5604SOL    HW228272   1.626   3.435   0.440 -1.6623 -0.7118  0.3996
 5605SOL     OW28273   1.453   3.786  16.979  0.0166 -0.3642 -0.0169
 5605SOL    HW128274   1.509   3.818  16.909  0.5848 -1.9180 -0.2740
 5605SOL    HW228275   1.525   3.758  17.037 -2.0187  0.0465  2.6945
 5606SOL     OW28276   3.360   0.239   8.966 -0.1534 -0.5245  0.0707
 5606SOL    HW128277   3.438   0.267   8.919 -0.1354  1.5323  1.3037
 5606SOL    HW228278   3.394   0.167   9.020  0.0453 -1.1626 -0.9073
 5607SOL     OW28279   1.699   1.081  13.044  0.1721 -0.1748 -0.2486
 5607SOL    HW128280   1.616   1.074  13.090  0.4516 -1.7273  0.0060
 5607SOL    HW228281   1.678   1.124  12.961  1.1101 -0.6494 -0.7309
 5608SOL     OW28282   2.534   4.178   6.141  0.1781 -0.6781  0.1014
 5608SOL    HW128283   2.488   4.208   6.063 -0.5450  2.4760  1.7455
 5608SOL    HW228284   2.566   4.259   6.181  0.2049 -0.1112 -1.0683
 5609SOL     OW28285   4.679   0.165   6.642  0.5465  0.2935  0.5561
 5609SOL    HW128286   4.702   0.246   6.597  2.2602 -0.9488 -0.7743
 5609SOL    HW228287   4.584   0.172   6.641  0.4959 -0.5496 -0.6047
 5610SOL     OW28288   2.040   3.176   7.550  0.3863  0.0120  0.2593
 5610SOL    HW128289   1.945   3.175   7.560  0.5319 -0.6576  1.6023
 5610SOL    HW228290   2.056   3.098   7.496 -1.6873 -0.3537  0.1601
 5611SOL     OW28291   2.251   2.479   3.431 -0.0254  0.5245  0.5991
 5611SOL    HW128292   2.264   2.528   3.512  1.3668 -0.2106  0.8337
 5611SOL    HW228293   2.174   2.517   3.390  0.4590 -1.2029 -1.8814
 5612SOL     OW28294   0.660   3.385  11.394 -0.3326 -0.3035 -0.0964
 5612SOL    HW128295   0.572   3.421  11.388 -0.2444  0.3088  2.3496
 5612SOL    HW228296   0.677   3.406  11.485 -0.1560  1.0525 -0.4478
 5613SOL     OW28297   3.088   1.221  15.747 -0.5030  0.4354  0.1474
 5613SOL    HW128298   3.132   1.289  15.799  0.4961 -0.5879  0.6441
 5613SOL    HW228299   3.165   1.167  15.732 -1.0187 -0.0457 -0.7445
 5614SOL     OW28300   2.182   2.834   6.975 -0.2005 -0.1917  0.0045
 5614SOL    HW128301   2.189   2.909   7.034  1.7334  0.5129 -1.1277
 5614SOL    HW228302   2.276   2.816   6.970 -0.1547 -0.3830  1.3951
 5615SOL     OW28303   2.327   1.803   8.683 -0.0615 -0.1981  0.1440
 5615SOL    HW128304   2.370   1.726   8.720  0.5814 -0.3499 -0.9349
 5615SOL    HW228305   2.235   1.788   8.705  0.0826 -2.7759 -1.0185
 5616SOL     OW28306   0.904   4.314  10.161  0.1628 -0.0642 -0.0900
 5616SOL    HW128307   0.993   4.291  10.135 -0.8015 -0.2665 -3.2729
 5616SOL    HW228308   0.864   4.230  10.184  0.6296 -0.0354  0.7896
 5617SOL     OW28309   2.141   0.581   0.770  0.1245  0.0580  0.0062
 5617SOL    HW128310   2.184   0.497   0.751  0.2999 -0.6228  3.2519
 5617SOL    HW228311   2.210   0.639   0.802  0.4137 -1.1051  1.5201
 5618SOL     OW28312   0.341   3.218   4.374  0.0535  0.1111  0.1301
 5618SOL    HW128313   0.373   3.235   4.285  0.8461  1.4597  0.6783
 5618SOL    HW228314   0.365   3.298   4.420 -0.0014 -0.2712  0.8293
 5619SOL     OW28315   2.115   0.930   6.262  0.0725  0.3407  0.3955
 5619SOL    HW128316   2.084   1.009   6.219  0.4634  0.2861  0.0153
 5619SOL    HW228317   2.034   0.906   6.307  1.6357 -2.5646  1.7247
 5620SOL     OW28318   4.465   1.267   8.803 -1.2629 -0.0183  0.2467
 5620SOL    HW128319   4.493   1.291   8.715 -1.6659 -1.8430 -0.3949
 5620SOL    HW228320   4.527   1.320   8.852 -0.6990 -1.7309  1.4040
 5621SOL     OW28321   3.299   3.596  14.448  0.1334  0.1211  0.1294
 5621SOL    HW128322   3.312   3.645  14.366  0.5442 -1.4665 -0.7470
 5621SOL    HW228323   3.317   3.656  14.520  0.0893  2.5907 -1.9334
 5622SOL     OW28324   0.160   3.109   8.784 -0.0763 -0.4836 -0.3737
 5622SOL    HW128325   0.223   3.070   8.723  1.7706 -0.3084  1.3922
 5622SOL    HW228326   0.190   3.200   8.796 -0.4043 -0.5977  1.2983
 5623SOL     OW28327   0.490   2.638   5.109 -0.3779 -0.3404 -1.0676
 5623SOL    HW128328   0.455   2.678   5.189 -0.9067 -1.9240 -0.5187
 5623SOL    HW228329   0.427   2.687   5.054 -1.6663 -2.1213 -1.1721
 5624SOL     OW28330   2.345   2.325   7.240 -0.5293  0.2876 -0.4882
 5624SOL    HW128331   2.348   2.333   7.145 -3.5779 -1.3140 -0.7079
 5624SOL    HW228332   2.428   2.278   7.255 -0.0562  1.1387 -0.4486
 5625SOL     OW28333   4.158   3.196   7.616 -0.2221 -0.2396 -0.5062
 5625SOL    HW128334   4.192   3.145   7.542 -2.8774 -1.8030 -0.6436
 5625SOL    HW228335   4.238   3.226   7.659  0.7992 -2.2091 -0.9857
 5626SOL     OW28336   1.919   3.805   1.741  0.1048  0.3207  0.4161
 5626SOL    HW128337   1.979   3.817   1.815  0.3813  0.8993  0.1005
 5626SOL    HW228338   1.836   3.829   1.781  0.2320  0.8038  0.3893
 5627SOL     OW28339   0.756   0.695   3.358 -0.3397  0.1376 -0.4229
 5627SOL    HW128340   0.741   0.748   3.280 -1.1207  0.6619  0.0866
 5627SOL    HW228341   0.740   0.752   3.433  1.1785 -0.2373  0.1959
 5628SOL     OW28342   3.211   3.869   4.774 -0.1434 -0.3423 -0.2310
 5628SOL    HW128343   3.231   3.828   4.689  1.1459 -0.6454  0.2132
 5628SOL    HW228344   3.216   3.962   4.755  1.7288 -0.5389 -0.6780
 5629SOL     OW28345   1.983   0.872   8.647  0.2539  0.3116  0.4292
 5629SOL    HW128346   1.934   0.933   8.701 -1.1502 -0.1975 -0.2657
 5629SOL    HW228347   2.049   0.836   8.707  0.7178 -1.3200 -1.0444
 5630SOL     OW28348   0.993   2.085   0.902 -0.3989 -0.7566  0.4567
 5630SOL    HW128349   0.927   2.022   0.933 -0.4474 -0.5668  0.7297
 5630SOL    HW228350   1.047   2.089   0.981  0.8329 -0.7780 -0.3868
 5631SOL     OW28351   0.799   2.895   7.608 -0.0157 -0.1312 -0.1240
 5631SOL    HW128352   0.769   2.949   7.682 -0.4839  1.3896 -1.4244
 5631SOL    HW228353   0.834   2.827   7.665 -0.3289 -2.0531 -2.2431
 5632SOL     OW28354   1.167   0.923  13.103 -0.1125  0.5216 -0.5677
 5632SOL    HW128355   1.101   0.859  13.129  0.6155  0.4739  1.1569
 5632SOL    HW228356   1.242   0.880  13.144  1.0757  1.3623 -1.8820
 5633SOL     OW28357   2.963   3.178   3.221  0.3298  0.4088  0.6989
 5633SOL    HW128358   3.031   3.111   3.223  0.6741  0.7729  1.3595
 5633SOL    HW228359   2.964   3.211   3.311 -0.3974 -0.9555  1.2102
 5634SOL     OW28360   1.116   4.013  14.868  0.5265  0.1751  0.3743
 5634SOL    HW128361   1.084   4.005  14.778  1.0046 -1.3713  0.3452
 5634SOL    HW228362   1.211   4.028  14.867  1.1390 -3.6316 -1.8530
 5635SOL     OW28363   1.026   0.644   6.419 -0.2318  0.0231  0.3393
 5635SOL    HW128364   1.109   0.680   6.450 -0.8101  0.1420  1.7499
 5635SOL    HW228365   1.011   0.688   6.335  1.7926  0.0736  0.0201
 5636SOL     OW28366   3.142   2.081   6.407  0.2356 -0.3313 -0.8389
 5636SOL    HW128367   3.171   2.044   6.490 -0.0375 -0.6895 -0.9018
 5636SOL    HW228368   3.048   2.080   6.427  0.1916 -0.8433 -1.0972
 5637SOL     OW28369   2.649   1.394   2.280 -0.1908 -0.0533 -0.3027
 5637SOL    HW128370   2.672   1.364   2.192  2.1855  0.7247  0.0583
 5637SOL    HW228371   2.631   1.306   2.313  1.6011 -0.0142  0.7907
 5638SOL     OW28372   4.441   3.973   3.965 -0.2969 -0.0921  0.0877
 5638SOL    HW128373   4.483   3.893   3.997  0.6189  0.1318 -0.5546
 5638SOL    HW228374   4.430   4.018   4.049  1.3838 -0.4155  0.4884
 5639SOL     OW28375   1.897   3.577   7.891  0.5610 -0.6385  0.1809
 5639SOL    HW128376   1.932   3.611   7.974  0.0317  0.0130  0.1314
 5639SOL    HW228377   1.818   3.536   7.926  0.5042 -0.5008  0.2141
 5640SOL     OW28378   1.496   2.066   4.043 -0.7694  0.0725  0.1488
 5640SOL    HW128379   1.506   2.010   3.966  1.2682 -1.3571  1.4451
 5640SOL    HW228380   1.556   2.133   4.009  0.1787 -0.6866  0.3300
 5641SOL     OW28381   3.204   4.539   5.643 -0.9168  0.1836  0.2868
 5641SOL    HW128382   3.232   4.603   5.709 -0.0336  0.8371 -0.7281
 5641SOL    HW228383   3.224   4.580   5.559  1.1400  1.8081  1.5696
 5642SOL     OW28384   1.926   2.101   5.381 -0.2578  0.8129  0.2037
 5642SOL    HW128385   1.989   2.153   5.431  1.2943 -0.3049 -0.5879
 5642SOL    HW228386   1.927   2.033   5.448 -0.2431 -0.9451 -1.5876
 5643SOL     OW28387   4.581   2.698  11.383  0.4439  0.6387 -0.2154
 5643SOL    HW128388   4.590   2.646  11.463 -1.4440  1.0227  0.2370
 5643SOL    HW228389   4.670   2.684  11.349  0.2299  1.6913 -1.2269
 5644SOL     OW28390   1.971   1.578   0.547  0.3842  0.3696  0.1823
 5644SOL    HW128391   1.980   1.561   0.640 -2.2757  2.6980  0.8826
 5644SOL    HW228392   2.061   1.600   0.523  0.7494 -0.1512  1.0940
 5645SOL     OW28393   0.994   0.428  10.034  0.0621  1.1565  0.2153
 5645SOL    HW128394   1.079   0.389  10.053  1.3136  3.2336 -1.0416
 5645SOL    HW228395   1.015   0.515  10.001  3.2767  0.8545  1.4944
 5646SOL     OW28396   3.575   0.680   4.594  0.0907  0.0948  0.1850
 5646SOL    HW128397   3.499   0.664   4.650 -0.2202  2.4307  0.4199
 5646SOL    HW228398   3.640   0.703   4.660  1.8231  0.0083 -1.5100
 5647SOL     OW28399   2.065   2.734   4.977 -0.1779  0.2358  0.0026
 5647SOL    HW128400   2.123   2.677   5.027 -0.1791 -0.8165 -1.1924
 5647SOL    HW228401   1.991   2.674   4.973  0.5084 -0.7029  1.2193
 5648SOL     OW28402   1.041   3.783   7.338 -0.1370 -0.6738 -0.3456
 5648SOL    HW128403   1.009   3.803   7.426  0.7551 -2.2836  0.3462
 5648SOL    HW228404   1.101   3.858   7.328  0.3467 -0.8876  0.8592
 5649SOL     OW28405   2.069   2.203   2.892  0.0987  0.2092  0.8709
 5649SOL    HW128406   2.156   2.207   2.932 -0.0847 -1.1635  1.4207
 5649SOL    HW228407   2.080   2.222   2.799  1.8522 -1.8097  0.6708
 5650SOL     OW28408   1.062   1.194   7.730 -0.7010  0.0571 -0.0741
 5650SOL    HW128409   0.997   1.253   7.768 -0.2117  1.2997 -1.1614
 5650SOL    HW228410   1.113   1.257   7.680  0.3367  0.6179  1.6711
 5651SOL     OW28411   0.206   0.997   4.329  0.5366  0.0439 -0.3745
 5651SOL    HW128412   0.245   1.019   4.414  2.4715  0.1735 -1.2940
 5651SOL    HW228413   0.260   0.925   4.299 -1.0265 -1.4579  0.4090
 5652SOL     OW28414   0.945   3.902   4.169 -0.5257  0.4904 -0.1604
 5652SOL    HW128415   0.978   3.913   4.258 -2.2559  3.9135  0.0459
 5652SOL    HW228416   0.857   3.866   4.180  0.1920 -0.9829  0.8302
 5653SOL     OW28417   3.466   3.450   2.355  0.3408 -0.6414 -0.1354
 5653SOL    HW128418   3.401   3.520   2.353 -0.4202 -1.3937 -1.6857
 5653SOL    HW228419   3.529   3.484   2.292  0.3522 -2.4534 -1.0735
 5654SOL     OW28420   3.478   1.172   5.718 -0.3448  0.3812  0.2435
 5654SOL    HW128421   3.448   1.094   5.765 -0.4751  1.9215  2.6967
 5654SOL    HW228422   3.408   1.232   5.743  0.4254  0.3376  2.5577
 5655SOL     OW28423   1.115   3.714   5.507 -0.4934 -0.0161 -0.6059
 5655SOL    HW128424   1.174   3.749   5.574 -0.4204 -1.8585  0.2976
 5655SOL    HW228425   1.106   3.627   5.545 -1.2618 -0.2040 -1.2253
 5656SOL     OW28426   3.995   1.030   3.433  0.7493 -0.0153 -0.3023
 5656SOL    HW128427   3.909   1.049   3.394  0.7431  0.2459 -0.1633
 5656SOL    HW228428   4.040   1.107   3.400 -0.9459  0.9171 -0.4460
 5657SOL     OW28429   3.241   2.477  17.517 -0.3946 -0.0396  0.7712
 5657SOL    HW128430   3.256   2.546  17.453  1.2383 -1.5935 -0.5264
 5657SOL    HW228431   3.331   2.451  17.532  0.1876  0.0581 -2.5384
 5658SOL     OW28432   0.735   2.638   7.114  0.5764  0.0477 -0.5823
 5658SOL    HW128433   0.716   2.553   7.154 -0.1816 -0.7607 -2.6772
 5658SOL    HW228434   0.779   2.694   7.178  0.8393 -1.1349  0.2756
 5659SOL     OW28435   1.837   3.370   3.557  0.6201 -0.6443 -0.2931
 5659SOL    HW128436   1.775   3.305   3.592 -0.1648  0.0983 -0.2854
 5659SOL    HW228437   1.785   3.424   3.497  0.3004 -0.3935  0.2090
 5660SOL     OW28438   1.089   0.211   6.003  0.4677  0.2454  0.1244
 5660SOL    HW128439   1.124   0.140   5.950  0.7106  0.4930 -0.0485
 5660SOL    HW228440   1.001   0.185   6.028  0.0668 -2.6434 -4.4067
 5661SOL     OW28441   2.568   1.756   4.095  0.4216 -0.2501 -0.2647
 5661SOL    HW128442   2.512   1.703   4.151  0.3110 -0.9142 -1.0048
 5661SOL    HW228443   2.512   1.830   4.070  0.2584 -0.4470 -0.4784
 5662SOL     OW28444   4.467   4.646  12.910  0.4028  0.3252 -0.0701
 5662SOL    HW128445   4.508   0.005  12.878 -0.6381  0.7364 -0.3653
 5662SOL    HW228446   4.543   4.588  12.918  0.7609  0.8439  0.3302
 5663SOL     OW28447   1.651   1.584   9.419  0.5119 -0.3943 -0.1836
 5663SOL    HW128448   1.659   1.489   9.425  1.0478 -0.3556 -0.2531
 5663SOL    HW228449   1.557   1.591   9.433  0.5711 -1.3342  0.6586
 5664SOL     OW28450   1.052   1.401   5.900  0.0098 -0.5201  0.1071
 5664SOL    HW128451   0.970   1.370   5.863  0.6892 -0.9576 -1.0306
 5664SOL    HW228452   1.089   1.457   5.831 -0.0908  1.2425  1.4738
 5665SOL     OW28453   1.696   3.133   3.542 -0.0243 -0.6052  0.8436
 5665SOL    HW128454   1.622   3.140   3.483  0.3470  1.1933  0.5928
 5665SOL    HW228455   1.648   3.101   3.618 -1.7267 -0.1140 -0.0313
 5666SOL     OW28456   2.055   2.593   7.355 -0.1058 -0.1788 -0.2684
 5666SOL    HW128457   2.032   2.572   7.445  1.4440 -0.1732  0.1356
 5666SOL    HW228458   2.150   2.590   7.364 -0.2655 -0.4775  1.2081
 5667SOL     OW28459   4.581   3.238   8.185 -0.8517 -0.3119  0.6925
 5667SOL    HW128460   4.676   3.227   8.182 -0.7147  1.6035 -2.2762
 5667SOL    HW228461   4.571   3.334   8.183  0.5131 -0.1682  0.4274
 5668SOL     OW28462   0.995   1.279  10.896 -0.6899 -0.2036 -0.5306
 5668SOL    HW128463   1.010   1.197  10.848 -1.1293  0.3817 -1.6704
 5668SOL    HW228464   1.031   1.344  10.836  1.2261 -0.9794 -0.2304
 5669SOL     OW28465   2.357   2.831   2.783 -0.0159  0.9842  0.2270
 5669SOL    HW128466   2.393   2.742   2.784 -0.4174  0.8294  0.7705
 5669SOL    HW228467   2.301   2.828   2.861  1.1194 -2.3544  0.9040
 5670SOL     OW28468   0.123   3.362  14.963  0.0176  0.3953  0.1792
 5670SOL    HW128469   0.062   3.432  14.941  2.6536  2.7003  0.3163
 5670SOL    HW228470   0.152   3.389  15.050 -0.6877  1.5575  0.0423
 5671SOL     OW28471   4.623   1.852   6.913 -1.2338 -0.2080  0.1100
 5671SOL    HW128472   4.585   1.938   6.933 -1.0604  0.2535 -1.5407
 5671SOL    HW228473   4.655   1.824   6.999  0.7739  3.7199  0.6425
 5672SOL     OW28474   3.217   4.039  13.934 -0.3475  0.3298 -0.0946
 5672SOL    HW128475   3.281   3.983  13.890 -0.3253 -0.2355  0.6639
 5672SOL    HW228476   3.136   3.995  13.906 -0.0473  1.2579 -2.4717
 5673SOL     OW28477   2.829   3.358   3.067  0.0723 -0.0342 -0.0247
 5673SOL    HW128478   2.875   3.300   3.127  2.2308  0.6762 -1.0126
 5673SOL    HW228479   2.809   3.302   2.992 -0.0853  1.9532 -1.4721
 5674SOL     OW28480   0.590   3.401   4.327 -0.2216 -0.2292 -0.4266
 5674SOL    HW128481   0.639   3.482   4.313 -1.8360  1.0187  1.1138
 5674SOL    HW228482   0.628   3.341   4.263 -1.0091 -2.7788  1.4573
 5675SOL     OW28483   0.459   1.558   5.571 -0.0152 -0.2723 -0.0988
 5675SOL    HW128484   0.533   1.615   5.549  0.3190 -0.3624  0.8203
 5675SOL    HW228485   0.454   1.559   5.666 -1.0409 -2.5061 -0.1350
 5676SOL     OW28486   2.532   2.033  10.706  0.3548  0.2835  0.0829
 5676SOL    HW128487   2.622   2.030  10.736  0.9861  0.5230 -1.8039
 5676SOL    HW228488   2.483   2.074  10.777 -1.2445 -1.8801  0.2234
 5677SOL     OW28489   2.733   3.187   2.848 -0.3230 -0.2529  0.5224
 5677SOL    HW128490   2.785   3.107   2.851 -0.4990 -0.4617 -1.9692
 5677SOL    HW228491   2.647   3.159   2.817  0.2126  1.4539 -2.4613
 5678SOL     OW28492   1.491   4.270  13.998 -0.1196 -0.3968 -0.4871
 5678SOL    HW128493   1.583   4.297  13.995  0.2700 -1.7796 -0.8656
 5678SOL    HW228494   1.491   4.174  13.993 -3.0070 -0.2853 -2.1984
 5679SOL     OW28495   3.975   0.903   6.042  0.4667  0.4463  0.3438
 5679SOL    HW128496   3.890   0.871   6.010  1.6556 -1.4511 -0.8778
 5679SOL    HW228497   3.959   0.997   6.032 -0.8960  0.0123 -1.6647
 5680SOL     OW28498   0.569   2.388  16.659  0.3181 -0.0574 -0.0534
 5680SOL    HW128499   0.576   2.477  16.627  1.6002  0.2211  1.0211
 5680SOL    HW228500   0.477   2.369  16.637 -0.2809 -0.1967  2.5937
 5681SOL     OW28501   1.146   0.149   8.763 -0.2931 -0.2990  0.1444
 5681SOL    HW128502   1.212   0.116   8.702 -1.7641 -0.6608 -1.2578
 5681SOL    HW228503   1.081   0.079   8.763  2.1336 -2.5768  0.1098
 5682SOL     OW28504   3.342   2.808   4.200 -0.0862 -0.2019 -0.3531
 5682SOL    HW128505   3.252   2.828   4.223 -0.1937 -0.5797 -0.4448
 5682SOL    HW228506   3.381   2.886   4.239 -0.4425 -0.9071  1.3983
 5683SOL     OW28507   0.091   3.018  15.360 -0.0742  0.2696 -0.3132
 5683SOL    HW128508   0.171   2.995  15.407 -0.1721  1.0236  0.2307
 5683SOL    HW228509   0.122   3.101  15.324  2.6566 -1.6189 -2.3600
 5684SOL     OW28510   0.414   4.683   1.372 -0.1787 -0.0339 -0.3339
 5684SOL    HW128511   0.501   4.646   1.361  0.0945  0.3966  0.4134
 5684SOL    HW228512   0.417   0.031   1.306  1.8896 -0.7024 -0.9367
 5685SOL     OW28513   2.699   1.179  14.178 -0.3997  0.0531  0.0877
 5685SOL    HW128514   2.777   1.124  14.171 -0.1974  0.1184  1.8316
 5685SOL    HW228515   2.735   1.267  14.168 -3.2610  1.2607  0.1669
 5686SOL     OW28516   3.930   0.085   6.223 -0.3377  0.9343 -0.1084
 5686SOL    HW128517   3.973   0.151   6.169  0.4122 -0.6547 -1.4472
 5686SOL    HW228518   3.849   0.122   6.259 -0.6662  2.8919 -2.8708
 5687SOL     OW28519   3.468   1.058  12.213 -0.2195  0.0219 -0.3121
 5687SOL    HW128520   3.497   0.968  12.223  1.1871  0.7216  2.0534
 5687SOL    HW228521   3.487   1.093  12.300 -1.0769  0.5946 -0.3464
 5688SOL     OW28522   2.705   0.267  13.159 -0.5072 -0.5239  0.2916
 5688SOL    HW128523   2.769   0.311  13.103 -3.4781  1.2559 -1.7587
 5688SOL    HW228524   2.697   0.327  13.234  1.0457 -1.3137  1.0888
 5689SOL     OW28525   3.926   4.604   5.367 -0.3189  0.1230  0.3978
 5689SOL    HW128526   3.894   4.608   5.277 -2.1046  0.2074  1.0303
 5689SOL    HW228527   4.018   4.579   5.356 -0.1093  1.1751 -0.1573
 5690SOL     OW28528   1.201   1.434   1.691  0.1158 -0.3239 -0.1157
 5690SOL    HW128529   1.156   1.353   1.669  0.5768 -0.4753 -0.4913
 5690SOL    HW228530   1.259   1.445   1.617 -1.6199 -1.0277 -1.5866
 5691SOL     OW28531   0.020   0.688   6.208 -0.1152  0.0474 -0.0423
 5691SOL    HW128532   4.665   0.635   6.189  0.4176 -0.9401  0.5870
 5691SOL    HW228533   0.080   0.615   6.218  0.6266  0.6473 -0.0577
 5692SOL     OW28534   1.938   0.563   1.178 -0.0152 -0.1759 -0.4037
 5692SOL    HW128535   1.961   0.528   1.264 -0.7012  0.5704  0.0874
 5692SOL    HW228536   1.954   0.489   1.119 -0.7788  0.3177 -1.2216
 5693SOL     OW28537   0.753   1.674   6.828 -0.7609  0.5027  0.1914
 5693SOL    HW128538   0.722   1.584   6.838 -0.1389  0.4793  2.0582
 5693SOL    HW228539   0.706   1.726   6.893  1.1703 -1.7340  3.3943
 5694SOL     OW28540   4.578   0.713   3.027 -0.2850 -0.0304 -0.5002
 5694SOL    HW128541   4.550   0.652   2.959  1.8291  2.3800 -3.5434
 5694SOL    HW228542   4.659   0.679   3.065 -2.4095 -3.1660  1.2212
 5695SOL     OW28543   2.577   0.910   7.337 -0.1555  0.2515 -0.7543
 5695SOL    HW128544   2.555   0.904   7.430 -1.3585 -1.8282 -1.1715
 5695SOL    HW228545   2.670   0.931   7.343  0.0218 -0.5119 -0.8342
 5696SOL     OW28546   0.052   0.742   2.784  0.3014  0.1817 -0.3059
 5696SOL    HW128547   0.021   0.832   2.796  1.9892  1.1618 -3.3638
 5696SOL    HW228548   0.001   0.716   2.707 -1.9711 -1.4260  1.7330
 5697SOL     OW28549   0.206   0.465   3.834  0.4337 -0.4450 -0.1927
 5697SOL    HW128550   0.272   0.529   3.807 -2.0272  1.9702 -0.5654
 5697SOL    HW228551   0.260   0.387   3.845  0.1842 -0.7315 -0.9993
 5698SOL     OW28552   2.293   3.991  10.663  0.0028 -0.4269 -0.0165
 5698SOL    HW128553   2.302   4.024  10.752  0.8639 -1.3045  0.2210
 5698SOL    HW228554   2.210   3.944  10.673 -1.2884  2.1794  1.4112
 5699SOL     OW28555   4.405   1.197  14.151  0.8221  0.3869  0.1261
 5699SOL    HW128556   4.394   1.245  14.069 -1.4838  0.4693  0.4659
 5699SOL    HW228557   4.402   1.263  14.221 -0.7057 -0.5320  0.9307
 5700SOL     OW28558   2.662   4.042  12.819  0.5191 -0.3872  0.1269
 5700SOL    HW128559   2.683   3.959  12.778 -0.3083  0.5466 -2.1908
 5700SOL    HW228560   2.749   4.073  12.846  0.6671  0.8929 -1.8113
 5701SOL     OW28561   3.227   2.538   7.441 -0.0331 -0.8631  0.3763
 5701SOL    HW128562   3.319   2.512   7.435 -0.2858 -1.6675  0.0899
 5701SOL    HW228563   3.185   2.456   7.466 -0.5933 -0.7839 -0.3395
 5702SOL     OW28564   2.966   1.326   4.864 -0.0242  0.1422  0.6216
 5702SOL    HW128565   2.954   1.420   4.848 -1.2355  0.0157  0.7974
 5702SOL    HW228566   3.048   1.318   4.912  1.4505  0.0594 -1.9013
 5703SOL     OW28567   3.945   2.021   3.379  1.0422  0.4009 -0.4598
 5703SOL    HW128568   3.898   2.074   3.444  2.1167  1.2603 -0.3819
 5703SOL    HW228569   4.013   2.078   3.344  0.0638  0.4755 -2.2491
 5704SOL     OW28570   1.923   1.990   1.305  0.6702  0.4938  0.0316
 5704SOL    HW128571   1.903   2.044   1.382  2.9459  0.5670  0.5673
 5704SOL    HW228572   1.931   1.908   1.353  1.5123 -0.2171 -1.3351
 5705SOL     OW28573   0.410   0.699   0.346  0.2657 -0.0384 -0.1618
 5705SOL    HW128574   0.337   0.733   0.399  0.4098  0.7081 -0.4479
 5705SOL    HW228575   0.423   0.613   0.386 -0.6864  0.6282  1.5931
 5706SOL     OW28576   3.914   1.143  13.028 -0.2058 -0.4319 -0.6247
 5706SOL    HW128577   3.911   1.086  13.105  0.9354  0.0414 -0.2350
 5706SOL    HW228578   3.946   1.088  12.957 -0.0216  0.9165 -1.5971
 5707SOL     OW28579   4.244   4.499   7.759  0.3160 -0.0900 -0.7073
 5707SOL    HW128580   4.339   4.510   7.756  0.3718 -0.5125 -0.4173
 5707SOL    HW228581   4.225   4.406   7.763 -0.4366  0.1308  0.5657
 5708SOL     OW28582   4.079   2.745  15.977 -0.3679  0.5659  0.2361
 5708SOL    HW128583   4.107   2.657  15.952  0.3013  1.0194 -0.6327
 5708SOL    HW228584   4.157   2.753  16.032 -1.7003  0.6640  2.0910
 5709SOL     OW28585   0.740   4.638   9.128  0.1003 -0.3814 -0.2243
 5709SOL    HW128586   0.660   4.670   9.086  1.5712  0.8303 -2.1064
 5709SOL    HW228587   0.741   4.681   9.214  1.6489  0.1133 -0.4736
 5710SOL     OW28588   2.148   2.502   5.063  1.0309 -0.0213 -0.3682
 5710SOL    HW128589   2.143   2.437   5.133  0.6965 -0.5860 -0.9082
 5710SOL    HW228590   2.220   2.469   5.010  0.4515 -1.6847 -0.1337
 5711SOL     OW28591   2.673   3.150   3.964 -0.8274 -0.4001  0.6217
 5711SOL    HW128592   2.706   3.234   3.996 -1.4599  0.6005 -1.3490
 5711SOL    HW228593   2.698   3.144   3.872 -1.4260  0.0735  0.4228
 5712SOL     OW28594   0.506   4.479  15.352 -0.3725  0.1429  0.4063
 5712SOL    HW128595   0.588   4.430  15.362  0.4574  1.7655  1.5706
 5712SOL    HW228596   0.461   4.453  15.432  0.9651 -1.4978  0.6151
 5713SOL     OW28597   0.947   3.279   3.189 -0.0457  0.0842 -0.1943
 5713SOL    HW128598   1.035   3.310   3.209 -0.4544  0.5238  0.9295
 5713SOL    HW228599   0.911   3.241   3.269  0.6832 -0.5200 -0.1598
 5714SOL     OW28600   3.490   1.348   9.293  0.2506  0.2622  0.1233
 5714SOL    HW128601   3.448   1.356   9.207 -1.6550  0.8616  1.1288
 5714SOL    HW228602   3.472   1.255   9.304 -0.0718  0.3578  0.4095
 5715SOL     OW28603   1.572   3.310   9.396 -0.0078 -0.6126  0.5355
 5715SOL    HW128604   1.578   3.259   9.477 -1.7982 -1.2698  0.2467
 5715SOL    HW228605   1.663   3.330   9.372 -0.8885 -0.1486 -2.4708
 5716SOL     OW28606   3.829   0.176   8.601 -0.3099 -0.0155  0.6540
 5716SOL    HW128607   3.883   0.099   8.618  0.0414 -0.1510 -1.0210
 5716SOL    HW228608   3.752   0.161   8.656 -0.6344  0.7378  0.4002
 5717SOL     OW28609   2.294   0.898   4.890  0.7381 -0.3823 -0.3332
 5717SOL    HW128610   2.373   0.949   4.870  0.9416  0.0538  1.5729
 5717SOL    HW228611   2.223   0.943   4.846  0.9867 -1.0110 -1.3865
 5718SOL     OW28612   2.586   0.515  15.851 -0.0616 -0.6975  0.3851
 5718SOL    HW128613   2.498   0.489  15.879  0.6062 -0.6232  2.5461
 5718SOL    HW228614   2.599   0.589  15.911 -2.4402  1.2463 -1.4470
 5719SOL     OW28615   0.339   1.158   4.964 -0.6274  0.5361  0.1000
 5719SOL    HW128616   0.330   1.251   4.983 -1.2153  0.7076 -0.9929
 5719SOL    HW228617   0.345   1.155   4.868 -1.9827 -1.3195  0.0784
 5720SOL     OW28618   1.592   3.821   5.284  0.1111  0.8044 -0.1287
 5720SOL    HW128619   1.656   3.759   5.248  1.1587  0.5083  2.1965
 5720SOL    HW228620   1.606   3.800   5.377  0.6571  1.8532  0.0292
 5721SOL     OW28621   0.590   4.666   6.968  0.4776 -0.4001  0.1507
 5721SOL    HW128622   0.634   4.582   6.958  3.6889  1.2451  0.4676
 5721SOL    HW228623   0.498   4.645   6.985  0.8846 -1.1044  1.4684
 5722SOL     OW28624   0.308   4.036  11.994  0.4692  0.2451 -0.0005
 5722SOL    HW128625   0.383   3.996  12.038 -0.6190  0.2488  1.8811
 5722SOL    HW228626   0.239   3.977  12.026  0.1820  1.5459  1.8089
 5723SOL     OW28627   3.012   1.781   1.924  0.8415 -0.1588 -0.1523
 5723SOL    HW128628   3.076   1.776   1.996  1.8607  2.2234 -0.8799
 5723SOL    HW228629   3.063   1.798   1.845 -2.0173  0.8602 -1.7624
 5724SOL     OW28630   3.455   2.107   6.704 -0.0623 -0.0919 -0.8342
 5724SOL    HW128631   3.527   2.045   6.687  0.0644  0.2252 -1.4529
 5724SOL    HW228632   3.440   2.077   6.794 -2.8854  0.4284 -1.1618
 5725SOL     OW28633   4.219   1.539   3.993  0.3922 -0.6802 -1.0924
 5725SOL    HW128634   4.200   1.616   4.046 -0.4836 -0.8692 -1.1242
 5725SOL    HW228635   4.228   1.594   3.915  1.5279  1.1209  0.3143
 5726SOL     OW28636   2.821   2.977   8.543  0.0505 -0.1539  0.1093
 5726SOL    HW128637   2.736   3.015   8.518 -1.1285 -0.5574  3.4405
 5726SOL    HW228638   2.796   2.907   8.603  0.9731  0.0592  0.7352
 5727SOL     OW28639   3.050   2.331   4.551  0.4873 -0.4589 -0.5486
 5727SOL    HW128640   3.091   2.387   4.617 -1.4761 -0.0663  0.3502
 5727SOL    HW228641   3.013   2.255   4.598 -4.6374  1.1020 -2.1156
 5728SOL     OW28642   3.375   0.311   4.146  0.0012  0.0017 -0.0192
 5728SOL    HW128643   3.284   0.290   4.163 -0.4525  0.5797 -1.7245
 5728SOL    HW228644   3.362   0.371   4.072 -2.0130  1.1425  1.2866
 5729SOL     OW28645   1.180   0.410   2.417  0.3239  0.2476  0.1654
 5729SOL    HW128646   1.249   0.424   2.481 -0.0165  0.8554  0.4017
 5729SOL    HW228647   1.237   0.385   2.344  0.1551 -2.9466  1.1273
 5730SOL     OW28648   3.112   1.334   1.145  0.3515  0.3004 -1.4707
 5730SOL    HW128649   3.038   1.318   1.204  1.7551 -1.7197 -0.2449
 5730SOL    HW228650   3.184   1.336   1.208 -1.2103 -1.8524  0.3866
 5731SOL     OW28651   4.498   1.459   6.582  0.2736  0.0670 -0.7094
 5731SOL    HW128652   4.465   1.541   6.618  0.3161  0.3378 -1.2820
 5731SOL    HW228653   4.418   1.415   6.609  1.3340 -0.7937  1.0269
 5732SOL     OW28654   2.391   0.197   6.929  0.0380 -0.1172 -0.8193
 5732SOL    HW128655   2.451   0.271   6.921  0.1504 -0.2049 -0.7874
 5732SOL    HW228656   2.426   0.167   7.013 -2.0239  1.0315  0.4669
 5733SOL     OW28657   2.199   3.629   8.834  1.0095 -0.3192 -0.2502
 5733SOL    HW128658   2.104   3.645   8.836  0.5931 -2.7590 -0.2036
 5733SOL    HW228659   2.223   3.646   8.744  1.9262  1.1767  0.2916
 5734SOL     OW28660   1.960   2.338   3.135  0.2006  0.1798  0.6489
 5734SOL    HW128661   1.974   2.293   3.052 -0.6509 -2.5255  1.9498
 5734SOL    HW228662   2.028   2.307   3.196  1.2512 -0.1514 -0.6820
 5735SOL     OW28663   0.199   4.054   6.812  0.2066  0.1630  0.0790
 5735SOL    HW128664   0.230   4.009   6.733  1.5154  0.6724  0.3009
 5735SOL    HW228665   0.277   4.064   6.865  1.3779 -1.2405 -1.3714
 5736SOL     OW28666   3.292   4.267  11.314 -0.2159 -0.1488 -0.1350
 5736SOL    HW128667   3.312   4.187  11.362  0.0442 -0.1729 -0.2810
 5736SOL    HW228668   3.218   4.243  11.258  0.5753 -2.0352 -0.3671
 5737SOL     OW28669   2.597   1.593  12.737  0.5949  0.1466 -0.0739
 5737SOL    HW128670   2.679   1.557  12.770 -0.7023 -0.1810  2.7957
 5737SOL    HW228671   2.630   1.682  12.738  0.7314  0.0966 -0.1352
 5738SOL     OW28672   0.826   2.747   8.678 -0.1245  0.2220 -0.8622
 5738SOL    HW128673   0.738   2.731   8.644  0.0537  0.7832 -1.5982
 5738SOL    HW228674   0.806   2.815   8.741 -1.5594 -1.3244  0.3549
 5739SOL     OW28675   0.214   4.654  12.267  0.4027 -0.0453 -0.1047
 5739SOL    HW128676   0.196   0.023  12.242 -0.6625 -0.2656 -0.1301
 5739SOL    HW228677   0.157   4.650  12.344  0.6281  1.7339  0.1629
 5740SOL     OW28678   2.547   0.574   7.590 -0.1779  0.3594  0.0436
 5740SOL    HW128679   2.588   0.504   7.540 -2.5696 -1.6969  0.9634
 5740SOL    HW228680   2.453   0.565   7.574 -0.0613 -1.5224  0.3271
 5741SOL     OW28681   1.405   1.373  17.670  0.4411 -0.5827 -0.7965
 5741SOL    HW128682   1.457   1.415   0.049 -0.9357  2.2891 -1.4996
 5741SOL    HW228683   1.384   1.446  17.611 -1.6954 -0.1487  0.5023
 5742SOL     OW28684   4.051   4.601   3.089 -0.5822  0.2871 -0.0795
 5742SOL    HW128685   4.013   4.652   3.160  1.5953  1.0898  0.5110
 5742SOL    HW228686   3.991   4.528   3.076  0.2596 -0.0993 -1.9265
 5743SOL     OW28687   1.502   2.358   7.239 -0.9020  0.0804 -0.4427
 5743SOL    HW128688   1.543   2.362   7.153 -1.1686  0.4213 -0.5498
 5743SOL    HW228689   1.433   2.293   7.229 -0.9978 -0.4673  3.4752
 5744SOL     OW28690   0.724   1.102   7.344  0.3228  0.6210  0.4142
 5744SOL    HW128691   0.732   1.197   7.346 -0.1163  0.6579  0.5028
 5744SOL    HW228692   0.648   1.088   7.288  1.2315  0.2958 -0.7212
 5745SOL     OW28693   4.650   2.888  12.203  0.1279  0.3889 -0.1347
 5745SOL    HW128694   4.566   2.921  12.235  0.1290  1.7210 -1.4743
 5745SOL    HW228695   4.696   2.857  12.281 -2.4578  1.2255  1.7318
 5746SOL     OW28696   1.266   0.850  14.774  0.4691  0.0701 -0.1688
 5746SOL    HW128697   1.311   0.934  14.783 -0.1939  0.3510  0.4777
 5746SOL    HW228698   1.346   0.800  14.792  0.8515  0.2331 -1.4219
 5747SOL     OW28699   3.878   2.305   4.002 -0.8801 -0.2041 -0.2296
 5747SOL    HW128700   3.822   2.365   3.953 -1.3255  0.3030  0.8994
 5747SOL    HW228701   3.897   2.246   3.930 -0.1164 -1.1249  0.7183
 5748SOL     OW28702   1.346   2.525   9.155 -0.2179 -0.1321  0.1192
 5748SOL    HW128703   1.344   2.445   9.208  2.9119  1.0832  2.0828
 5748SOL    HW228704   1.430   2.566   9.175 -0.9069  1.8553 -1.0291
 5749SOL     OW28705   2.512   2.971   8.638  0.2256  0.0235 -0.2676
 5749SOL    HW128706   2.554   2.885   8.631  0.2729  0.0885 -0.8158
 5749SOL    HW228707   2.556   3.000   8.718 -0.7318  1.2498 -0.1929
 5750SOL     OW28708   1.203   1.141   1.927  0.6105 -0.2099  0.9438
 5750SOL    HW128709   1.273   1.199   1.957  0.2524  1.0471 -0.6399
 5750SOL    HW228710   1.159   1.185   1.854  0.2501  0.4596  1.5750
 5751SOL     OW28711   3.878   2.515   6.984  0.0203 -0.8517 -0.1626
 5751SOL    HW128712   3.892   2.470   7.067  0.1517 -0.0410  0.2511
 5751SOL    HW228713   3.794   2.479   6.957 -0.6664 -1.1074  2.3442
 5752SOL     OW28714   4.291   2.238   0.138  0.4821  0.3301 -0.6438
 5752SOL    HW128715   4.237   2.312   0.163 -0.1101 -0.7854  1.3236
 5752SOL    HW228716   4.222   2.172   0.127  1.0182  0.0732 -2.5873
 5753SOL     OW28717   1.538   2.902   3.583 -0.0595  0.0977  0.0646
 5753SOL    HW128718   1.499   2.945   3.506  0.3452 -0.1001 -0.2516
 5753SOL    HW228719   1.503   2.813   3.576 -1.8363  0.8486 -0.7047
 5754SOL     OW28720   3.319   0.808   9.328  0.0098 -0.4464  0.4914
 5754SOL    HW128721   3.252   0.754   9.370 -0.2263 -1.7777 -1.5834
 5754SOL    HW228722   3.286   0.808   9.237  0.6298 -1.8407  0.2774
 5755SOL     OW28723   4.683   0.639   7.519  0.0487  0.1691  0.5742
 5755SOL    HW128724   4.687   0.679   7.605  1.2906  0.5584  0.3363
 5755SOL    HW228725   4.592   0.609   7.524  0.8599 -2.1745  1.2359
 5756SOL     OW28726   2.414   1.724   3.804 -0.5831 -0.2308  0.1949
 5756SOL    HW128727   2.495   1.679   3.831  0.1259  0.5563 -0.6277
 5756SOL    HW228728   2.349   1.703   3.871 -0.8484  0.7744  0.2466
 5757SOL     OW28729   2.256   2.612  14.493 -0.1530 -0.4374 -0.8897
 5757SOL    HW128730   2.273   2.700  14.460  0.0101 -0.4401 -0.8144
 5757SOL    HW228731   2.204   2.630  14.572 -1.9697  0.4519 -2.2772
 5758SOL     OW28732   0.903   0.077   5.082 -0.4853  0.2466 -0.1423
 5758SOL    HW128733   0.925   0.030   5.001 -0.3093  0.8225 -0.4221
 5758SOL    HW228734   0.818   0.033   5.093  0.2916 -0.7805  1.8380
 5759SOL     OW28735   3.835   2.492   3.642  0.1943  0.0171 -0.6178
 5759SOL    HW128736   3.916   2.459   3.682 -0.8933 -0.7781  0.9224
 5759SOL    HW228737   3.853   2.586   3.640  0.0600  0.0670  0.5985
 5760SOL     OW28738   4.590   2.072   6.460 -0.1853 -0.4355 -0.5366
 5760SOL    HW128739   4.673   2.115   6.438  0.0650 -1.7409 -2.0860
 5760SOL    HW228740   4.540   2.154   6.451 -0.0673 -0.4604 -1.4622
 5761SOL     OW28741   1.800   2.235   1.771 -0.0198 -0.5538  0.4803
 5761SOL    HW128742   1.732   2.301   1.787 -0.0243 -0.6058  0.6782
 5761SOL    HW228743   1.845   2.212   1.852 -0.1710  0.5169  0.8672
 5762SOL     OW28744   1.546   4.453   7.188 -0.1092 -0.5398 -0.0465
 5762SOL    HW128745   1.530   4.388   7.120 -1.1540 -2.0694  1.6636
 5762SOL    HW228746   1.547   4.542   7.154 -0.9756  0.6248  2.9589
 5763SOL     OW28747   2.037   1.360   5.088  0.1319  0.0748 -0.0895
 5763SOL    HW128748   1.948   1.348   5.053 -0.1758 -0.7468  0.9363
 5763SOL    HW228749   2.065   1.269   5.099  1.8999  0.5557 -0.6680
 5764SOL     OW28750   1.437   0.442  14.741 -0.0118 -0.4452  0.4094
 5764SOL    HW128751   1.383   0.484  14.808  2.0061  0.6536  1.3712
 5764SOL    HW228752   1.439   0.348  14.760  1.0786 -0.3028  1.0384
 5765SOL     OW28753   2.460   1.477   9.241  0.0534 -0.2708 -0.1591
 5765SOL    HW128754   2.541   1.462   9.192  0.5793  1.3304  0.2176
 5765SOL    HW228755   2.473   1.400   9.296 -1.6788  0.6260  1.5380
 5766SOL     OW28756   4.227   1.108  12.801  0.5300 -0.3259 -0.0988
 5766SOL    HW128757   4.275   1.130  12.881 -0.5861  0.9378  0.2300
 5766SOL    HW228758   4.245   1.189  12.754 -0.1621  1.3428  2.4811
 5767SOL     OW28759   3.856   2.904  17.192 -0.7226  0.1756  0.4265
 5767SOL    HW128760   3.803   2.825  17.193  0.9930 -0.9781  0.2505
 5767SOL    HW228761   3.816   2.961  17.126  0.5814  2.2070  1.3731
 5768SOL     OW28762   1.033   4.148  10.821  0.3478  0.0319  0.7534
 5768SOL    HW128763   1.072   4.086  10.882 -0.4631 -1.2327 -0.0189
 5768SOL    HW228764   0.948   4.158  10.863  0.0946  1.0804 -0.0146
 5769SOL     OW28765   2.675   2.861  13.570 -0.4098 -0.2504  0.1897
 5769SOL    HW128766   2.686   2.782  13.518 -0.3759 -0.3817  0.3972
 5769SOL    HW228767   2.749   2.851  13.629  1.2430 -0.4200 -1.9222
 5770SOL     OW28768   4.382   1.752   7.250 -0.1677  0.1419 -0.1788
 5770SOL    HW128769   4.361   1.752   7.343  0.5765 -4.2128  0.0078
 5770SOL    HW228770   4.300   1.772   7.206 -0.6758 -0.5796  0.4458
 5771SOL     OW28771   4.428   2.071  10.563 -0.3355 -0.3672  0.3682
 5771SOL    HW128772   4.452   2.012  10.492 -0.3728 -0.7269  0.6602
 5771SOL    HW228773   4.476   2.149  10.533 -0.2196 -1.2528 -1.7160
 5772SOL     OW28774   1.671   4.721   3.932 -0.0442 -0.5410 -0.2538
 5772SOL    HW128775   1.733   0.057   3.888 -0.4983  1.8235  2.1874
 5772SOL    HW228776   1.676   0.034   4.021  0.6763 -0.0575 -0.4802
 5773SOL     OW28777   1.232   3.245   8.745  0.0954 -0.4815  0.3186
 5773SOL    HW128778   1.224   3.277   8.835  3.7308  2.0131 -0.2568
 5773SOL    HW228779   1.186   3.315   8.698  2.8781  1.4003  0.4267
 5774SOL     OW28780   3.519   3.696   0.071  0.3021 -0.1809  0.0937
 5774SOL    HW128781   3.463   3.678   0.146  0.9961 -1.2767  0.3539
 5774SOL    HW228782   3.553   3.784   0.088  0.7694 -0.7642  2.1454
 5775SOL     OW28783   3.592   1.637   4.909 -0.1355  0.5009  0.0260
 5775SOL    HW128784   3.621   1.593   4.829 -0.3492  3.0697 -1.4717
 5775SOL    HW228785   3.645   1.717   4.904 -1.5981  1.4773  0.1590
 5776SOL     OW28786   0.277   2.347  10.814  0.4916 -0.4560 -0.2787
 5776SOL    HW128787   0.296   2.362  10.907  0.6555  1.2724 -0.5939
 5776SOL    HW228788   0.258   2.254  10.827  0.4045 -0.5092 -0.8155
 5777SOL     OW28789   3.378   0.728  16.823 -0.1551 -0.2897  0.8633
 5777SOL    HW128790   3.443   0.676  16.870 -1.5101 -0.0987  2.9076
 5777SOL    HW228791   3.336   0.660  16.770  1.2689  0.1693 -0.8657
 5778SOL     OW28792   0.196   2.635   9.231  0.4386 -0.6316 -0.1569
 5778SOL    HW128793   0.217   2.698   9.162  0.9185 -1.2576 -0.5872
 5778SOL    HW228794   0.208   2.548   9.192  0.7957 -1.4770  1.8550
 5779SOL     OW28795   2.627   2.678   9.245 -0.0002  0.4151  0.9507
 5779SOL    HW128796   2.541   2.643   9.268  0.2918 -0.5691  0.5105
 5779SOL    HW228797   2.675   2.600   9.218 -1.1298 -0.9148  2.7533
 5780SOL     OW28798   0.109   1.589   4.210  0.9942 -0.3334 -0.1495
 5780SOL    HW128799   0.115   1.634   4.126 -0.5385  0.8325  0.3668
 5780SOL    HW228800   0.149   1.648   4.273 -0.8383  0.7243  0.0362
 5781SOL     OW28801   4.296   0.138  15.329  0.4332 -0.5070 -0.1268
 5781SOL    HW128802   4.351   0.216  15.341  0.3574 -0.1721 -1.9162
 5781SOL    HW228803   4.207   0.172  15.341  0.4038  0.2278 -2.3079
 5782SOL     OW28804   1.248   3.279  15.858  0.5267 -0.1449  0.3394
 5782SOL    HW128805   1.308   3.247  15.925  1.6618  2.3930  0.5285
 5782SOL    HW228806   1.232   3.193  15.821 -0.2035  0.2406 -0.2470
 5783SOL     OW28807   3.758   3.170   3.826 -0.3229 -1.0903 -0.4246
 5783SOL    HW128808   3.817   3.161   3.901  0.6176  0.6302 -0.9475
 5783SOL    HW228809   3.808   3.125   3.758  0.8264 -0.9362  0.3222
 5784SOL     OW28810   4.127   1.460  11.039 -0.3312  0.5938  0.7791
 5784SOL    HW128811   4.159   1.491  10.954 -0.3378 -0.5553  0.3584
 5784SOL    HW228812   4.078   1.383  11.010  0.1379 -0.2737  2.2976
 5785SOL     OW28813   0.141   0.672   4.006  0.5165 -0.0925  0.4835
 5785SOL    HW128814   0.157   0.595   3.952 -1.2471 -0.3320  0.3027
 5785SOL    HW228815   0.218   0.679   4.063  0.3320  0.0844  0.7107
 5786SOL     OW28816   0.354   2.017  13.009 -0.1499  0.5082 -0.1873
 5786SOL    HW128817   0.421   2.084  12.995 -1.6227  2.1513  0.5441
 5786SOL    HW228818   0.316   2.049  13.092  1.0536 -0.4904  0.7344
 5787SOL     OW28819   4.607   0.735   5.389 -0.2152 -0.5141  0.6047
 5787SOL    HW128820   4.537   0.711   5.328 -0.0129  2.8138 -0.9400
 5787SOL    HW228821   4.640   0.813   5.345 -1.3914  0.7614  2.0094
 5788SOL     OW28822   3.780   2.294  11.321 -0.4401  0.3857 -0.7284
 5788SOL    HW128823   3.787   2.201  11.341  2.5670  0.7965  0.1406
 5788SOL    HW228824   3.836   2.309  11.244  0.2446 -0.6620 -0.4257
 5789SOL     OW28825   1.829   4.025   0.195 -0.2044 -0.1163  0.2572
 5789SOL    HW128826   1.894   3.963   0.162 -1.1970 -1.4429  0.8098
 5789SOL    HW228827   1.778   4.020   0.114 -1.4211  0.5454  0.9757
 5790SOL     OW28828   2.982   1.613   8.014 -0.6751  0.3190  0.3281
 5790SOL    HW128829   2.965   1.601   7.921  0.2654 -0.2882  0.2284
 5790SOL    HW228830   2.899   1.635   8.056  0.1427 -1.1469  2.7737
 5791SOL     OW28831   0.930   0.483   5.691  0.2226 -0.1417  0.0707
 5791SOL    HW128832   0.945   0.475   5.596 -3.9221  1.9717 -0.7556
 5791SOL    HW228833   0.981   0.563   5.706 -0.9675  0.7258 -0.4889
 5792SOL     OW28834   3.921   1.080   8.722 -0.1040  0.1244 -0.5648
 5792SOL    HW128835   3.954   1.105   8.636  0.4066  1.4626  0.0110
 5792SOL    HW228836   3.963   0.995   8.734 -0.9479 -0.2739 -0.4450
 5793SOL     OW28837   2.507   3.187   0.294  0.3273 -0.0072  0.1444
 5793SOL    HW128838   2.553   3.180   0.377  0.9879  2.0566 -0.0408
 5793SOL    HW228839   2.470   3.275   0.303  0.9416  0.2134  0.4470
 5794SOL     OW28840   3.195   2.306   6.256  0.3754  0.0843  0.5038
 5794SOL    HW128841   3.190   2.221   6.300  0.3910  0.5962  1.5005
 5794SOL    HW228842   3.105   2.332   6.276  0.7437  1.4183  0.4195
 5795SOL     OW28843   2.523   0.037  13.494 -0.2022  0.2671 -0.7023
 5795SOL    HW128844   2.442   0.084  13.511 -1.4359 -2.5166  1.1739
 5795SOL    HW228845   2.542   0.063  13.404 -2.8328 -0.4591 -1.4518
 5796SOL     OW28846   0.800   4.040   6.232 -0.7249  0.4568 -0.3551
 5796SOL    HW128847   0.762   4.062   6.147 -0.9360  1.1042 -0.0901
 5796SOL    HW228848   0.774   3.948   6.225 -1.9580  0.8675 -1.1232
 5797SOL     OW28849   3.091   2.273  17.458 -0.0195  0.6031  0.1369
 5797SOL    HW128850   3.120   2.358  17.491 -1.9147  1.3547 -0.1229
 5797SOL    HW228851   3.071   2.295  17.367 -0.4910  0.6864  0.2563
 5798SOL     OW28852   4.127   1.465   2.500  0.1590  0.0532  0.2977
 5798SOL    HW128853   4.175   1.531   2.550  1.7558  0.1493 -1.3780
 5798SOL    HW228854   4.065   1.513   2.445 -1.3195 -1.2165  0.8418
 5799SOL     OW28855   1.050   4.485  13.443  0.1943 -0.0054  0.4072
 5799SOL    HW128856   1.085   4.494  13.532  2.6461 -0.0492 -0.5635
 5799SOL    HW228857   0.990   4.411  13.446  1.4809 -1.0432  0.2791
 5800SOL     OW28858   3.373   3.742  12.206 -0.2327  0.0037 -0.7604
 5800SOL    HW128859   3.290   3.733  12.160 -0.6646 -1.3623  0.2610
 5800SOL    HW228860   3.370   3.656  12.248 -2.5291 -1.3802 -3.8275
 5801SOL     OW28861   1.994   3.691   8.115  0.6016 -0.0073 -0.4902
 5801SOL    HW128862   2.049   3.763   8.083  2.5049 -1.4188 -0.3551
 5801SOL    HW228863   2.027   3.676   8.204  0.6856  1.2209 -0.3039
 5802SOL     OW28864   1.079   2.200   6.969 -0.1731  0.3320 -0.0722
 5802SOL    HW128865   1.097   2.259   6.896  0.7884  0.2455  0.1008
 5802SOL    HW228866   1.091   2.110   6.938 -0.3397 -0.0961  1.1060
 5803SOL     OW28867   4.615   3.653   6.156  0.1930 -0.1476  0.0386
 5803SOL    HW128868   4.544   3.699   6.200  0.7646 -0.2008  1.0129
 5803SOL    HW228869   4.583   3.594   6.087  0.1576 -1.7031  1.3829
 5804SOL     OW28870   4.257   1.349   8.243 -0.3083 -0.8469  0.3878
 5804SOL    HW128871   4.203   1.426   8.261 -0.4439 -0.9982  0.6268
 5804SOL    HW228872   4.275   1.313   8.330  1.5958 -0.3141  0.2110
 5805SOL     OW28873   2.049   0.059  16.926 -0.1933 -0.0931  0.8075
 5805SOL    HW128874   2.109   0.041  16.855 -0.3178  2.8402 -0.0378
 5805SOL    HW228875   2.052   0.155  16.923 -1.5740 -0.1244 -1.5626
 5806SOL     OW28876   0.360   3.802  10.634  0.4018  0.5906  0.4298
 5806SOL    HW128877   0.413   3.842  10.703  0.2340  2.5742 -0.5764
 5806SOL    HW228878   0.345   3.715  10.670  0.4140  0.5374  0.3059
 5807SOL     OW28879   1.706   2.124  12.035  0.5170  0.1298  0.0037
 5807SOL    HW128880   1.662   2.115  12.120 -1.8397 -0.4321 -1.2505
 5807SOL    HW228881   1.627   2.148  11.987 -0.4207 -0.7597  1.0896
 5808SOL     OW28882   1.803   4.229  15.734  0.2827 -0.0081  0.4360
 5808SOL    HW128883   1.867   4.164  15.702  0.3736  0.9865 -1.4160
 5808SOL    HW228884   1.746   4.233  15.657 -1.1594 -3.4809  1.3155
 5809SOL     OW28885   2.864   4.429   0.888  0.1275  0.2524  0.0161
 5809SOL    HW128886   2.827   4.348   0.853  0.0785  0.7478 -1.0702
 5809SOL    HW228887   2.871   4.403   0.980  0.6918  2.1883  0.5078
 5810SOL     OW28888   1.130   4.660   2.365  0.2233  0.0046  0.8798
 5810SOL    HW128889   1.186   0.007   2.402  1.1726 -1.6857  2.5399
 5810SOL    HW228890   1.169   4.653   2.278  1.6796  2.1421  1.3412
 5811SOL     OW28891   0.025   4.154   6.481  0.1692  0.1113  0.7672
 5811SOL    HW128892   0.105   4.114   6.447  1.2022  1.4641  1.6369
 5811SOL    HW228893   4.691   4.082   6.511 -0.2997  0.4115  0.6139
 5812SOL     OW28894   4.692   0.379  11.962 -0.5052 -0.3249 -0.0009
 5812SOL    HW128895   4.610   0.336  11.988 -0.5434 -0.6424 -0.6692
 5812SOL    HW228896   4.655   0.433  11.892  0.6763  0.0828 -0.3138
 5813SOL     OW28897   2.948   1.318   7.212  0.4295 -0.4154 -0.2596
 5813SOL    HW128898   2.875   1.259   7.234 -0.8482  0.7787 -1.3128
 5813SOL    HW228899   2.909   1.405   7.202  2.0222  0.1723 -1.3502
 5814SOL     OW28900   0.070   3.789   3.627 -0.1128  0.3862  0.0483
 5814SOL    HW128901   0.109   3.797   3.714 -0.7590 -0.6365  0.4361
 5814SOL    HW228902   0.072   3.695   3.607  0.6379  0.0343  1.8041
 5815SOL     OW28903   3.618   3.404   5.658 -0.4913 -0.0413 -0.2422
 5815SOL    HW128904   3.599   3.497   5.668 -1.5058  0.0734 -3.4488
 5815SOL    HW228905   3.615   3.382   5.752 -0.2955 -0.2363 -0.2807
 5816SOL     OW28906   1.334   0.068  15.043 -0.3511 -0.1020 -0.1045
 5816SOL    HW128907   1.427   0.059  15.062 -0.2751 -1.4171 -1.0751
 5816SOL    HW228908   1.303   0.012  15.114 -0.7693 -0.6712 -0.7306
 5817SOL     OW28909   1.332   0.779  16.850  0.2987  0.3458  0.1747
 5817SOL    HW128910   1.287   0.768  16.766  1.1552  0.8902 -0.3606
 5817SOL    HW228911   1.264   0.776  16.918  0.3270  0.5769  0.2119
 5818SOL     OW28912   0.369   3.563   4.942 -0.5014  0.1448 -0.3900
 5818SOL    HW128913   0.458   3.587   4.969 -1.1752  1.0920  0.9623
 5818SOL    HW228914   0.383   3.476   4.905 -0.7350 -0.5003  1.0634
 5819SOL     OW28915   3.471   4.707   5.891  0.1837  0.1172 -0.3611
 5819SOL    HW128916   3.388   0.034   5.883  0.3941  0.9758  2.5734
 5819SOL    HW228917   3.455   4.631   5.946 -0.9163  0.3926 -0.2916
 5820SOL     OW28918   0.351   0.566  11.463 -0.5884 -0.1413 -0.0596
 5820SOL    HW128919   0.441   0.564  11.497 -1.0026 -2.1050  0.9455
 5820SOL    HW228920   0.328   0.657  11.480  0.3225 -0.0523  0.7416
 5821SOL     OW28921   0.886   0.152  13.519  0.2423 -0.5001  0.8046
 5821SOL    HW128922   0.817   0.091  13.545 -0.3461  0.5317  1.6568
 5821SOL    HW228923   0.932   0.106  13.449  0.0817  0.7575 -0.1338
 5822SOL     OW28924   3.919   2.603   7.436  0.1704 -0.3196  0.2684
 5822SOL    HW128925   3.871   2.527   7.402  1.7120 -1.0392 -0.2799
 5822SOL    HW228926   3.983   2.567   7.497 -0.2372 -0.0676  0.8407
 5823SOL     OW28927   3.932   0.102   1.314 -0.3200 -0.2228  0.5081
 5823SOL    HW128928   3.987   0.084   1.238 -1.4914 -1.1900 -0.1043
 5823SOL    HW228929   4.002   0.126   1.375 -0.3392 -1.3575  0.9780
 5824SOL     OW28930   1.445   3.902   7.820  0.1735 -0.2805 -0.0851
 5824SOL    HW128931   1.530   3.941   7.843 -1.0136  2.9225 -1.0751
 5824SOL    HW228932   1.447   3.826   7.878  0.4610 -0.9652 -0.9895
 5825SOL     OW28933   1.959   0.942   4.109 -0.3479 -0.1050  0.4091
 5825SOL    HW128934   2.024   0.943   4.039  1.2717 -0.0922  1.9232
 5825SOL    HW228935   1.888   1.003   4.086  0.3170  0.9028  1.0254
 5826SOL     OW28936   4.597   1.686   2.314 -0.1605  0.6923 -0.6335
 5826SOL    HW128937   4.677   1.645   2.283  0.0649  0.8697 -0.2724
 5826SOL    HW228938   4.535   1.631   2.265  0.2263  0.1887 -0.5595
 5827SOL     OW28939   1.639   2.604   3.358 -0.0254  0.1465 -0.3768
 5827SOL    HW128940   1.697   2.621   3.284  0.3880 -1.1483 -0.3602
 5827SOL    HW228941   1.647   2.509   3.362  1.5887  0.2640 -0.7565
 5828SOL     OW28942   0.117   1.284   6.030 -0.2187 -0.3215 -0.0786
 5828SOL    HW128943   0.108   1.355   5.966  2.1742  1.4423  1.5017
 5828SOL    HW228944   0.114   1.339   6.109  2.6764  0.5134 -0.5610
 5829SOL     OW28945   0.889   3.896   8.596  0.0056  0.1346  0.2890
 5829SOL    HW128946   0.857   3.954   8.664  1.0515  0.2123  0.7225
 5829SOL    HW228947   0.810   3.850   8.570  0.8259 -1.0303 -0.1614
 5830SOL     OW28948   2.623   4.682   5.916  0.4890  0.4492 -0.1465
 5830SOL    HW128949   2.541   4.668   5.870  0.3689 -1.0074  0.5037
 5830SOL    HW228950   2.655   0.036   5.867  5.6004 -1.7112 -0.1566
 5831SOL     OW28951   4.409   1.228  10.067  0.1720  0.7467 -0.0141
 5831SOL    HW128952   4.368   1.141  10.066 -1.3481  1.4696 -0.3323
 5831SOL    HW228953   4.498   1.214  10.099 -0.2979  1.4085  1.5555
 5832SOL     OW28954   0.901   0.178  13.946 -0.0049  0.5145 -0.3413
 5832SOL    HW128955   0.996   0.162  13.941  0.0811  0.7870  0.4656
 5832SOL    HW228956   0.894   0.258  13.894 -2.2040 -0.1515 -1.0767
 5833SOL     OW28957   0.965   0.863  11.358 -0.5749 -0.4010 -0.2549
 5833SOL    HW128958   0.989   0.869  11.451 -0.3056  0.3907 -0.3705
 5833SOL    HW228959   0.919   0.779  11.360  4.1652 -3.0204 -0.8720
 5834SOL     OW28960   2.988   1.817   2.409  0.4073  0.2184  0.3521
 5834SOL    HW128961   2.944   1.736   2.386 -1.9461  1.3338  0.9221
 5834SOL    HW228962   3.010   1.849   2.322 -0.5491 -0.7667 -0.2327
 5835SOL     OW28963   4.523   0.587   1.243  0.2762  0.0828  0.3365
 5835SOL    HW128964   4.432   0.580   1.212  0.5910  0.3253 -0.6662
 5835SOL    HW228965   4.560   0.510   1.200  0.5972  1.3416 -1.6712
 5836SOL     OW28966   0.902   1.374   6.241 -0.0809 -0.0501 -0.3362
 5836SOL    HW128967   0.995   1.358   6.259  0.6907  3.8794 -0.7726
 5836SOL    HW228968   0.878   1.286   6.211  0.4115 -0.4491  0.4434
 5837SOL     OW28969   1.268   3.932   2.373 -0.1946  0.4697 -0.3911
 5837SOL    HW128970   1.351   3.905   2.335  0.1180 -1.8703  1.8776
 5837SOL    HW228971   1.274   4.027   2.378  1.7228  0.4446 -2.5279
 5838SOL     OW28972   3.626   4.359  16.009 -0.1116 -0.1474 -0.5940
 5838SOL    HW128973   3.654   4.318  16.090  0.2789  0.9800 -0.1530
 5838SOL    HW228974   3.696   4.420  15.988 -1.4746  1.0527 -1.6829
 5839SOL     OW28975   3.408   2.309   5.678 -0.4038  0.2413  0.0947
 5839SOL    HW128976   3.467   2.287   5.750  1.2082  3.7826 -0.1415
 5839SOL    HW228977   3.471   2.341   5.613  0.9403 -1.3515  0.6097
 5840SOL     OW28978   1.094   1.440   9.045  0.2015 -0.5032 -0.5507
 5840SOL    HW128979   1.051   1.480   8.970  0.7246  0.4386 -0.3432
 5840SOL    HW228980   1.048   1.466   9.125 -1.4792 -0.8156 -1.4198
 5841SOL     OW28981   3.434   1.536  15.633  0.7408  0.3458 -0.0383
 5841SOL    HW128982   3.500   1.509  15.569 -1.1885  1.5307 -2.5524
 5841SOL    HW228983   3.362   1.546  15.569  0.3307 -2.5784 -0.0643
 5842SOL     OW28984   1.756   0.828   8.970 -0.0675  0.0169 -0.5287
 5842SOL    HW128985   1.755   0.780   9.053 -0.6938 -1.5002 -1.4173
 5842SOL    HW228986   1.731   0.760   8.908 -2.6189 -0.5998  1.1857
 5843SOL     OW28987   3.957   0.614  14.616 -0.3369 -0.3529 -0.5288
 5843SOL    HW128988   4.031   0.586  14.563 -0.4913 -0.8668 -0.4744
 5843SOL    HW228989   3.936   0.702  14.585 -1.8431 -0.8304 -0.8791
 5844SOL     OW28990   2.725   0.855  17.067 -0.5258 -0.3738 -0.2490
 5844SOL    HW128991   2.786   0.787  17.095 -0.3825 -0.6254 -1.1763
 5844SOL    HW228992   2.666   0.857  17.143 -0.6002  0.0619 -0.3135
 5845SOL     OW28993   2.483   1.607   0.177  0.1632 -0.0714 -0.2351
 5845SOL    HW128994   2.480   1.587   0.271  0.1043  0.6968 -0.0739
 5845SOL    HW228995   2.541   1.683   0.169 -0.0770  0.4140  2.6921
 5846SOL     OW28996   2.374   0.263  10.405 -0.4675  0.5041 -0.0479
 5846SOL    HW128997   2.312   0.244  10.335  2.2967  0.3900 -2.4895
 5846SOL    HW228998   2.456   0.286  10.360 -1.1155 -0.9946 -1.9920
 5847SOL     OW28999   3.391   4.142   2.167 -0.3102  0.2274 -0.2643
 5847SOL    HW129000   3.468   4.109   2.119 -0.5684 -0.6170 -0.0946
 5847SOL    HW229001   3.382   4.233   2.140  1.6493  0.0764 -1.4459
 5848SOL     OW29002   2.940   0.985  15.704  0.3684 -0.4652  0.2337
 5848SOL    HW129003   2.994   1.057  15.737  0.3417 -0.6652  0.7176
 5848SOL    HW229004   2.994   0.957  15.629  1.8809  0.3473  1.0267
 5849SOL     OW29005   2.982   4.547  12.215 -0.4792 -0.1928 -0.0468
 5849SOL    HW129006   2.901   4.533  12.265  0.9276  0.2108  2.3538
 5849SOL    HW229007   3.036   4.584  12.285  1.1088 -0.1734 -1.2972
 5850SOL     OW29008   2.764   3.013   6.367 -0.6061  0.9081 -0.2469
 5850SOL    HW129009   2.801   2.961   6.295  0.0688 -1.2428  1.6461
 5850SOL    HW229010   2.672   2.989   6.354 -0.2768  0.0400 -1.0147
 5851SOL     OW29011   1.118   3.108  16.491  0.0519 -0.4174  0.7784
 5851SOL    HW129012   1.043   3.168  16.489 -1.5343 -2.4661 -1.3995
 5851SOL    HW229013   1.192   3.168  16.501 -0.6361  0.1950  2.2613
 5852SOL     OW29014   3.950   4.184   7.322  0.2997 -0.1361 -0.4071
 5852SOL    HW129015   3.910   4.104   7.355 -0.2733  0.0043 -0.7549
 5852SOL    HW229016   4.044   4.169   7.328  0.1609 -1.6214 -2.0182
 5853SOL     OW29017   1.699   1.429   4.723  0.2474 -0.4002  0.0192
 5853SOL    HW129018   1.693   1.336   4.698  4.2308 -0.8471  0.7350
 5853SOL    HW229019   1.655   1.473   4.650  1.0923 -0.2572 -0.4028
 5854SOL     OW29020   1.563   0.746   5.084 -0.3807 -0.1057 -0.0103
 5854SOL    HW129021   1.530   0.746   4.994  2.0653  0.4556 -0.9083
 5854SOL    HW229022   1.521   0.672   5.127  1.5960  0.4215  2.8153
 5855SOL     OW29023   3.986   2.343  10.039 -0.0632 -0.2006  0.0954
 5855SOL    HW129024   4.081   2.349  10.054  0.0882 -0.4616 -0.7474
 5855SOL    HW229025   3.970   2.396   9.961 -0.9520  0.0088  0.4196
 5856SOL     OW29026   2.590   3.053  15.675  1.0135  0.8505  0.0278
 5856SOL    HW129027   2.647   3.000  15.730  1.4565 -0.3173 -1.5565
 5856SOL    HW229028   2.512   3.066  15.729 -0.1255  1.0960 -1.6422
 5857SOL     OW29029   3.683   0.500   7.169  0.0053  0.1307 -0.4350
 5857SOL    HW129030   3.639   0.544   7.097  1.1096  0.4613 -0.9145
 5857SOL    HW229031   3.647   0.412   7.167  1.0747 -0.2793 -1.5783
 5858SOL     OW29032   1.282   0.524  14.938  0.1589 -0.9179  0.3814
 5858SOL    HW129033   1.299   0.472  15.017 -0.4160 -1.1040  0.3870
 5858SOL    HW229034   1.186   0.516  14.938 -0.0686  2.0734  2.6187
 5859SOL     OW29035   1.239   3.036  15.730 -0.0225  0.5713  0.0485
 5859SOL    HW129036   1.309   3.042  15.664  0.1922  0.6624  0.2871
 5859SOL    HW229037   1.259   2.949  15.764  0.9649  0.0957 -1.7080
 5860SOL     OW29038   2.632   2.807  10.868 -0.1159 -0.0723 -0.4996
 5860SOL    HW129039   2.600   2.771  10.950  0.3386 -1.5811 -0.9753
 5860SOL    HW229040   2.725   2.800  10.888 -0.2152 -0.7599 -0.2576
 5861SOL     OW29041   4.233   2.094  10.342 -0.2288 -0.4435 -0.0109
 5861SOL    HW129042   4.201   2.077  10.254 -1.0583  0.5528  0.1104
 5861SOL    HW229043   4.311   2.038  10.345  1.3817  1.8206 -0.0335
 5862SOL     OW29044   0.859   4.424   9.047 -0.1381  0.3400  0.1637
 5862SOL    HW129045   0.820   4.505   9.081 -0.5402 -0.6796  2.1164
 5862SOL    HW229046   0.813   4.417   8.963 -2.5805 -2.9833  1.7905
 5863SOL     OW29047   3.377   2.782  14.098 -0.2816 -0.2651  0.4592
 5863SOL    HW129048   3.348   2.700  14.137  2.5236 -1.6917 -0.5215
 5863SOL    HW229049   3.366   2.834  14.178 -0.8021  1.3869 -0.6848
 5864SOL     OW29050   0.991   1.481   2.704 -0.2659 -0.4903 -0.2717
 5864SOL    HW129051   0.941   1.509   2.781  2.1181 -1.4514  1.6391
 5864SOL    HW229052   0.968   1.390   2.686 -1.2554 -0.5593  1.3044
 5865SOL     OW29053   2.958   3.242   0.574  0.4095 -0.0630  0.2438
 5865SOL    HW129054   2.983   3.306   0.641 -1.1277  0.7886  0.0109
 5865SOL    HW229055   3.015   3.172   0.607  0.9766 -0.2882 -1.2505
 5866SOL     OW29056   1.426   1.643  10.087  0.2081 -0.5391  0.6945
 5866SOL    HW129057   1.374   1.711  10.129  0.7427 -0.1200  0.6776
 5866SOL    HW229058   1.467   1.681  10.009  0.5419 -2.6041 -0.1434
 5867SOL     OW29059   4.349   2.382   7.620  0.1362  0.3004 -0.1667
 5867SOL    HW129060   4.443   2.383   7.602  0.1457  1.1906 -0.0677
 5867SOL    HW229061   4.356   2.319   7.693  0.4939 -1.6443 -1.8839
 5868SOL     OW29062   1.226   2.622   8.399 -0.7256  0.3561 -0.1587
 5868SOL    HW129063   1.308   2.656   8.436  0.5792 -0.4758 -2.2484
 5868SOL    HW229064   1.154   2.667   8.443 -0.2539  1.0336 -0.0814
 5869SOL     OW29065   0.190   4.446   1.740 -0.1130  0.1925  0.1982
 5869SOL    HW129066   0.150   4.403   1.816 -0.0654  0.3906  0.3339
 5869SOL    HW229067   0.213   4.371   1.685 -2.7035 -0.7732  0.4414
 5870SOL     OW29068   3.557   2.636   3.496  0.3615  0.1238 -0.3636
 5870SOL    HW129069   3.507   2.563   3.534 -0.9091  1.1949  0.0495
 5870SOL    HW229070   3.597   2.595   3.420  0.6473  1.3427 -0.8765
 5871SOL     OW29071   2.765   1.131   7.286 -1.0562 -0.5443 -0.6419
 5871SOL    HW129072   2.699   1.183   7.333  0.8083  1.2553 -0.0253
 5871SOL    HW229073   2.813   1.086   7.355  0.6039 -2.4504 -3.0457
 5872SOL     OW29074   2.163   0.413  14.204  0.0011  0.1230 -0.0647
 5872SOL    HW129075   2.067   0.408  14.205  0.0874 -0.9672  1.2839
 5872SOL    HW229076   2.190   0.346  14.266  0.6845 -0.5415 -1.0734
 5873SOL     OW29077   1.579   4.362   1.413  0.6889  0.6095 -0.2149
 5873SOL    HW129078   1.598   4.275   1.448 -2.3297  0.0926  0.1193
 5873SOL    HW229079   1.485   4.364   1.398  0.7496 -2.2496 -0.9923
 5874SOL     OW29080   0.911   4.494   4.072  0.1431  0.2874  0.1216
 5874SOL    HW129081   0.890   4.404   4.097 -0.0264  0.7730  1.7292
 5874SOL    HW229082   0.878   4.549   4.144  3.4599  1.9899  0.3339
 5875SOL     OW29083   2.415   3.293   2.107  0.5721 -0.1291 -0.1452
 5875SOL    HW129084   2.372   3.239   2.172  0.8630 -1.0499 -0.7230
 5875SOL    HW229085   2.350   3.362   2.093  0.4229 -0.2614 -0.0963
 5876SOL     OW29086   4.650   0.997   8.745 -0.5001 -0.8995  0.4386
 5876SOL    HW129087   4.667   0.961   8.832  0.5708 -0.5126  0.3803
 5876SOL    HW229088   4.585   1.063   8.769  1.9648  1.3510  0.8403
 5877SOL     OW29089   2.966   3.047   8.110 -0.1146  0.2072  0.0188
 5877SOL    HW129090   2.945   2.979   8.173  0.2344  0.2487  0.1814
 5877SOL    HW229091   2.982   3.124   8.164  1.5765 -0.1659  0.0645
 5878SOL     OW29092   3.316   3.693   7.126  0.0965 -0.4606  0.1763
 5878SOL    HW129093   3.313   3.778   7.082 -2.2568 -1.2470 -1.1990
 5878SOL    HW229094   3.402   3.699   7.167  0.1246 -0.6095  0.1362
 5879SOL     OW29095   3.495   4.349   5.862  0.0958 -0.0047 -0.7166
 5879SOL    HW129096   3.530   4.264   5.838 -0.2855 -0.4756  0.4263
 5879SOL    HW229097   3.568   4.380   5.916 -1.7946  0.3163  1.6606
 5880SOL     OW29098   4.542   1.254  13.383  0.3344  0.1995 -0.1799
 5880SOL    HW129099   4.556   1.160  13.374 -0.9442 -0.0161  0.0254
 5880SOL    HW229100   4.632   1.286  13.392  0.5374 -0.0290 -1.3574
 5881SOL     OW29101   1.756   4.432  10.829  0.5685 -0.1504  0.1720
 5881SOL    HW129102   1.706   4.448  10.908 -1.2921  1.3825 -1.3314
 5881SOL    HW229103   1.827   4.495  10.841  1.4170 -0.3083 -3.9773
 5882SOL     OW29104   3.102   1.050  12.658 -0.1583  0.3588 -0.0873
 5882SOL    HW129105   3.168   1.037  12.590 -1.3133 -1.5159 -0.8576
 5882SOL    HW229106   3.146   1.109  12.719 -1.1067  1.0502 -0.0812
 5883SOL     OW29107   4.519   3.348  10.891 -0.5191 -0.2391 -0.5323
 5883SOL    HW129108   4.509   3.391  10.806  1.3478  0.1692 -0.5567
 5883SOL    HW229109   4.576   3.405  10.943 -0.1004 -1.0488 -0.1009
 5884SOL     OW29110   3.452   4.445  15.791 -0.2867 -0.6690 -0.4979
 5884SOL    HW129111   3.442   4.405  15.878 -0.3995 -1.3526 -0.8217
 5884SOL    HW229112   3.440   4.538  15.808  0.7240 -0.4093 -1.2225
 5885SOL     OW29113   1.885   1.139   9.339  0.5806 -0.6502 -0.5717
 5885SOL    HW129114   1.949   1.206   9.318  0.8282 -0.2501  1.4566
 5885SOL    HW229115   1.934   1.058   9.325 -1.8865 -2.1540 -0.6207
 5886SOL     OW29116   0.274   0.126   4.374  0.1071  0.0330 -0.2436
 5886SOL    HW129117   0.290   0.081   4.291  1.6204  2.8065 -1.4789
 5886SOL    HW229118   0.318   0.211   4.372  2.6894 -1.3361 -1.3131
 5887SOL     OW29119   2.788   2.522   3.236 -0.7440 -0.4845 -0.0937
 5887SOL    HW129120   2.715   2.550   3.181  2.0485 -1.9892 -4.5741
 5887SOL    HW229121   2.861   2.511   3.176 -2.1959 -0.4463 -1.8544
 5888SOL     OW29122   4.237   1.214   5.814  0.6631  0.5206  0.7506
 5888SOL    HW129123   4.186   1.141   5.779  2.5409  0.4401 -1.8462
 5888SOL    HW229124   4.318   1.213   5.762 -0.0771  0.9768 -0.4271
 5889SOL     OW29125   4.117   1.489   9.916 -0.4661 -0.0259  0.2949
 5889SOL    HW129126   4.154   1.576   9.905 -0.4694 -0.2011 -1.0860
 5889SOL    HW229127   4.114   1.460   9.825 -0.7910 -0.8831  0.5804
 5890SOL     OW29128   1.319   2.435   7.444  0.3292 -0.3418 -0.0066
 5890SOL    HW129129   1.364   2.507   7.489 -2.0871  1.6345 -0.7140
 5890SOL    HW229130   1.378   2.426   7.370 -0.2514  0.9762 -0.6290
 5891SOL     OW29131   1.886   3.237   6.472  0.2501 -0.2148 -0.7469
 5891SOL    HW129132   1.892   3.152   6.429 -1.1879  0.2088 -1.7779
 5891SOL    HW229133   1.977   3.247   6.499  0.3994 -1.4708 -0.8071
 5892SOL     OW29134   4.217   0.967  15.686  0.3027 -0.2095  0.4706
 5892SOL    HW129135   4.209   0.972  15.781  0.6368 -1.2752  0.5508
 5892SOL    HW229136   4.271   0.890  15.671  1.3956  0.7093 -0.3718
 5893SOL     OW29137   0.834   4.415   0.037  0.0967  0.2734  0.5685
 5893SOL    HW129138   0.747   4.454   0.031 -0.5256 -1.1991  0.0788
 5893SOL    HW229139   0.864   4.412  17.635 -0.4748  2.7421  0.2948
 5894SOL     OW29140   1.434   2.415   3.095  0.4356  0.0084  0.3253
 5894SOL    HW129141   1.387   2.425   3.178 -1.3052 -0.2404 -0.6342
 5894SOL    HW229142   1.469   2.503   3.080  0.0725 -0.2838 -2.1922
 5895SOL     OW29143   3.796   1.602   3.603 -0.4492 -0.1147  0.0641
 5895SOL    HW129144   3.845   1.573   3.680  1.6487  2.1553 -0.4115
 5895SOL    HW229145   3.863   1.627   3.539 -0.3578  1.4080  0.7710
 5896SOL     OW29146   2.864   3.614   7.851 -0.4450  0.2546 -0.1893
 5896SOL    HW129147   2.902   3.579   7.770  0.3331 -1.0536  0.7386
 5896SOL    HW229148   2.778   3.578   7.832 -0.1986 -1.1678  1.3905
 5897SOL     OW29149   4.271   1.858   3.528  0.6786 -0.0097  0.3612
 5897SOL    HW129150   4.259   1.893   3.439  2.4830  1.9468  0.8839
 5897SOL    HW229151   4.342   1.797   3.506 -0.5735 -0.9872 -0.9453
 5898SOL     OW29152   3.089   0.491   4.792  0.1194  0.6810  0.1847
 5898SOL    HW129153   3.105   0.401   4.763  0.2155  0.9623 -0.6206
 5898SOL    HW229154   2.997   0.506   4.771 -0.0669 -0.5701  0.0899
 5899SOL     OW29155   0.214   2.849   1.010 -0.6417 -0.0886 -0.0605
 5899SOL    HW129156   0.258   2.930   0.987 -1.3088 -0.3161 -2.1025
 5899SOL    HW229157   0.286   2.805   1.056  0.7335  0.6283 -1.5558
 5900SOL     OW29158   3.302   3.966  15.466  0.3300  0.0389  0.0415
 5900SOL    HW129159   3.260   4.034  15.518 -0.1492  0.5095 -0.9488
 5900SOL    HW229160   3.392   3.991  15.485  0.1698  1.5418 -1.2053
 5901SOL     OW29161   2.364   1.962   4.022  0.5128 -0.6658  0.3414
 5901SOL    HW129162   2.311   2.033   4.057 -0.2918 -1.1942  0.1952
 5901SOL    HW229163   2.298   1.909   3.977  1.6168 -0.8186 -1.1094
 5902SOL     OW29164   1.723   1.149   7.719 -0.0740  0.4243  0.0521
 5902SOL    HW129165   1.765   1.193   7.792 -0.2359 -0.9051  0.9392
 5902SOL    HW229166   1.640   1.119   7.757  0.3823 -2.5224 -1.2988
 5903SOL     OW29167   2.397   2.583   0.320 -0.2844 -0.2947  0.0459
 5903SOL    HW129168   2.366   2.602   0.409 -0.1145 -0.5747  0.1671
 5903SOL    HW229169   2.492   2.579   0.332 -0.2306 -0.6775 -0.5034
 5904SOL     OW29170   1.111   0.845   9.677 -0.3831  0.3056 -0.6108
 5904SOL    HW129171   1.183   0.870   9.619  0.0388 -1.3391 -0.7923
 5904SOL    HW229172   1.035   0.851   9.620 -0.2029  1.6426 -0.7111
 5905SOL     OW29173   1.387   3.790   8.139  0.1720  0.0951  0.5494
 5905SOL    HW129174   1.358   3.723   8.201 -1.8529  0.6892  0.2472
 5905SOL    HW229175   1.477   3.789   8.171  0.1058  1.7844  0.8167
 5906SOL     OW29176   1.656   0.252   5.571 -0.4308 -0.7378 -0.1871
 5906SOL    HW129177   1.581   0.286   5.619  0.9551 -0.5686  1.8693
 5906SOL    HW229178   1.662   0.162   5.604 -1.4077 -0.9789 -0.6937
 5907SOL     OW29179   2.589   0.027  13.199  0.0396 -0.1864 -0.1461
 5907SOL    HW129180   2.668   0.075  13.174  0.6139 -1.3354 -0.5079
 5907SOL    HW229181   2.624   4.660  13.193 -0.1164 -0.4279  2.6159
 5908SOL     OW29182   1.938   2.739   8.633 -0.1824  0.1503 -0.3207
 5908SOL    HW129183   1.896   2.661   8.670  0.0381  0.2520  0.1502
 5908SOL    HW229184   1.893   2.804   8.688 -0.7322 -1.0002  0.5997
 5909SOL     OW29185   4.665   2.441   3.111 -0.7358 -0.1194 -0.4281
 5909SOL    HW129186   4.616   2.519   3.137 -0.9297 -0.6226  0.7185
 5909SOL    HW229187   4.598   2.419   3.046 -1.4369 -0.3627  0.3854
 5910SOL     OW29188   4.037   3.036  17.328  0.0653  0.2179 -0.3522
 5910SOL    HW129189   4.008   2.988  17.405 -1.2515 -1.4874 -1.9115
 5910SOL    HW229190   3.983   2.986  17.267  2.1445 -0.5895 -1.5536
 5911SOL     OW29191   1.385   1.502   9.710  0.3929  0.1161 -0.7009
 5911SOL    HW129192   1.357   1.494   9.801 -1.2912 -1.9287 -1.3917
 5911SOL    HW229193   1.480   1.508   9.707  0.4319  0.7160  1.9459
 5912SOL     OW29194   2.196   0.705  13.764  0.2976  0.1512 -0.1575
 5912SOL    HW129195   2.127   0.640  13.750 -0.3599  0.6400  0.8890
 5912SOL    HW229196   2.207   0.697  13.858  0.7293  0.1410 -0.2060
 5913SOL     OW29197   1.158   2.492   2.723  0.4013 -0.1575 -0.4116
 5913SOL    HW129198   1.099   2.567   2.722 -0.6791 -0.9780  0.7906
 5913SOL    HW229199   1.239   2.533   2.753  1.6034 -0.2046 -3.6188
 5914SOL     OW29200   2.944   2.940  12.524 -0.3054 -0.5305  0.4204
 5914SOL    HW129201   2.974   2.892  12.601  1.8336 -0.8165 -0.5738
 5914SOL    HW229202   3.023   2.983  12.490 -2.4633  1.8758 -1.5073
 5915SOL     OW29203   2.348   1.764   2.529  0.5439 -0.4258  0.2025
 5915SOL    HW129204   2.307   1.839   2.487  0.9195 -1.0383 -1.2747
 5915SOL    HW229205   2.269   1.715   2.553 -0.4440  0.9497 -0.2602
 5916SOL     OW29206   2.841   1.131   8.607  0.1647 -0.6374 -0.0753
 5916SOL    HW129207   2.845   1.227   8.599 -2.5249 -0.7416 -2.4801
 5916SOL    HW229208   2.884   1.109   8.690  1.3303 -0.9264 -0.7604
 5917SOL     OW29209   2.737   2.851   7.793  0.4744 -0.0852  0.0177
 5917SOL    HW129210   2.794   2.922   7.825 -0.8717  1.2430 -0.5381
 5917SOL    HW229211   2.778   2.839   7.707 -0.9761 -1.0755 -0.5301
 5918SOL     OW29212   3.065   3.478  11.208 -1.1209 -0.2639 -0.0393
 5918SOL    HW129213   2.975   3.484  11.239 -1.0038 -0.3167  0.3106
 5918SOL    HW229214   3.108   3.424  11.274  2.3858 -0.0312 -2.1104
 5919SOL     OW29215   0.724   0.285   1.380 -0.1165  0.1532  0.5473
 5919SOL    HW129216   0.645   0.231   1.375  0.7967 -1.1172 -0.3034
 5919SOL    HW229217   0.725   0.319   1.469 -1.6845  1.7726 -0.0568
 5920SOL     OW29218   0.129   1.968   7.826 -0.4008  0.5174 -0.0141
 5920SOL    HW129219   0.183   1.890   7.837  0.5126  1.2878  1.0505
 5920SOL    HW229220   0.182   2.013   7.761  0.0214  0.7313  0.4729
 5921SOL     OW29221   3.793   3.214   6.150  0.0856 -0.3989 -0.1666
 5921SOL    HW129222   3.759   3.284   6.207  1.3213  0.2831 -0.2468
 5921SOL    HW229223   3.849   3.268   6.095 -1.4886 -0.0639 -1.4192
 5922SOL     OW29224   2.325   3.341   7.638 -0.0325 -0.2695  0.0358
 5922SOL    HW129225   2.361   3.254   7.656 -0.6263 -0.1278  1.9162
 5922SOL    HW229226   2.394   3.398   7.670  0.4550 -0.6612 -0.3221
 5923SOL     OW29227   0.822   3.723   8.319  0.9761  0.1070 -0.3629
 5923SOL    HW129228   0.801   3.629   8.317  0.7763  0.1899 -1.6089
 5923SOL    HW229229   0.883   3.745   8.248 -0.2256 -0.8240 -1.6754
 5924SOL     OW29230   2.403   2.470  12.426 -0.3703 -0.1158  0.2694
 5924SOL    HW129231   2.480   2.468  12.369 -0.9543 -0.8768 -0.5040
 5924SOL    HW229232   2.399   2.384  12.467 -1.3814 -1.1483 -1.9838
 5925SOL     OW29233   0.485   4.443   5.744 -0.4976 -0.5613 -0.3104
 5925SOL    HW129234   0.441   4.402   5.818  0.7084 -1.0923  0.1201
 5925SOL    HW229235   0.423   4.423   5.674 -0.8524  1.7475 -0.6639
 5926SOL     OW29236   4.501   2.765   9.440 -0.1089 -0.0511 -0.0028
 5926SOL    HW129237   4.519   2.833   9.505  0.6040 -0.6785  0.4614
 5926SOL    HW229238   4.461   2.701   9.499 -0.2085 -0.1508 -0.1786
 5927SOL     OW29239   1.857   3.820   7.765  0.5286 -0.6706 -0.4672
 5927SOL    HW129240   1.811   3.740   7.791 -0.6562 -0.7018 -2.6772
 5927SOL    HW229241   1.836   3.873   7.842  0.4519  1.8669 -2.2286
 5928SOL     OW29242   4.388   0.612   3.955 -0.6229  0.1269  0.4226
 5928SOL    HW129243   4.295   0.624   3.976 -0.7405 -1.5051  0.8562
 5928SOL    HW229244   4.431   0.656   4.028 -1.1715  1.0520  0.1862
 5929SOL     OW29245   0.101   2.337   4.803  0.0002 -0.1839 -0.0192
 5929SOL    HW129246   0.173   2.274   4.814 -1.2962 -1.6323  0.0895
 5929SOL    HW229247   0.115   2.375   4.890 -0.8108 -0.2634  0.1464
 5930SOL     OW29248   3.169   3.343   3.093  0.2536  0.2724  0.1052
 5930SOL    HW129249   3.086   3.301   3.118 -0.4558  1.3338 -0.4711
 5930SOL    HW229250   3.233   3.279   3.126  1.1565  0.7491 -0.7382
 5931SOL     OW29251   0.142   2.482  16.055 -0.4193 -0.6812  0.2768
 5931SOL    HW129252   0.065   2.512  16.105  0.3998 -1.9479  2.3276
 5931SOL    HW229253   0.201   2.554  16.079 -0.8721 -0.4586  0.7245
 5932SOL     OW29254   2.011   2.590   6.049 -0.0449 -0.4439 -0.2952
 5932SOL    HW129255   2.001   2.608   5.956  1.8617 -1.3536 -0.6759
 5932SOL    HW229256   2.013   2.494   6.047  1.2707 -0.4326  0.4371
 5933SOL     OW29257   3.152   2.625   4.975  0.5915 -0.3972 -0.0230
 5933SOL    HW129258   3.240   2.586   4.977  1.3294  1.3090  0.0743
 5933SOL    HW229259   3.126   2.622   4.883 -0.4446  0.7838  0.2383
 5934SOL     OW29260   1.784   1.844   4.258 -0.6955 -0.9129 -0.2610
 5934SOL    HW129261   1.715   1.836   4.323  0.8308 -1.9885  1.2149
 5934SOL    HW229262   1.763   1.775   4.195  0.8531 -2.6108  1.0898
 5935SOL     OW29263   4.211   0.599  15.909 -0.4763  0.2539  0.4783
 5935SOL    HW129264   4.192   0.689  15.937  1.1273  1.2542 -1.6684
 5935SOL    HW229265   4.195   0.597  15.815  0.4300 -0.9848  0.3545
 5936SOL     OW29266   2.459   2.581   2.772 -0.2675 -0.6104 -0.1650
 5936SOL    HW129267   2.518   2.506   2.786  0.7030 -0.0747 -1.4315
 5936SOL    HW229268   2.418   2.558   2.689  1.8051 -0.5758 -1.1953
 5937SOL     OW29269   1.864   0.092  16.393  0.1698  0.0974  0.5162
 5937SOL    HW129270   1.941   0.097  16.450  0.7269 -0.4994 -0.1907
 5937SOL    HW229271   1.906   0.103  16.308  0.9866 -0.4418  0.8485
 5938SOL     OW29272   1.458   3.157   2.614  0.0298  0.0755  0.7620
 5938SOL    HW129273   1.363   3.156   2.626 -0.0879  0.0488 -0.1760
 5938SOL    HW229274   1.457   3.201   2.529 -2.4179 -2.1475 -0.3158
 5939SOL     OW29275   0.807   3.109   2.498 -0.2556 -0.4137 -0.8527
 5939SOL    HW129276   0.872   3.178   2.502 -0.5642 -0.1689 -0.1023
 5939SOL    HW229277   0.747   3.135   2.428  0.7055  1.5022 -0.9595
 5940SOL     OW29278   2.033   2.961  10.161  0.0701  0.2454 -0.0823
 5940SOL    HW129279   2.094   2.888  10.170  0.9205  0.6421 -2.6212
 5940SOL    HW229280   2.052   3.010  10.241 -2.0289  0.2131  0.4306
 5941SOL     OW29281   4.379   4.368   6.482 -0.0772 -0.1999  0.5267
 5941SOL    HW129282   4.300   4.359   6.537  0.1186  0.3314  0.9010
 5941SOL    HW229283   4.428   4.428   6.538  2.0115 -1.8832  0.4917
 5942SOL     OW29284   2.907   4.529   8.632 -0.2626 -0.2003 -0.5261
 5942SOL    HW129285   2.923   4.469   8.705 -0.2983  0.1196 -0.2544
 5942SOL    HW229286   2.817   4.557   8.646  0.4251  1.2419  1.1192
 5943SOL     OW29287   1.787   1.493  10.532  0.4094  0.2328 -0.3092
 5943SOL    HW129288   1.718   1.511  10.468 -1.0078 -1.7196  0.6738
 5943SOL    HW229289   1.814   1.402  10.517  1.6340  0.5987 -0.2763
 5944SOL     OW29290   0.425   3.089   3.223  0.1686  0.3410 -0.0134
 5944SOL    HW129291   0.504   3.133   3.195 -1.0987  1.2786 -2.1007
 5944SOL    HW229292   0.395   3.157   3.283 -3.1701  0.2602 -1.5611
 5945SOL     OW29293   2.159   0.102   2.515  0.2230  0.2579  0.4683
 5945SOL    HW129294   2.216   0.025   2.509 -2.6374 -1.7309 -0.9441
 5945SOL    HW229295   2.123   0.107   2.427 -0.3157 -0.0083  0.6750
 5946SOL     OW29296   4.180   3.026  15.760  0.0039  0.1435 -0.1139
 5946SOL    HW129297   4.181   3.082  15.682  4.9435  0.4362  0.1551
 5946SOL    HW229298   4.244   2.955  15.751  2.3540  2.2919 -0.3359
 5947SOL     OW29299   4.547   3.859   4.378 -0.1285  0.2645 -0.0765
 5947SOL    HW129300   4.633   3.822   4.395 -0.1573 -0.4083 -1.4376
 5947SOL    HW229301   4.501   3.781   4.348 -0.5021  0.2213  0.6140
 5948SOL     OW29302   3.752   2.341  14.386 -0.3844 -0.3179  0.7257
 5948SOL    HW129303   3.766   2.247  14.376  2.8774  0.2027  0.4629
 5948SOL    HW229304   3.713   2.363  14.301 -2.3648  1.3303  2.0698
 5949SOL     OW29305   0.944   2.280   9.626 -0.5766  0.5761 -0.3920
 5949SOL    HW129306   0.890   2.209   9.590 -1.5060  0.3939  1.3649
 5949SOL    HW229307   0.882   2.329   9.681 -0.0064  0.2629  0.5265
 5950SOL     OW29308   3.323   1.490   0.353 -0.0877 -0.2310  0.4081
 5950SOL    HW129309   3.320   1.434   0.431  0.0181 -1.3136 -0.3700
 5950SOL    HW229310   3.258   1.459   0.290  3.0927 -1.4254 -2.2706
 5951SOL     OW29311   2.118   3.465   4.694 -0.3363 -0.3137  0.0206
 5951SOL    HW129312   2.080   3.377   4.691 -2.0642  0.3902  1.3452
 5951SOL    HW229313   2.038   3.516   4.688  0.2529  0.9940  3.3810
 5952SOL     OW29314   4.154   4.112  12.398  0.2955  1.0357  0.0358
 5952SOL    HW129315   4.220   4.140  12.335  1.0209 -0.9324 -0.0593
 5952SOL    HW229316   4.078   4.117  12.339 -0.0987 -1.1389  0.3797
 5953SOL     OW29317   3.455   4.508   8.150 -0.0682  0.0655 -0.0512
 5953SOL    HW129318   3.396   4.538   8.219  1.6971 -1.5830  2.1553
 5953SOL    HW229319   3.410   4.544   8.074  0.1821 -0.7720 -0.6010
 5954SOL     OW29320   2.734   0.544   3.281 -0.1151 -0.7655  0.1677
 5954SOL    HW129321   2.787   0.624   3.276 -0.3176 -0.7264 -1.3587
 5954SOL    HW229322   2.648   0.575   3.251 -0.1382 -1.0428 -0.0530
 5955SOL     OW29323   4.465   1.944   5.631 -0.5788 -0.5066  0.6533
 5955SOL    HW129324   4.476   2.038   5.619  1.0461 -1.1386 -2.6277
 5955SOL    HW229325   4.434   1.942   5.722  1.5747 -0.0694  1.3935
 5956SOL     OW29326   1.809   4.132   0.446 -0.2878 -0.4177  0.1104
 5956SOL    HW129327   1.890   4.111   0.493 -0.5445  2.0088  1.5945
 5956SOL    HW229328   1.834   4.117   0.355  1.0750 -1.7463  0.6959
 5957SOL     OW29329   4.027   2.367  11.838  0.1970 -0.1155 -0.0665
 5957SOL    HW129330   4.015   2.462  11.841 -2.7026 -0.4397 -1.5278
 5957SOL    HW229331   3.995   2.347  11.750  1.0892  1.2801 -0.7113
 5958SOL     OW29332   2.737   3.592  14.722  0.3691  0.0884 -0.1762
 5958SOL    HW129333   2.723   3.619  14.813  0.6596  2.9438 -0.9774
 5958SOL    HW229334   2.645   3.579  14.700  0.8484 -1.0558 -1.4486
 5959SOL     OW29335   0.029   0.048   9.073 -0.3192 -0.0221  0.6473
 5959SOL    HW129336   4.667   0.073   9.113 -0.2199  0.2305  0.7003
 5959SOL    HW229337   0.078   0.128   9.058 -0.2896 -0.1918 -0.1377
 5960SOL     OW29338   3.168   3.694   6.244  0.1983  0.2181 -0.1389
 5960SOL    HW129339   3.112   3.770   6.261  0.2764  0.4960 -1.1139
 5960SOL    HW229340   3.256   3.732   6.235 -0.0358  0.8343  0.1553
 5961SOL     OW29341   2.918   1.872  11.862 -0.0724  0.0884 -0.5658
 5961SOL    HW129342   2.972   1.831  11.794  0.4649  1.5731 -1.0362
 5961SOL    HW229343   2.847   1.886  11.800  0.7063  0.2815 -1.4232
 5962SOL     OW29344   4.554   4.135  12.074 -0.0393 -0.1610  0.2093
 5962SOL    HW129345   4.638   4.158  12.035 -0.3301 -1.6577 -1.2632
 5962SOL    HW229346   4.516   4.111  11.990  1.8430  0.8936 -0.9340
 5963SOL     OW29347   4.358   0.210  12.793 -0.0510  0.0440  0.6916
 5963SOL    HW129348   4.321   0.297  12.780  0.3297  0.2339  0.8968
 5963SOL    HW229349   4.279   0.158  12.811 -0.1620 -1.7707 -4.8144
 5964SOL     OW29350   0.044   3.084   2.541 -0.3976 -0.0908 -0.2056
 5964SOL    HW129351   0.080   3.162   2.582  0.3863 -0.6116  0.0901
 5964SOL    HW229352   0.033   3.116   2.451 -0.3278  1.8340  0.4847
 5965SOL     OW29353   3.894   2.875   4.740  0.6805  0.2228  0.1769
 5965SOL    HW129354   3.886   2.784   4.711  0.0194  0.6813 -1.0777
 5965SOL    HW229355   3.891   2.868   4.835  0.5374  0.8365  0.2117
 5966SOL     OW29356   0.667   3.285   4.124 -0.1632 -0.1341 -0.5809
 5966SOL    HW129357   0.739   3.223   4.120 -0.2432 -0.4641  3.2503
 5966SOL    HW229358   0.585   3.239   4.102 -1.3311  0.7367  1.9199
 5967SOL     OW29359   3.650   0.005   9.516 -0.2277 -0.1688 -0.1129
 5967SOL    HW129360   3.667   0.098   9.500  1.5952 -0.4450  0.1563
 5967SOL    HW229361   3.672   4.708   9.607  2.1102  0.3041 -0.5740
 5968SOL     OW29362   1.724   3.299   2.883  0.6152  0.3815  0.0928
 5968SOL    HW129363   1.722   3.204   2.898  0.1474  0.4591  0.5156
 5968SOL    HW229364   1.746   3.319   2.974 -0.2571  1.2231  0.1089
 5969SOL     OW29365   1.116   2.696   7.850  0.2700  0.0478  0.0668
 5969SOL    HW129366   1.212   2.700   7.857  0.2432 -0.2699  0.5654
 5969SOL    HW229367   1.094   2.686   7.942  1.2671  2.6164  0.5981
 5970SOL     OW29368   0.142   3.541   4.749  0.1648 -0.7476  0.3199
 5970SOL    HW129369   0.089   3.621   4.757 -0.4568 -0.7994 -3.3800
 5970SOL    HW229370   0.187   3.566   4.830  1.2871  0.7695 -0.7855
 5971SOL     OW29371   0.086   1.855   2.164 -0.3549  0.1336 -0.6417
 5971SOL    HW129372   0.122   1.794   2.099 -0.7385 -1.2574  0.4472
 5971SOL    HW229373   0.005   1.884   2.124 -1.0719 -0.4624  0.3680
 5972SOL     OW29374   2.308   2.851  14.416 -0.2039  0.2290  0.3063
 5972SOL    HW129375   2.374   2.875  14.480  0.8164  1.7492 -1.2925
 5972SOL    HW229376   2.277   2.941  14.403 -1.5670 -0.0616  1.5333
 5973SOL     OW29377   3.185   3.511   5.969 -0.1020 -0.0555  0.5253
 5973SOL    HW129378   3.092   3.534   5.975  0.3012  2.2524 -2.2862
 5973SOL    HW229379   3.214   3.535   6.057  1.2736 -0.1609  0.0948
 5974SOL     OW29380   1.404   2.353  12.089  0.4649  0.0925  0.1981
 5974SOL    HW129381   1.312   2.347  12.114  0.6549  0.6152  1.0265
 5974SOL    HW229382   1.418   2.288  12.020  1.2333  0.4160  0.0480
 5975SOL     OW29383   3.057   4.469   4.937  0.0697  0.2294 -0.7184
 5975SOL    HW129384   3.081   4.485   5.028 -0.7407 -1.7468 -0.1544
 5975SOL    HW229385   3.018   4.382   4.944  2.9252 -0.9752  0.4090
 5976SOL     OW29386   0.372   1.255   7.757 -0.3654 -0.6368  0.0957
 5976SOL    HW129387   0.311   1.209   7.699 -2.3145  0.0072  1.6436
 5976SOL    HW229388   0.425   1.181   7.787 -0.9387 -1.1613 -0.1890
 5977SOL     OW29389   2.155   1.215   3.014  0.2930  0.2332 -0.5918
 5977SOL    HW129390   2.236   1.253   3.047 -0.2357  1.1108 -0.2830
 5977SOL    HW229391   2.164   1.251   2.926  2.1150 -3.1824 -1.7961
 5978SOL     OW29392   1.529   4.288   4.462  0.1294  0.5676  0.1469
 5978SOL    HW129393   1.599   4.234   4.498 -2.0675 -2.6948 -0.5025
 5978SOL    HW229394   1.495   4.226   4.398  0.0050 -0.2274  0.9811
 5979SOL     OW29395   3.436   0.575   7.324 -0.2632 -0.1075 -0.3304
 5979SOL    HW129396   3.475   0.566   7.411 -2.9857 -1.9315  0.7096
 5979SOL    HW229397   3.518   0.587   7.277 -0.2928 -2.0083 -0.8632
 5980SOL     OW29398   0.508   2.389  12.274 -0.2868 -0.0135  0.1461
 5980SOL    HW129399   0.470   2.419  12.357  0.1378  1.2258 -0.1041
 5980SOL    HW229400   0.441   2.419  12.213 -0.0919 -2.7024 -1.3833
 5981SOL     OW29401   4.547   4.544  11.171  0.2172 -0.3650  0.2983
 5981SOL    HW129402   4.482   4.474  11.166 -0.2319  0.1420 -1.1664
 5981SOL    HW229403   4.623   4.509  11.217 -1.4429 -3.6463  0.5637
 5982SOL     OW29404   2.705   3.096   2.211 -0.6732 -0.8361  0.0707
 5982SOL    HW129405   2.633   3.060   2.160 -1.3374 -0.0794  0.4924
 5982SOL    HW229406   2.695   3.190   2.196  1.8242 -0.7247 -0.9821
 5983SOL     OW29407   0.744   3.583   2.905 -0.1432  0.1319  0.0777
 5983SOL    HW129408   0.755   3.611   2.814  2.9106  0.4449  0.5317
 5983SOL    HW229409   0.709   3.496   2.891 -1.3442  0.7642 -0.8027
 5984SOL     OW29410   0.657   3.995   7.781 -0.1606  0.6972  0.4553
 5984SOL    HW129411   0.741   3.985   7.826  0.3200 -0.0497 -0.6179
 5984SOL    HW229412   0.684   3.979   7.691  1.2376  0.7776  0.8608
 5985SOL     OW29413   4.187   1.526  13.351  0.1053  0.2945  0.1919
 5985SOL    HW129414   4.112   1.563  13.304  0.8244  0.0715 -1.1359
 5985SOL    HW229415   4.258   1.584  13.325  0.4770 -0.0587  0.4163
 5986SOL     OW29416   1.584   0.304   7.726 -0.0035  0.6312 -0.4121
 5986SOL    HW129417   1.498   0.337   7.754 -1.0046 -1.0700 -1.4200
 5986SOL    HW229418   1.624   0.391   7.730 -1.2881  1.1833  0.5312
 5987SOL     OW29419   4.521   4.665   4.481  0.0486 -0.1972 -0.0821
 5987SOL    HW129420   4.459   0.013   4.463  0.7763  0.2470 -0.8883
 5987SOL    HW229421   4.523   4.662   4.577  0.8429  0.7055 -0.0721
 5988SOL     OW29422   4.337   1.405  14.306  0.0776 -0.0184 -0.5287
 5988SOL    HW129423   4.409   1.364  14.353  1.1639  1.7468 -0.6365
 5988SOL    HW229424   4.338   1.496  14.337  3.7713 -0.0360 -0.6021
 5989SOL     OW29425   4.605   2.173   7.653  0.2861  0.9627 -0.1509
 5989SOL    HW129426   4.622   2.235   7.724 -1.0922  1.9312 -0.6613
 5989SOL    HW229427   4.691   2.144   7.622  1.2937  1.1527  2.5202
 5990SOL     OW29428   1.478   0.173  14.826  0.2881  0.1915  0.5787
 5990SOL    HW129429   1.495   0.128  14.909 -1.3774 -3.5258 -1.1016
 5990SOL    HW229430   1.555   0.157  14.771  1.2869  2.3526  1.3118
 5991SOL     OW29431   2.501   4.565  10.857 -0.2859  0.4187 -0.2419
 5991SOL    HW129432   2.447   4.489  10.837  1.6293 -0.6167 -1.4271
 5991SOL    HW229433   2.474   4.633  10.795  1.3220  0.2585 -1.1169
 5992SOL     OW29434   3.617   3.710   2.582  0.8266 -0.0203 -0.1132
 5992SOL    HW129435   3.538   3.728   2.532 -0.6510 -1.8931  1.5708
 5992SOL    HW229436   3.644   3.801   2.596  0.7077 -0.1497  0.9402
 5993SOL     OW29437   3.361   2.945   0.958  0.0664 -0.6283 -0.5031
 5993SOL    HW129438   3.394   2.992   0.881  0.0392 -0.9539 -0.7111
 5993SOL    HW229439   3.371   2.855   0.928 -0.7900 -0.7265 -0.4926
 5994SOL     OW29440   2.861   0.355   3.149  0.4344 -0.3816 -0.4981
 5994SOL    HW129441   2.803   0.353   3.073  1.1448  0.3490 -1.0595
 5994SOL    HW229442   2.807   0.412   3.204  0.0339 -0.2435 -1.0356
 5995SOL     OW29443   2.004   3.813  16.981  0.0214  0.3818 -0.1465
 5995SOL    HW129444   2.008   3.720  16.959  2.5601  0.6477 -0.8976
 5995SOL    HW229445   2.094   3.846  16.979  0.4993 -0.9188 -0.3276
 5996SOL     OW29446   3.526   2.010   6.327  0.3645  0.4971 -0.2263
 5996SOL    HW129447   3.604   2.050   6.365  0.2113 -0.2015  0.8107
 5996SOL    HW229448   3.483   2.093   6.305  2.4463  1.6124 -0.1021
 5997SOL     OW29449   2.511   4.131   7.070  0.0122  0.3504 -0.0611
 5997SOL    HW129450   2.438   4.151   7.011 -1.9262 -2.1331  1.4981
 5997SOL    HW229451   2.548   4.219   7.071  1.6952 -0.3471 -0.3319
 5998SOL     OW29452   1.356   2.042   3.429 -0.1031  0.1539 -0.4793
 5998SOL    HW129453   1.388   2.060   3.341 -2.2991  0.9400 -1.1150
 5998SOL    HW229454   1.346   1.946   3.433  0.5280  0.1497  1.0608
 5999SOL     OW29455   4.431   3.987   9.176 -0.1907 -0.2111  0.1487
 5999SOL    HW129456   4.425   3.973   9.270  0.7249  1.4405  0.4603
 5999SOL    HW229457   4.339   3.997   9.151  0.1980  2.0340 -0.4693
 6000SOL     OW29458   3.176   4.219   6.520 -0.3806 -0.0312  0.5411
 6000SOL    HW129459   3.143   4.177   6.599  1.0378 -0.0298  1.1411
 6000SOL    HW229460   3.115   4.292   6.514 -1.5431 -1.2685 -3.1236
 6001SOL     OW29461   0.626   1.913  15.701  0.1839 -0.2992  0.1065
 6001SOL    HW129462   0.664   1.854  15.636  1.5714  1.4727 -0.6650
 6001SOL    HW229463   0.695   1.967  15.738 -0.2116 -0.4246  1.0301
 6002SOL     OW29464   0.140   2.741   5.199  0.1410  0.2586  0.1004
 6002SOL    HW129465   0.142   2.803   5.126  0.6395  0.1462  0.0159
 6002SOL    HW229466   0.078   2.674   5.168  0.4985 -0.2986  0.5806
 6003SOL     OW29467   3.905   3.414   4.224  0.3072  0.6656 -0.4486
 6003SOL    HW129468   3.839   3.416   4.155 -0.4241  0.8803  0.2512
 6003SOL    HW229469   3.869   3.489   4.272 -0.3748  0.4526 -0.6293
 6004SOL     OW29470   3.942   0.904   6.872  0.2188  0.3222 -0.2649
 6004SOL    HW129471   3.938   0.999   6.879 -1.5721  0.3433 -1.6889
 6004SOL    HW229472   4.028   0.895   6.912  0.5638 -2.0477 -1.5364
 6005SOL     OW29473   4.133   3.124  13.923  0.3914  0.0109  0.0512
 6005SOL    HW129474   4.103   3.088  13.839  1.7347  0.3458 -0.5802
 6005SOL    HW229475   4.120   3.060  13.993  1.8627 -0.6977 -0.3218
 6006SOL     OW29476   3.764   1.044   2.686  0.4662 -0.1284 -0.1709
 6006SOL    HW129477   3.857   1.025   2.697  0.3900  0.3204  1.1630
 6006SOL    HW229478   3.723   1.002   2.761 -1.7152  1.2337 -0.6081
 6007SOL     OW29479   2.996   3.633   2.525 -0.3055 -0.0933  0.2704
 6007SOL    HW129480   2.949   3.625   2.607  2.0297  1.1979  1.7369
 6007SOL    HW229481   3.077   3.673   2.557  1.0839 -2.6819 -0.0146
 6008SOL     OW29482   3.901   3.006   3.655  0.1653  0.3214 -0.3332
 6008SOL    HW129483   3.841   2.931   3.655 -0.4475  0.7967 -2.6791
 6008SOL    HW229484   3.975   2.962   3.695  0.5405  0.3975 -0.9405
 6009SOL     OW29485   2.911   3.849  10.440 -0.3195  0.4094 -0.0276
 6009SOL    HW129486   2.973   3.797  10.490 -2.3468 -1.0644  0.9679
 6009SOL    HW229487   2.975   3.904  10.393 -1.4009  3.0755  1.6280
 6010SOL     OW29488   0.057   2.719   2.238  0.0425  0.5731  0.3214
 6010SOL    HW129489   0.143   2.716   2.280 -0.0931  0.7732  0.6124
 6010SOL    HW229490   0.033   2.811   2.233  0.0620  0.5570 -0.0541
 6011SOL     OW29491   2.426   0.417   2.853  0.0190 -0.1457  0.5904
 6011SOL    HW129492   2.368   0.380   2.787 -0.4245  1.9926 -0.2354
 6011SOL    HW229493   2.386   0.497   2.887 -0.5216  0.1340 -0.6967
 6012SOL     OW29494   4.651   1.293  16.295 -0.0047  0.6773 -0.4268
 6012SOL    HW129495   4.649   1.259  16.384 -0.9609  1.1871 -0.2600
 6012SOL    HW229496   4.605   1.377  16.299  0.0862  0.6966  0.2072
 6013SOL     OW29497   4.567   4.503   8.567 -0.5541 -0.2960  0.5776
 6013SOL    HW129498   4.658   4.519   8.543 -0.5018 -1.2412  0.1539
 6013SOL    HW229499   4.537   4.588   8.535  1.0517 -0.0371 -0.2574
 6014SOL     OW29500   2.564   1.951  12.348 -0.1274  0.0641 -0.1316
 6014SOL    HW129501   2.510   1.906  12.284 -1.0078 -0.8160  1.2179
 6014SOL    HW229502   2.643   1.897  12.349 -1.0409 -1.2640  0.3987
 6015SOL     OW29503   3.772   0.036   5.890  0.3136  0.2854 -0.1143
 6015SOL    HW129504   3.836   0.017   5.821  0.6892 -0.3528  0.4194
 6015SOL    HW229505   3.752   4.667   5.914  0.1294  0.3510 -0.0165
 6016SOL     OW29506   0.803   0.993   4.167  0.3923 -0.0417  0.1781
 6016SOL    HW129507   0.767   0.926   4.224 -1.3971  0.5349 -0.2791
 6016SOL    HW229508   0.795   0.940   4.088 -1.1854  1.9618 -1.0121
 6017SOL     OW29509   1.523   1.283   9.188  0.2987 -0.6015  0.4329
 6017SOL    HW129510   1.490   1.282   9.097  0.4792 -3.2378  0.4008
 6017SOL    HW229511   1.586   1.355   9.185  0.2224 -0.6109 -1.5605
 6018SOL     OW29512   0.177   4.238   4.339 -0.2443 -0.2883  1.0823
 6018SOL    HW129513   0.107   4.298   4.364 -0.3113 -0.0351  0.2935
 6018SOL    HW229514   0.257   4.288   4.325 -1.9679  1.9261 -1.0031
 6019SOL     OW29515   1.880   1.484   6.001 -0.1464  0.0530 -0.5756
 6019SOL    HW129516   1.799   1.434   6.005 -0.2208  0.2413  0.3160
 6019SOL    HW229517   1.919   1.481   6.089 -2.0015 -2.4471  0.1463
 6020SOL     OW29518   1.589   0.615   5.826  0.0170  0.0892  0.6827
 6020SOL    HW129519   1.552   0.567   5.752 -0.9285 -0.9227  1.8026
 6020SOL    HW229520   1.670   0.563   5.828 -0.7797 -1.1038  2.5687
 6021SOL     OW29521   0.943   0.234   4.272  0.1221  0.7338  0.0918
 6021SOL    HW129522   0.919   0.153   4.227  3.7191 -0.5827  0.5487
 6021SOL    HW229523   0.983   0.276   4.196  0.9641 -1.6821 -0.7949
 6022SOL     OW29524   2.205   1.279   5.318 -0.4373 -0.4631  0.6098
 6022SOL    HW129525   2.270   1.349   5.324 -1.1338  0.2577 -0.2900
 6022SOL    HW229526   2.239   1.221   5.250 -1.2835  0.8124 -0.9253
 6023SOL     OW29527   3.774   1.331   7.667 -0.3043 -0.2029 -0.6037
 6023SOL    HW129528   3.803   1.244   7.695  1.6016 -0.0740 -2.2315
 6023SOL    HW229529   3.681   1.335   7.690  0.3275  2.0235  1.5649
 6024SOL     OW29530   1.750   0.652   9.190 -0.0818  0.8193 -0.3047
 6024SOL    HW129531   1.759   0.569   9.143 -1.8187 -0.3232  1.3754
 6024SOL    HW229532   1.677   0.639   9.251 -0.1996 -0.4607 -0.7128
 6025SOL     OW29533   3.783   1.426  14.984  0.0703  0.0706 -0.4635
 6025SOL    HW129534   3.831   1.509  14.978  0.0006  0.1315 -0.1743
 6025SOL    HW229535   3.710   1.452  14.927 -1.9342 -0.4170  1.8684
 6026SOL     OW29536   0.689   3.110   2.758 -0.3223 -0.0775  0.1196
 6026SOL    HW129537   0.621   3.043   2.766 -0.9597  0.3986 -1.2999
 6026SOL    HW229538   0.723   3.100   2.669 -2.9112 -2.7485 -0.5856
 6027SOL     OW29539   2.698   0.399   6.036 -0.1935  0.0371  0.0187
 6027SOL    HW129540   2.778   0.368   5.994  0.9166  1.7661  0.8307
 6027SOL    HW229541   2.737   0.451   6.106 -0.0379  0.3522 -0.3020
 6028SOL     OW29542   1.046   1.780   5.665  0.1824 -0.2814  0.2666
 6028SOL    HW129543   0.965   1.823   5.692  1.0476  0.8538  1.0200
 6028SOL    HW229544   1.054   1.790   5.570  2.0103  0.3820  0.5048
 6029SOL     OW29545   2.138   1.848  13.917  0.0059 -0.3961  0.3021
 6029SOL    HW129546   2.195   1.848  13.840 -0.4015 -0.9504  0.0075
 6029SOL    HW229547   2.069   1.800  13.872 -2.8296  3.3074  0.6600
 6030SOL     OW29548   1.208   4.712  13.147 -0.2043  0.0324 -0.0984
 6030SOL    HW129549   1.281   0.042  13.114  0.9890 -1.6656 -0.0858
 6030SOL    HW229550   1.225   4.710  13.241 -0.2728  0.4840 -0.0725
 6031SOL     OW29551   0.097   0.623   3.183  0.6041  0.4184 -0.1194
 6031SOL    HW129552   0.151   0.692   3.144 -0.9299  0.8972 -1.4058
 6031SOL    HW229553   0.113   0.554   3.118  1.7434 -0.0661  0.6664
 6032SOL     OW29554   1.686   4.343   3.275 -0.3538 -0.6310  0.1048
 6032SOL    HW129555   1.677   4.299   3.190  0.3757  1.9706 -1.3121
 6032SOL    HW229556   1.719   4.423   3.233 -0.8421 -0.2343  0.4857
 6033SOL     OW29557   0.356   3.876   3.281  0.4700 -0.3887 -0.0478
 6033SOL    HW129558   0.409   3.946   3.243 -0.6306 -0.5193 -1.8040
 6033SOL    HW229559   0.422   3.834   3.337 -0.3628 -1.5611  0.0646
 6034SOL     OW29560   3.086   2.262  17.182  0.1001 -0.1995  0.4053
 6034SOL    HW129561   3.010   2.294  17.134 -1.2525 -4.5950 -0.3624
 6034SOL    HW229562   3.075   2.168  17.166  0.5132 -0.0997 -0.4193
 6035SOL     OW29563   1.436   2.945  15.524  0.5968  0.8677 -0.0196
 6035SOL    HW129564   1.475   2.938  15.437  2.4424  0.5181  0.8352
 6035SOL    HW229565   1.516   2.941  15.577  0.6118  0.2481 -0.0843
 6036SOL     OW29566   3.106   1.419  16.897 -0.3290  0.6397  0.0393
 6036SOL    HW129567   3.062   1.497  16.933  1.2661  1.0060  1.2087
 6036SOL    HW229568   3.026   1.374  16.870  0.1937 -0.3113  0.1111
 6037SOL     OW29569   0.227   0.499   2.477 -0.1203 -0.7622  0.0807
 6037SOL    HW129570   0.137   0.472   2.458 -0.6548 -0.2990  1.9661
 6037SOL    HW229571   0.229   0.594   2.472  3.1494 -0.8812 -0.8261
 6038SOL     OW29572   2.390   3.141   3.226  0.4351  0.4499  0.0730
 6038SOL    HW129573   2.362   3.199   3.155  1.8831 -0.2789 -1.1070
 6038SOL    HW229574   2.312   3.122   3.277  1.1692 -1.5021  0.5018
 6039SOL     OW29575   1.241   3.044  10.206  0.4854  0.2091  0.0383
 6039SOL    HW129576   1.223   2.957  10.170  2.3056  0.2945 -1.0647
 6039SOL    HW229577   1.192   3.096  10.141  0.9205 -0.3345 -0.7242
 6040SOL     OW29578   3.456   1.456   9.540  0.0925  0.2937 -0.5396
 6040SOL    HW129579   3.457   1.424   9.450 -1.3210 -3.0404  0.6504
 6040SOL    HW229580   3.364   1.480   9.535 -0.1289 -0.3848  0.2368
 6041SOL     OW29581   0.801   4.596  16.208  0.2833  0.2121 -0.0665
 6041SOL    HW129582   0.743   4.599  16.283  1.8765  2.5716  1.0767
 6041SOL    HW229583   0.804   4.691  16.196 -2.2568  0.3393  0.3102
 6042SOL     OW29584   3.537   3.401   6.649 -0.1448  0.3848 -0.0512
 6042SOL    HW129585   3.467   3.389   6.585 -0.6447  1.9368  0.1961
 6042SOL    HW229586   3.492   3.372   6.728 -1.0100 -2.0882 -1.4573
 6043SOL     OW29587   0.454   1.374   2.690 -0.4319  0.2225  0.0472
 6043SOL    HW129588   0.359   1.374   2.702 -0.6805  0.4231 -1.8379
 6043SOL    HW229589   0.463   1.439   2.620 -3.1621  0.7486  0.1992
 6044SOL     OW29590   4.159   1.282  16.184 -0.0760  0.0157  0.0342
 6044SOL    HW129591   4.173   1.372  16.156  0.3166 -0.4750 -1.3569
 6044SOL    HW229592   4.229   1.227  16.148 -0.5771 -0.1744 -0.6709
 6045SOL     OW29593   1.474   3.011   8.217  0.3832 -0.7336  0.1301
 6045SOL    HW129594   1.423   2.939   8.253 -1.9610  1.3627  0.9863
 6045SOL    HW229595   1.491   3.049   8.303  0.5960  0.9026 -0.6402
 6046SOL     OW29596   4.010   3.018  16.802 -0.1918 -0.2409  0.3938
 6046SOL    HW129597   3.928   3.051  16.840 -0.4737  1.9246 -2.0671
 6046SOL    HW229598   4.076   3.075  16.842 -0.0514  1.1178 -1.7745
 6047SOL     OW29599   1.868   3.301  10.555  0.0613 -0.5898 -0.2910
 6047SOL    HW129600   1.883   3.291  10.649 -1.0055 -1.8048 -0.2585
 6047SOL    HW229601   1.778   3.269  10.552  0.3555 -1.4812  0.3438
 6048SOL     OW29602   1.580   1.475   0.788 -0.4792  0.4378  0.0539
 6048SOL    HW129603   1.538   1.389   0.795  1.3289 -0.4033  0.8251
 6048SOL    HW229604   1.599   1.477   0.694  2.5749 -0.5165  0.6498
 6049SOL     OW29605   1.272   3.333   1.205  0.0614  0.7084 -0.2305
 6049SOL    HW129606   1.241   3.251   1.166 -0.9971  0.7001  0.6224
 6049SOL    HW229607   1.252   3.395   1.135  2.7027 -0.8287 -2.3444
 6050SOL     OW29608   0.613   3.766   2.362 -0.2136 -0.4789  0.8615
 6050SOL    HW129609   0.620   3.832   2.293  0.6813 -1.2099  0.2566
 6050SOL    HW229610   0.584   3.692   2.309  2.4573 -0.1683 -1.0508
 6051SOL     OW29611   0.142   4.605   2.247  0.1861  0.6803 -0.3612
 6051SOL    HW129612   0.070   4.543   2.246  0.4614  0.3651 -0.7619
 6051SOL    HW229613   0.143   4.626   2.341 -2.0558 -2.1652  0.2671
 6052SOL     OW29614   0.487   2.177   5.644  0.3107  0.1309  0.3177
 6052SOL    HW129615   0.557   2.238   5.669 -0.2970 -0.1718  2.7219
 6052SOL    HW229616   0.442   2.163   5.727 -0.7771  3.1686  0.2368
 6053SOL     OW29617   0.018   2.627   6.158  0.2427  0.5589  0.2328
 6053SOL    HW129618   4.662   2.684   6.161 -1.1263 -1.3665  1.2086
 6053SOL    HW229619   0.061   2.667   6.083  1.0650 -2.7013 -1.0064
 6054SOL     OW29620   4.341   0.921   8.572 -0.0744 -0.4700 -0.1114
 6054SOL    HW129621   4.317   0.940   8.663 -1.1824 -0.0445 -0.4868
 6054SOL    HW229622   4.288   0.983   8.521 -0.1563 -0.3406  0.1263
 6055SOL     OW29623   1.373   2.309  13.255  0.0747 -0.4980  0.2171
 6055SOL    HW129624   1.303   2.325  13.191  0.6053  0.4950 -0.1154
 6055SOL    HW229625   1.437   2.267  13.197 -2.0369  0.3433 -2.6981
 6056SOL     OW29626   1.271   1.371   8.715 -0.5129 -0.6138 -0.0755
 6056SOL    HW129627   1.207   1.401   8.651 -0.8643 -1.9577 -0.3538
 6056SOL    HW229628   1.302   1.290   8.673  0.8479  1.0917 -2.3931
 6057SOL     OW29629   3.904   2.294   6.246 -0.1408  0.1160  0.6461
 6057SOL    HW129630   3.875   2.283   6.155  1.9430 -1.3564  0.1676
 6057SOL    HW229631   3.996   2.270   6.240 -0.5739 -0.8837 -1.9035
 6058SOL     OW29632   0.365   3.767   6.770  0.3867  0.0949 -0.0044
 6058SOL    HW129633   0.308   3.783   6.696 -0.9376  1.5034  1.3190
 6058SOL    HW229634   0.451   3.774   6.729  1.1289 -0.0166  1.5044
 6059SOL     OW29635   0.667   2.431  11.943 -0.0525  0.0899 -0.7541
 6059SOL    HW129636   0.649   2.391  11.858 -0.1139  0.9461 -1.1454
 6059SOL    HW229637   0.629   2.518  11.930 -1.0326 -0.1782  0.2504
 6060SOL     OW29638   4.278   2.309   5.718  0.0115 -0.5432 -0.2131
 6060SOL    HW129639   4.265   2.215   5.716 -0.7583 -0.4518  0.7354
 6060SOL    HW229640   4.193   2.338   5.751  0.2391  0.1351 -0.2033
 6061SOL     OW29641   3.173   1.547  13.298 -0.1706  0.1342 -0.0235
 6061SOL    HW129642   3.256   1.530  13.253 -0.3774  2.6096 -1.3083
 6061SOL    HW229643   3.200   1.599  13.373 -0.0265  0.4391 -0.2882
 6062SOL     OW29644   1.003   0.751   8.928  0.1749  0.1475  0.1826
 6062SOL    HW129645   1.049   0.714   9.003 -1.4916 -1.8893  0.1978
 6062SOL    HW229646   0.945   0.681   8.900  1.1149 -0.7001  0.3733
 6063SOL     OW29647   1.380   1.968   0.503  0.3804 -0.2578  0.2170
 6063SOL    HW129648   1.327   2.047   0.488  1.1547  0.3018  0.4215
 6063SOL    HW229649   1.382   1.969   0.599 -0.0853 -2.0419  0.2413
 6064SOL     OW29650   3.321   0.621   4.794  0.3482  0.1382 -0.0112
 6064SOL    HW129651   3.229   0.594   4.794  0.2954  0.3162  0.0567
 6064SOL    HW229652   3.314   0.709   4.832 -0.1550 -0.4981  1.3528
 6065SOL     OW29653   0.513   1.332   3.293  0.6040 -0.9488  0.1196
 6065SOL    HW129654   0.598   1.373   3.310 -0.1885  1.0853 -0.8774
 6065SOL    HW229655   0.482   1.385   3.220  1.0769  0.7463  1.1463
 6066SOL     OW29656   4.682   0.425  14.213 -0.2704 -0.1718 -0.0688
 6066SOL    HW129657   4.698   0.363  14.142  0.8715  2.1758 -1.8675
 6066SOL    HW229658   4.589   0.447  14.206 -0.1461  1.0489  2.2717
 6067SOL     OW29659   2.356   4.232  15.879  0.4449  0.3828  0.0303
 6067SOL    HW129660   2.263   4.212  15.880  0.3757  0.9460  3.7794
 6067SOL    HW229661   2.354   4.269  15.791  0.3722 -0.2377 -0.2319
 6068SOL     OW29662   0.236   0.305   8.521  0.3685  0.2652  0.8411
 6068SOL    HW129663   0.299   0.233   8.520 -1.0100 -0.8462 -2.2301
 6068SOL    HW229664   0.177   0.273   8.589 -1.4579  1.2988 -0.2502
 6069SOL     OW29665   2.018   2.755   2.057 -0.2946 -0.1338  0.3767
 6069SOL    HW129666   2.098   2.772   2.107  0.7944  0.6849 -1.6563
 6069SOL    HW229667   2.054   2.672   2.026  0.2227  0.5419 -0.8254
 6070SOL     OW29668   2.064   1.693   3.305  0.0319  0.3330 -0.4651
 6070SOL    HW129669   1.981   1.700   3.259 -1.1247 -0.5113  1.4957
 6070SOL    HW229670   2.097   1.616   3.260  1.5244  1.3963 -1.1822
 6071SOL     OW29671   0.947   2.294   7.180  0.0528  0.0899 -0.1066
 6071SOL    HW129672   0.992   2.373   7.208 -2.4149  1.6261 -0.5157
 6071SOL    HW229673   1.017   2.253   7.128 -0.6381 -0.1255 -0.8732
 6072SOL     OW29674   0.267   0.371   7.138 -0.5655  0.1282  0.0092
 6072SOL    HW129675   0.314   0.429   7.077  0.3679  0.2922  0.8732
 6072SOL    HW229676   0.244   0.429   7.210 -0.2753  0.2804 -0.0197
 6073SOL     OW29677   2.300   2.838   7.566  0.5130 -0.1728 -1.2124
 6073SOL    HW129678   2.306   2.747   7.536 -0.8490 -0.3601 -0.8955
 6073SOL    HW229679   2.394   2.855   7.570  0.4759 -0.5944  1.5480
 6074SOL     OW29680   4.424   1.269   6.042 -1.0083  0.2620 -0.0747
 6074SOL    HW129681   4.492   1.232   5.985 -1.1326 -0.4283  0.2252
 6074SOL    HW229682   4.344   1.264   5.989 -1.9708 -0.0228  1.4147
 6075SOL     OW29683   2.590   2.533   5.098  0.5726  0.1353 -0.0432
 6075SOL    HW129684   2.684   2.529   5.078  0.2860 -0.0418 -1.3514
 6075SOL    HW229685   2.588   2.458   5.157 -1.1680  2.5695  3.0240
 6076SOL     OW29686   1.826   3.532   6.097 -0.3649 -0.3907 -0.3175
 6076SOL    HW129687   1.844   3.459   6.156 -1.7217  0.3164  0.9876
 6076SOL    HW229688   1.800   3.483   6.019 -0.6622 -0.5557 -0.1144
 6077SOL     OW29689   4.517   1.850  15.784  0.1164  0.3271 -0.1766
 6077SOL    HW129690   4.441   1.829  15.729 -0.4104  0.4717  0.4915
 6077SOL    HW229691   4.477   1.833  15.870 -0.6980 -0.2263 -0.6585
 6078SOL     OW29692   1.566   3.387   3.418 -0.3344 -0.4124 -0.4188
 6078SOL    HW129693   1.507   3.447   3.372  0.5448  0.3008 -0.5971
 6078SOL    HW229694   1.531   3.304   3.384 -2.6491 -0.6933  2.6850
 6079SOL     OW29695   2.699   2.435   2.963 -0.0508  0.2530 -0.0517
 6079SOL    HW129696   2.691   2.363   2.900 -2.5253  0.0209  0.5420
 6079SOL    HW229697   2.781   2.476   2.934 -0.6588  1.3584 -0.1776
 6080SOL     OW29698   2.438   3.064  12.901 -0.2750  0.4131  0.0339
 6080SOL    HW129699   2.484   3.115  12.835 -0.7837  2.3950  1.1826
 6080SOL    HW229700   2.348   3.061  12.869 -1.1243 -1.7845  2.5697
 6081SOL     OW29701   3.104   2.663   1.894 -0.2199 -0.1057 -0.0586
 6081SOL    HW129702   3.065   2.610   1.825  2.0630 -0.0707 -1.3693
 6081SOL    HW229703   3.139   2.737   1.844 -1.0462 -0.8003 -1.6615
 6082SOL     OW29704   0.261   4.281   1.489  0.6504  0.4455  0.3742
 6082SOL    HW129705   0.313   4.290   1.410 -0.0738  0.2284 -0.1347
 6082SOL    HW229706   0.182   4.238   1.456 -1.3192  1.7998  3.2921
 6083SOL     OW29707   0.097   2.975   3.892  0.8002 -0.1495 -0.2533
 6083SOL    HW129708   0.072   2.930   3.811 -1.6136 -0.1826  0.5117
 6083SOL    HW229709   0.015   2.967   3.942  0.9843  0.3846  0.1345
 6084SOL     OW29710   2.124   0.701  17.564 -0.0109  0.2010 -1.0513
 6084SOL    HW129711   2.199   0.671  17.512 -0.0125 -1.6759  0.0448
 6084SOL    HW229712   2.053   0.703  17.500 -2.3153 -0.3430  1.5044
 6085SOL     OW29713   3.396   0.564   8.569 -0.3084  0.1507  0.3391
 6085SOL    HW129714   3.327   0.499   8.580 -1.6555  1.0623 -2.8573
 6085SOL    HW229715   3.464   0.499   8.551  1.4515  1.7295  1.1681
 6086SOL     OW29716   3.862   4.300   8.296  0.3092 -0.6564  0.1521
 6086SOL    HW129717   3.950   4.318   8.330  1.1564 -2.1826 -1.2458
 6086SOL    HW229718   3.875   4.233   8.229 -0.9908  0.7417 -1.4793
 6087SOL     OW29719   2.850   1.334   2.981  0.1105  0.0684 -0.1177
 6087SOL    HW129720   2.932   1.286   2.971  0.6418  0.6152  1.6211
 6087SOL    HW229721   2.832   1.337   2.887  0.7720 -3.0789 -0.3447
 6088SOL     OW29722   1.529   0.634  15.221 -0.5674 -0.1151 -0.1400
 6088SOL    HW129723   1.511   0.547  15.256 -3.8395  1.8209  3.0621
 6088SOL    HW229724   1.598   0.656  15.283 -1.0390  2.2886 -0.4621
 6089SOL     OW29725   0.601   4.050  15.864 -0.2283 -0.0711  0.3056
 6089SOL    HW129726   0.544   4.125  15.880  0.3488  0.8169 -1.8584
 6089SOL    HW229727   0.572   4.014  15.780  0.2019  0.3386 -0.0149
 6090SOL     OW29728   3.872   0.136   2.560  0.1057  0.3500 -0.0434
 6090SOL    HW129729   3.777   0.127   2.560  0.1194  0.2026  0.4929
 6090SOL    HW229730   3.910   0.082   2.629 -2.2290 -1.4640 -0.1714
 6091SOL     OW29731   3.690   2.346   8.443 -0.3428  0.3365 -0.0602
 6091SOL    HW129732   3.665   2.428   8.486 -1.1372  1.5151 -2.7273
 6091SOL    HW229733   3.620   2.337   8.378  1.6335 -0.6597 -2.0789
 6092SOL     OW29734   3.616   2.842   7.315  0.0486  0.3076 -0.3221
 6092SOL    HW129735   3.533   2.826   7.360  0.9016 -0.7974  0.8658
 6092SOL    HW229736   3.598   2.812   7.226 -0.7940  1.9378 -0.7062
 6093SOL     OW29737   4.613   0.025   7.751  0.1259 -0.3054  0.3072
 6093SOL    HW129738   4.603   0.083   7.827  0.2483  2.7763 -2.0363
 6093SOL    HW229739   4.678   4.683   7.779 -0.0275 -0.9431 -0.7736
 6094SOL     OW29740   3.774   3.290  13.507  0.6668  0.2975 -0.1678
 6094SOL    HW129741   3.696   3.293  13.562 -0.0234  0.2150 -1.1338
 6094SOL    HW229742   3.822   3.365  13.540  0.3237  0.4631 -0.0423
 6095SOL     OW29743   1.790   3.404   3.123  0.3123  0.7780 -0.2570
 6095SOL    HW129744   1.814   3.494   3.147  1.5156  1.2418 -3.2058
 6095SOL    HW229745   1.856   3.358   3.176 -1.2221  0.9974  1.8350
 6096SOL     OW29746   0.695   3.581   2.116 -0.6907  0.3183  0.0444
 6096SOL    HW129747   0.753   3.569   2.041 -0.0852  0.7261  0.4502
 6096SOL    HW229748   0.612   3.552   2.078 -1.4902  0.8592  1.3688
 6097SOL     OW29749   2.939   3.118   7.208  0.1705 -0.7293  0.1060
 6097SOL    HW129750   2.905   3.132   7.120  0.7894 -1.9335 -0.3157
 6097SOL    HW229751   3.012   3.180   7.205 -0.7300  0.1960 -2.3556
 6098SOL     OW29752   0.733   2.775  17.457  0.1538  0.9054  0.0909
 6098SOL    HW129753   0.722   2.717  17.381 -0.7908 -1.5140  2.0763
 6098SOL    HW229754   0.655   2.761  17.510 -1.0077 -0.1760 -1.8939
 6099SOL     OW29755   0.423   3.236   5.251 -0.8094 -0.1432  0.0216
 6099SOL    HW129756   0.418   3.327   5.280  0.4380 -0.7897  2.2795
 6099SOL    HW229757   0.496   3.229   5.189 -0.9846  0.0650 -0.2067
 6100SOL     OW29758   3.544   1.622  11.104  0.1659 -0.2403 -0.1959
 6100SOL    HW129759   3.559   1.577  11.187  0.1385  0.1046 -0.0067
 6100SOL    HW229760   3.622   1.602  11.052  0.4348  2.3598 -0.7561
 6101SOL     OW29761   0.432   1.816   7.559 -0.3349 -0.4206 -0.5255
 6101SOL    HW129762   0.356   1.759   7.551 -1.4802  0.8829  1.0070
 6101SOL    HW229763   0.422   1.889   7.498  1.8663 -0.0369 -0.4317
 6102SOL     OW29764   1.269   2.526   1.161  0.0833 -0.0099 -0.1739
 6102SOL    HW129765   1.306   2.583   1.228 -0.9073  0.0493  0.3173
 6102SOL    HW229766   1.180   2.560   1.169 -0.1342 -0.4392 -0.7574
 6103SOL     OW29767   3.673   1.992   5.675  0.3951 -0.0839 -0.1815
 6103SOL    HW129768   3.598   2.002   5.734 -0.4347  1.5899 -1.5081
 6103SOL    HW229769   3.633   2.013   5.591 -1.4566  0.3979  0.8189
 6104SOL     OW29770   0.689   3.471   5.554 -0.3984 -0.0638 -0.4182
 6104SOL    HW129771   0.745   3.491   5.630  0.5463  0.4155 -1.2299
 6104SOL    HW229772   0.704   3.552   5.504  0.2634 -0.3036 -0.6099
 6105SOL     OW29773   3.193   3.492   6.937  0.4333  0.7381 -0.4627
 6105SOL    HW129774   3.204   3.550   7.012  0.0781  0.5342 -0.2494
 6105SOL    HW229775   3.100   3.475   6.923  0.5360 -2.1788  2.3588
 6106SOL     OW29776   2.879   3.171  15.888 -0.3434 -0.0549 -0.7330
 6106SOL    HW129777   2.960   3.217  15.909 -1.7595  1.8890  0.4496
 6106SOL    HW229778   2.898   3.080  15.863 -0.2554 -0.4833  0.8435
 6107SOL     OW29779   1.931   1.268   1.651 -0.2644 -0.1160  0.1010
 6107SOL    HW129780   1.931   1.231   1.740 -1.0370 -1.0039 -0.2570
 6107SOL    HW229781   1.872   1.203   1.612  0.9259 -0.3435 -1.3055
 6108SOL     OW29782   3.447   1.539   5.609  0.3282 -0.0157  0.2056
 6108SOL    HW129783   3.396   1.619   5.599  0.1379 -0.2178 -0.3999
 6108SOL    HW229784   3.433   1.503   5.522 -0.6570  3.0753 -0.9028
 6109SOL     OW29785   2.233   4.362   9.839 -0.1185  0.0281  0.5328
 6109SOL    HW129786   2.278   4.356   9.923  1.5601  1.0378 -0.3062
 6109SOL    HW229787   2.290   4.306   9.786 -2.2260 -1.4926 -0.1443
 6110SOL     OW29788   3.075   3.272   8.273 -0.0000 -0.3303 -0.5850
 6110SOL    HW129789   3.157   3.280   8.224  0.2465  0.1606 -0.0914
 6110SOL    HW229790   3.085   3.192   8.325 -0.6600  1.2272  1.9177
 6111SOL     OW29791   2.536   3.333  10.564 -0.4020 -0.3014  0.1626
 6111SOL    HW129792   2.448   3.301  10.542 -0.2027 -0.3552 -0.5278
 6111SOL    HW229793   2.560   3.383  10.487  0.2615  1.7989  1.7345
 6112SOL     OW29794   4.469   1.039   8.012  0.2247  0.0773 -0.5510
 6112SOL    HW129795   4.431   1.100   7.949 -1.5698 -1.8358 -1.3321
 6112SOL    HW229796   4.518   1.094   8.073 -0.7316  0.7298 -0.3811
 6113SOL     OW29797   1.330   3.164   9.862  0.4452 -0.3891 -0.4218
 6113SOL    HW129798   1.275   3.101   9.816 -2.6328 -0.2771  3.1407
 6113SOL    HW229799   1.289   3.247   9.838  1.6821  0.0406 -1.0637
 6114SOL     OW29800   2.258   3.230  12.627 -0.5901 -0.1860  0.2873
 6114SOL    HW129801   2.225   3.156  12.678 -1.4115  0.5425  0.8336
 6114SOL    HW229802   2.227   3.206  12.539  1.6505  1.8216 -1.0212
 6115SOL     OW29803   1.248   3.072  10.934  0.1580 -0.2539 -0.0126
 6115SOL    HW129804   1.231   3.166  10.922 -0.2911 -0.3547 -0.1486
 6115SOL    HW229805   1.170   3.045  10.981 -1.4518  1.4303 -1.6798
 6116SOL     OW29806   3.828   3.106   4.616 -0.3251 -0.2343  0.1650
 6116SOL    HW129807   3.739   3.071   4.618 -0.0001 -1.0777 -0.4599
 6116SOL    HW229808   3.885   3.038   4.650  0.4157 -0.3308 -1.2704
 6117SOL     OW29809   0.553   1.823   3.207 -0.5756 -0.5414  0.3964
 6117SOL    HW129810   0.533   1.759   3.139  1.2098 -2.0789  1.2923
 6117SOL    HW229811   0.595   1.770   3.275  0.1538 -0.8961 -0.3334
 6118SOL     OW29812   1.326   1.751   4.751 -0.0911  0.7139  0.1221
 6118SOL    HW129813   1.326   1.666   4.706  1.0345  0.9800 -0.3627
 6118SOL    HW229814   1.415   1.742   4.784  0.2365  1.7102 -0.4983
 6119SOL     OW29815   1.998   3.519  14.358  0.3041  0.0464  0.1450
 6119SOL    HW129816   1.924   3.579  14.365  1.3026  1.4961 -1.4554
 6119SOL    HW229817   1.996   3.509  14.262 -1.3900  3.6508 -0.2002
 6120SOL     OW29818   0.697   3.459  11.993  0.2734  0.6039  0.0338
 6120SOL    HW129819   0.721   3.541  11.949  1.6629 -0.2086 -0.7118
 6120SOL    HW229820   0.763   3.465  12.062 -0.2082 -0.1166  0.5508
 6121SOL     OW29821   4.330   0.146   0.503  0.3460  0.3071  0.6588
 6121SOL    HW129822   4.323   0.100   0.586  0.0635 -0.8894 -0.0291
 6121SOL    HW229823   4.327   0.238   0.529  0.6118  0.0600  1.5793
 6122SOL     OW29824   0.235   0.252   9.106 -0.0715  0.6477 -0.3376
 6122SOL    HW129825   0.243   0.286   9.195 -0.6005  1.4314 -0.5925
 6122SOL    HW229826   0.289   0.173   9.110  0.3767  0.9441 -0.4958
 6123SOL     OW29827   3.238   4.286   5.722 -0.5465  0.5514 -0.1891
 6123SOL    HW129828   3.316   4.312   5.771 -0.8410  1.4836 -0.2229
 6123SOL    HW229829   3.209   4.372   5.693  1.5495  1.0563 -0.7887
 6124SOL     OW29830   0.513   2.763   9.653 -0.2290 -0.2626 -0.1545
 6124SOL    HW129831   0.561   2.826   9.600 -0.5145  0.1592  0.0896
 6124SOL    HW229832   0.436   2.746   9.598 -1.1444  1.6252  0.5288
 6125SOL     OW29833   0.117   3.540   3.567  0.1934  0.5123  0.3989
 6125SOL    HW129834   0.055   3.528   3.496 -1.4772 -0.7452  2.0488
 6125SOL    HW229835   0.072   3.503   3.644  0.6388  0.5649  0.6846
 6126SOL     OW29836   1.160   3.893   4.953 -0.4451  0.1898  0.1965
 6126SOL    HW129837   1.219   3.821   4.977  1.5112  1.4122 -0.8818
 6126SOL    HW229838   1.201   3.917   4.870 -0.9640 -2.2192 -0.7652
 6127SOL     OW29839   1.988   3.951   0.835 -0.6963 -0.0668  0.5124
 6127SOL    HW129840   1.929   4.015   0.875 -0.7338 -1.2173  2.2839
 6127SOL    HW229841   2.002   3.889   0.907 -1.1063  1.2590  1.7560
 6128SOL     OW29842   1.478   1.533   2.311  0.3218  0.4839 -0.3318
 6128SOL    HW129843   1.456   1.536   2.405  0.8903 -0.0090 -0.1799
 6128SOL    HW229844   1.433   1.607   2.271 -1.9597 -1.5797 -1.6260
 6129SOL     OW29845   2.138   1.744   2.305  0.3863 -0.1180 -0.4960
 6129SOL    HW129846   2.171   1.660   2.337  0.7414  0.3177  0.2772
 6129SOL    HW229847   2.048   1.732   2.336 -0.5713 -0.3493 -3.3995
 6130SOL     OW29848   2.552   2.968   5.285 -0.1646  0.1548  0.1308
 6130SOL    HW129849   2.594   3.050   5.260 -0.6639  0.2744 -0.3227
 6130SOL    HW229850   2.512   2.985   5.370  1.8343  1.1255  0.8750
 6131SOL     OW29851   0.677   4.695  13.554  0.5689  0.1795 -0.4616
 6131SOL    HW129852   0.643   4.665  13.470 -0.1693 -2.1012  0.6459
 6131SOL    HW229853   0.620   4.640  13.607  2.7921 -0.7562  0.9484
 6132SOL     OW29854   2.095   4.670   8.091 -0.1938 -0.2407  0.4182
 6132SOL    HW129855   2.006   4.701   8.109  0.1186  0.9004 -0.0275
 6132SOL    HW229856   2.148   0.027   8.083  0.3733 -0.3511  2.9705
 6133SOL     OW29857   3.817   0.683   7.334 -0.5735  0.7019 -0.0980
 6133SOL    HW129858   3.755   0.633   7.387 -0.6155  1.4760  0.5915
 6133SOL    HW229859   3.834   0.622   7.263 -1.5547  0.1052  0.1748
 6134SOL     OW29860   3.054   3.834   2.186  0.4539 -0.4114 -0.4724
 6134SOL    HW129861   2.998   3.817   2.110  0.2188 -1.7534  0.0125
 6134SOL    HW229862   3.102   3.912   2.158 -2.8726  1.3327 -1.2649
 6135SOL     OW29863   2.534   3.726   2.552 -0.2773  0.1243  0.2207
 6135SOL    HW129864   2.500   3.809   2.518 -1.6750  0.0320  1.3958
 6135SOL    HW229865   2.452   3.688   2.582 -0.0725  0.2865  0.9670
 6136SOL     OW29866   4.407   4.297   3.494 -0.2248  0.2720 -0.1810
 6136SOL    HW129867   4.403   4.389   3.466  5.2165  0.5778  0.0675
 6136SOL    HW229868   4.476   4.273   3.433 -1.3081  1.7489 -2.0202
 6137SOL     OW29869   2.682   2.083   4.113  0.5234  0.2065  0.3048
 6137SOL    HW129870   2.739   2.105   4.040 -1.0822 -0.1460 -1.0486
 6137SOL    HW229871   2.732   2.017   4.161  0.0163 -0.4620 -0.0824
 6138SOL     OW29872   0.663   4.458   0.495 -0.1137 -0.2811  0.1607
 6138SOL    HW129873   0.714   4.489   0.420  3.6209 -0.6490  2.5366
 6138SOL    HW229874   0.730   4.454   0.563  0.4552  3.0712 -0.1924
 6139SOL     OW29875   1.543   4.331   1.723  0.1235  0.5079  0.1428
 6139SOL    HW129876   1.489   4.353   1.799 -1.9629  0.2176 -1.2693
 6139SOL    HW229877   1.559   4.420   1.694 -2.1071  1.7035  2.5960
 6140SOL     OW29878   3.365   1.991   3.082  0.6001  0.1387  0.3175
 6140SOL    HW129879   3.333   1.903   3.062  0.4092  0.0599  0.9687
 6140SOL    HW229880   3.357   1.975   3.176  0.1435  2.0513  0.6105
 6141SOL     OW29881   2.210   0.383   1.820  0.2594 -0.1686  0.1380
 6141SOL    HW129882   2.146   0.448   1.789  0.7578  0.3850  0.2555
 6141SOL    HW229883   2.285   0.424   1.776 -1.0466  0.1117 -1.7817
 6142SOL     OW29884   0.450   3.469   7.034 -0.3280  0.1569  0.2855
 6142SOL    HW129885   0.455   3.557   6.997 -0.7728 -0.1747 -0.5684
 6142SOL    HW229886   0.491   3.418   6.964 -0.2137  3.4914 -2.0542
 6143SOL     OW29887   3.148   2.303   3.779 -0.3753 -0.1550  0.6052
 6143SOL    HW129888   3.189   2.220   3.755  0.8213  0.6373 -0.0297
 6143SOL    HW229889   3.061   2.282   3.743 -0.3509  1.0010 -0.1084
 6144SOL     OW29890   2.565   1.382  11.872 -0.0183  0.8316 -0.1896
 6144SOL    HW129891   2.526   1.407  11.956  2.1204 -2.0751  1.6751
 6144SOL    HW229892   2.633   1.450  11.866  0.7905 -0.2968 -3.6058
 6145SOL     OW29893   0.093   2.713   8.089  0.2162 -0.3136  0.0958
 6145SOL    HW129894   0.127   2.664   8.164  0.4370 -0.2569  0.0312
 6145SOL    HW229895   0.157   2.784   8.078  0.2580 -0.4386 -0.4921
 6146SOL     OW29896   3.824   3.406   6.896  0.1592  0.4686 -0.2543
 6146SOL    HW129897   3.788   3.493   6.914 -0.6767 -0.1766  1.1858
 6146SOL    HW229898   3.842   3.379   6.986 -0.3753  0.6363 -0.0952
 6147SOL     OW29899   1.531   1.990   2.220 -0.2173 -0.4856  0.0570
 6147SOL    HW129900   1.563   2.046   2.150 -0.8829  0.4897  0.5317
 6147SOL    HW229901   1.462   2.047   2.255  0.0754 -0.3902  0.4719
 6148SOL     OW29902   1.756   1.177   8.085 -0.0732 -0.0789 -0.4291
 6148SOL    HW129903   1.791   1.257   8.045  2.0723 -1.3913 -1.2264
 6148SOL    HW229904   1.824   1.111   8.099  0.6664  0.4492 -1.5288
 6149SOL     OW29905   3.103   1.534  17.671  0.0409  0.1482  0.2495
 6149SOL    HW129906   3.127   1.461   0.039 -0.6898 -0.6317 -0.4390
 6149SOL    HW229907   3.071   1.605   0.038 -2.3532 -1.6980  1.2313
 6150SOL     OW29908   3.245   0.103   5.805 -0.1636 -0.2670  0.1565
 6150SOL    HW129909   3.210   0.150   5.729 -0.3395 -0.5132  0.0861
 6150SOL    HW229910   3.163   0.076   5.846 -0.0870 -1.9789 -0.8572
 6151SOL     OW29911   4.253   1.029   3.881  0.6139  0.2225  0.1737
 6151SOL    HW129912   4.169   1.035   3.836  0.6067 -0.4477  0.1011
 6151SOL    HW229913   4.298   1.111   3.859 -0.9970  1.0456 -0.1276
 6152SOL     OW29914   3.823   2.727   6.539 -0.1300  0.0589 -0.8449
 6152SOL    HW129915   3.749   2.734   6.600  1.1649 -0.5487  0.7706
 6152SOL    HW229916   3.804   2.649   6.487  0.6669  0.1336 -1.2496
 6153SOL     OW29917   4.000   3.873   6.088  0.1591  0.1702  0.3170
 6153SOL    HW129918   4.062   3.826   6.144 -2.0899 -1.2335  1.6103
 6153SOL    HW229919   4.055   3.882   6.011  0.3574  1.5518  0.6177
 6154SOL     OW29920   3.377   4.072   0.566 -0.3085 -0.5958  0.4682
 6154SOL    HW129921   3.401   4.165   0.564 -1.5477 -0.2783 -0.1502
 6154SOL    HW229922   3.449   4.034   0.616  2.3328  5.0041  0.9515
 6155SOL     OW29923   0.220   0.727  14.354  0.0252  0.2402  0.5682
 6155SOL    HW129924   0.228   0.645  14.305 -0.6739  0.0703  0.7397
 6155SOL    HW229925   0.241   0.698  14.443 -1.2522 -0.9620  0.4809
 6156SOL     OW29926   1.331   3.891   5.989  0.6333  0.0130 -0.2896
 6156SOL    HW129927   1.256   3.906   6.047 -0.0086 -0.9168 -0.8697
 6156SOL    HW229928   1.354   3.799   6.006  0.7882 -0.0256 -0.7259
 6157SOL     OW29929   2.350   0.682   8.191  0.1653 -0.1691 -0.6233
 6157SOL    HW129930   2.422   0.726   8.147  2.7231 -2.2807  1.4678
 6157SOL    HW229931   2.356   0.587   8.184 -0.4027 -0.3069  0.6088
 6158SOL     OW29932   0.020   1.019   4.525 -0.9389 -0.2753  0.0170
 6158SOL    HW129933   0.054   1.013   4.436  0.2936  2.6809  0.3092
 6158SOL    HW229934   4.665   1.074   4.505 -0.4501  0.0396 -1.0156
 6159SOL     OW29935   1.002   2.523   7.429  0.3222  0.1636  0.1304
 6159SOL    HW129936   1.071   2.509   7.364 -0.4552  0.4230 -0.7501
 6159SOL    HW229937   0.950   2.594   7.390 -0.5562 -0.8927 -0.6109
 6160SOL     OW29938   3.827   1.944   9.220 -0.4294  0.6520  0.4810
 6160SOL    HW129939   3.881   1.901   9.154 -2.3455 -1.1061  0.0408
 6160SOL    HW229940   3.809   2.027   9.174  2.9995  1.2130  0.1778
 6161SOL     OW29941   3.533   0.813   0.970  0.8063 -0.0945 -0.1752
 6161SOL    HW129942   3.602   0.864   1.012 -1.0146  0.6431  1.9309
 6161SOL    HW229943   3.581   0.730   0.965 -0.2341 -0.5823 -2.1110
 6162SOL     OW29944   4.287   2.582  16.142 -0.8936  0.2453 -0.5375
 6162SOL    HW129945   4.308   2.565  16.234 -2.0312  2.7327  0.1602
 6162SOL    HW229946   4.318   2.506  16.092 -1.6472 -0.9813  0.8812
 6163SOL     OW29947   2.944   1.917   6.977  0.3933  0.3686  0.3067
 6163SOL    HW129948   2.942   1.835   6.928 -0.8202  1.0974 -0.8839
 6163SOL    HW229949   3.037   1.940   6.983 -0.1045  2.9461 -1.5822
 6164SOL     OW29950   4.042   4.041   7.941 -0.1190 -0.0143  0.2440
 6164SOL    HW129951   3.948   4.059   7.929  0.3850  1.1165 -1.9060
 6164SOL    HW229952   4.033   3.979   8.014 -0.4439 -2.3820 -1.8138
 6165SOL     OW29953   1.353   4.661   5.625 -0.3243 -0.2664 -0.0337
 6165SOL    HW129954   1.441   4.694   5.606  0.4425 -0.7859  2.5408
 6165SOL    HW229955   1.368   4.567   5.635 -0.2353 -0.3487 -0.9910
 6166SOL     OW29956   3.730   2.070   4.940  0.0327  0.3429 -0.5263
 6166SOL    HW129957   3.819   2.101   4.953  0.5220 -1.3025  0.0171
 6166SOL    HW229958   3.683   2.087   5.022  0.5441  0.2795 -0.2227
 6167SOL     OW29959   4.220   0.539   7.388 -0.4342 -0.2925  0.3927
 6167SOL    HW129960   4.279   0.613   7.368  0.1002 -1.1276 -1.0688
 6167SOL    HW229961   4.155   0.551   7.319  1.2342 -0.3321 -1.1958
 6168SOL     OW29962   1.352   1.288   9.545 -0.6277 -0.0830  0.6306
 6168SOL    HW129963   1.351   1.377   9.580 -2.8980  0.8088 -1.6405
 6168SOL    HW229964   1.307   1.312   9.464  2.3812 -0.7124 -1.2304
 6169SOL     OW29965   3.651   0.390   3.760 -0.4135  0.0571  0.1821
 6169SOL    HW129966   3.597   0.315   3.786 -2.3312  1.1047 -0.7787
 6169SOL    HW229967   3.714   0.352   3.699 -0.8720 -1.0566  0.4129
 6170SOL     OW29968   1.342   2.335  11.669  1.2029  0.6507  0.0020
 6170SOL    HW129969   1.334   2.419  11.713 -1.0940 -0.0426  0.9116
 6170SOL    HW229970   1.417   2.359  11.615  0.1886  0.7322 -1.3837
 6171SOL     OW29971   3.385   1.105   7.517 -0.8033  0.0366 -0.2019
 6171SOL    HW129972   3.437   1.172   7.472 -0.2470  0.1190  0.5614
 6171SOL    HW229973   3.463   1.055   7.542 -0.9643 -0.5769 -0.9386
 6172SOL     OW29974   1.675   1.704   3.417  0.7854  0.2476 -0.7469
 6172SOL    HW129975   1.715   1.710   3.331  0.2785 -1.1039 -1.0795
 6172SOL    HW229976   1.600   1.648   3.396  0.5097  0.8097 -1.2255
 6173SOL     OW29977   0.446   1.646  17.525  0.0133 -0.2011 -0.5233
 6173SOL    HW129978   0.397   1.621  17.446  0.1756 -3.0187  0.2860
 6173SOL    HW229979   0.526   1.671  17.478 -0.0973 -0.3236 -0.7769
 6174SOL     OW29980   1.568   3.645   7.935  0.2883 -0.5004  0.3315
 6174SOL    HW129981   1.614   3.562   7.945  1.1825  0.2234  2.0144
 6174SOL    HW229982   1.537   3.646   8.025  0.5226  1.5480  0.3704
 6175SOL     OW29983   2.189   1.155   5.942 -0.3624  0.1376 -0.2354
 6175SOL    HW129984   2.209   1.224   5.879  1.0344  0.9887  1.1505
 6175SOL    HW229985   2.275   1.113   5.947 -0.0239  0.7534 -0.8779
 6176SOL     OW29986   1.873   1.737   9.429 -0.0029 -0.6049  0.4824
 6176SOL    HW129987   1.785   1.702   9.417 -0.2406 -0.1311  0.8521
 6176SOL    HW229988   1.887   1.803   9.361 -0.7178  1.5373  2.4164
 6177SOL     OW29989   1.199   2.266   3.037 -0.2623  0.0117  0.2194
 6177SOL    HW129990   1.258   2.341   3.033 -0.7707  0.4494  1.0203
 6177SOL    HW229991   1.261   2.197   3.013 -0.5208 -0.7829  1.8438
 6178SOL     OW29992   2.175   1.867   3.017  0.3755 -0.5911 -0.4565
 6178SOL    HW129993   2.224   1.795   2.978  1.9938  1.4899 -2.2533
 6178SOL    HW229994   2.217   1.949   2.989 -0.2076  0.0793  0.6136
 6179SOL     OW29995   4.480   3.070   7.527  0.0771  0.9123 -0.2788
 6179SOL    HW129996   4.437   3.114   7.600  0.4487  0.3522  0.2816
 6179SOL    HW229997   4.411   3.030   7.475  1.1459 -0.1006 -0.9368
 6180SOL     OW29998   2.214   3.869   3.612 -0.4193 -0.2069 -0.1121
 6180SOL    HW129999   2.150   3.927   3.653  0.4057 -0.8639  2.1444
 6180SOL    HW230000   2.249   3.829   3.692 -0.0572  0.0413 -0.1479
 6181SOL     OW30001   1.400   1.731   5.525 -0.1362  0.6935  0.0699
 6181SOL    HW130002   1.335   1.776   5.470 -3.1888 -0.6788  2.5662
 6181SOL    HW230003   1.397   1.779   5.607  0.7833  0.4786  0.2322
 6182SOL     OW30004   2.027   3.100   2.496  0.7614  0.3692 -0.2371
 6182SOL    HW130005   2.112   3.056   2.504 -0.2726 -1.9021 -1.9645
 6182SOL    HW230006   1.979   3.043   2.557  4.2474 -1.8643  0.4316
 6183SOL     OW30007   2.570   0.344   9.306  0.0136  0.2645 -0.6003
 6183SOL    HW130008   2.562   0.418   9.367 -0.9791  1.9376 -2.7392
 6183SOL    HW230009   2.491   0.336   9.251 -1.1447  0.5221  1.0269
 6184SOL     OW30010   1.873   3.264   9.726 -0.7192  0.2037  0.6995
 6184SOL    HW130011   1.914   3.228   9.647  0.7821  2.6349  0.3993
 6184SOL    HW230012   1.782   3.240   9.707 -0.3843 -1.1749  0.7786
 6185SOL     OW30013   2.212   0.759  16.083  0.2883  0.0918 -0.1325
 6185SOL    HW130014   2.238   0.851  16.081  2.0837 -0.3480  2.8887
 6185SOL    HW230015   2.240   0.742  16.173  0.7933  0.0554 -0.2958
 6186SOL     OW30016   2.094   2.713   1.719 -0.4477  0.0100 -0.0842
 6186SOL    HW130017   2.099   2.650   1.791 -0.7998 -0.1067 -0.1617
 6186SOL    HW230018   2.182   2.749   1.732 -0.3243 -0.5785  0.7014
 6187SOL     OW30019   1.259   3.411  15.597  0.2027  0.6816 -0.3467
 6187SOL    HW130020   1.273   3.346  15.666  1.9194  1.3528 -0.0663
 6187SOL    HW230021   1.324   3.480  15.610 -1.3871  1.4522  3.6536
 6188SOL     OW30022   1.689   4.604   3.221 -0.1184 -0.6179  0.2939
 6188SOL    HW130023   1.626   4.676   3.217  0.9311  0.3234  0.7176
 6188SOL    HW230024   1.740   4.624   3.143 -0.0077 -0.3815  0.4292
 6189SOL     OW30025   3.303   3.786   0.627 -0.0024 -0.9306 -0.3354
 6189SOL    HW130026   3.356   3.865   0.639  1.6070 -2.1189  0.4356
 6189SOL    HW230027   3.370   3.728   0.590  0.3612 -1.5045  1.2348
 6190SOL     OW30028   1.885   0.145   6.392 -0.1127 -0.2340  0.7830
 6190SOL    HW130029   1.805   0.094   6.386  0.4023 -1.0182  0.5933
 6190SOL    HW230030   1.861   0.220   6.337  1.8083  0.4839  0.9032
 6191SOL     OW30031   2.423   4.505   9.598 -0.0612 -0.3392  0.4195
 6191SOL    HW130032   2.421   4.428   9.655  1.1621 -1.1655 -0.6554
 6191SOL    HW230033   2.502   4.484   9.547 -0.5182 -1.0058 -0.0155
 6192SOL     OW30034   1.940   1.560   4.765  0.0762  0.4273 -0.1687
 6192SOL    HW130035   1.963   1.558   4.672 -1.9501 -1.9729 -0.6341
 6192SOL    HW230036   1.853   1.518   4.765 -0.1989  0.9948  0.6867
 6193SOL     OW30037   1.506   2.196   6.199 -0.0319 -0.8519  0.5652
 6193SOL    HW130038   1.479   2.192   6.107  0.3653 -2.0856  0.5096
 6193SOL    HW230039   1.594   2.159   6.194  0.6311  0.7380  0.3460
 6194SOL     OW30040   2.540   1.533   5.904 -1.3481  0.0079  0.0478
 6194SOL    HW130041   2.516   1.619   5.938 -1.0440 -0.5079  1.5471
 6194SOL    HW230042   2.499   1.530   5.818  1.5207 -1.4747 -1.2776
 6195SOL     OW30043   1.676   3.745   6.638 -0.0987  0.4277 -0.4258
 6195SOL    HW130044   1.622   3.702   6.572  1.6296 -0.5247 -1.2120
 6195SOL    HW230045   1.659   3.679   6.705 -1.6448  0.6502 -0.5823
 6196SOL     OW30046   4.615   0.681  13.257  0.7848 -0.0939 -0.1846
 6196SOL    HW130047   4.520   0.689  13.260  0.9507  1.9631 -0.5207
 6196SOL    HW230048   4.638   0.726  13.176  1.1595  0.8393  0.4308
 6197SOL     OW30049   3.177   2.582  14.537 -0.4388 -1.0275  0.7536
 6197SOL    HW130050   3.175   2.586  14.442  2.0374 -0.5235  0.7205
 6197SOL    HW230051   3.183   2.488  14.551  0.5192 -1.3071 -1.6343
 6198SOL     OW30052   0.426   4.599   8.830 -0.5067 -0.1565 -0.0257
 6198SOL    HW130053   0.435   4.667   8.895 -4.2544 -1.2752  1.6680
 6198SOL    HW230054   0.348   4.552   8.859 -0.1843  0.0896  1.2418
 6199SOL     OW30055   4.693   0.338  13.964  0.2366  0.0156 -0.0759
 6199SOL    HW130056   4.666   0.420  13.923  0.2503  0.8716  1.6052
 6199SOL    HW230057   0.031   0.297  13.902 -0.0754  0.6623 -0.8030
 6200SOL     OW30058   1.421   3.159   5.113 -0.4418 -0.1463 -0.3837
 6200SOL    HW130059   1.385   3.071   5.121 -3.0720  0.9657  0.1919
 6200SOL    HW230060   1.375   3.214   5.177  2.1606  2.7528 -1.0032
 6201SOL     OW30061   3.269   4.016   2.393 -0.2179 -0.5657 -0.6176
 6201SOL    HW130062   3.181   4.009   2.355 -1.5520  1.3484  2.0785
 6201SOL    HW230063   3.305   4.086   2.339  0.3199 -0.7118 -0.4454
 6202SOL     OW30064   0.450   0.183   7.888 -0.3835  0.1180 -0.4463
 6202SOL    HW130065   0.386   0.112   7.901  0.4328 -0.5739 -0.2619
 6202SOL    HW230066   0.502   0.150   7.961  0.7824  0.2691 -1.2071
 6203SOL     OW30067   4.093   3.240   9.211 -0.3410  0.0318 -0.2932
 6203SOL    HW130068   4.040   3.231   9.291  0.1779 -1.6589 -0.1322
 6203SOL    HW230069   4.118   3.148   9.199 -1.1965 -0.1783 -0.5178
 6204SOL     OW30070   2.102   1.776   8.806 -0.0630 -0.6056 -0.0402
 6204SOL    HW130071   2.013   1.790   8.840 -0.1473 -1.2932  0.0309
 6204SOL    HW230072   2.149   1.767   8.888  0.4012  1.5797 -0.0719
 6205SOL     OW30073   0.694   1.663   3.872  0.1983 -0.7032 -0.4135
 6205SOL    HW130074   0.646   1.618   3.942  1.1127 -0.1852  0.5454
 6205SOL    HW230075   0.620   1.713   3.835  0.0009 -2.5895 -2.5849
 6206SOL     OW30076   1.703   2.799   4.133 -0.4294  0.1982 -0.0673
 6206SOL    HW130077   1.625   2.775   4.182 -1.9362  1.2878 -1.9654
 6206SOL    HW230078   1.771   2.741   4.168 -0.9397 -0.2230  0.2073
 6207SOL     OW30079   4.102   3.434   3.414  0.5666 -0.2810  0.1831
 6207SOL    HW130080   4.059   3.350   3.427  2.8315 -1.1553  2.0660
 6207SOL    HW230081   4.158   3.435   3.492  2.4173 -0.9486 -1.1439
 6208SOL     OW30082   0.117   1.792   4.000 -0.2982  0.0569  0.2054
 6208SOL    HW130083   0.137   1.735   3.926  1.6975  1.9832 -0.7352
 6208SOL    HW230084   0.024   1.804   3.979 -0.6779 -0.8686  1.3656
 6209SOL     OW30085   1.291   4.236   3.035 -0.1771 -0.4411 -0.3525
 6209SOL    HW130086   1.323   4.146   3.022  0.3529 -0.3674  0.4093
 6209SOL    HW230087   1.206   4.236   2.993 -0.5457  1.6546  0.4095
 6210SOL     OW30088   1.034   3.517   2.234 -0.3106 -0.1795 -0.3898
 6210SOL    HW130089   0.962   3.544   2.178 -1.2161 -0.7702  0.4955
 6210SOL    HW230090   1.061   3.599   2.276  1.9044 -1.1082 -0.0163
 6211SOL     OW30091   2.481   3.932  11.955 -0.7251 -0.3662  0.2220
 6211SOL    HW130092   2.520   3.957  11.871  0.4779  3.5051  1.9264
 6211SOL    HW230093   2.410   3.879  11.918 -0.6022 -0.9877  0.8930
 6212SOL     OW30094   3.965   4.373   8.001  0.0079  0.4367  0.8814
 6212SOL    HW130095   3.966   4.281   8.026  2.5551 -0.7720 -3.5952
 6212SOL    HW230096   4.036   4.415   8.049  0.8357 -1.4913  1.3267
 6213SOL     OW30097   3.585   3.493   7.833 -0.2158  0.5146  0.2482
 6213SOL    HW130098   3.568   3.573   7.883  0.5419  0.4413  0.6321
 6213SOL    HW230099   3.632   3.532   7.759  0.1157  2.9150  1.7074
 6214SOL     OW30100   0.948   2.120   3.489 -0.6383 -0.1955  0.0810
 6214SOL    HW130101   0.988   2.055   3.546  3.0293  1.6209 -0.4196
 6214SOL    HW230102   0.867   2.073   3.468 -0.5754  0.2291 -1.1123
 6215SOL     OW30103   0.051   3.466   7.662 -0.4580  0.2054  0.0236
 6215SOL    HW130104   0.089   3.547   7.628  1.4217 -0.8413 -0.3272
 6215SOL    HW230105   0.033   3.427   7.576  0.7765  1.3430 -0.7555
 6216SOL     OW30106   2.997   0.222   2.498  0.0317  0.1467 -0.4888
 6216SOL    HW130107   2.952   0.161   2.556  3.0736 -0.8958  0.8198
 6216SOL    HW230108   3.062   0.164   2.458  1.7948  1.1899  0.8373
 6217SOL     OW30109   3.595   4.044   6.751 -0.0033 -0.0145 -0.1852
 6217SOL    HW130110   3.514   4.092   6.765  0.0628 -0.0864  0.4397
 6217SOL    HW230111   3.561   3.955   6.736  0.8138 -0.6610  1.7944
 6218SOL     OW30112   0.040   0.079   0.506 -0.1370  0.0743  0.2327
 6218SOL    HW130113   0.077   0.077   0.594  0.3441 -1.8306 -0.0156
 6218SOL    HW230114   0.022   4.707   0.504 -1.6935  0.4005 -0.8373
 6219SOL     OW30115   0.420   3.571   0.925 -0.4585  0.3772 -0.2415
 6219SOL    HW130116   0.460   3.488   0.898  1.5159  1.3056 -0.1418
 6219SOL    HW230117   0.479   3.630   0.879 -1.2929  3.6440  2.8459
 6220SOL     OW30118   4.140   2.025   9.181  0.0591 -0.0247 -0.1561
 6220SOL    HW130119   4.162   2.007   9.272 -0.2015 -0.0430 -0.0988
 6220SOL    HW230120   4.065   1.966   9.180 -1.8695  2.4177  0.4653
 6221SOL     OW30121   2.645   4.341  13.551  0.0770  0.0914 -0.0103
 6221SOL    HW130122   2.716   4.295  13.594 -0.1006 -0.1228  0.0567
 6221SOL    HW230123   2.598   4.370  13.629  0.4524  2.3021 -0.6155
 6222SOL     OW30124   2.002   2.123   8.959  0.0984 -0.1712 -0.5640
 6222SOL    HW130125   2.007   2.081   8.873  1.5505 -0.5194 -0.2988
 6222SOL    HW230126   1.912   2.157   8.954 -1.6299 -4.6498 -0.1484
 6223SOL     OW30127   2.338   0.906   2.385 -0.2925  0.7644 -0.5389
 6223SOL    HW130128   2.389   0.905   2.304 -1.7990 -0.4588 -1.4528
 6223SOL    HW230129   2.397   0.843   2.426  3.2226  3.3623 -1.5995
 6224SOL     OW30130   2.419   2.245  12.715  0.1808 -0.4568  0.5182
 6224SOL    HW130131   2.481   2.239  12.643 -1.0972  2.0364 -0.7739
 6224SOL    HW230132   2.471   2.304  12.771  1.0127  0.9912 -1.7923
 6225SOL     OW30133   3.122   3.224  10.723 -0.2684 -0.2692  0.5049
 6225SOL    HW130134   3.051   3.165  10.748  0.9193 -2.5923 -1.5927
 6225SOL    HW230135   3.095   3.305  10.766 -0.8999  0.5500 -1.4404
 6226SOL     OW30136   4.251   4.168   6.064  0.6577 -0.5642  0.1071
 6226SOL    HW130137   4.207   4.112   6.001  1.3732 -3.4244  2.1607
 6226SOL    HW230138   4.319   4.208   6.009 -0.7135  0.1081 -1.0718
 6227SOL     OW30139   1.362   2.198   2.346 -0.0256 -0.0168 -0.4242
 6227SOL    HW130140   1.267   2.209   2.347 -0.0338 -0.3271  2.3730
 6227SOL    HW230141   1.375   2.218   2.438  0.0052  0.3242 -0.5017
 6228SOL     OW30142   3.567   3.747   4.620 -0.6117 -0.3546 -0.1764
 6228SOL    HW130143   3.662   3.744   4.632 -0.7425  0.0380  0.9137
 6228SOL    HW230144   3.535   3.803   4.691  0.4647 -1.7868  1.4490
 6229SOL     OW30145   3.572   1.855   6.101 -0.4924 -0.6685 -0.4790
 6229SOL    HW130146   3.633   1.813   6.162 -0.7767  0.6316  0.7051
 6229SOL    HW230147   3.521   1.907   6.163  0.1699 -1.1281  0.4594
 6230SOL     OW30148   3.806   2.253  15.150 -0.1813  0.2523  0.1021
 6230SOL    HW130149   3.798   2.334  15.199 -0.5533  0.3594 -0.1322
 6230SOL    HW230150   3.787   2.289  15.063 -1.1262  1.8314  0.9818
 6231SOL     OW30151   1.954   3.537   6.773  0.4036  0.3410 -0.2379
 6231SOL    HW130152   1.882   3.476   6.758  1.6651 -1.1720 -0.0635
 6231SOL    HW230153   2.029   3.478   6.771  2.0059  2.3844 -0.6107
 6232SOL     OW30154   1.221   1.067   0.970 -0.2593  0.7092 -0.3788
 6232SOL    HW130155   1.168   0.998   0.931 -0.5219  0.7341 -0.0600
 6232SOL    HW230156   1.155   1.096   1.033 -0.7539 -0.0015 -0.5769
 6233SOL     OW30157   4.215   0.725  12.825  0.1491  0.4766 -0.3669
 6233SOL    HW130158   4.166   0.808  12.824 -1.4744 -0.5422 -3.8422
 6233SOL    HW230159   4.213   0.703  12.918 -2.1698 -0.3595 -0.6241
 6234SOL     OW30160   2.189   4.469   8.282 -0.0196 -0.3231  0.3451
 6234SOL    HW130161   2.133   4.465   8.360 -0.8506  0.4096 -0.2236
 6234SOL    HW230162   2.165   4.555   8.247  2.4788 -0.2263 -1.1129
 6235SOL     OW30163   1.458   2.619  10.547 -0.1888  0.0968 -0.3744
 6235SOL    HW130164   1.553   2.632  10.559 -0.5709  2.8250 -0.4748
 6235SOL    HW230165   1.443   2.548  10.610  1.9792  0.3647  0.4749
 6236SOL     OW30166   1.643   0.961   3.613 -0.2804  0.0645  0.0559
 6236SOL    HW130167   1.627   0.888   3.672 -0.3866 -0.1031 -0.1813
 6236SOL    HW230168   1.675   1.019   3.682 -0.6685 -0.8217  0.9866
 6237SOL     OW30169   3.805   1.671   4.565  0.2509 -0.2613 -0.0505
 6237SOL    HW130170   3.782   1.640   4.653  1.9293 -0.9672  0.1274
 6237SOL    HW230171   3.827   1.761   4.592 -1.0610  0.5397 -1.6268
 6238SOL     OW30172   3.335   3.897   3.456  0.2281  0.0785  0.5085
 6238SOL    HW130173   3.314   3.988   3.477  1.0086  0.4205 -0.2348
 6238SOL    HW230174   3.426   3.897   3.427  0.0677 -0.3263  0.0036
 6239SOL     OW30175   3.870   2.367   4.851 -0.0879 -0.0097  0.5394
 6239SOL    HW130176   3.870   2.328   4.939  2.6593  0.8306  0.8986
 6239SOL    HW230177   3.799   2.429   4.869  1.2629  0.9412  2.6840
 6240SOL     OW30178   0.531   3.408   9.942  0.7264 -0.3792  0.2668
 6240SOL    HW130179   0.558   3.374  10.027  1.6883  1.2890  0.6257
 6240SOL    HW230180   0.435   3.415   9.946  0.6545 -0.4774 -1.3088
 6241SOL     OW30181   2.320   2.462  11.208 -0.6281 -0.0198  0.3522
 6241SOL    HW130182   2.328   2.440  11.115  0.8053  1.9344 -0.0018
 6241SOL    HW230183   2.269   2.386  11.236 -2.1093  0.5696 -0.7150
 6242SOL     OW30184   2.764   3.434   4.648 -0.7807  0.2120 -0.0605
 6242SOL    HW130185   2.803   3.381   4.579 -2.1944 -1.7867  0.6855
 6242SOL    HW230186   2.675   3.403   4.663 -0.7727 -0.8940 -2.2719
 6243SOL     OW30187   2.162   0.164   8.408 -0.1034 -0.0073  0.0817
 6243SOL    HW130188   2.220   0.125   8.474 -0.4583 -0.3228  0.2087
 6243SOL    HW230189   2.184   0.256   8.423  0.4901 -0.2515  0.7110
 6244SOL     OW30190   1.927   0.427   2.426 -0.1316  0.0932  0.5507
 6244SOL    HW130191   1.916   0.500   2.366  1.3664  0.9512  1.3317
 6244SOL    HW230192   2.022   0.418   2.418 -0.1566 -0.2324  0.6126
 6245SOL     OW30193   0.255   1.605   9.114 -0.2353  0.0604 -1.0578
 6245SOL    HW130194   0.305   1.627   9.036  3.6214  0.0592  1.4582
 6245SOL    HW230195   0.319   1.617   9.183 -1.9754 -0.8193  0.7217
 6246SOL     OW30196   0.178   4.214   4.649  0.1983  0.6551  0.2931
 6246SOL    HW130197   0.250   4.234   4.590 -0.2460 -1.8713 -1.1322
 6246SOL    HW230198   0.135   4.299   4.660 -0.7260  0.1213  0.8251
 6247SOL     OW30199   1.844   0.231   3.869 -0.0354 -0.2136 -0.0465
 6247SOL    HW130200   1.761   0.269   3.898 -0.2505  0.7506 -1.9280
 6247SOL    HW230201   1.832   0.224   3.775  3.0538  0.3994 -0.4972
 6248SOL     OW30202   1.586   2.216  16.937  0.2455  0.0392 -0.0799
 6248SOL    HW130203   1.549   2.259  17.014  1.1831 -0.0843  0.4311
 6248SOL    HW230204   1.676   2.203  16.966  0.3644  1.6714  0.3151
 6249SOL     OW30205   3.584   2.598  16.039 -0.0349 -0.0795 -0.4813
 6249SOL    HW130206   3.527   2.574  15.965  0.9079 -1.3428 -0.7920
 6249SOL    HW230207   3.650   2.655  15.998  1.8240 -1.0224  1.2565
 6250SOL     OW30208   4.040   0.172   0.584  0.3185  0.1557  0.2255
 6250SOL    HW130209   4.068   0.227   0.511 -1.4219  0.4501 -0.2350
 6250SOL    HW230210   3.946   0.164   0.565  0.3846  1.2945 -0.5876
 6251SOL     OW30211   0.602   2.875  15.444 -0.5416 -0.5044  0.0488
 6251SOL    HW130212   0.672   2.895  15.383 -1.1503  0.8927 -0.1842
 6251SOL    HW230213   0.615   2.784  15.470  0.8472  0.0268  1.1835
 6252SOL     OW30214   2.048   2.992  12.079  0.0335 -0.1817 -0.0618
 6252SOL    HW130215   2.140   2.980  12.058  0.3625 -0.2825  1.4628
 6252SOL    HW230216   2.059   3.062  12.144 -1.2147 -2.2447  2.3542
 6253SOL     OW30217   0.222   1.589   8.575 -0.1881 -0.4140 -0.5626
 6253SOL    HW130218   0.274   1.625   8.504 -0.2841 -0.5569 -0.7038
 6253SOL    HW230219   0.139   1.634   8.561  1.5148  2.9928  0.2185
 6254SOL     OW30220   4.541   1.201  15.540 -0.5355 -0.0772  0.0989
 6254SOL    HW130221   4.556   1.131  15.476 -1.5207 -0.2054 -0.0026
 6254SOL    HW230222   4.623   1.250  15.546  1.2219 -3.3293  2.1011
 6255SOL     OW30223   0.433   0.809   7.235  0.6269 -0.3904 -0.2413
 6255SOL    HW130224   0.412   0.793   7.327  1.8458 -0.5554  0.0110
 6255SOL    HW230225   0.361   0.863   7.205  0.2998 -0.8005 -0.2009
 6256SOL     OW30226   2.000   1.688   9.676 -0.4713 -0.0629  0.2680
 6256SOL    HW130227   1.955   1.734   9.604 -0.6899 -0.5025  0.1239
 6256SOL    HW230228   2.087   1.726   9.665 -0.5510  0.5049  1.7303
 6257SOL     OW30229   0.870   4.515   0.336 -0.2604 -0.0051 -0.3839
 6257SOL    HW130230   0.866   4.487   0.244  0.5819  0.0617 -0.4467
 6257SOL    HW230231   0.962   4.544   0.341  0.3878 -2.5297  2.4536
 6258SOL     OW30232   0.563   0.300   2.669 -0.5965  0.2011 -0.1910
 6258SOL    HW130233   0.578   0.205   2.672 -0.2389  0.1531 -3.6444
 6258SOL    HW230234   0.604   0.329   2.587  0.1344 -1.2360 -0.3357
 6259SOL     OW30235   0.119   4.063  12.269 -0.4983 -0.3914  0.3332
 6259SOL    HW130236   0.193   4.010  12.299 -0.9505 -0.2491  1.6724
 6259SOL    HW230237   0.075   3.995  12.218  0.0415  0.1223 -0.8377
 6260SOL     OW30238   3.554   0.956   1.791 -0.0578  0.0086 -0.1938
 6260SOL    HW130239   3.601   1.029   1.833 -1.3215  0.2204  0.8458
 6260SOL    HW230240   3.478   0.951   1.849 -0.0862  1.4893 -0.0847
 6261SOL     OW30241   2.122   2.540   1.926 -0.5596  0.8922 -0.1669
 6261SOL    HW130242   2.130   2.445   1.917  1.3990  1.0419  0.0353
 6261SOL    HW230243   2.211   2.559   1.956 -0.0044  0.7479 -1.7468
 6262SOL     OW30244   3.438   0.564   8.235  0.3931  0.1497  0.3998
 6262SOL    HW130245   3.524   0.524   8.222 -1.6900 -3.7897 -1.1527
 6262SOL    HW230246   3.379   0.495   8.204  0.7128  0.2864 -0.5296
 6263SOL     OW30247   1.373   0.599   9.167 -0.5750 -0.1993  0.3058
 6263SOL    HW130248   1.385   0.582   9.074 -0.2413  1.6402  0.0162
 6263SOL    HW230249   1.397   0.691   9.164 -1.6381  0.1352  2.1604
 6264SOL     OW30250   1.016   3.450   0.560  0.0556 -0.7497  0.2513
 6264SOL    HW130251   1.046   3.378   0.503  0.5578  0.2028 -0.6800
 6264SOL    HW230252   1.075   3.522   0.539 -1.9277  1.1029  1.1315
 6265SOL     OW30253   3.532   3.168   2.311 -0.1917  0.1924 -0.2019
 6265SOL    HW130254   3.570   3.080   2.300  0.5329  0.1580  2.6323
 6265SOL    HW230255   3.605   3.228   2.292 -0.3545  0.3798 -0.2322
 6266SOL     OW30256   1.242   1.252  12.926 -0.4802 -0.8297  0.5068
 6266SOL    HW130257   1.267   1.334  12.970 -2.6062 -2.0586  4.0126
 6266SOL    HW230258   1.147   1.262  12.917 -0.3197  0.4552  0.1743
 6267SOL     OW30259   4.158   1.578  16.844 -0.3117  0.9110  0.6753
 6267SOL    HW130260   4.122   1.596  16.758 -1.4614 -1.5632  0.6532
 6267SOL    HW230261   4.078   1.556  16.893 -0.0189  1.2677  1.3249
 6268SOL     OW30262   0.290   0.517   2.115  0.4613 -0.1297  0.0525
 6268SOL    HW130263   0.331   0.456   2.055 -0.4762  0.8242 -1.5632
 6268SOL    HW230264   0.356   0.529   2.183  1.5653 -0.7693 -0.9234
 6269SOL     OW30265   2.030   0.437   2.679 -0.0066  0.4475 -0.6181
 6269SOL    HW130266   1.959   0.379   2.708 -1.8584  2.8683 -0.2798
 6269SOL    HW230267   1.986   0.471   2.602 -0.4590 -1.8497 -1.3845
 6270SOL     OW30268   1.768   4.647  16.138  0.2533 -0.1058  0.0601
 6270SOL    HW130269   1.736   4.577  16.196  1.0497 -0.2848  0.2834
 6270SOL    HW230270   1.694   4.708  16.146 -0.6934 -0.8578 -2.7171
 6271SOL     OW30271   0.751   2.649   7.941  0.9072 -0.0404 -0.3896
 6271SOL    HW130272   0.815   2.625   8.008  0.3021  2.0931  0.9474
 6271SOL    HW230273   0.796   2.659   7.857  0.4702  1.3313 -0.4553
 6272SOL     OW30274   2.678   4.546   9.004  0.1309  0.3636 -0.0620
 6272SOL    HW130275   2.616   4.589   8.945  0.0618  0.6796  0.2388
 6272SOL    HW230276   2.756   4.531   8.950 -0.0068  0.5777 -0.3218
 6273SOL     OW30277   0.816   2.329   8.097  0.3032  0.1290 -0.4898
 6273SOL    HW130278   0.887   2.303   8.156 -0.3456  1.0466  0.7100
 6273SOL    HW230279   0.751   2.363   8.159  0.9891 -1.1066  0.9329
 6274SOL     OW30280   1.470   2.694   8.493  0.3009  0.5084 -0.3417
 6274SOL    HW130281   1.504   2.608   8.518  0.1432  1.2643  2.4619
 6274SOL    HW230282   1.550   2.739   8.466 -0.8296  3.0270  0.5346
 6275SOL     OW30283   0.710   3.041   2.246 -0.5238 -0.2187  0.2676
 6275SOL    HW130284   0.768   3.112   2.217  1.3415 -1.8417  0.0234
 6275SOL    HW230285   0.765   2.966   2.222 -0.4875  0.9709 -3.3115
 6276SOL     OW30286   2.480   3.117   6.288  0.2105 -0.6366 -0.1415
 6276SOL    HW130287   2.395   3.140   6.250  1.9743 -0.9857 -4.3137
 6276SOL    HW230288   2.537   3.095   6.215  0.9550  1.2977 -0.1513
 6277SOL     OW30289   0.837   2.066   8.266 -0.5281  0.0502  0.0086
 6277SOL    HW130290   0.750   2.037   8.291 -1.2958  2.3726  0.0238
 6277SOL    HW230291   0.839   2.132   8.336  0.7746 -1.0837  1.0506
 6278SOL     OW30292   4.086   0.725   2.266  0.3224 -0.0894 -0.1590
 6278SOL    HW130293   4.095   0.815   2.298  2.7795  0.6314 -2.8631
 6278SOL    HW230294   4.075   0.737   2.172 -1.6004 -0.5050  0.0160
 6279SOL     OW30295   4.417   2.181  13.237  0.1674 -0.1741  0.8319
 6279SOL    HW130296   4.330   2.144  13.255  1.2499 -1.7412  2.9059
 6279SOL    HW230297   4.399   2.263  13.191 -2.1174 -2.0775 -1.6522
 6280SOL     OW30298   4.221   0.026   2.006  0.1735 -0.2490 -0.3985
 6280SOL    HW130299   4.254   0.110   2.037 -1.8101  0.1314  0.6570
 6280SOL    HW230300   4.141   0.043   1.956 -0.1104 -2.5706 -0.7317
 6281SOL     OW30301   1.753   3.632   5.163 -0.5589 -0.2650  0.7885
 6281SOL    HW130302   1.802   3.574   5.105  0.4232  1.3186  0.0141
 6281SOL    HW230303   1.764   3.591   5.249 -2.3749 -1.1480  0.5912
 6282SOL     OW30304   2.176   2.245  11.287  0.5303 -0.6000 -0.1601
 6282SOL    HW130305   2.109   2.261  11.354 -0.3668  2.0249 -1.6851
 6282SOL    HW230306   2.174   2.150  11.282 -1.0567 -0.6224  0.7914
 6283SOL     OW30307   1.435   0.807   3.031  0.0729 -0.1182  0.2620
 6283SOL    HW130308   1.490   0.877   2.995  0.8152 -1.4412 -1.1629
 6283SOL    HW230309   1.417   0.851   3.114 -0.0125  0.9987 -0.3508
 6284SOL     OW30310   3.859   3.114   4.314 -0.0362 -0.0549  0.5757
 6284SOL    HW130311   3.785   3.125   4.373 -0.9967 -0.1138 -0.6096
 6284SOL    HW230312   3.923   3.073   4.372 -0.9412  0.2148  1.7526
 6285SOL     OW30313   2.425   4.329  14.716 -0.8921 -0.3150  0.4708
 6285SOL    HW130314   2.401   4.330  14.624 -2.3459 -1.4459  0.8487
 6285SOL    HW230315   2.341   4.312  14.759 -0.7861 -1.8028  0.0820
 6286SOL     OW30316   2.148   3.853  11.247  0.8888 -0.7763  0.0330
 6286SOL    HW130317   2.102   3.913  11.189  1.7429  0.0201  0.1787
 6286SOL    HW230318   2.105   3.868  11.331  1.7067  0.3254  0.2580
 6287SOL     OW30319   2.921   2.250   7.072  0.0044  0.0850 -0.2245
 6287SOL    HW130320   2.957   2.195   7.142  0.2920 -0.4542 -0.7951
 6287SOL    HW230321   2.989   2.317   7.083 -0.7654  1.3076 -3.0514
 6288SOL     OW30322   3.155   3.811   9.599 -0.1456 -0.0710 -0.0791
 6288SOL    HW130323   3.201   3.754   9.660  1.7210  0.7676 -0.6885
 6288SOL    HW230324   3.194   3.787   9.515  1.2989  0.0944  0.5391
 6289SOL     OW30325   1.027   2.729   2.760 -0.2689 -0.5450 -0.1924
 6289SOL    HW130326   1.036   2.721   2.855 -0.8581  4.5228  0.3302
 6289SOL    HW230327   1.040   2.824   2.752  1.2391 -0.7799 -0.6139
 6290SOL     OW30328   2.203   3.903   3.346  0.2150 -0.5280  0.1392
 6290SOL    HW130329   2.206   3.871   3.435 -2.0279  0.5040  0.5943
 6290SOL    HW230330   2.139   3.974   3.355 -1.8664 -2.4216  0.1944
 6291SOL     OW30331   4.635   0.818   5.647  0.5211  0.4113  0.1304
 6291SOL    HW130332   4.628   0.784   5.558 -0.7907  2.5318 -0.5759
 6291SOL    HW230333   4.710   0.770   5.681  1.3183  0.8333 -1.0225
 6292SOL     OW30334   1.129   0.380  15.832  0.6178 -0.3450  0.1593
 6292SOL    HW130335   1.071   0.305  15.839 -0.2037  0.0554 -2.6659
 6292SOL    HW230336   1.079   0.455  15.865  0.6080 -0.6682  0.8752
 6293SOL     OW30337   2.554   0.798  15.411 -0.3791 -0.4347  0.1447
 6293SOL    HW130338   2.632   0.777  15.462 -0.1272  0.8564  0.2781
 6293SOL    HW230339   2.538   0.718  15.361 -0.2512  0.4971 -1.3855
 6294SOL     OW30340   4.459   3.048  15.701 -0.2430 -0.7095 -0.2591
 6294SOL    HW130341   4.479   3.057  15.794  0.2530 -2.3087 -0.2201
 6294SOL    HW230342   4.442   2.954  15.695  0.7121 -0.8315 -1.1389
 6295SOL     OW30343   4.007   1.672   0.198  0.2603  0.6305 -0.5441
 6295SOL    HW130344   4.041   1.586   0.222 -0.0029  0.3891 -1.0607
 6295SOL    HW230345   3.924   1.677   0.246 -0.9013 -0.4730 -2.4737
 6296SOL     OW30346   4.039   2.694   2.864 -0.6114  0.1834  0.4109
 6296SOL    HW130347   4.087   2.621   2.826 -1.1664 -0.7837  1.5742
 6296SOL    HW230348   4.108   2.761   2.858 -1.6884  1.1000 -1.7131
 6297SOL     OW30349   0.367   4.117   5.796  0.4352  0.0529  0.3577
 6297SOL    HW130350   0.302   4.053   5.824  0.9435  0.2914  2.0870
 6297SOL    HW230351   0.361   4.192   5.855  1.3523 -2.0663  3.1592
 6298SOL     OW30352   2.670   3.219  13.273 -0.1402  0.3214  0.1048
 6298SOL    HW130353   2.616   3.146  13.243  0.2252 -0.1875  0.6858
 6298SOL    HW230354   2.714   3.188  13.352  0.5819  0.1125 -0.3783
 6299SOL     OW30355   4.302   0.656   0.513  0.1602 -0.2678 -0.1163
 6299SOL    HW130356   4.258   0.629   0.432 -1.2207  0.1352  0.4857
 6299SOL    HW230357   4.312   0.569   0.551 -2.0999 -1.6453 -2.6730
 6300SOL     OW30358   4.418   3.822  10.935 -0.4253 -0.3212 -0.3347
 6300SOL    HW130359   4.362   3.763  10.985 -1.7313  0.5322 -0.7926
 6300SOL    HW230360   4.405   3.797  10.844 -1.2704 -0.1996 -0.2400
 6301SOL     OW30361   3.972   4.674   8.107  0.5534  0.4455  0.4728
 6301SOL    HW130362   4.048   4.640   8.154  1.5437 -1.6052 -2.6364
 6301SOL    HW230363   4.007   4.668   8.018  0.9201 -1.3360  0.7371
 6302SOL     OW30364   1.041   0.861   0.934  0.2705  0.2247  0.3768
 6302SOL    HW130365   1.011   0.864   1.025  0.0810 -1.4775  0.3735
 6302SOL    HW230366   0.991   0.789   0.894  0.0467  1.3858 -1.4342
 6303SOL     OW30367   1.035   3.839   8.135  0.8227  0.6332  0.5779
 6303SOL    HW130368   1.106   3.821   8.197  1.1881  4.3041  1.1866
 6303SOL    HW230369   1.088   3.870   8.061  0.6205  1.3281  0.7287
 6304SOL     OW30370   4.449   2.904   2.578 -0.0678  0.1632 -0.3434
 6304SOL    HW130371   4.403   2.840   2.632  2.5923 -0.4591  1.1673
 6304SOL    HW230372   4.469   2.981   2.632  3.2492  0.7148 -2.3657
 6305SOL     OW30373   1.147   3.998  11.005  0.5409  0.0237 -0.5013
 6305SOL    HW130374   1.151   4.022  11.097  0.6978  0.5981 -0.6572
 6305SOL    HW230375   1.238   3.980  10.980  0.6933 -0.8076  0.6653
 6306SOL     OW30376   0.087   2.246   6.430  0.8194  0.3464  0.4487
 6306SOL    HW130377   0.107   2.301   6.354 -0.6002  2.7730  1.8341
 6306SOL    HW230378   0.180   2.229   6.443  1.0322  0.6561 -0.6171
 6307SOL     OW30379   4.106   4.359   3.293  0.5490 -0.1741 -0.0225
 6307SOL    HW130380   4.054   4.344   3.215  0.6225  2.2935 -0.5518
 6307SOL    HW230381   4.167   4.285   3.300 -1.4655 -1.8024  0.3277
 6308SOL     OW30382   1.719   3.831   4.274  0.1338 -0.3972  0.0537
 6308SOL    HW130383   1.685   3.756   4.226 -1.1489 -1.0125  1.9212
 6308SOL    HW230384   1.801   3.834   4.226 -0.3446  2.7868 -0.6080
 6309SOL     OW30385   1.852   4.163  10.798  0.4544  0.4117 -0.6672
 6309SOL    HW130386   1.877   4.114  10.877  1.2001 -1.6963 -2.1998
 6309SOL    HW230387   1.843   4.254  10.826  3.5708  0.7338 -0.7600
 6310SOL     OW30388   1.315   4.690  13.534  0.7945  0.3016 -0.4142
 6310SOL    HW130389   1.248   4.630  13.566  0.1278  1.0258 -0.4443
 6310SOL    HW230390   1.267   0.051  13.536  0.6687  0.1923  1.9318
 6311SOL     OW30391   1.434   3.907   3.308 -0.5811 -0.2324  0.0306
 6311SOL    HW130392   1.518   3.942   3.339 -1.0238  1.2117 -0.3657
 6311SOL    HW230393   1.430   3.935   3.216  0.6993  1.1479  0.3832
 6312SOL     OW30394   2.339   0.409  13.620 -0.0933  0.3279  0.6152
 6312SOL    HW130395   2.425   0.369  13.633 -0.4165 -0.9909 -1.2657
 6312SOL    HW230396   2.315   0.454  13.701 -1.4868  2.6678 -1.1044
 6313SOL     OW30397   3.157   1.381   0.195 -0.6325 -0.1682 -0.1033
 6313SOL    HW130398   3.102   1.327   0.251 -0.8140 -0.0614 -0.1791
 6313SOL    HW230399   3.217   1.319   0.152 -0.2000 -2.0458  3.2032
 6314SOL     OW30400   0.396   3.971  10.421 -0.5295 -0.0489  0.5157
 6314SOL    HW130401   0.402   3.903  10.488  0.0441  0.7863  1.3144
 6314SOL    HW230402   0.337   4.028  10.470 -2.4790 -1.6430  0.0376
 6315SOL     OW30403   4.196   3.645   3.917  0.0020  0.2851  0.4349
 6315SOL    HW130404   4.260   3.573   3.920 -1.0319 -0.6034  1.5142
 6315SOL    HW230405   4.155   3.639   3.831 -2.8660 -0.3779  1.8380
 6316SOL     OW30406   1.993   0.752   0.978 -0.1603 -0.2207 -0.2212
 6316SOL    HW130407   1.996   0.692   1.053 -0.6999  0.5975  0.4546
 6316SOL    HW230408   1.911   0.801   0.990  0.3786  0.3330  1.2082
 6317SOL     OW30409   2.148   0.362   4.054  0.1353  0.2878  0.0206
 6317SOL    HW130410   2.173   0.275   4.084  2.6709  0.7069 -0.8552
 6317SOL    HW230411   2.165   0.415   4.132  0.7478  2.7169 -1.7379
 6318SOL     OW30412   4.642   0.644   3.838  0.4132  0.2169 -0.1442
 6318SOL    HW130413   4.562   0.615   3.882 -0.6661  1.0567 -1.5221
 6318SOL    HW230414   4.705   0.633   3.909  1.2926 -0.2143 -0.9901
 6319SOL     OW30415   1.151   3.384  14.304 -0.0745  0.3152  0.5241
 6319SOL    HW130416   1.179   3.450  14.368 -1.1318  0.3785  0.9323
 6319SOL    HW230417   1.090   3.339  14.363 -0.8041  2.7891  1.6850
 6320SOL     OW30418   0.732   2.493   3.170 -0.7834  0.1792  0.1681
 6320SOL    HW130419   0.694   2.505   3.257  1.4772  0.7106  1.0737
 6320SOL    HW230420   0.698   2.410   3.138  1.0725  0.1202 -1.6268
 6321SOL     OW30421   0.220   0.159   3.783 -0.3943  0.0094  0.5522
 6321SOL    HW130422   0.292   0.098   3.800  0.6765  1.5662  1.5526
 6321SOL    HW230423   0.237   0.177   3.690  0.2241  0.9899  0.8644
 6322SOL     OW30424   0.419   4.092  10.055 -0.1558  0.3007 -0.1576
 6322SOL    HW130425   0.426   4.179  10.015  0.5371  0.0599 -0.5698
 6322SOL    HW230426   0.480   4.080  10.127  1.5169 -0.2676 -1.6612
 6323SOL     OW30427   2.043   3.555  16.865  0.4262  0.3201  0.4028
 6323SOL    HW130428   1.991   3.497  16.809  1.3643 -0.6259  0.5228
 6323SOL    HW230429   2.133   3.537  16.838  0.2503  1.0052 -0.6483
 6324SOL     OW30430   4.216   4.707   4.448  0.1870  0.1897 -0.3219
 6324SOL    HW130431   4.268   0.047   4.397 -1.2862  0.7353 -1.1681
 6324SOL    HW230432   4.236   4.624   4.405  0.5917 -1.2139  2.5750
 6325SOL     OW30433   3.988   2.724   6.745 -0.3762 -0.2534 -0.3127
 6325SOL    HW130434   3.932   2.692   6.675 -1.0535 -1.9714  1.0154
 6325SOL    HW230435   3.976   2.817   6.725  4.9470  0.6667  0.7460
 6326SOL     OW30436   0.844   3.078   4.159 -0.6026 -0.2469 -0.0832
 6326SOL    HW130437   0.936   3.051   4.161 -1.2313 -2.4115 -0.6257
 6326SOL    HW230438   0.798   2.995   4.154  0.0410 -0.5566 -0.9264
 6327SOL     OW30439   3.167   4.026   0.089 -0.3166  0.1657 -0.4921
 6327SOL    HW130440   3.100   3.965   0.057 -1.1111  0.9402 -0.2840
 6327SOL    HW230441   3.200   4.055   0.004 -0.9842  0.7280 -0.5559
 6328SOL     OW30442   3.159   0.209  12.366 -0.0562  0.1324  0.5139
 6328SOL    HW130443   3.252   0.201  12.386  0.0741  2.1978  0.7662
 6328SOL    HW230444   3.142   0.116  12.378 -0.2062  0.1461  0.4071
 6329SOL     OW30445   2.057   2.178   9.249 -0.1258  0.2322 -0.0906
 6329SOL    HW130446   2.084   2.159   9.160 -1.9663  3.3574 -1.3013
 6329SOL    HW230447   2.022   2.265   9.234 -2.0414 -0.4986  0.1816
 6330SOL     OW30448   4.551   3.036   9.102  0.3036 -0.3118 -0.1092
 6330SOL    HW130449   4.599   2.955   9.087 -2.2246 -1.9348  0.4454
 6330SOL    HW230450   4.617   3.093   9.141  1.7057 -1.9750 -0.0828
 6331SOL     OW30451   2.638   4.422   6.261  0.0212  0.3684 -0.6382
 6331SOL    HW130452   2.705   4.437   6.327 -0.7291  2.4190 -0.3759
 6331SOL    HW230453   2.627   4.514   6.239 -0.9654  0.3427 -0.2255
 6332SOL     OW30454   3.208   0.763   2.763 -0.7870 -0.1936  0.7022
 6332SOL    HW130455   3.162   0.696   2.814 -1.8107  0.3346  0.4678
 6332SOL    HW230456   3.290   0.716   2.747 -0.3202  1.1798 -0.7903
 6333SOL     OW30457   1.773   2.918   2.537 -0.3672 -0.2102  0.4629
 6333SOL    HW130458   1.751   2.991   2.479  1.5059  1.0428  1.3280
 6333SOL    HW230459   1.715   2.951   2.607 -0.9443  0.1476 -0.1879
 6334SOL     OW30460   2.712   2.402   1.622 -0.6723 -0.1134 -0.7394
 6334SOL    HW130461   2.805   2.419   1.639 -0.5945 -0.9290 -0.3306
 6334SOL    HW230462   2.716   2.440   1.535  0.7122  0.8416 -0.2645
 6335SOL     OW30463   1.407   0.784  11.313  0.3183  0.0730 -0.0167
 6335SOL    HW130464   1.482   0.816  11.261  1.1305  1.7638  2.1759
 6335SOL    HW230465   1.355   0.864  11.320 -0.1045 -0.1824 -0.3105
 6336SOL     OW30466   0.288   3.494   8.736 -0.5677  0.2572 -0.0350
 6336SOL    HW130467   0.199   3.518   8.758  0.5384  1.9025  2.5884
 6336SOL    HW230468   0.289   3.519   8.643  0.3340 -1.4252 -0.4805
 6337SOL     OW30469   3.713   3.881   4.892  0.0243 -0.1718 -0.2153
 6337SOL    HW130470   3.748   3.867   4.980  0.1748  0.7574 -0.1262
 6337SOL    HW230471   3.619   3.864   4.900 -0.3746  0.2995 -3.9123
 6338SOL     OW30472   0.652   1.801   5.338 -0.1399 -0.4196 -0.4068
 6338SOL    HW130473   0.705   1.858   5.283  0.2275  0.2792  0.6598
 6338SOL    HW230474   0.618   1.861   5.404  0.9409  1.6444 -1.7225
 6339SOL     OW30475   0.520   3.928   5.183 -0.2813 -0.2508  0.0002
 6339SOL    HW130476   0.487   4.004   5.230 -0.2118 -1.3412  1.8137
 6339SOL    HW230477   0.615   3.937   5.189 -0.3106  0.1887 -0.2323
 6340SOL     OW30478   2.716   2.011  15.946  0.2272 -0.3081 -0.4962
 6340SOL    HW130479   2.661   1.950  15.995  1.8726  0.1733  1.9069
 6340SOL    HW230480   2.666   2.038  15.868 -0.5272  1.5127  0.6344
 6341SOL     OW30481   4.403   2.540   5.808 -0.2890 -0.1951 -0.4763
 6341SOL    HW130482   4.359   2.455   5.802 -2.1099  0.7196 -0.1978
 6341SOL    HW230483   4.484   2.522   5.760  0.2577 -1.6349  0.9783
 6342SOL     OW30484   4.307   3.882  12.804 -0.1973 -0.5386  0.4430
 6342SOL    HW130485   4.245   3.832  12.751  1.1936 -1.5219 -0.2636
 6342SOL    HW230486   4.364   3.807  12.820 -1.9557 -1.1583  3.9165
 6343SOL     OW30487   1.197   2.675  11.127  0.0062 -0.0763  0.0422
 6343SOL    HW130488   1.214   2.634  11.212 -1.1566  0.7773  0.6952
 6343SOL    HW230489   1.150   2.614  11.070  0.5908  0.3821 -0.9306
 6344SOL     OW30490   0.105   1.062   8.024  0.0819  0.1399  0.3005
 6344SOL    HW130491   0.200   1.058   8.031  0.1991  1.0468 -0.7963
 6344SOL    HW230492   0.076   1.031   8.110  0.1572 -0.1272  0.2313
 6345SOL     OW30493   3.395   0.139   9.356  0.3194 -0.0927  0.4622
 6345SOL    HW130494   3.392   0.174   9.445  1.6749 -0.1537  0.5323
 6345SOL    HW230495   3.447   0.207   9.312  0.6830 -0.8413 -0.2773
 6346SOL     OW30496   2.167   1.951   6.967  0.1768  0.1557  0.4186
 6346SOL    HW130497   2.108   2.012   6.922 -1.0246 -1.2635  0.0753
 6346SOL    HW230498   2.119   1.874   6.937 -0.4014  0.6395  0.0825
 6347SOL     OW30499   0.705   3.777   4.145 -0.0259 -0.1363 -0.1738
 6347SOL    HW130500   0.674   3.807   4.059 -1.2141  3.0302  1.3599
 6347SOL    HW230501   0.625   3.741   4.182 -0.0674  0.7750  0.6094
 6348SOL     OW30502   2.029   0.854   0.059  0.0011  0.2893  0.1741
 6348SOL    HW130503   2.106   0.883   0.107 -1.2795  1.0763  1.7439
 6348SOL    HW230504   2.068   0.777   0.016  0.5573  0.5444  0.2324
 6349SOL     OW30505   4.025   4.327   6.533 -0.5436 -0.2885 -0.1349
 6349SOL    HW130506   3.975   4.405   6.509 -1.6050 -1.4715 -1.7482
 6349SOL    HW230507   4.060   4.308   6.446 -0.1242  3.8513 -0.8760
 6350SOL     OW30508   0.196   3.764   2.669  0.5819 -0.5419  0.4211
 6350SOL    HW130509   0.243   3.689   2.634  0.6104 -0.4025  0.1604
 6350SOL    HW230510   0.260   3.807   2.726 -0.5867  1.0553  0.5511
 6351SOL     OW30511   1.335   0.396   7.194 -0.4125  0.7988  0.1815
 6351SOL    HW130512   1.417   0.355   7.165 -1.1607  0.6726 -1.7429
 6351SOL    HW230513   1.379   0.463   7.247 -0.2380 -0.2559  1.3684
 6352SOL     OW30514   1.072   0.105  14.940  0.0224  0.0581  0.3917
 6352SOL    HW130515   1.153   0.078  14.981  0.0460 -0.1793  0.1859
 6352SOL    HW230516   1.097   0.129  14.851 -2.0673 -0.0272 -0.2327
 6353SOL     OW30517   4.390   2.255   4.117 -0.2928  0.2429  0.2715
 6353SOL    HW130518   4.430   2.169   4.127  0.8764  0.7839  0.3821
 6353SOL    HW230519   4.330   2.253   4.191 -0.1823  0.6436  0.3749
 6354SOL     OW30520   4.386   2.440   0.970 -0.0811  0.3018  0.3706
 6354SOL    HW130521   4.351   2.413   0.885 -0.8912 -0.6237  1.0004
 6354SOL    HW230522   4.419   2.526   0.945  0.9642  0.3813  2.0181
 6355SOL     OW30523   1.908   2.612   6.590 -0.2936  0.3570 -0.0730
 6355SOL    HW130524   1.944   2.690   6.548 -2.4197  0.0497 -2.4782
 6355SOL    HW230525   1.886   2.649   6.676 -0.0798 -0.1273  0.1893
 6356SOL     OW30526   1.307   1.089  16.760  0.4201 -0.1215 -0.2539
 6356SOL    HW130527   1.273   1.037  16.834 -0.7201  0.7475 -0.1581
 6356SOL    HW230528   1.400   1.081  16.778  0.6739  1.7675 -0.7297
 6357SOL     OW30529   3.355   3.000   2.106  0.0381  0.2934  0.2976
 6357SOL    HW130530   3.271   3.026   2.144 -1.0456 -2.2276 -0.3828
 6357SOL    HW230531   3.405   3.046   2.173 -1.0061 -0.5215  1.6543
 6358SOL     OW30532   4.313   2.437  11.100 -0.2616 -0.2636 -0.5976
 6358SOL    HW130533   4.299   2.520  11.055 -1.2389 -0.5730 -0.8652
 6358SOL    HW230534   4.403   2.442  11.133  0.0773  2.5986 -1.9387
 6359SOL     OW30535   1.034   0.356   8.192  0.7805  0.1570  0.3440
 6359SOL    HW130536   0.990   0.412   8.128  2.7143  0.9027 -0.3451
 6359SOL    HW230537   1.061   0.422   8.256 -0.0088  0.5979  0.2208
 6360SOL     OW30538   0.142   0.463   5.090 -0.2257  0.4771 -0.4166
 6360SOL    HW130539   0.144   0.509   5.174  0.4531  3.1230 -1.8990
 6360SOL    HW230540   0.050   0.434   5.093  0.1603 -0.8434 -1.3522
 6361SOL     OW30541   0.901   0.620   2.670 -0.1519 -0.0345  0.6525
 6361SOL    HW130542   0.895   0.564   2.593 -0.1728  1.6575 -0.5691
 6361SOL    HW230543   0.911   0.555   2.739  1.0627  0.4432  0.9293
 6362SOL     OW30544   0.936   0.222   6.737  0.0414  0.2336 -1.0638
 6362SOL    HW130545   1.025   0.194   6.713  0.9386  2.9789 -0.9650
 6362SOL    HW230546   0.917   0.277   6.661  1.0808  0.2580 -1.3055
 6363SOL     OW30547   3.813   3.657   5.886 -0.2372  0.2857  0.1822
 6363SOL    HW130548   3.732   3.631   5.843  1.0552  1.6149 -3.1184
 6363SOL    HW230549   3.856   3.705   5.815  0.4904  0.7222  0.9147
 6364SOL     OW30550   2.145   2.181   2.358 -0.0828  0.9158 -0.2511
 6364SOL    HW130551   2.051   2.170   2.371  0.5194 -1.0721  2.4079
 6364SOL    HW230552   2.157   2.093   2.323  0.1704  0.1493  1.7667
 6365SOL     OW30553   1.836   3.779  14.622 -0.1727  0.1870 -0.4525
 6365SOL    HW130554   1.870   3.792  14.711  3.4734  1.2105 -1.9589
 6365SOL    HW230555   1.918   3.803  14.578 -0.2371  0.3120 -0.5030
 6366SOL     OW30556   2.753   3.816   5.898 -0.5540 -0.0217 -0.6164
 6366SOL    HW130557   2.797   3.869   5.832 -2.0926 -0.3750 -1.9121
 6366SOL    HW230558   2.744   3.876   5.972  1.7988  0.8762 -1.0566
 6367SOL     OW30559   2.694   4.391  15.825  0.5535  0.0097 -0.1722
 6367SOL    HW130560   2.697   4.325  15.756  1.4528 -0.0204 -0.1127
 6367SOL    HW230561   2.733   4.352  15.904  1.3625  2.0160  0.4221
 6368SOL     OW30562   1.030   1.381   8.190  0.4115  0.7923 -0.0932
 6368SOL    HW130563   1.037   1.290   8.221 -0.9061  0.1488 -1.6920
 6368SOL    HW230564   1.106   1.381   8.133  0.2315  2.1386 -0.3305
 6369SOL     OW30565   0.674   3.401   2.321 -0.0723  0.3727 -0.2272
 6369SOL    HW130566   0.696   3.479   2.270  1.8900 -1.3606 -2.0184
 6369SOL    HW230567   0.723   3.331   2.279  2.8843  1.6454  1.1377
 6370SOL     OW30568   1.904   1.836   4.541 -0.5900  0.0733 -0.1743
 6370SOL    HW130569   1.832   1.881   4.497 -0.1554  1.1953  0.2617
 6370SOL    HW230570   1.957   1.820   4.464  1.2611  0.0167  1.1170
 6371SOL     OW30571   4.139   2.324  10.412 -0.1106 -0.0408 -0.2110
 6371SOL    HW130572   4.179   2.245  10.374  0.9352  0.3523  0.0729
 6371SOL    HW230573   4.192   2.382  10.358 -2.2032  0.5594 -1.5806
 6372SOL     OW30574   0.760   3.881  12.029 -0.2919 -0.1275 -0.3620
 6372SOL    HW130575   0.684   3.891  12.086  1.0045 -1.7485  1.6404
 6372SOL    HW230576   0.820   3.837  12.089 -0.5657  1.8330  1.3389
 6373SOL     OW30577   0.929   3.497   1.966 -0.3082 -0.0498  0.3622
 6373SOL    HW130578   0.961   3.570   1.912  3.0785 -2.2832 -0.6054
 6373SOL    HW230579   1.006   3.441   1.964  0.4971  1.0863 -0.7064
 6374SOL     OW30580   3.361   3.796  14.632  0.7564 -0.2594  0.6952
 6374SOL    HW130581   3.333   3.761  14.716  3.3493 -1.0734  1.2328
 6374SOL    HW230582   3.415   3.875  14.643  0.8614 -0.3270  0.6590
 6375SOL     OW30583   2.961   3.724  14.595 -0.0241 -0.7204  0.1076
 6375SOL    HW130584   2.883   3.687  14.638 -0.8552  1.3489  0.3649
 6375SOL    HW230585   3.019   3.653  14.623  0.1957 -1.0935 -1.3114
 6376SOL     OW30586   2.120   2.147   3.803 -0.0825  0.1412  0.1573
 6376SOL    HW130587   2.180   2.179   3.870 -0.2736 -1.7711  1.2543
 6376SOL    HW230588   2.037   2.161   3.849 -0.6691  2.6410 -1.6742
 6377SOL     OW30589   0.914   2.763   6.634 -0.4047 -0.1399  0.5215
 6377SOL    HW130590   0.977   2.827   6.669 -0.5910  0.8959 -1.0244
 6377SOL    HW230591   0.893   2.723   6.719  2.0128 -2.0959  0.2337
 6378SOL     OW30592   2.824   1.075   7.864 -0.2084  0.0701 -0.5658
 6378SOL    HW130593   2.849   0.998   7.814 -0.6038 -0.9363  0.7945
 6378SOL    HW230594   2.792   1.035   7.945  0.2619 -0.5634 -0.6993
 6379SOL     OW30595   0.846   1.324   8.534 -0.1461  0.1370  0.2440
 6379SOL    HW130596   0.837   1.415   8.562 -0.2747  0.5352 -1.0784
 6379SOL    HW230597   0.795   1.324   8.453 -1.5203  1.8988  1.1098
 6380SOL     OW30598   1.439   1.317  13.941  0.6224 -0.4461 -0.0377
 6380SOL    HW130599   1.500   1.388  13.962 -0.7893  0.6820  0.3377
 6380SOL    HW230600   1.357   1.362  13.963  1.6995  0.9654  1.0865
 6381SOL     OW30601   4.107   3.827   1.299  0.1528  0.2432  0.1376
 6381SOL    HW130602   4.068   3.904   1.257  0.0730 -0.0925 -0.3901
 6381SOL    HW230603   4.146   3.786   1.223  1.1396  0.1543  0.6956
 6382SOL     OW30604   3.266   1.468   3.210 -0.2127  0.3801 -0.2564
 6382SOL    HW130605   3.225   1.383   3.222 -2.4410  1.5698  0.5391
 6382SOL    HW230606   3.190   1.526   3.212 -1.2336 -0.9305 -0.8138
 6383SOL     OW30607   4.593   1.889   5.039  0.2460  0.0964  0.0668
 6383SOL    HW130608   4.590   1.796   5.018 -0.0299  0.2564 -0.6176
 6383SOL    HW230609   4.681   1.903   5.075 -0.6477 -1.6307  2.9361
 6384SOL     OW30610   0.683   3.551  17.515  0.2312 -0.1322 -0.7308
 6384SOL    HW130611   0.645   3.521  17.598 -0.0679  2.9568  0.2616
 6384SOL    HW230612   0.777   3.550  17.533  0.1610 -1.1235 -0.4107
 6385SOL     OW30613   4.373   0.388  17.298 -0.2900  0.3959  0.9045
 6385SOL    HW130614   4.282   0.359  17.306 -0.6793  1.6695  1.0872
 6385SOL    HW230615   4.419   0.315  17.340 -1.8834 -1.0910  0.1048
 6386SOL     OW30616   1.073   0.577   1.323 -0.4671  0.2344 -0.0964
 6386SOL    HW130617   1.016   0.501   1.336 -0.9278  0.5369 -0.3476
 6386SOL    HW230618   1.140   0.550   1.260  0.4229 -1.0405  1.3806
 6387SOL     OW30619   3.711   2.349  12.019 -0.7517 -0.3322  0.0514
 6387SOL    HW130620   3.713   2.289  11.945 -0.0058  0.5359 -0.6183
 6387SOL    HW230621   3.714   2.293  12.097  0.3141 -0.3890 -0.0380
 6388SOL     OW30622   1.257   2.904   9.331  0.1363  0.1476 -0.3065
 6388SOL    HW130623   1.216   2.912   9.245 -0.5598  2.7898  0.2495
 6388SOL    HW230624   1.213   2.821   9.349  0.8016 -0.5211 -1.7898
 6389SOL     OW30625   0.292   1.722  15.675  0.1188  0.3403 -0.2965
 6389SOL    HW130626   0.201   1.750  15.680 -0.2722 -1.1474  1.1318
 6389SOL    HW230627   0.302   1.706  15.581 -3.0950  0.2009 -0.6246
 6390SOL     OW30628   1.321   3.330   1.678  0.0622 -0.1577 -0.8342
 6390SOL    HW130629   1.389   3.355   1.617  0.4758 -0.7667 -0.6234
 6390SOL    HW230630   1.259   3.314   1.607  0.1388  0.5117 -1.0462
 6391SOL     OW30631   3.109   2.961   5.987  0.7715  0.7914  0.0727
 6391SOL    HW130632   3.202   2.952   6.006  0.8829  0.2236 -0.7256
 6391SOL    HW230633   3.107   2.926   5.898 -2.6008  0.8599  0.0937
 6392SOL     OW30634   2.779   2.825   0.409  0.1158 -0.2959 -0.5738
 6392SOL    HW130635   2.787   2.801   0.317  1.6172 -0.6316 -0.3621
 6392SOL    HW230636   2.857   2.878   0.427  0.6645 -1.1752 -0.4071
 6393SOL     OW30637   2.431   1.404   0.781 -0.5622  0.1786 -0.2248
 6393SOL    HW130638   2.407   1.424   0.691 -1.4550  0.7175  0.1270
 6393SOL    HW230639   2.518   1.367   0.768 -1.6626 -1.1596 -3.7103
 6394SOL     OW30640   4.032   4.108   3.904  0.0880 -0.1058  0.3923
 6394SOL    HW130641   3.970   4.124   3.834  2.2109  2.2427 -0.9237
 6394SOL    HW230642   3.965   4.084   3.969  0.2429  1.3978  1.0941
 6395SOL     OW30643   4.642   0.224   4.249  0.4068 -0.6585 -0.0823
 6395SOL    HW130644   4.662   0.153   4.310  1.4094  0.3976  0.8173
 6395SOL    HW230645   4.675   0.205   4.162 -3.1782  3.0629 -2.2555
 6396SOL     OW30646   3.840   0.959   5.657 -0.4070  0.1760  0.2080
 6396SOL    HW130647   3.856   1.049   5.627 -4.5459  0.8848  0.1031
 6396SOL    HW230648   3.799   0.922   5.578 -0.9432  1.7880 -0.2690
 6397SOL     OW30649   0.170   3.068  10.290  0.1293  0.0806 -0.0829
 6397SOL    HW130650   0.253   3.022  10.303  0.5149  0.9834  0.5890
 6397SOL    HW230651   0.115   3.041  10.363 -0.7148  0.0515 -0.7305
 6398SOL     OW30652   4.282   2.638   7.316  0.7306  0.1612  0.1497
 6398SOL    HW130653   4.318   2.557   7.281 -1.9194 -0.3960 -1.2425
 6398SOL    HW230654   4.365   2.685   7.332  2.1661 -1.7806 -1.5477
 6399SOL     OW30655   1.457   0.571   7.361 -0.7935  0.6110  0.2511
 6399SOL    HW130656   1.470   0.535   7.449  0.2250  2.3532  0.8112
 6399SOL    HW230657   1.429   0.660   7.378  0.9984  1.3359 -0.5567
 6400SOL     OW30658   2.646   0.249   2.161 -0.5844  0.1718  0.2458
 6400SOL    HW130659   2.588   0.227   2.088 -1.1209 -0.8766  0.9885
 6400SOL    HW230660   2.640   0.167   2.211  0.8934  0.3751  0.7594
 6401SOL     OW30661   4.028   0.442   9.538 -0.3965 -0.5722 -0.2092
 6401SOL    HW130662   4.098   0.506   9.523 -0.8455  0.0181  0.2536
 6401SOL    HW230663   3.956   0.503   9.551  2.0314  2.1106  0.6434
 6402SOL     OW30664   1.833   2.596   3.165  0.4623 -0.0374 -0.3815
 6402SOL    HW130665   1.912   2.613   3.216  1.0626 -2.5089 -0.5108
 6402SOL    HW230666   1.839   2.501   3.158 -1.6749 -0.1338 -0.9286
 6403SOL     OW30667   0.462   3.843   4.493  0.3667 -0.3347  0.3221
 6403SOL    HW130668   0.435   3.814   4.581 -0.3750  0.8676  0.4866
 6403SOL    HW230669   0.404   3.919   4.486  1.0776  0.0805 -1.0270
 6404SOL     OW30670   3.420   1.302   4.707 -0.2326  0.7210 -0.4268
 6404SOL    HW130671   3.398   1.317   4.799 -0.6004  1.9563 -0.7089
 6404SOL    HW230672   3.330   1.296   4.676  0.1072  1.0791 -1.4719
 6405SOL     OW30673   2.333   1.934  10.117  0.4309  0.2485  0.2186
 6405SOL    HW130674   2.370   1.890  10.193 -0.7899  0.8644  1.1665
 6405SOL    HW230675   2.386   2.014  10.110 -1.9097  1.6696 -1.2816
 6406SOL     OW30676   1.456   3.510   8.179  0.5584  0.3309 -0.3385
 6406SOL    HW130677   1.379   3.520   8.123  0.4664 -3.4724 -0.8709
 6406SOL    HW230678   1.479   3.420   8.157  1.8881  0.6408 -0.2418
 6407SOL     OW30679   1.687   1.828  16.631  0.1019  0.0037 -0.3440
 6407SOL    HW130680   1.769   1.804  16.589 -0.7938 -1.7768 -1.0809
 6407SOL    HW230681   1.718   1.899  16.687  0.6736 -0.6621  0.1714
 6408SOL     OW30682   1.284   2.396  14.588 -0.5627 -0.6404  0.3086
 6408SOL    HW130683   1.255   2.382  14.498 -2.0117  1.8766  0.3784
 6408SOL    HW230684   1.270   2.312  14.631  3.3924 -1.8320 -0.6877
 6409SOL     OW30685   2.181   1.324  11.509  0.1793 -0.1367 -0.1229
 6409SOL    HW130686   2.235   1.331  11.588 -1.9054 -0.5731  1.3443
 6409SOL    HW230687   2.102   1.292  11.552 -0.7311 -0.7288 -2.2655
 6410SOL     OW30688   2.475   3.249   4.770  0.1761  0.6607  0.3479
 6410SOL    HW130689   2.435   3.262   4.684  0.4674  0.7521  0.2270
 6410SOL    HW230690   2.397   3.270   4.822  0.2633 -0.2641  0.8488
 6411SOL     OW30691   2.474   1.111   5.947  0.0991 -0.0553  0.3561
 6411SOL    HW130692   2.434   1.034   5.986 -1.3954 -1.2527 -3.5293
 6411SOL    HW230693   2.524   1.066   5.879 -0.6625 -1.0116  0.4297
 6412SOL     OW30694   2.792   0.313   1.484 -0.1022 -0.5209 -0.1963
 6412SOL    HW130695   2.819   0.225   1.459 -0.9035 -1.1604  1.1790
 6412SOL    HW230696   2.864   0.330   1.545  0.3530 -0.5487 -0.7314
 6413SOL     OW30697   1.376   3.798  11.025  0.1481  0.2764 -0.8973
 6413SOL    HW130698   1.384   3.808  11.120  1.3261 -0.8373 -0.8872
 6413SOL    HW230699   1.298   3.742  11.028 -1.3667  2.3787 -0.8896
 6414SOL     OW30700   4.464   2.950   3.981  0.1134 -0.2699  0.0466
 6414SOL    HW130701   4.430   2.929   4.068  1.1272  2.3240  1.0749
 6414SOL    HW230702   4.403   2.891   3.936 -0.7470  0.2648  0.5081
 6415SOL     OW30703   4.693   0.097   9.367 -0.5082  0.0109  0.7229
 6415SOL    HW130704   0.021   0.048   9.433  1.5641  1.7867  0.4687
 6415SOL    HW230705   4.712   0.185   9.398  0.1654  0.6685 -1.5068
 6416SOL     OW30706   1.953   3.467   5.835  0.3366 -0.0718 -0.3715
 6416SOL    HW130707   1.989   3.554   5.817  1.3824 -0.6135 -0.9275
 6416SOL    HW230708   1.982   3.413   5.762 -0.9999 -1.4271  0.1068
 6417SOL     OW30709   4.562   0.008  11.383  0.0960 -0.1238  0.4944
 6417SOL    HW130710   4.576   4.668  11.455 -0.3563 -0.0172  0.6757
 6417SOL    HW230711   4.558   4.672  11.307  0.0285 -0.3947  0.7021
 6418SOL     OW30712   1.770   3.493   8.713  0.0631  0.5310 -0.0691
 6418SOL    HW130713   1.705   3.430   8.743 -1.0551  0.5136 -2.5632
 6418SOL    HW230714   1.795   3.469   8.624 -1.6316  0.6514 -0.5764
 6419SOL     OW30715   3.092   4.171   0.284  0.5414  0.2043 -0.2069
 6419SOL    HW130716   3.172   4.223   0.284  0.9352 -0.3905 -0.4260
 6419SOL    HW230717   3.119   4.103   0.221 -0.0374 -1.4807  1.3525
 6420SOL     OW30718   0.185   1.338   1.755  0.0430 -0.3287 -0.1424
 6420SOL    HW130719   0.189   1.386   1.672  0.4558  0.6776  0.4629
 6420SOL    HW230720   0.168   1.406   1.820 -3.2485 -1.4638  0.1933
 6421SOL     OW30721   1.947   3.986   7.978  0.0386 -0.2015 -0.4441
 6421SOL    HW130722   2.031   4.024   8.002 -0.6455  0.8618  0.2282
 6421SOL    HW230723   1.887   4.051   8.014 -0.8210 -0.2623 -1.7476
 6422SOL     OW30724   0.916   4.218   5.843  0.0855 -0.2062  0.6981
 6422SOL    HW130725   0.833   4.262   5.856  0.5658  0.8630  0.1282
 6422SOL    HW230726   0.962   4.231   5.926  0.0792 -0.8610  0.8099
 6423SOL     OW30727   3.936   2.309   5.375 -0.6738 -0.1198  0.0303
 6423SOL    HW130728   3.841   2.297   5.380 -0.7683  1.3968  1.5834
 6423SOL    HW230729   3.956   2.217   5.356 -0.9274 -0.3006  0.6448
 6424SOL     OW30730   0.084   2.260  11.781  0.4076  0.3291  0.2355
 6424SOL    HW130731   0.141   2.234  11.853  1.5400  1.7155 -0.1571
 6424SOL    HW230732   0.001   2.278  11.826  0.3830  0.8095  0.0026
 6425SOL     OW30733   0.997   4.455   5.381 -0.2452  0.0604  0.0421
 6425SOL    HW130734   0.904   4.468   5.397 -0.2637 -0.4370  0.3459
 6425SOL    HW230735   1.029   4.545   5.392 -2.6653  1.1045 -1.6440
 6426SOL     OW30736   0.712   4.483   1.609  0.0133 -0.0874  0.4523
 6426SOL    HW130737   0.642   4.515   1.552 -0.3526 -1.5946  0.0667
 6426SOL    HW230738   0.750   4.564   1.643 -0.6472 -0.0165  1.0138
 6427SOL     OW30739   2.182   0.928   8.848  0.4964  0.2209 -0.3110
 6427SOL    HW130740   2.202   0.961   8.760 -0.1903  0.0532 -0.5294
 6427SOL    HW230741   2.170   1.009   8.898 -1.1533 -0.0237 -0.2966
 6428SOL     OW30742   0.369   0.599  15.191  0.5962  0.3398 -0.2104
 6428SOL    HW130743   0.387   0.560  15.105  1.5762  1.2732 -0.4432
 6428SOL    HW230744   0.455   0.588  15.232  0.3813  1.7153  0.6280
 6429SOL     OW30745   2.211   4.655  15.214  0.2945 -0.0578 -0.1164
 6429SOL    HW130746   2.121   4.645  15.244 -0.3455 -0.2970 -2.0956
 6429SOL    HW230747   2.201   4.635  15.121  0.4253  0.9256 -0.3450
 6430SOL     OW30748   1.600   0.081   6.320  0.8585 -0.4099 -0.2641
 6430SOL    HW130749   1.595   0.043   6.232  0.2449 -0.1638 -0.3358
 6430SOL    HW230750   1.551   0.161   6.301  1.0008 -0.2408  0.0774
 6431SOL     OW30751   2.180   0.825  10.033 -0.0634  1.1637 -0.8651
 6431SOL    HW130752   2.176   0.896   9.970 -2.3452  1.0233 -0.8545
 6431SOL    HW230753   2.259   0.844  10.085  0.5082  0.3266 -1.4345
 6432SOL     OW30754   4.414   2.066   7.285 -0.6035  0.5024  0.6541
 6432SOL    HW130755   4.509   2.062   7.298 -0.4126  0.4385 -0.8116
 6432SOL    HW230756   4.388   2.071   7.377 -0.1202 -1.2258  0.8831
 6433SOL     OW30757   1.478   0.107  12.345  0.0979  0.2316  0.0703
 6433SOL    HW130758   1.476   0.123  12.251  2.4393  1.8224  0.2861
 6433SOL    HW230759   1.502   0.015  12.349  0.5189  0.3880  1.0053
 6434SOL     OW30760   1.853   1.686   1.994  0.0889  0.0103  0.5059
 6434SOL    HW130761   1.926   1.746   2.005 -1.7910  2.5872 -0.9338
 6434SOL    HW230762   1.816   1.708   1.908 -1.7145 -0.9504  1.0331
 6435SOL     OW30763   1.908   1.615   0.042 -0.2373 -0.4190 -0.2106
 6435SOL    HW130764   1.827   1.666   0.052 -1.2646 -1.7637 -1.6287
 6435SOL    HW230765   1.957   1.649   0.117  0.5440 -3.0661  0.4631
 6436SOL     OW30766   2.195   4.465  14.276  0.1454 -0.0706  0.0316
 6436SOL    HW130767   2.235   4.549  14.256  0.9253 -0.9793 -2.2374
 6436SOL    HW230768   2.118   4.482  14.223 -0.5250  0.1506  1.0689
 6437SOL     OW30769   2.022   3.649   5.009  0.1117 -0.0090  0.0604
 6437SOL    HW130770   1.993   3.559   4.995  1.8395 -0.5572 -0.0056
 6437SOL    HW230771   2.056   3.650   5.098 -1.8951 -0.6297  0.8187
 6438SOL     OW30772   1.872   2.165   4.227 -0.7175  0.1904  0.0498
 6438SOL    HW130773   1.819   2.111   4.168  0.6326 -1.2717  0.2068
 6438SOL    HW230774   1.834   2.143   4.312 -0.7980 -1.6508 -0.4747
 6439SOL     OW30775   0.835   3.721   7.855 -0.0825 -0.0071  0.1546
 6439SOL    HW130776   0.843   3.690   7.945  0.4189  0.4971  0.2868
 6439SOL    HW230777   0.758   3.679   7.818 -1.3097  1.6054  0.8769
 6440SOL     OW30778   2.763   0.163   5.790  0.2132  0.3594  0.3378
 6440SOL    HW130779   2.837   0.224   5.791  0.8436 -0.4011  0.2136
 6440SOL    HW230780   2.690   0.223   5.773  0.5724  0.7127  0.0356
 6441SOL     OW30781   0.723   3.786   4.553 -0.5388 -0.1355 -0.3762
 6441SOL    HW130782   0.721   3.807   4.646  0.9267 -2.3632  0.1297
 6441SOL    HW230783   0.642   3.827   4.521  0.1133  1.7538  0.3676
 6442SOL     OW30784   0.792   0.204  17.063 -0.4100 -0.0847 -0.5528
 6442SOL    HW130785   0.880   0.235  17.084 -0.6854  1.3055 -1.4172
 6442SOL    HW230786   0.750   0.278  17.018  0.6491  0.1664 -1.1275
 6443SOL     OW30787   4.063   2.044   2.636 -0.0467  0.1754  0.4021
 6443SOL    HW130788   4.140   2.057   2.582 -0.8194  2.4678 -0.1526
 6443SOL    HW230789   3.994   2.096   2.595 -0.0991  0.4713  0.8643
 6444SOL     OW30790   4.247   0.596   5.425  0.0770 -0.2321 -0.2086
 6444SOL    HW130791   4.240   0.624   5.516 -1.4261  0.7318 -0.6243
 6444SOL    HW230792   4.186   0.660   5.387 -1.9766 -1.7487  0.5634
 6445SOL     OW30793   2.639   3.563   7.171  0.6288  0.2712 -0.3735
 6445SOL    HW130794   2.710   3.501   7.186 -1.1897 -1.1787  2.0932
 6445SOL    HW230795   2.682   3.640   7.134  1.4236 -0.4268 -0.9082
 6446SOL     OW30796   4.633   3.304  15.907  0.1857  0.5043  0.0794
 6446SOL    HW130797   4.590   3.240  15.850  0.6027 -0.1565  0.5028
 6446SOL    HW230798   4.710   3.328  15.856  0.0836  0.1963 -0.2235
 6447SOL     OW30799   0.180   0.813  13.537  0.4660 -0.1678 -0.0104
 6447SOL    HW130800   0.220   0.851  13.615 -0.7503 -0.6778  0.8646
 6447SOL    HW230801   0.219   0.864  13.466  0.9659 -0.6895 -0.1070
 6448SOL     OW30802   0.778   0.308   6.268 -0.2041  0.0797 -0.3080
 6448SOL    HW130803   0.716   0.265   6.327 -1.3999 -0.3026 -1.8432
 6448SOL    HW230804   0.789   0.245   6.196  1.9612  1.4659 -1.1825
 6449SOL     OW30805   2.405   2.094  10.945 -1.0723  0.0766  0.8065
 6449SOL    HW130806   2.311   2.096  10.931 -0.5339 -0.7862 -2.8399
 6449SOL    HW230807   2.413   2.029  11.015 -1.6102 -0.4729  0.3502
 6450SOL     OW30808   2.054   1.808   8.190  0.3389 -0.1487 -0.4632
 6450SOL    HW130809   2.006   1.886   8.161  1.0806  1.1033  1.6978
 6450SOL    HW230810   2.077   1.835   8.278  1.1264 -1.6211 -0.2235
 6451SOL     OW30811   4.478   3.382  16.557  0.3703 -0.2327 -0.6531
 6451SOL    HW130812   4.407   3.439  16.528  0.4973  0.2949  0.0741
 6451SOL    HW230813   4.549   3.418  16.505  1.1384  0.6771  1.0167
 6452SOL     OW30814   2.438   4.391   1.207 -0.1449  0.1129  0.1806
 6452SOL    HW130815   2.530   4.368   1.190 -0.7018 -0.7190 -1.6797
 6452SOL    HW230816   2.399   4.402   1.121  0.6104 -0.6263 -0.2552
 6453SOL     OW30817   4.392   3.185  12.929  0.2360 -0.0485 -0.0750
 6453SOL    HW130818   4.475   3.233  12.927 -0.4430  1.1137 -0.2085
 6453SOL    HW230819   4.390   3.153  12.839 -0.0262  3.5823 -1.3356
 6454SOL     OW30820   2.953   3.289   3.744 -0.1027 -0.2362 -0.3742
 6454SOL    HW130821   2.901   3.284   3.824  3.0156  1.8627  1.8096
 6454SOL    HW230822   3.033   3.325   3.783  0.4131 -2.1225  0.3177
 6455SOL     OW30823   0.984   4.303   7.118 -0.4286  0.5217  0.1796
 6455SOL    HW130824   0.951   4.234   7.176  3.1011  0.2825  1.9678
 6455SOL    HW230825   0.997   4.364   7.190  0.5284 -0.2370  0.6661
 6456SOL     OW30826   3.060   2.647   4.705 -0.5447  0.2619 -0.0032
 6456SOL    HW130827   2.969   2.626   4.726  0.3155 -2.5558  0.8803
 6456SOL    HW230828   3.049   2.694   4.622 -1.4834 -1.0560 -0.6325
 6457SOL     OW30829   4.666   3.756   5.790  0.2157  0.1226 -0.1798
 6457SOL    HW130830   4.688   3.681   5.846  1.3185  0.4376 -0.1900
 6457SOL    HW230831   0.021   3.761   5.734  0.3083 -0.1661 -0.0770
 6458SOL     OW30832   0.055   0.395   4.758 -0.8967 -0.0442  0.1229
 6458SOL    HW130833   0.037   0.428   4.670  0.2647  0.6737  0.1509
 6458SOL    HW230834   4.693   0.355   4.781 -1.2743 -0.1555 -1.4494
 6459SOL     OW30835   0.366   3.106   2.118  0.1606 -0.1350 -0.0195
 6459SOL    HW130836   0.427   3.074   2.051 -0.4877  1.3353 -1.2977
 6459SOL    HW230837   0.298   3.039   2.115 -1.0846  1.2180 -2.2364
 6460SOL     OW30838   3.596   1.842   7.719 -0.0625 -0.1608  0.4269
 6460SOL    HW130839   3.509   1.864   7.684 -0.3804 -0.0344  1.3119
 6460SOL    HW230840   3.569   1.834   7.810 -1.5681 -1.1001 -0.1125
 6461SOL     OW30841   2.420   3.810   5.866 -0.0658 -0.2709  0.1524
 6461SOL    HW130842   2.513   3.830   5.869  0.0471 -0.4342 -2.1664
 6461SOL    HW230843   2.396   3.828   5.957  0.7798  1.5167  0.0170
 6462SOL     OW30844   1.957   0.042   1.593 -0.7485  0.0390  0.6583
 6462SOL    HW130845   1.959   0.121   1.646 -1.3004  0.3797  0.1658
 6462SOL    HW230846   1.961   4.696   1.660 -0.1855  0.5079  1.0950
 6463SOL     OW30847   1.978   0.331   1.428 -0.2486  0.0826  0.2171
 6463SOL    HW130848   1.924   0.270   1.377 -1.0142  1.0967 -0.1744
 6463SOL    HW230849   2.058   0.279   1.432 -0.1403  0.1301 -1.1541
 6464SOL     OW30850   3.338   1.331   4.316 -0.8298 -0.2494  0.1410
 6464SOL    HW130851   3.430   1.304   4.314 -0.8578 -0.4763  2.0406
 6464SOL    HW230852   3.320   1.321   4.222 -0.9871  1.1229  0.0337
 6465SOL     OW30853   3.508   2.646  15.032 -0.2193  0.5894  0.1413
 6465SOL    HW130854   3.515   2.550  15.027 -2.6807  0.3891  0.4756
 6465SOL    HW230855   3.563   2.668  14.957 -0.7804  3.0324  0.4638
 6466SOL     OW30856   1.706   4.562   5.843  0.1370  0.2867  0.2112
 6466SOL    HW130857   1.729   4.485   5.791  0.7495  1.6253 -1.4776
 6466SOL    HW230858   1.741   4.536   5.929  0.5860 -2.8867 -0.9207
 6467SOL     OW30859   2.899   2.803  16.499 -0.1449 -0.0521 -0.1514
 6467SOL    HW130860   2.894   2.778  16.592 -1.4251 -2.4233 -0.8640
 6467SOL    HW230861   2.993   2.816  16.485 -0.0425 -2.8714 -2.1018
 6468SOL     OW30862   4.213   2.789   8.490  0.4272  0.1763 -0.0316
 6468SOL    HW130863   4.173   2.708   8.458 -1.6362  1.8257 -1.6018
 6468SOL    HW230864   4.163   2.833   8.422 -0.9778  0.3641  1.1238
 6469SOL     OW30865   0.441   0.813   7.756 -0.3019  0.1869 -0.2695
 6469SOL    HW130866   0.382   0.759   7.808  0.5511  1.3360  1.8927
 6469SOL    HW230867   0.524   0.766   7.769 -0.4959 -0.1862 -0.3761
 6470SOL     OW30868   0.368   0.578   7.554  0.5013  0.1288 -0.2965
 6470SOL    HW130869   0.333   0.500   7.597  1.9022  0.5223  1.5553
 6470SOL    HW230870   0.371   0.635   7.631 -0.7521 -0.0224 -0.1387
 6471SOL     OW30871   3.965   2.827   1.761  0.0437  0.1139 -0.2619
 6471SOL    HW130872   3.970   2.746   1.711 -0.7071 -0.1468  0.0887
 6471SOL    HW230873   4.051   2.828   1.803  1.2000 -0.3118 -2.6142
 6472SOL     OW30874   1.217   1.281   9.281 -0.1357  0.4643  0.2747
 6472SOL    HW130875   1.293   1.294   9.223  0.5346 -0.2468  0.9938
 6472SOL    HW230876   1.149   1.343   9.255 -0.1813 -0.2945 -1.4505
 6473SOL     OW30877   3.145   2.868  13.293 -0.2560 -0.1008 -0.1643
 6473SOL    HW130878   3.147   2.776  13.320  0.2273  0.0810  0.4127
 6473SOL    HW230879   3.198   2.902  13.365 -0.0507  1.1713 -0.9080
 6474SOL     OW30880   2.670   1.809   0.159  0.0435  0.3799  0.6544
 6474SOL    HW130881   2.751   1.766   0.133 -0.0031  2.3530 -2.7223
 6474SOL    HW230882   2.700   1.872   0.225  2.3536  0.1329 -0.1796
 6475SOL     OW30883   2.479   0.723   2.541 -0.6536  0.4095 -0.0638
 6475SOL    HW130884   2.500   0.629   2.536 -0.3943  0.3963  1.3145
 6475SOL    HW230885   2.561   0.762   2.511  1.0830 -1.7458  1.8392
 6476SOL     OW30886   2.968   0.241   8.124 -0.3565 -0.2061 -0.0028
 6476SOL    HW130887   2.881   0.209   8.149 -1.0582  0.0668 -2.1055
 6476SOL    HW230888   3.018   0.161   8.138  0.0537  0.5035  2.5281
 6477SOL     OW30889   2.930   1.460   6.157 -0.1863 -0.1217  0.0662
 6477SOL    HW130890   3.017   1.457   6.116  0.0860 -3.3844  0.8848
 6477SOL    HW230891   2.878   1.448   6.078  1.9215 -2.9871 -0.8987
 6478SOL     OW30892   2.902   0.634   5.415  1.3251  0.3878 -0.2961
 6478SOL    HW130893   2.879   0.592   5.498  0.5186  0.9945 -0.2098
 6478SOL    HW230894   2.825   0.611   5.364  1.1056  1.1591 -0.3163
 6479SOL     OW30895   1.493   3.527   7.692 -0.8630 -0.3717 -0.2450
 6479SOL    HW130896   1.579   3.529   7.650 -0.8147 -1.7524 -0.2189
 6479SOL    HW230897   1.517   3.562   7.779  2.1097  0.6332 -1.4557
 6480SOL     OW30898   2.392   0.395   4.956 -0.1258  0.1135 -0.7152
 6480SOL    HW130899   2.372   0.488   4.969 -1.5019 -0.5847  2.1626
 6480SOL    HW230900   2.482   0.392   4.988 -0.0817  1.4348 -0.7151
 6481SOL     OW30901   0.390   4.590   3.008  0.1273  0.2839  0.0054
 6481SOL    HW130902   0.455   4.566   2.941  1.2725  2.4035  0.3381
 6481SOL    HW230903   0.406   4.520   3.070  0.0324 -0.3887 -0.7284
 6482SOL     OW30904   1.525   4.103   6.437  0.2533  0.5591 -0.0597
 6482SOL    HW130905   1.480   4.052   6.504  0.2421  1.5386  0.6602
 6482SOL    HW230906   1.451   4.126   6.381 -1.1168  0.5692  1.7655
 6483SOL     OW30907   0.357   1.843   8.083  0.2770  0.5088 -0.0874
 6483SOL    HW130908   0.333   1.761   8.127  0.0711 -0.0250 -1.1906
 6483SOL    HW230909   0.377   1.804   7.997 -3.2437 -1.8648  0.1699
 6484SOL     OW30910   3.795   3.218   6.710  0.2635  0.4716  0.3685
 6484SOL    HW130911   3.811   3.283   6.778  0.6539  0.4726  0.2734
 6484SOL    HW230912   3.709   3.255   6.691 -0.3789 -1.6237 -0.7829
 6485SOL     OW30913   2.391   0.541   6.389 -0.9744  0.6808  0.3655
 6485SOL    HW130914   2.296   0.545   6.402 -1.1357 -1.3082 -0.2697
 6485SOL    HW230915   2.405   0.619   6.335 -3.1345 -1.0283 -2.6506
 6486SOL     OW30916   1.333   0.422  16.581 -0.2704  0.1937  0.1327
 6486SOL    HW130917   1.400   0.386  16.524  0.4309 -1.7114  2.1797
 6486SOL    HW230918   1.386   0.482  16.633  0.5481 -0.8508  0.4919
 6487SOL     OW30919   2.010   1.221   3.879 -0.1428  0.1818 -0.4836
 6487SOL    HW130920   2.056   1.138   3.892 -2.7982 -1.3671 -1.0402
 6487SOL    HW230921   2.034   1.268   3.959  1.5640  1.0969 -1.5303
 6488SOL     OW30922   3.503   1.328   7.718 -0.1689 -0.3934  0.0237
 6488SOL    HW130923   3.479   1.419   7.732  0.1201  0.2857 -3.7719
 6488SOL    HW230924   3.432   1.292   7.664  0.0492  1.0847 -1.2275
 6489SOL     OW30925   0.049   0.309   8.724 -0.3824  0.2822 -0.0335
 6489SOL    HW130926   4.692   0.277   8.769 -0.6138 -1.7247 -1.8198
 6489SOL    HW230927   0.093   0.325   8.808  0.0714 -1.2150  0.0197
 6490SOL     OW30928   4.459   4.227   8.552 -0.3613 -0.4795 -0.1497
 6490SOL    HW130929   4.490   4.317   8.557 -1.8487 -0.1048  2.1782
 6490SOL    HW230930   4.541   4.184   8.527  1.5877  2.6490  0.8768
 6491SOL     OW30931   1.424   1.239   0.976 -0.2772 -0.0843  0.3041
 6491SOL    HW130932   1.354   1.176   0.995  1.7420 -2.4792 -0.2297
 6491SOL    HW230933   1.372   1.317   0.997 -0.6914 -0.1310 -0.5372
 6492SOL     OW30934   0.773   3.552   4.772  0.0662 -0.0426  0.5692
 6492SOL    HW130935   0.798   3.561   4.680  1.5851 -1.3108  0.8624
 6492SOL    HW230936   0.850   3.577   4.824  0.5801 -1.5601  0.5304
 6493SOL     OW30937   0.742   1.553   7.949  0.0427 -0.4436 -0.1627
 6493SOL    HW130938   0.696   1.619   7.896  0.6980  1.2848  1.4247
 6493SOL    HW230939   0.723   1.571   8.041  0.9366  0.3745 -0.1417
 6494SOL     OW30940   3.884   3.160   8.923 -0.5138 -0.0561  0.4844
 6494SOL    HW130941   3.880   3.200   8.836  2.0482  1.0447  0.8709
 6494SOL    HW230942   3.791   3.140   8.932 -0.7030  0.8062  0.4675
 6495SOL     OW30943   3.816   2.066   0.275 -0.9911 -0.8695  0.1739
 6495SOL    HW130944   3.815   1.970   0.279 -0.4428 -0.8421  0.9446
 6495SOL    HW230945   3.726   2.096   0.266 -0.6893  0.2250  0.9021
 6496SOL     OW30946   0.396   4.147   4.009  0.0252 -0.0304  0.2802
 6496SOL    HW130947   0.340   4.183   4.077  0.3696 -0.0469  0.5740
 6496SOL    HW230948   0.416   4.059   4.042  1.7205 -0.2070 -1.2197
 6497SOL     OW30949   1.200   2.102   1.106  0.2311 -0.5241  0.6252
 6497SOL    HW130950   1.180   2.178   1.160 -0.5829  0.4901 -1.0962
 6497SOL    HW230951   1.246   2.045   1.167  0.3853  1.0475  1.9696
 6498SOL     OW30952   4.316   2.347  11.888 -0.0787 -0.2883  0.1118
 6498SOL    HW130953   4.264   2.267  11.894  0.7905 -0.8049  0.7469
 6498SOL    HW230954   4.306   2.369  11.795  1.5160  0.7625  0.1930
 6499SOL     OW30955   3.183   4.068  17.479 -0.0678 -1.0830  0.1898
 6499SOL    HW130956   3.173   4.157  17.511  0.3068 -0.8132 -0.4497
 6499SOL    HW230957   3.162   4.068  17.386 -1.3063  1.1809  0.4792
 6500SOL     OW30958   0.184   3.808   4.128  0.4335  0.3502  0.2755
 6500SOL    HW130959   0.139   3.791   4.211 -0.0468  1.6789  0.2898
 6500SOL    HW230960   0.220   3.720   4.117  1.2087  0.7048  0.0628
 6501SOL     OW30961   3.731   2.166  11.829  0.9398 -0.2331 -0.4892
 6501SOL    HW130962   3.658   2.189  11.771  0.2527  2.5915  1.4837
 6501SOL    HW230963   3.726   2.070  11.829 -1.1373 -0.1333 -2.9335
 6502SOL     OW30964   2.776   0.655  16.370  0.6789  0.2789 -0.2295
 6502SOL    HW130965   2.836   0.585  16.344  0.4886  0.6264 -1.6464
 6502SOL    HW230966   2.792   0.718  16.299  2.0232  1.9751  1.5891
 6503SOL     OW30967   2.015   1.034  10.545  0.0711  0.6004  0.1757
 6503SOL    HW130968   2.009   0.982  10.625 -2.1210  0.4244 -0.0823
 6503SOL    HW230969   2.078   0.986  10.491 -0.6423 -1.1739  0.9361
 6504SOL     OW30970   1.958   0.257   7.136 -0.1232 -0.0693 -0.0759
 6504SOL    HW130971   1.903   0.287   7.064 -0.8360  1.6795  1.1936
 6504SOL    HW230972   2.045   0.288   7.110  1.0892 -3.0971  0.2835
 6505SOL     OW30973   0.883   2.652   6.869 -0.6819 -0.1662  0.1568
 6505SOL    HW130974   0.827   2.663   6.946  2.0052 -0.9990  2.1893
 6505SOL    HW230975   0.883   2.556   6.864  4.1189 -0.1601  0.5358
 6506SOL     OW30976   3.958   3.528   9.917 -0.1395 -0.1064  0.5573
 6506SOL    HW130977   3.879   3.504   9.868  1.4499 -3.2348 -0.4910
 6506SOL    HW230978   3.994   3.603   9.869 -1.4989  0.4418  0.4077
 6507SOL     OW30979   3.570   3.916   4.145 -0.0740 -0.2843 -0.0319
 6507SOL    HW130980   3.512   3.969   4.090  0.1597 -3.3021 -3.1867
 6507SOL    HW230981   3.519   3.900   4.225 -1.5376 -0.4861 -1.0008
 6508SOL     OW30982   1.661   2.456   7.466 -0.2410 -0.2783 -0.2074
 6508SOL    HW130983   1.739   2.403   7.485  0.8045  1.9825  1.7943
 6508SOL    HW230984   1.627   2.404   7.393  1.5833  0.1263 -1.3414
 6509SOL     OW30985   4.053   3.953   8.550  0.2634 -0.7796  0.1550
 6509SOL    HW130986   3.984   3.887   8.546 -0.2312 -0.2309 -0.4940
 6509SOL    HW230987   4.120   3.894   8.515  0.1175 -0.2110 -1.0800
 6510SOL     OW30988   2.554   0.572   9.441 -0.8124  0.0269 -0.4645
 6510SOL    HW130989   2.576   0.660   9.409 -0.8933 -0.0484 -0.7206
 6510SOL    HW230990   2.460   0.586   9.452 -0.9180 -1.1078  0.0833
 6511SOL     OW30991   4.397   1.854  16.020  0.0447 -0.9142 -0.1828
 6511SOL    HW130992   4.305   1.856  15.992  0.1481 -0.4723 -0.4941
 6511SOL    HW230993   4.402   1.949  16.037  1.0601 -1.2666  1.4842
 6512SOL     OW30994   3.788   4.118   8.054 -0.1400  0.7603 -0.0016
 6512SOL    HW130995   3.747   4.204   8.045 -0.8703  0.3612 -0.4814
 6512SOL    HW230996   3.752   4.060   7.987 -0.1417 -0.6017  1.1678
 6513SOL     OW30997   4.059   0.104   5.177 -0.3462  0.1503 -0.3666
 6513SOL    HW130998   3.983   0.062   5.136  0.1758 -1.2331  0.0812
 6513SOL    HW230999   4.019   0.101   5.264 -0.7986 -1.2955 -0.6194
 6514SOL     OW31000   3.711   1.001  15.255  0.3582 -0.1723 -0.4574
 6514SOL    HW131001   3.763   1.071  15.294  0.9407 -1.9554  1.9316
 6514SOL    HW231002   3.701   1.035  15.166  3.4458 -0.2319 -0.8057
 6515SOL     OW31003   0.727   3.956  14.781  0.0880 -0.6392  1.1831
 6515SOL    HW131004   0.659   3.893  14.757 -1.6560  1.8729 -0.4112
 6515SOL    HW231005   0.730   4.015  14.706  1.5243 -2.3995 -0.1070
 6516SOL     OW31006   0.681   4.327   5.908 -0.4499  0.1440  0.0450
 6516SOL    HW131007   0.634   4.362   5.984  2.5636 -1.8403  2.8488
 6516SOL    HW231008   0.636   4.365   5.832 -2.0954  1.8928  1.8868
 6517SOL     OW31009   3.085   1.169   3.641 -0.4866 -0.2661 -0.1698
 6517SOL    HW131010   3.074   1.245   3.698  0.1223  0.1981 -0.6626
 6517SOL    HW231011   3.088   1.206   3.552  1.9781  0.7657  0.3196
 6518SOL     OW31012   1.233   0.491  10.282  0.7919 -0.3559 -0.7127
 6518SOL    HW131013   1.225   0.575  10.236 -1.7844  0.5262  1.3553
 6518SOL    HW231014   1.148   0.493  10.327  0.4477 -0.9504 -1.3358
 6519SOL     OW31015   2.159   4.119   5.729  0.2682 -0.0322  0.3610
 6519SOL    HW131016   2.168   4.209   5.762 -2.8430  0.5532 -0.3593
 6519SOL    HW231017   2.175   4.073   5.812  0.6518  1.2299  0.9926
 6520SOL     OW31018   1.396   1.700   9.498 -0.6279  0.5419  0.0431
 6520SOL    HW131019   1.320   1.646   9.479 -0.7437  0.2360  1.3584
 6520SOL    HW231020   1.399   1.689   9.593 -1.1090  0.7031  0.0745
 6521SOL     OW31021   4.153   0.837  16.272 -0.3600  0.5619  0.3787
 6521SOL    HW131022   4.239   0.837  16.228 -0.8467  1.3392 -0.5536
 6521SOL    HW231023   4.173   0.889  16.349  1.1353  2.2519 -1.1551
 6522SOL     OW31024   1.699   4.081   5.032 -0.2314  0.3130 -0.2428
 6522SOL    HW131025   1.743   3.997   5.025  0.8520  0.8250  0.3797
 6522SOL    HW231026   1.738   4.126   4.957 -1.6353 -0.6849 -1.5476
 6523SOL     OW31027   2.515   1.657   4.362 -0.4313  0.0348  0.0690
 6523SOL    HW131028   2.431   1.662   4.317 -0.3064  0.7771 -0.0918
 6523SOL    HW231029   2.529   1.565   4.338  0.3098  0.1056  0.2219
 6524SOL     OW31030   4.393   0.092  13.911 -0.0824  0.9460 -0.3021
 6524SOL    HW131031   4.310   0.065  13.949  0.2583  0.3696  0.0317
 6524SOL    HW231032   4.370   0.090  13.818 -2.0226  0.7018  0.1942
 6525SOL     OW31033   1.013   2.918   3.594 -0.3983  0.2457 -0.1375
 6525SOL    HW131034   1.000   2.934   3.687  0.9467 -0.2361  0.1364
 6525SOL    HW231035   0.949   2.849   3.578  1.9050 -1.9581  0.2441
 6526SOL     OW31036   4.158   3.409   6.999  0.4122 -0.0519  0.2513
 6526SOL    HW131037   4.072   3.433   7.034 -0.6310 -0.3621 -2.1131
 6526SOL    HW231038   4.178   3.491   6.954 -1.5582  0.5554  0.4886
 6527SOL     OW31039   0.508   2.510   7.925 -0.3150 -0.4164  0.3195
 6527SOL    HW131040   0.584   2.568   7.921  0.9387 -2.1537 -0.9030
 6527SOL    HW231041   0.462   2.534   7.844 -1.0098  0.3755  0.9436
 6528SOL     OW31042   0.948   0.825   7.754  0.2719  0.5993 -0.1452
 6528SOL    HW131043   1.018   0.795   7.811 -0.9934 -2.0508  0.0112
 6528SOL    HW231044   0.994   0.853   7.674  0.3068  1.6195  0.2367
 6529SOL     OW31045   2.604   0.525  15.549  0.1740  0.2364  0.3278
 6529SOL    HW131046   2.612   0.511  15.643 -0.9923  1.8462  0.6606
 6529SOL    HW231047   2.695   0.533  15.518 -0.1822  0.1923 -0.7505
 6530SOL     OW31048   0.569   3.679   5.332 -0.1514 -0.0743 -0.0256
 6530SOL    HW131049   0.661   3.695   5.354 -0.6014  0.5311  1.4474
 6530SOL    HW231050   0.544   3.750   5.273  1.0178 -0.3170 -0.8230
 6531SOL     OW31051   2.294   3.436   5.652 -0.2381 -0.4948 -0.0128
 6531SOL    HW131052   2.226   3.387   5.606  0.2096 -1.0974 -0.0328
 6531SOL    HW231053   2.365   3.429   5.588  0.6266  0.1961  0.8470
 6532SOL     OW31054   2.249   4.370   5.370  0.2405 -0.3088  0.1672
 6532SOL    HW131055   2.269   4.340   5.282  0.6817  0.4553  0.0031
 6532SOL    HW231056   2.281   4.459   5.350 -0.6575 -0.1171 -0.4173
 6533SOL     OW31057   0.166   2.459  16.732 -0.0693  0.6060  0.6131
 6533SOL    HW131058   0.143   2.514  16.657  1.2358  2.0504  1.2804
 6533SOL    HW231059   0.174   2.373  16.690  1.1041  0.8694  0.3069
 6534SOL     OW31060   0.719   3.960  14.330  0.8055 -0.5401 -0.3453
 6534SOL    HW131061   0.714   4.056  14.337 -0.1447 -0.5093 -1.5805
 6534SOL    HW231062   0.668   3.935  14.253  1.3860  0.2702 -0.9821
 6535SOL     OW31063   4.645   3.085   9.515 -0.1215 -0.4872  0.0098
 6535SOL    HW131064   4.576   3.151   9.518 -0.4269 -0.7533 -1.0338
 6535SOL    HW231065   4.652   3.076   9.610  2.2092  0.3290 -0.0793
 6536SOL     OW31066   3.573   0.333   4.671  0.2412 -0.8301  0.3301
 6536SOL    HW131067   3.598   0.379   4.751  0.6063 -1.9777  0.8691
 6536SOL    HW231068   3.657   0.294   4.645 -1.8190 -2.8999 -3.1494
 6537SOL     OW31069   1.286   4.094   5.619  0.5576 -0.1586 -0.5783
 6537SOL    HW131070   1.228   4.144   5.561 -0.4286 -1.1384 -0.4415
 6537SOL    HW231071   1.317   4.163   5.677  0.5451  0.0677 -0.8417
 6538SOL     OW31072   4.530   0.705   8.949  0.1588  0.0354 -0.9039
 6538SOL    HW131073   4.524   0.612   8.969  2.0337  0.2278  0.5725
 6538SOL    HW231074   4.545   0.741   9.037  1.5105 -0.9099 -0.7357
 6539SOL     OW31075   4.671   3.555  15.031 -0.4248 -0.0752 -0.4612
 6539SOL    HW131076   4.678   3.645  15.061 -2.5236 -0.1251  0.1805
 6539SOL    HW231077   4.581   3.542  15.058 -0.3562  0.9577  0.2404
 6540SOL     OW31078   0.015   0.505   9.242  0.1687  0.3306  0.2112
 6540SOL    HW131079   4.685   0.586   9.241 -2.7957 -1.6082 -2.1161
 6540SOL    HW231080   4.696   0.464   9.318 -2.6077  0.8486 -1.0218
 6541SOL     OW31081   0.317   0.735  11.131  0.4169  0.0220 -0.7165
 6541SOL    HW131082   0.345   0.806  11.189 -2.0332  1.0023 -0.7656
 6541SOL    HW231083   0.273   0.670  11.186 -0.5399 -0.0265 -1.5465
 6542SOL     OW31084   3.448   2.033  16.273  0.2536 -0.4723 -0.0717
 6542SOL    HW131085   3.509   2.043  16.346  1.1869  0.2080 -0.9450
 6542SOL    HW231086   3.367   2.057  16.319  0.4366 -0.8546  0.4572
 6543SOL     OW31087   1.840   3.057  11.256  0.1070  0.2518  0.1906
 6543SOL    HW131088   1.846   2.962  11.265  1.3347  0.2730 -0.4981
 6543SOL    HW231089   1.933   3.079  11.254  0.7184 -2.2750  1.1412
 6544SOL     OW31090   4.244   3.967  13.996 -0.1741  0.4980  0.3358
 6544SOL    HW131091   4.303   3.977  14.070  0.8073  2.1663 -0.6846
 6544SOL    HW231092   4.165   3.941  14.043 -0.7501  0.0743 -0.8391
 6545SOL     OW31093   4.451   3.821   4.803 -0.0843 -0.0501 -0.2953
 6545SOL    HW131094   4.429   3.891   4.741  2.4680  1.2103  0.2060
 6545SOL    HW231095   4.394   3.844   4.876  1.0725  0.6443  0.3986
 6546SOL     OW31096   1.189   2.762  10.412  0.2629  0.0866 -0.1518
 6546SOL    HW131097   1.120   2.739  10.350 -2.4026  2.8108  1.7942
 6546SOL    HW231098   1.133   2.828  10.453  1.0815  0.8101 -0.1964
 6547SOL     OW31099   4.157   0.668   6.366 -0.4267  0.3136 -0.2449
 6547SOL    HW131100   4.138   0.586   6.319  0.7607  0.0461 -0.2742
 6547SOL    HW231101   4.168   0.738   6.302 -2.8381  1.5586  0.7200
 6548SOL     OW31102   0.086   2.295   3.584 -0.2208 -0.3841  0.2050
 6548SOL    HW131103   0.101   2.305   3.490 -1.2916  2.7630  0.3768
 6548SOL    HW231104   4.720   2.257   3.583  0.1243 -1.2402  1.6129
 6549SOL     OW31105   1.014   3.585  15.148 -0.2467  0.0120  0.5072
 6549SOL    HW131106   1.045   3.635  15.072 -2.5349  0.1798 -0.3137
 6549SOL    HW231107   1.094   3.578  15.200 -0.7793 -1.9896  1.0649
 6550SOL     OW31108   3.944   1.974   8.173 -0.0431 -0.1415  0.3111
 6550SOL    HW131109   3.885   2.043   8.142  0.2329 -0.0689 -0.0558
 6550SOL    HW231110   3.965   2.009   8.260 -2.0481  0.0946  0.7054
 6551SOL     OW31111   2.797   4.040   3.115  0.3354  0.7380 -0.3726
 6551SOL    HW131112   2.786   3.966   3.174  3.0240  0.2421 -0.4754
 6551SOL    HW231113   2.830   4.006   3.031 -0.0949 -1.0044  0.1614
 6552SOL     OW31114   1.054   3.069   8.650 -0.4293 -0.3800 -0.7724
 6552SOL    HW131115   1.128   3.110   8.694 -0.6272 -0.9966  0.1222
 6552SOL    HW231116   0.981   3.129   8.667  0.6350  0.5420  0.5055
 6553SOL     OW31117   3.440   0.548   6.554  0.4058  0.1608  0.2070
 6553SOL    HW131118   3.393   0.545   6.638  1.2768 -0.9351  0.6638
 6553SOL    HW231119   3.371   0.546   6.488 -1.5123  0.1025  2.1973
 6554SOL     OW31120   3.236   2.741   2.137  0.7922  0.4822  0.8204
 6554SOL    HW131121   3.262   2.833   2.131  0.7051  0.4131 -0.8273
 6554SOL    HW231122   3.198   2.725   2.050  2.5887 -1.2232  0.3572
 6555SOL     OW31123   2.324   1.031   9.686 -0.0513 -0.6329 -0.0882
 6555SOL    HW131124   2.288   1.024   9.774  0.4387 -1.0220  0.0788
 6555SOL    HW231125   2.374   1.110   9.708  0.0042 -0.1925 -1.8081
 6556SOL     OW31126   2.003   1.638  13.451  0.0701 -0.4220 -0.1457
 6556SOL    HW131127   1.974   1.722  13.416 -1.1158 -1.1653 -0.9607
 6556SOL    HW231128   2.079   1.624  13.395  0.2856 -0.3240  0.1266
 6557SOL     OW31129   1.745   1.759   8.280  0.1281 -0.2095 -0.0204
 6557SOL    HW131130   1.764   1.762   8.187  3.7932  0.0353  0.7660
 6557SOL    HW231131   1.824   1.717   8.312  0.7063  0.1627 -0.9762
 6558SOL     OW31132   3.868   3.182   2.811 -0.0264 -0.1794  0.3279
 6558SOL    HW131133   3.889   3.261   2.861 -0.7883 -0.3536  0.9153
 6558SOL    HW231134   3.902   3.206   2.725 -0.2490 -1.3528 -0.0852
 6559SOL     OW31135   3.179   1.747   7.263 -0.3344 -0.3770 -0.4715
 6559SOL    HW131136   3.174   1.691   7.341 -1.8139 -0.6850 -0.7774
 6559SOL    HW231137   3.112   1.697   7.215 -1.1721  1.1000 -0.8193
 6560SOL     OW31138   4.520   2.802   4.588  0.1932 -0.1263  0.1531
 6560SOL    HW131139   4.547   2.719   4.627  2.8651  0.8083  0.2843
 6560SOL    HW231140   4.594   2.858   4.610  0.7935 -0.9958  0.3544
 6561SOL     OW31141   1.991   0.690   4.698  0.0029 -0.0012 -0.1245
 6561SOL    HW131142   1.997   0.768   4.754  1.2921  0.5432 -1.0288
 6561SOL    HW231143   2.000   0.720   4.608 -2.0270 -0.0719 -0.3548
 6562SOL     OW31144   2.009   1.448   5.386 -0.2077  0.1789 -0.1586
 6562SOL    HW131145   1.970   1.435   5.300 -0.5046  1.3142 -0.1879
 6562SOL    HW231146   2.077   1.382   5.372  0.1064  0.5662 -0.4667
 6563SOL     OW31147   1.902   2.835   7.344 -0.0816 -0.1165 -0.7853
 6563SOL    HW131148   1.989   2.870   7.365 -0.4176  1.6564 -2.2916
 6563SOL    HW231149   1.926   2.747   7.315  1.8485  0.0100  0.4211
 6564SOL     OW31150   2.696   1.827   3.760  0.3646 -0.1774  0.6414
 6564SOL    HW131151   2.629   1.888   3.731  0.3544 -0.4496  0.0857
 6564SOL    HW231152   2.763   1.863   3.702  0.6793 -1.7532  0.0128
 6565SOL     OW31153   2.533   0.369  16.847 -0.0384  0.2127 -0.4184
 6565SOL    HW131154   2.540   0.433  16.777 -1.3099  0.9647  0.1386
 6565SOL    HW231155   2.449   0.332  16.820  1.1287 -0.8670 -2.5275
 6566SOL     OW31156   4.569   4.061  15.381 -0.1376  0.6239 -0.1361
 6566SOL    HW131157   4.496   4.080  15.322  0.1634  1.4734 -0.2289
 6566SOL    HW231158   4.555   3.969  15.406 -0.6628  0.0534 -2.4695
 6567SOL     OW31159   4.452   3.466   9.805  0.2580  0.7968 -1.1225
 6567SOL    HW131160   4.503   3.391   9.835  0.7716  2.0559  1.1254
 6567SOL    HW231161   4.521   3.532   9.816  0.4147  0.2873  0.9261
 6568SOL     OW31162   4.288   1.266   7.899 -0.0415  0.2245  0.0415
 6568SOL    HW131163   4.218   1.331   7.893  0.8071  1.0966 -0.3751
 6568SOL    HW231164   4.255   1.215   7.973  0.2518  1.2354  0.8568
 6569SOL     OW31165   1.498   4.569  13.170  0.0549  0.1606  0.0470
 6569SOL    HW131166   1.530   4.584  13.080  0.6536  1.3496  0.4533
 6569SOL    HW231167   1.451   4.486  13.162 -0.5806  0.5733 -0.5232
 6570SOL     OW31168   1.253   0.403   4.989 -0.1184  0.4108  0.1993
 6570SOL    HW131169   1.258   0.309   5.007  0.5262 -0.0305 -2.3723
 6570SOL    HW231170   1.159   0.422   4.995  0.0593  1.0484  1.0013
 6571SOL     OW31171   2.103   0.513   7.265 -0.4647  0.0514  0.4154
 6571SOL    HW131172   2.029   0.519   7.204 -1.1671 -1.2010  1.1523
 6571SOL    HW231173   2.159   0.578   7.221 -1.7616  1.2229  0.5214
 6572SOL     OW31174   1.218   0.137   6.701 -0.5516 -0.2392  0.1455
 6572SOL    HW131175   1.302   0.094   6.684  0.8315  2.3182  0.6787
 6572SOL    HW231176   1.213   0.152   6.795 -2.0875 -1.2557  0.2312
 6573SOL     OW31177   1.891   3.292   0.773  0.4320 -0.0006 -0.2331
 6573SOL    HW131178   1.972   3.245   0.753  0.6217 -0.2837  1.1612
 6573SOL    HW231179   1.841   3.226   0.821  0.3636  0.4700  0.3518
 6574SOL     OW31180   2.717   2.460   9.070  0.6151  0.4170 -0.1605
 6574SOL    HW131181   2.698   2.371   9.100 -2.1549  0.1765 -2.6416
 6574SOL    HW231182   2.652   2.482   9.004  1.1521 -0.1445 -0.8787
 6575SOL     OW31183   4.474   0.943  13.184 -0.5010 -0.0679  0.3601
 6575SOL    HW131184   4.537   0.940  13.257  0.2588  0.3762 -0.2822
 6575SOL    HW231185   4.422   0.864  13.198 -0.5919  0.4496  2.9850
 6576SOL     OW31186   4.593   0.611   8.684 -0.9082 -0.8183 -0.1069
 6576SOL    HW131187   4.600   0.650   8.771 -0.0494 -0.5819 -0.2907
 6576SOL    HW231188   4.668   0.553   8.671  0.2998  1.0916 -1.5797
 6577SOL     OW31189   2.115   4.711   3.374  0.1133 -0.7851  0.1888
 6577SOL    HW131190   2.023   0.015   3.380  0.0839 -0.9542  0.4604
 6577SOL    HW231191   2.155   0.076   3.385 -0.1784 -0.7394  0.8477
 6578SOL     OW31192   1.123   1.672   6.023  0.5464 -0.3470  0.3689
 6578SOL    HW131193   1.205   1.672   6.072  1.4870 -0.3251 -1.2039
 6578SOL    HW231194   1.140   1.593   5.971 -0.1276  0.7973 -1.5761
 6579SOL     OW31195   2.297   0.020   2.855 -0.1231  0.0016  0.1561
 6579SOL    HW131196   2.302   0.114   2.840  3.1851 -0.4307 -1.4633
 6579SOL    HW231197   2.264   0.015   2.944 -0.8361  0.2235 -0.0901
 6580SOL     OW31198   4.459   1.925  10.345  0.1299 -0.2251  0.2519
 6580SOL    HW131199   4.549   1.893  10.339  0.5694  1.6090 -3.3142
 6580SOL    HW231200   4.437   1.893  10.257  1.0271  0.4628 -0.2307
 6581SOL     OW31201   2.615   3.279  15.938 -0.0713 -0.5742  0.1399
 6581SOL    HW131202   2.662   3.314  16.013 -1.3606 -0.9231  1.1209
 6581SOL    HW231203   2.694   3.233  15.911  1.4566  0.7756  2.3537
 6582SOL     OW31204   0.377   2.232   7.849  0.2156 -0.2155 -0.0323
 6582SOL    HW131205   0.444   2.185   7.900 -0.0234 -0.2019  0.2949
 6582SOL    HW231206   0.414   2.319   7.866 -1.0738  0.3045  0.0955
 6583SOL     OW31207   1.213   3.176   6.367  0.6432 -0.1488 -0.2570
 6583SOL    HW131208   1.182   3.245   6.308  0.4285 -0.1935 -0.1961
 6583SOL    HW231209   1.142   3.182   6.432  0.3838 -0.0278 -0.5531
 6584SOL     OW31210   0.895   1.783   4.599 -0.2052 -0.0124  0.2128
 6584SOL    HW131211   0.916   1.694   4.571  1.0037  0.5250 -0.5824
 6584SOL    HW231212   0.805   1.797   4.568 -0.0029 -0.5884 -0.6345
 6585SOL     OW31213   1.961   0.938   9.545 -0.5567 -0.1575 -0.0835
 6585SOL    HW131214   1.869   0.960   9.530 -0.1464  1.0962 -0.7772
 6585SOL    HW231215   1.951   0.849   9.579  0.7300 -0.4874 -0.5493
 6586SOL     OW31216   1.746   1.194   5.612 -0.5715  0.1816 -0.7337
 6586SOL    HW131217   1.681   1.188   5.683  0.2597 -1.2598 -0.0868
 6586SOL    HW231218   1.828   1.177   5.658 -0.8104  0.4435 -0.2150
 6587SOL     OW31219   4.472   1.884   5.356 -0.7033  0.0235 -0.5328
 6587SOL    HW131220   4.478   1.903   5.450  0.6521  0.7996 -0.7778
 6587SOL    HW231221   4.439   1.963   5.314  0.2294  0.7960  0.2172
 6588SOL     OW31222   0.293   3.474   2.836  0.5913  0.0497 -0.3616
 6588SOL    HW131223   0.242   3.426   2.900 -0.6468 -0.9187 -2.0801
 6588SOL    HW231224   0.336   3.538   2.893 -2.6282  1.3264  0.5847
 6589SOL     OW31225   0.767   2.762   3.175  0.7566 -0.7217 -0.5548
 6589SOL    HW131226   0.700   2.727   3.115 -0.1328 -1.0411  0.6164
 6589SOL    HW231227   0.782   2.674   3.210 -0.1412 -0.0237  1.5520
 6590SOL     OW31228   0.636   0.436  10.724  0.1646 -0.6251 -0.0887
 6590SOL    HW131229   0.559   0.410  10.673  0.2134  0.0144 -0.4938
 6590SOL    HW231230   0.615   0.368  10.788 -0.0154 -0.0031  0.5144
 6591SOL     OW31231   4.713   3.837   8.922 -0.5216  0.3221  0.1476
 6591SOL    HW131232   4.626   3.818   8.956  0.1898 -3.2575 -0.0780
 6591SOL    HW231233   4.714   3.931   8.940 -0.8337  0.5233 -0.8761
 6592SOL     OW31234   1.809   1.315   4.050 -0.1864  0.1394  0.2447
 6592SOL    HW131235   1.792   1.398   4.006 -0.5493  0.2156  0.5214
 6592SOL    HW231236   1.904   1.318   4.041 -0.0493  0.5452  1.8052
 6593SOL     OW31237   2.356   0.530  15.254  0.1253  0.5612  0.3012
 6593SOL    HW131238   2.402   0.455  15.217 -0.8023  0.5241 -0.7809
 6593SOL    HW231239   2.370   0.599  15.189 -0.7785 -1.0433 -1.5853
 6594SOL     OW31240   4.067   1.573   2.832 -0.2116 -0.2379  0.0851
 6594SOL    HW131241   3.985   1.594   2.789  1.3026  0.5632 -2.4073
 6594SOL    HW231242   4.042   1.503   2.892  0.0283 -0.4232 -0.0272
 6595SOL     OW31243   0.292   3.884   9.115 -0.3089  0.3905 -0.4787
 6595SOL    HW131244   0.213   3.926   9.082  0.3086  0.9855 -1.1988
 6595SOL    HW231245   0.253   3.796   9.115 -0.5621  0.5028 -0.9059
 6596SOL     OW31246   0.189   3.555   6.778  0.3314 -0.6287  0.7999
 6596SOL    HW131247   0.260   3.529   6.719 -2.1731 -1.2777 -1.9140
 6596SOL    HW231248   0.233   3.629   6.820  3.3011 -1.4764 -0.7636
 6597SOL     OW31249   4.034   3.571   4.899  0.1880  0.5083 -0.4757
 6597SOL    HW131250   4.048   3.641   4.835 -1.4908  0.6847 -0.6593
 6597SOL    HW231251   4.118   3.577   4.944  1.2459  0.2686 -2.4105
 6598SOL     OW31252   0.559   0.025   1.811 -0.2385 -0.1927  0.2190
 6598SOL    HW131253   0.517   4.690   1.747  1.2411  2.8462 -3.3927
 6598SOL    HW231254   0.482   0.051   1.861 -0.2348  3.2983 -1.6405
 6599SOL     OW31255   0.882   4.231  10.614  0.2013  0.4991 -0.0897
 6599SOL    HW131256   0.953   4.201  10.670  0.5539 -1.4471 -1.5411
 6599SOL    HW231257   0.919   4.311  10.577 -1.1861  1.5337  0.7562
 6600SOL     OW31258   2.873   2.584   2.677  0.1283  0.3865 -0.4096
 6600SOL    HW131259   2.967   2.565   2.681 -0.0497 -0.6293 -1.1599
 6600SOL    HW231260   2.850   2.553   2.590  0.9453  2.9036 -1.5526
 6601SOL     OW31261   3.926   0.586  13.164  0.2145 -0.0755 -0.2292
 6601SOL    HW131262   3.897   0.599  13.254 -0.9256 -1.8671 -0.3386
 6601SOL    HW231263   3.883   0.503  13.141 -1.4684  0.4772  0.9792
 6602SOL     OW31264   3.905   1.192   5.572 -0.0496 -0.4248  0.2123
 6602SOL    HW131265   3.828   1.241   5.544 -0.0079  0.0713  0.9542
 6602SOL    HW231266   3.977   1.247   5.542 -0.4408  0.7960  1.4685
 6603SOL     OW31267   3.189   0.910   2.221 -0.3266 -0.0142  0.1702
 6603SOL    HW131268   3.269   0.907   2.273  0.2507 -1.1657 -0.7860
 6603SOL    HW231269   3.232   0.932   2.138 -2.1989 -1.5773 -1.2269
 6604SOL     OW31270   1.628   3.852  14.874  0.0429  0.0374  0.3474
 6604SOL    HW131271   1.645   3.761  14.848  0.4748  0.1477  0.2488
 6604SOL    HW231272   1.661   3.840  14.963 -0.1179  1.6232  0.6170
 6605SOL     OW31273   3.142   0.933   8.290 -0.1965 -0.3385 -0.1954
 6605SOL    HW131274   3.230   0.896   8.300  0.5372  0.5487 -3.2754
 6605SOL    HW231275   3.100   0.902   8.370 -1.3748  0.5497 -0.4776
 6606SOL     OW31276   1.155   1.644  10.792  0.9064  0.2695 -0.5432
 6606SOL    HW131277   1.134   1.613  10.880  0.8713  0.2763 -0.5494
 6606SOL    HW231278   1.097   1.719  10.782 -2.1797 -1.7056  2.7696
 6607SOL     OW31279   2.932   1.167   5.268  0.2428 -0.4422 -0.5488
 6607SOL    HW131280   2.875   1.094   5.290 -0.0177 -0.4086 -1.1248
 6607SOL    HW231281   2.929   1.217   5.350 -1.6493 -0.2876 -0.7115
 6608SOL     OW31282   0.475   0.493   7.327  0.4743 -0.2300 -0.4914
 6608SOL    HW131283   0.534   0.423   7.354  1.0641  1.9730  3.9387
 6608SOL    HW231284   0.436   0.521   7.409 -0.4071 -0.7113 -0.7484
 6609SOL     OW31285   1.188   1.772  15.520  0.3037  0.8558  0.2352
 6609SOL    HW131286   1.132   1.708  15.564  1.8276 -1.1854 -0.8071
 6609SOL    HW231287   1.143   1.854  15.542  1.0033  0.7305  2.0728
 6610SOL     OW31288   2.662   1.157   7.663 -0.1063 -0.2725 -0.4424
 6610SOL    HW131289   2.704   1.124   7.743  0.3123 -0.5036 -0.7554
 6610SOL    HW231290   2.712   1.114   7.593  1.3062  2.2847 -1.0125
 6611SOL     OW31291   4.445   1.632   6.956 -0.5478 -0.0924 -0.0971
 6611SOL    HW131292   4.441   1.658   7.048 -3.4544  0.2433 -0.3258
 6611SOL    HW231293   4.491   1.707   6.917  1.2636 -0.9059  0.4829
 6612SOL     OW31294   4.200   1.977   5.769  0.0013  0.1104  0.0900
 6612SOL    HW131295   4.182   1.885   5.749 -0.8391 -0.0848  1.7134
 6612SOL    HW231296   4.110   2.008   5.781  0.1142 -1.0426  3.9423
 6613SOL     OW31297   2.075   0.471   9.362 -0.3392 -0.8065 -0.4768
 6613SOL    HW131298   2.013   0.401   9.341 -0.3368 -0.4691 -1.5828
 6613SOL    HW231299   2.024   0.551   9.351  1.8506  0.7209  0.3257
 6614SOL     OW31300   4.316   4.489   5.170 -0.1260  0.1193 -0.1260
 6614SOL    HW131301   4.326   4.394   5.165 -3.3825 -0.4073  3.1003
 6614SOL    HW231302   4.247   4.489   5.104 -1.2486  2.8171  1.0209
 6615SOL     OW31303   2.103   1.742   6.408 -0.7742 -0.0863 -0.6446
 6615SOL    HW131304   2.073   1.749   6.317 -0.5668  0.5233 -0.6661
 6615SOL    HW231305   2.176   1.680   6.407 -1.5454 -0.9895 -1.1157
 6616SOL     OW31306   1.163   4.235   6.398 -0.3370 -0.4098  0.2108
 6616SOL    HW131307   1.220   4.312   6.407  0.9787 -1.2716 -0.8243
 6616SOL    HW231308   1.222   4.162   6.380 -0.0773 -0.2377  0.3669
 6617SOL     OW31309   2.460   2.985  15.291  0.0794 -0.7034  0.6355
 6617SOL    HW131310   2.490   2.930  15.219 -1.3818  0.2486 -0.6916
 6617SOL    HW231311   2.380   2.941  15.318  0.4888 -1.2245  1.0025
 6618SOL     OW31312   1.639   1.058   9.243 -0.7766 -0.3575  0.0369
 6618SOL    HW131313   1.603   1.140   9.208 -3.1317 -1.1901  0.5174
 6618SOL    HW231314   1.723   1.103   9.253 -1.6723  1.7619 -1.9726
 6619SOL     OW31315   2.321   3.948   8.072  0.6513 -0.2938 -0.4383
 6619SOL    HW131316   2.303   3.949   7.978  0.3111 -1.8981 -0.3950
 6619SOL    HW231317   2.368   4.029   8.090  0.2113 -0.4781  1.5467
 6620SOL     OW31318   2.973   0.840  14.682  0.2995 -0.7000  0.0018
 6620SOL    HW131319   2.971   0.793  14.765  0.3601  2.0728  1.5684
 6620SOL    HW231320   2.884   0.826  14.650  0.7423 -0.8507 -1.1576
 6621SOL     OW31321   4.530   3.386   7.299  0.0396  0.1224  0.0176
 6621SOL    HW131322   4.465   3.453   7.323  0.2293  1.0370 -2.0162
 6621SOL    HW231323   4.493   3.365   7.213 -1.1008  1.1556  0.2526
 6622SOL     OW31324   2.007   0.920   9.162 -0.0140 -0.1044  0.1288
 6622SOL    HW131325   1.959   0.949   9.085 -0.3694  1.0286  0.7851
 6622SOL    HW231326   2.058   0.850   9.122 -0.5573  0.8343 -2.1920
 6623SOL     OW31327   2.115   4.351   4.240 -0.2836  0.2080  0.0709
 6623SOL    HW131328   2.198   4.336   4.195  0.0420  2.4824 -0.1127
 6623SOL    HW231329   2.149   4.387   4.322  0.4551  0.9244 -0.5424
 6624SOL     OW31330   1.453   2.425  15.489 -0.1140 -0.6577  0.1081
 6624SOL    HW131331   1.424   2.515  15.499 -0.4002 -0.6568 -0.6564
 6624SOL    HW231332   1.496   2.412  15.573 -1.4963 -0.6686  0.8166
 6625SOL     OW31333   1.565   3.632   8.540 -0.1377 -0.8887  0.4631
 6625SOL    HW131334   1.605   3.705   8.492 -0.5985 -1.5617 -0.9450
 6625SOL    HW231335   1.599   3.555   8.495 -0.9213 -0.3907 -1.0030
 6626SOL     OW31336   4.506   4.468  12.009  0.2086  0.0421  0.1340
 6626SOL    HW131337   4.493   4.390  11.956 -0.9237  0.3847 -0.0881
 6626SOL    HW231338   4.508   4.530  11.936  1.4185  0.4968  0.5651
 6627SOL     OW31339   1.363   4.385   5.648 -0.1470  0.2886 -0.1667
 6627SOL    HW131340   1.279   4.363   5.606  1.0000 -0.9736 -1.8126
 6627SOL    HW231341   1.424   4.354   5.582 -0.7712  0.9141 -1.0310
 6628SOL     OW31342   0.403   1.791   5.213  0.2311 -0.5970 -0.4907
 6628SOL    HW131343   0.431   1.858   5.150 -1.7414  0.2223 -0.5324
 6628SOL    HW231344   0.472   1.787   5.278  0.7328  1.0406 -0.9026
 6629SOL     OW31345   4.232   0.402  13.533  0.3798 -0.2661 -0.2664
 6629SOL    HW131346   4.150   0.388  13.581 -0.7037  2.7166 -1.2641
 6629SOL    HW231347   4.196   0.457  13.464  1.5425  1.1144  0.2338
 6630SOL     OW31348   1.391   3.533   3.277  0.6491  0.1713 -0.3179
 6630SOL    HW131349   1.468   3.560   3.227  1.9316 -1.6172  0.6983
 6630SOL    HW231350   1.307   3.558   3.237  0.7774  1.7536  0.4054
 6631SOL     OW31351   3.120   4.480   5.213 -0.4077 -0.1121  0.0614
 6631SOL    HW131352   3.141   4.567   5.245 -0.1310 -0.4108  0.6839
 6631SOL    HW231353   3.075   4.439   5.287 -1.4061  1.3757  0.2802
 6632SOL     OW31354   2.095   1.614  12.090 -0.4971 -0.4402  0.1906
 6632SOL    HW131355   2.001   1.612  12.109 -0.4847 -2.6024  0.0336
 6632SOL    HW231356   2.132   1.678  12.150  1.1948 -1.3408  0.1072
 6633SOL     OW31357   0.091   4.002   4.863  0.3608 -0.2301 -0.1208
 6633SOL    HW131358   0.109   4.061   4.789  0.6120  0.9033  0.8390
 6633SOL    HW231359   0.173   3.989   4.910  0.4074  1.2204  0.1976
 6634SOL     OW31360   3.349   3.380   4.059  0.1980 -0.4047  0.1034
 6634SOL    HW131361   3.376   3.302   4.011 -0.0209 -1.0539  1.0645
 6634SOL    HW231362   3.438   3.402   4.087  0.1714  2.2397 -1.8471
 6635SOL     OW31363   1.425   3.055   8.682  0.0673 -0.1039 -0.2261
 6635SOL    HW131364   1.372   3.117   8.733 -0.2669 -0.9670  0.4862
 6635SOL    HW231365   1.453   3.004   8.758  0.5076  1.5049  0.6942
 6636SOL     OW31366   3.132   1.065  10.118 -0.2221  0.0069 -0.2090
 6636SOL    HW131367   3.078   0.992  10.147  0.6501 -0.1267  1.0888
 6636SOL    HW231368   3.067   1.134  10.114 -0.7393 -0.3840  1.4107
 6637SOL     OW31369   2.900   3.417   7.152  0.4245 -0.1660 -0.3386
 6637SOL    HW131370   2.928   3.506   7.174 -1.8015  0.0833  1.5702
 6637SOL    HW231371   2.888   3.413   7.058 -0.0986  0.7134 -0.3160
 6638SOL     OW31372   2.245   2.954   2.582  0.2595 -0.3150  0.2466
 6638SOL    HW131373   2.188   2.879   2.596  1.0404 -0.3548  3.1624
 6638SOL    HW231374   2.287   2.952   2.668  1.9796 -1.1753 -0.5926
 6639SOL     OW31375   1.258   4.418  13.216  0.3456  0.1986  0.4387
 6639SOL    HW131376   1.181   4.451  13.169 -1.1953 -1.3169  1.8923
 6639SOL    HW231377   1.227   4.395  13.304  0.1692 -0.3722  0.2310
 6640SOL     OW31378   0.656   1.214   4.758  0.0911 -0.0500  0.2152
 6640SOL    HW131379   0.657   1.130   4.803  1.1349 -0.1465  0.0233
 6640SOL    HW231380   0.562   1.231   4.760 -0.1230 -1.3295  0.5514
 6641SOL     OW31381   4.003   2.895   2.570 -0.1589 -0.6099  0.0676
 6641SOL    HW131382   3.910   2.875   2.580 -0.0218 -0.8601  0.8202
 6641SOL    HW231383   4.048   2.811   2.573  2.0871  0.5086 -2.5414
 6642SOL     OW31384   3.024   2.264   0.026  0.1924 -0.5099 -0.4885
 6642SOL    HW131385   2.977   2.347   0.034  1.3068  0.2720 -2.1405
 6642SOL    HW231386   3.036   2.252  17.621 -1.5017 -0.0230 -0.7731
 6643SOL     OW31387   3.254   4.534   8.350  0.0345 -0.0137 -0.0570
 6643SOL    HW131388   3.314   4.561   8.419  0.6619  1.0202 -1.0150
 6643SOL    HW231389   3.195   4.475   8.398 -0.2025 -0.1897 -0.5620
 6644SOL     OW31390   0.082   1.652   4.945 -0.4614 -0.6394  0.0373
 6644SOL    HW131391   4.720   1.635   4.903  1.2923  0.5994 -3.9735
 6644SOL    HW231392   0.051   1.666   5.034  1.6478  1.5614  0.4534
 6645SOL     OW31393   2.829   0.567   6.197  0.4140  0.0368  0.6812
 6645SOL    HW131394   2.845   0.659   6.179 -1.2139 -0.1466 -1.7534
 6645SOL    HW231395   2.918   0.537   6.175 -0.5455 -0.6721 -2.2675
 6646SOL     OW31396   0.531   0.317   8.224 -0.0966  0.2980  0.4802
 6646SOL    HW131397   0.507   0.240   8.276  0.3360  1.2422  2.0902
 6646SOL    HW231398   0.574   0.273   8.151  0.2791  0.0645  0.8446
 6647SOL     OW31399   1.671   2.289  10.734 -0.3852 -0.6029  0.5993
 6647SOL    HW131400   1.735   2.354  10.704  2.3060 -3.1594  0.7646
 6647SOL    HW231401   1.594   2.342  10.713  0.8846  0.4097 -1.5287
 6648SOL     OW31402   3.269   3.549   3.320 -0.1229 -0.3213  0.0472
 6648SOL    HW131403   3.237   3.479   3.263 -0.6713 -1.6667  2.0016
 6648SOL    HW231404   3.358   3.564   3.290 -0.0497 -0.7482  0.0474
 6649SOL     OW31405   2.110   3.700   5.974  0.0031  0.1875  0.4729
 6649SOL    HW131406   2.070   3.757   6.040  1.3161 -0.2006  1.6088
 6649SOL    HW231407   2.072   3.732   5.893  0.6944 -0.6161 -0.1626
 6650SOL     OW31408   2.871   3.663  13.077 -0.6301 -0.4665  0.1631
 6650SOL    HW131409   2.890   3.573  13.104  1.7866 -0.7343 -2.4800
 6650SOL    HW231410   2.822   3.639  12.999  0.1382 -0.0252 -0.4507
 6651SOL     OW31411   1.496   3.492  10.624 -0.2919 -0.0087 -0.0613
 6651SOL    HW131412   1.473   3.578  10.659  1.3420  0.1084  0.7210
 6651SOL    HW231413   1.536   3.441  10.695  0.9091  0.0341 -0.7074
 6652SOL     OW31414   2.921   4.532   7.858 -0.1694 -0.1451 -0.0492
 6652SOL    HW131415   2.908   4.478   7.936 -1.4100  1.0527  0.5829
 6652SOL    HW231416   3.005   4.493   7.837 -0.7001 -1.1368 -0.3414
 6653SOL     OW31417   0.749   0.811   2.369  0.3336 -0.2530 -0.4189
 6653SOL    HW131418   0.724   0.858   2.449 -0.6190  1.6184 -1.8306
 6653SOL    HW231419   0.836   0.774   2.387 -0.4346 -1.3505  1.1614
 6654SOL     OW31420   1.976   0.137   2.951 -0.0126  0.5074 -0.0326
 6654SOL    HW131421   2.021   0.158   3.032 -0.4397  0.2491  0.2706
 6654SOL    HW231422   2.036   0.122   2.878  0.0852  0.1104  0.1278
 6655SOL     OW31423   3.383   1.837  11.123  0.9192 -0.2079  0.0146
 6655SOL    HW131424   3.448   1.769  11.105  0.5806 -0.2526 -1.0715
 6655SOL    HW231425   3.394   1.852  11.217 -0.2601 -1.4816  0.3555
 6656SOL     OW31426   1.097   0.189  14.696 -0.0707 -0.0992 -0.2131
 6656SOL    HW131427   1.113   0.283  14.692  0.4036 -0.1553  0.2850
 6656SOL    HW231428   1.005   0.174  14.677 -0.1866  2.7701 -1.9356
 6657SOL     OW31429   1.202   2.313   3.509 -0.1845  0.6313 -0.0485
 6657SOL    HW131430   1.115   2.280   3.489  0.6621 -1.0526 -0.9899
 6657SOL    HW231431   1.243   2.230   3.535  0.9983  2.3355  3.4648
 6658SOL     OW31432   3.046   4.237  10.179  0.1062  0.1775 -0.2143
 6658SOL    HW131433   3.080   4.216  10.266 -2.2345 -5.2072 -0.6176
 6658SOL    HW231434   3.060   4.332  10.179  1.2984  0.0005  0.2119
 6659SOL     OW31435   4.679   2.832  16.145 -0.5188 -0.1777  0.7188
 6659SOL    HW131436   4.612   2.896  16.123  1.2812  1.0877 -1.1987
 6659SOL    HW231437   4.698   2.811  16.053  0.4129  3.3157  0.1060
 6660SOL     OW31438   4.189   2.884  10.240 -0.0256  0.0869 -0.2277
 6660SOL    HW131439   4.155   2.874  10.151  1.2195 -1.2650 -0.5467
 6660SOL    HW231440   4.115   2.848  10.290  3.0341 -0.9943  3.4776
 6661SOL     OW31441   1.460   4.540   8.625 -0.3611  0.9013 -0.3245
 6661SOL    HW131442   1.442   4.479   8.696 -2.3357  1.3586 -0.4456
 6661SOL    HW231443   1.556   4.533   8.623 -0.5466 -1.4796  0.1070
 6662SOL     OW31444   0.782   1.473  13.913 -0.3151  0.1017  0.0581
 6662SOL    HW131445   0.811   1.560  13.938  0.6633 -0.1515 -0.2099
 6662SOL    HW231446   0.743   1.447  13.996  1.6209  0.0881  0.9550
 6663SOL     OW31447   1.311   1.575   7.035 -0.2442 -0.2905  0.2298
 6663SOL    HW131448   1.317   1.552   6.943 -0.9374  1.3519 -0.2308
 6663SOL    HW231449   1.366   1.513   7.083  1.6373  0.9710 -0.2755
 6664SOL     OW31450   0.465   3.442   4.567 -0.3582  0.1542  0.4537
 6664SOL    HW131451   0.509   3.429   4.483 -0.6137  1.1942  0.1472
 6664SOL    HW231452   0.513   3.517   4.604  1.8112 -0.7429 -0.5392
 6665SOL     OW31453   0.686   4.299   7.832  0.2814  0.1021  0.0386
 6665SOL    HW131454   0.652   4.210   7.816  1.2448 -0.3524  0.5162
 6665SOL    HW231455   0.776   4.271   7.816  0.5108  0.1375  1.3098
 6666SOL     OW31456   3.022   1.999   7.386  0.4597 -0.2915 -0.5812
 6666SOL    HW131457   3.059   1.922   7.343  0.4321 -0.4902 -0.2511
 6666SOL    HW231458   2.927   1.986   7.377  0.3243  1.2120 -1.2804
 6667SOL     OW31459   3.291   2.656   6.171 -0.3512  0.4961  0.5072
 6667SOL    HW131460   3.229   2.621   6.234  2.7203 -1.6791  2.3348
 6667SOL    HW231461   3.294   2.600   6.094  0.1138  1.1464  0.0485
 6668SOL     OW31462   3.834   1.616   7.139 -0.1111 -0.0822  0.0675
 6668SOL    HW131463   3.914   1.659   7.169  0.4995  0.2837 -2.0901
 6668SOL    HW231464   3.810   1.667   7.061 -1.2191  0.9857  1.1022
 6669SOL     OW31465   0.444   2.241   2.299 -0.6658  0.1922  0.1011
 6669SOL    HW131466   0.534   2.213   2.281 -0.3607  0.3760  1.2999
 6669SOL    HW231467   0.468   2.328   2.333 -2.1717  0.4027  0.6287
 6670SOL     OW31468   1.057   0.051   1.139 -0.3094 -0.1667  0.0811
 6670SOL    HW131469   1.074   0.079   1.049 -0.0067 -0.6346 -0.0032
 6670SOL    HW231470   1.006   0.122   1.178  0.3448  1.3812 -1.8708
 6671SOL     OW31471   2.330   1.714   1.682 -0.4758 -0.1308  0.1043
 6671SOL    HW131472   2.423   1.689   1.685 -0.2366  1.0666  2.2801
 6671SOL    HW231473   2.354   1.805   1.697 -2.3879  0.5961 -1.2480
 6672SOL     OW31474   0.711   1.178   2.222 -0.1050  0.2232 -0.1320
 6672SOL    HW131475   0.781   1.168   2.158  0.2041  0.1601  0.2152
 6672SOL    HW231476   0.630   1.187   2.173 -0.3594  0.5874  0.3570
 6673SOL     OW31477   2.780   4.262   2.205  0.5851  0.9496 -0.0526
 6673SOL    HW131478   2.733   4.182   2.230 -0.0596  0.4059 -3.0266
 6673SOL    HW231479   2.816   4.238   2.120 -0.3670  1.4089 -0.5836
 6674SOL     OW31480   1.620   0.222  15.751  0.0551 -0.2943 -0.2455
 6674SOL    HW131481   1.706   0.220  15.794 -1.3431  0.4679  2.5929
 6674SOL    HW231482   1.559   0.247  15.820 -0.3179  0.0617 -0.7023
 6675SOL     OW31483   3.897   2.189   7.871  0.2514  0.1495  0.4083
 6675SOL    HW131484   3.867   2.260   7.814  0.9631  0.1121 -0.0182
 6675SOL    HW231485   3.923   2.123   7.806 -0.5114  2.2752 -2.0515
 6676SOL     OW31486   0.567   3.666  12.303 -0.4479 -0.5993  0.1973
 6676SOL    HW131487   0.520   3.666  12.386 -1.0987 -0.9152 -0.1694
 6676SOL    HW231488   0.656   3.668  12.338 -0.0134  0.0861 -0.9307
 6677SOL     OW31489   4.244   0.465  12.736  0.3321  0.2133  0.0004
 6677SOL    HW131490   4.170   0.448  12.679 -0.4568  0.3417  0.9877
 6677SOL    HW231491   4.231   0.558  12.753 -0.0976  0.1834 -0.1824
 6678SOL     OW31492   4.077   3.377   5.582  0.4475  0.2757  0.0974
 6678SOL    HW131493   4.079   3.468   5.612 -0.6738 -0.1455  1.4816
 6678SOL    HW231494   4.166   3.348   5.601  0.3125 -1.9159 -2.5787
 6679SOL     OW31495   0.205   3.443  12.539 -0.3368  0.3037 -0.3128
 6679SOL    HW131496   0.207   3.395  12.622 -0.4526  0.0889 -0.4342
 6679SOL    HW231497   0.115   3.476  12.542 -0.5103 -0.3664  2.0634
 6680SOL     OW31498   3.167   2.580   0.167 -0.1464  0.1062 -0.0713
 6680SOL    HW131499   3.227   2.511   0.136 -0.2333 -0.1906  0.4208
 6680SOL    HW231500   3.166   2.567   0.262 -1.5696 -0.3397 -0.1507
 6681SOL     OW31501   4.570   2.417  11.226 -0.2815 -0.4708 -0.2828
 6681SOL    HW131502   4.627   2.484  11.263  0.8503 -1.2878 -0.5323
 6681SOL    HW231503   4.621   2.364  11.164  0.9763 -1.5856  1.6780
 6682SOL     OW31504   1.412   0.491   2.552 -0.4627 -0.1602 -0.0408
 6682SOL    HW131505   1.471   0.448   2.614  0.8509  2.6085  0.6353
 6682SOL    HW231506   1.453   0.575   2.532  1.2314 -1.1186 -0.6277
 6683SOL     OW31507   1.996   0.012   4.768 -0.0430  0.0999 -0.0343
 6683SOL    HW131508   2.008   0.089   4.823 -0.3697  0.0601  0.0889
 6683SOL    HW231509   1.911   4.702   4.799 -0.2484 -0.2968 -1.0046
 6684SOL     OW31510   3.539   0.584   3.443  0.2451  0.1078 -0.5222
 6684SOL    HW131511   3.588   0.526   3.386 -0.4735 -1.1704  0.1603
 6684SOL    HW231512   3.609   0.639   3.480 -1.0549  2.2870 -1.2838
 6685SOL     OW31513   4.131   2.012   7.983  0.5387 -0.3631  0.4177
 6685SOL    HW131514   4.072   1.950   8.026  2.0844  1.5620  5.2852
 6685SOL    HW231515   4.090   2.091   8.019 -1.1147 -1.0700  0.1105
 6686SOL     OW31516   1.275   0.005   5.230 -0.1607 -0.2447  0.0688
 6686SOL    HW131517   1.286   4.634   5.209 -1.8839 -0.4634  0.1473
 6686SOL    HW231518   1.237   4.719   5.317 -1.7997  1.7673 -0.4725
 6687SOL     OW31519   4.659   0.283   5.594 -0.1567 -0.0067  0.9277
 6687SOL    HW131520   0.032   0.272   5.599 -0.1517 -0.3043  0.1204
 6687SOL    HW231521   4.655   0.353   5.528 -0.5352  0.0528  1.0113
 6688SOL     OW31522   0.364   0.921  11.323  0.5023  0.1978  0.1527
 6688SOL    HW131523   0.332   0.872  11.399  1.9962 -0.9786  0.0334
 6688SOL    HW231524   0.420   0.977  11.378 -0.3471  0.2514  0.9589
 6689SOL     OW31525   0.461   0.530   5.093 -0.0747  0.3576 -0.3374
 6689SOL    HW131526   0.469   0.612   5.142  2.1148  0.3231 -0.6484
 6689SOL    HW231527   0.415   0.472   5.154 -1.3232  0.6336 -1.0133
 6690SOL     OW31528   2.042   3.538   3.640  0.2209  0.4819  0.2863
 6690SOL    HW131529   2.025   3.596   3.566 -1.2905  0.0704  0.3053
 6690SOL    HW231530   1.970   3.475   3.632  1.0151 -0.2808 -0.8674
 6691SOL     OW31531   0.227   2.441   4.032 -0.0931 -0.0152 -0.3840
 6691SOL    HW131532   0.239   2.476   4.121 -2.7754 -0.2051  0.0313
 6691SOL    HW231533   0.264   2.510   3.978  1.5391  0.9937  2.0065
 6692SOL     OW31534   4.291   2.510  12.086 -0.1756 -0.3395 -0.0002
 6692SOL    HW131535   4.236   2.456  12.142 -0.1212  1.2043  1.5584
 6692SOL    HW231536   4.304   2.451  12.012 -2.4853 -0.8224 -0.0288
 6693SOL     OW31537   4.055   2.555   5.205  0.2208 -0.2875 -0.1497
 6693SOL    HW131538   3.965   2.553   5.173  0.4893  0.1922 -0.9219
 6693SOL    HW231539   4.049   2.491   5.276  1.0717  1.6757  1.6916
 6694SOL     OW31540   4.307   3.716   6.665  0.1726  0.0652 -0.3744
 6694SOL    HW131541   4.312   3.621   6.673  1.5010  0.1076 -0.5471
 6694SOL    HW231542   4.400   3.736   6.680  0.7085 -0.4881 -3.0095
 6695SOL     OW31543   2.027   2.634   3.332 -0.1642  0.0185  0.1002
 6695SOL    HW131544   1.967   2.669   3.397 -0.0812  0.5403 -0.1089
 6695SOL    HW231545   2.096   2.698   3.314 -0.1040 -0.5845 -1.8121
 6696SOL     OW31546   0.541   3.000   5.968 -0.1863 -0.4617  0.0214
 6696SOL    HW131547   0.533   2.919   6.017 -1.6564 -0.3275 -0.0099
 6696SOL    HW231548   0.578   3.065   6.028 -1.3300 -0.8241  1.1047
 6697SOL     OW31549   0.003   2.660   4.193  0.7272 -0.7548 -0.6789
 6697SOL    HW131550   4.637   2.622   4.181  1.2208 -2.7620  2.2129
 6697SOL    HW231551   4.706   2.738   4.245  2.1556  0.4525 -1.9946
 6698SOL     OW31552   4.373   3.798   8.743  0.1662 -0.3503  0.3743
 6698SOL    HW131553   4.418   3.771   8.822 -0.4384 -0.6792  0.6101
 6698SOL    HW231554   4.440   3.844   8.692  0.4123 -0.1213  0.9040
 6699SOL     OW31555   0.323   4.034   8.776 -0.1929 -0.1842 -0.0723
 6699SOL    HW131556   0.372   4.095   8.831 -1.2486 -0.5189  1.2393
 6699SOL    HW231557   0.241   4.010   8.820  1.1508 -1.5840  1.6725
 6700SOL     OW31558   0.257   3.978   2.499  0.2832 -0.0246  0.0107
 6700SOL    HW131559   0.176   3.928   2.507 -0.3911  1.3664  2.0597
 6700SOL    HW231560   0.272   3.996   2.592  0.0179 -2.4438  0.5280
 6701SOL     OW31561   3.989   0.824   8.673  0.5793  0.5295  0.5254
 6701SOL    HW131562   3.948   0.813   8.588 -2.8654  0.8741  2.1206
 6701SOL    HW231563   4.027   0.737   8.684 -3.1704 -0.9210  2.3619
 6702SOL     OW31564   0.157   2.707   6.423  0.0149 -0.3684  0.5244
 6702SOL    HW131565   0.086   2.688   6.363  0.0404  2.7491 -0.5028
 6702SOL    HW231566   0.213   2.753   6.361  1.5510  1.0615  2.9503
 6703SOL     OW31567   3.931   1.744   8.318 -0.4248 -0.1480  0.4825
 6703SOL    HW131568   3.925   1.830   8.278 -0.7341  0.8652  2.7062
 6703SOL    HW231569   3.905   1.761   8.409 -2.5476  1.2033 -0.3914
 6704SOL     OW31570   1.769   1.787   8.001 -0.2332  0.1377 -0.2136
 6704SOL    HW131571   1.748   1.704   7.959  0.1248 -0.8402  1.5729
 6704SOL    HW231572   1.844   1.819   7.950 -0.2844  1.1871  0.3671
 6705SOL     OW31573   3.113   2.660  15.091  0.0167  0.1661 -0.1204
 6705SOL    HW131574   3.192   2.714  15.098 -0.1630  0.7631 -2.9912
 6705SOL    HW231575   3.118   2.647  14.997  0.0145 -0.8522  0.0259
 6706SOL     OW31576   2.310   2.876   1.857 -0.4242 -0.3583  0.0632
 6706SOL    HW131577   2.293   2.916   1.942 -2.5563  0.1318 -0.5957
 6706SOL    HW231578   2.301   2.946   1.792 -3.0578 -0.1305  0.6829
 6707SOL     OW31579   2.723   4.127   4.616 -0.2455  0.3714 -0.1726
 6707SOL    HW131580   2.794   4.065   4.633 -0.6220 -0.7155 -2.5110
 6707SOL    HW231581   2.660   4.107   4.685  1.0978 -0.0401  0.9400
 6708SOL     OW31582   2.359   4.131  16.884  0.3653 -0.5514  0.5387
 6708SOL    HW131583   2.322   4.193  16.821 -1.3548 -0.8084  1.3251
 6708SOL    HW231584   2.398   4.192  16.947  1.0091 -0.8841  0.4668
 6709SOL     OW31585   1.782   0.119   5.822 -0.3198 -0.1596 -0.1843
 6709SOL    HW131586   1.742   0.032   5.819  0.2576 -0.5052  1.6854
 6709SOL    HW231587   1.707   0.170   5.851  0.8620  0.5086  1.7687
 6710SOL     OW31588   1.548   1.559  16.556 -0.6000  0.1585 -0.9445
 6710SOL    HW131589   1.483   1.520  16.615  0.3292  0.3190  0.1826
 6710SOL    HW231590   1.604   1.618  16.607  0.3552  1.0940 -3.0588
 6711SOL     OW31591   2.965   4.275   1.505 -0.2204 -0.1363  0.3357
 6711SOL    HW131592   2.936   4.262   1.595 -0.2345 -1.7541  0.1086
 6711SOL    HW231593   2.901   4.344   1.488 -0.8631 -0.8042  0.0421
 6712SOL     OW31594   2.315   1.184  10.712  0.1656 -0.2770 -0.3598
 6712SOL    HW131595   2.292   1.139  10.630  1.0055  2.1724 -1.9421
 6712SOL    HW231596   2.310   1.277  10.689  0.5848 -0.2446 -0.3224
 6713SOL     OW31597   1.072   0.253   2.781 -0.0405 -0.0725  0.0423
 6713SOL    HW131598   1.043   0.301   2.859 -1.6793 -1.3418  0.2238
 6713SOL    HW231599   1.053   0.166   2.816 -0.5608 -0.1460 -0.4132
 6714SOL     OW31600   1.503   2.413   4.256 -0.1530  0.2103  0.4337
 6714SOL    HW131601   1.437   2.379   4.196  0.8014  2.5972 -1.9631
 6714SOL    HW231602   1.507   2.338   4.315 -1.3799 -1.6602 -1.8584
 6715SOL     OW31603   1.037   0.982  11.674 -0.3125  0.1976 -0.3497
 6715SOL    HW131604   1.002   1.038  11.744 -2.0139 -1.8621  0.4356
 6715SOL    HW231605   0.995   0.900  11.702  0.0365 -0.4115 -1.6243
 6716SOL     OW31606   0.626   0.965   3.345 -0.0318  0.2024  0.3090
 6716SOL    HW131607   0.590   0.962   3.256  0.4210  0.3389  0.1262
 6716SOL    HW231608   0.694   1.031   3.332 -0.0637  0.1710 -0.0212
 6717SOL     OW31609   0.266   3.536   3.239 -0.2611  0.1056 -0.4127
 6717SOL    HW131610   0.225   3.479   3.174  1.0618 -2.1495  0.7545
 6717SOL    HW231611   0.238   3.494   3.320 -1.7231  0.7060 -0.5923
 6718SOL     OW31612   2.811   2.496   2.421 -0.1238 -0.0053 -0.2138
 6718SOL    HW131613   2.844   2.563   2.361 -2.1286  0.8436 -0.3701
 6718SOL    HW231614   2.723   2.488   2.384 -0.4154  1.3237  0.1967
 6719SOL     OW31615   4.700   3.380   0.663 -0.4728  0.2054 -0.2994
 6719SOL    HW131616   0.005   3.294   0.696 -0.1772  0.1462 -0.6900
 6719SOL    HW231617   0.046   3.437   0.700  3.0894 -2.9137 -2.0137
 6720SOL     OW31618   3.647   3.511  17.550 -0.4492 -0.1117 -0.3288
 6720SOL    HW131619   3.642   3.597  17.590 -1.7435  0.3161 -1.4139
 6720SOL    HW231620   3.676   3.530  17.460 -0.3049  0.0947 -0.2388
 6721SOL     OW31621   2.278   3.254   4.575 -0.0129  0.1145  0.3546
 6721SOL    HW131622   2.272   3.294   4.488  0.1160 -1.1888 -0.2582
 6721SOL    HW231623   2.223   3.324   4.612 -0.5107 -0.4859  0.7544
 6722SOL     OW31624   3.294   4.134  10.395  0.4436 -0.1552  0.4648
 6722SOL    HW131625   3.350   4.193  10.347 -0.8573  0.8144  0.1301
 6722SOL    HW231626   3.338   4.145  10.479  1.0087 -3.1920  0.5567
 6723SOL     OW31627   3.599   3.806  15.465  0.4450  0.0536 -0.5798
 6723SOL    HW131628   3.545   3.748  15.519  0.7426  0.6125  0.3243
 6723SOL    HW231629   3.551   3.889  15.475  0.1561 -0.1598 -0.2190
 6724SOL     OW31630   1.551   0.272   6.011  0.2465  0.0196  0.3012
 6724SOL    HW131631   1.554   0.343   6.075 -0.2517  1.6691 -1.4826
 6724SOL    HW231632   1.511   0.198   6.056  3.1565 -2.3929 -1.0667
 6725SOL     OW31633   1.383   3.949   3.043 -0.4762  0.7202 -0.9531
 6725SOL    HW131634   1.352   3.948   2.953 -3.4951  1.5931  0.0494
 6725SOL    HW231635   1.476   3.929   3.034 -1.1756 -4.1940  2.3916
 6726SOL     OW31636   0.228   0.947   5.780 -0.5614  0.6818 -0.5767
 6726SOL    HW131637   0.256   0.883   5.714 -2.7163 -0.2792 -0.5509
 6726SOL    HW231638   0.238   0.898   5.862 -0.9778  1.2260 -0.2006
 6727SOL     OW31639   2.101   3.651   3.875  0.9349  0.0457  0.5714
 6727SOL    HW131640   2.190   3.687   3.880  0.5167  1.1548 -0.0080
 6727SOL    HW231641   2.102   3.614   3.786  2.0017  0.8325  0.2572
 6728SOL     OW31642   3.855   1.142   4.067 -0.3230 -0.1967  0.2486
 6728SOL    HW131643   3.844   1.234   4.042 -0.6386 -0.5649 -0.9477
 6728SOL    HW231644   3.943   1.145   4.105  0.3846  2.1488 -1.5440
 6729SOL     OW31645   0.728   0.306  13.317  0.7757  0.2795  0.3298
 6729SOL    HW131646   0.822   0.297  13.302  0.1834 -0.8651 -2.6852
 6729SOL    HW231647   0.682   0.238  13.268 -1.5276  1.3537  0.9902
 6730SOL     OW31648   2.788   0.883   6.107  0.1411  0.3008 -0.2003
 6730SOL    HW131649   2.758   0.968   6.141  1.0358  0.4084  0.3159
 6730SOL    HW231650   2.799   0.906   6.015  1.2458  0.2916 -0.0696
 6731SOL     OW31651   2.988   1.139  11.255  0.1218 -0.3316  0.3815
 6731SOL    HW131652   3.020   1.228  11.270  0.2559 -0.1413 -0.9561
 6731SOL    HW231653   3.051   1.089  11.307  0.3405 -1.1047 -0.6128
 6732SOL     OW31654   3.456   1.451   6.612  0.3017 -0.1410 -0.4024
 6732SOL    HW131655   3.392   1.388   6.578  0.8440 -0.6063 -0.5608
 6732SOL    HW231656   3.535   1.399   6.602 -1.4426 -2.9938  0.5046
 6733SOL     OW31657   4.197   2.114  10.670  0.6289  0.6982 -0.0869
 6733SOL    HW131658   4.144   2.179  10.625  0.8132  0.5528 -0.5131
 6733SOL    HW231659   4.274   2.093  10.617  1.0906 -0.3216  0.9699
 6734SOL     OW31660   3.332   1.379   5.806  0.3143 -0.1119  0.4151
 6734SOL    HW131661   3.339   1.424   5.891  0.4670  0.6054  0.0278
 6734SOL    HW231662   3.377   1.432   5.740  2.4514  0.2754  2.1916
 6735SOL     OW31663   0.600   3.371   6.839 -0.2804  0.0929  0.3080
 6735SOL    HW131664   0.670   3.399   6.780  2.1306 -0.0470  3.1196
 6735SOL    HW231665   0.542   3.337   6.770 -4.9868  4.2152  2.1867
 6736SOL     OW31666   0.950   0.705  11.904 -0.5311 -0.3714 -0.1115
 6736SOL    HW131667   0.894   0.755  11.964  1.9704 -0.1629  2.0500
 6736SOL    HW231668   0.980   0.633  11.960  1.4174  1.0849  0.7054
 6737SOL     OW31669   0.316   0.788   9.098  0.3638 -0.5617  0.6254
 6737SOL    HW131670   0.347   0.731   9.027 -4.5368  0.1004 -2.0373
 6737SOL    HW231671   0.290   0.725   9.166  2.4631 -1.8110  0.2914
 6738SOL     OW31672   1.110   3.269   2.897  0.0163 -0.1891 -0.2576
 6738SOL    HW131673   1.089   3.360   2.919  1.5661 -0.1409  0.9624
 6738SOL    HW231674   1.032   3.221   2.925  0.1175  0.4511  1.1057
 6739SOL     OW31675   4.253   3.006   4.870  0.1932  0.1023 -0.2939
 6739SOL    HW131676   4.221   2.923   4.905  0.6033 -0.5243 -1.3947
 6739SOL    HW231677   4.326   3.008   4.933  0.4877 -0.1108 -0.6274
 6740SOL     OW31678   0.791   1.723   2.417 -0.5606  0.5076 -0.4615
 6740SOL    HW131679   0.797   1.774   2.336  0.8844  1.8464  0.4872
 6740SOL    HW231680   0.829   1.775   2.488 -1.3077 -0.8694  0.9373
 6741SOL     OW31681   4.328   1.358   8.494 -0.2383 -0.0606  1.0799
 6741SOL    HW131682   4.424   1.353   8.495 -0.2369  0.1017  2.4325
 6741SOL    HW231683   4.319   1.441   8.540  0.3446  1.3591 -1.4022
 6742SOL     OW31684   3.181   3.646  10.782  0.2192 -0.2552  0.1208
 6742SOL    HW131685   3.118   3.575  10.797 -0.2215  0.0363 -0.3730
 6742SOL    HW231686   3.183   3.638  10.686  0.5693  0.9682  0.0286
 6743SOL     OW31687   3.633   2.372  16.807  0.0125  0.4848 -0.2664
 6743SOL    HW131688   3.623   2.355  16.713  0.4985  0.4118 -0.3025
 6743SOL    HW231689   3.688   2.450  16.809  1.6591 -0.6137 -2.3460
 6744SOL     OW31690   3.240   2.060  15.683 -0.1859 -0.4181 -0.3485
 6744SOL    HW131691   3.199   2.120  15.621  1.9539 -0.5144 -1.8477
 6744SOL    HW231692   3.319   2.110  15.702 -0.7921  0.5539 -0.4188
 6745SOL     OW31693   4.532   2.576   6.852  0.4788  0.0240  0.2363
 6745SOL    HW131694   4.538   2.656   6.799  0.3903  1.2582  2.0540
 6745SOL    HW231695   4.616   2.554   6.893 -0.1890 -1.0421  1.0414
 6746SOL     OW31696   4.209   0.225   8.234  0.1036 -0.0669 -0.0359
 6746SOL    HW131697   4.141   0.247   8.298 -1.3051 -2.5733 -0.6439
 6746SOL    HW231698   4.158   0.184   8.164 -1.2092 -1.0207  1.4626
 6747SOL     OW31699   4.140   1.332  13.547  0.2568 -0.2584  0.3458
 6747SOL    HW131700   4.171   1.396  13.612  0.1010  0.5777 -0.3986
 6747SOL    HW231701   4.150   1.392  13.473  4.0613 -0.3211  0.8204
 6748SOL     OW31702   1.589   0.972   5.309  0.3067  0.5490 -0.4710
 6748SOL    HW131703   1.566   0.896   5.363 -0.5944  0.5492 -0.8559
 6748SOL    HW231704   1.601   0.923   5.227  1.3527 -1.8250  1.1186
 6749SOL     OW31705   1.893   2.822  11.341  0.2440 -0.2301 -0.2854
 6749SOL    HW131706   1.976   2.802  11.384  0.0163  0.8889  0.6876
 6749SOL    HW231707   1.839   2.835  11.418  0.1933 -0.5413 -0.2721
 6750SOL     OW31708   0.700   1.265   3.884 -0.0219  0.1971  0.2739
 6750SOL    HW131709   0.775   1.212   3.855  0.9086  1.1678  0.9181
 6750SOL    HW231710   0.639   1.251   3.811 -1.3522 -0.7693  1.5689
 6751SOL     OW31711   4.247   0.130   4.689  0.6485 -0.2079  0.4079
 6751SOL    HW131712   4.192   0.075   4.746 -0.7707  1.4112  0.6110
 6751SOL    HW231713   4.245   0.077   4.609  1.3391 -1.0619  0.9528
 6752SOL     OW31714   2.681   3.495   7.706  0.0311  0.3982 -0.3437
 6752SOL    HW131715   2.604   3.524   7.756  2.4846  2.4435  2.2441
 6752SOL    HW231716   2.643   3.527   7.624  0.4461 -0.4306 -0.8513
 6753SOL     OW31717   4.163   3.992   5.856  0.4959 -0.2212  0.8064
 6753SOL    HW131718   4.238   3.961   5.806 -0.2187  1.2079 -1.1460
 6753SOL    HW231719   4.115   4.039   5.788  0.9699 -0.7590  0.1108
 6754SOL     OW31720   1.162   2.771  12.799  0.2328  0.1257  0.1537
 6754SOL    HW131721   1.248   2.811  12.790  0.1027  0.9284  2.4662
 6754SOL    HW231722   1.171   2.684  12.762  0.7342  0.4409 -0.4529
 6755SOL     OW31723   0.763   1.855   5.847  0.0381 -0.0620  0.6822
 6755SOL    HW131724   0.691   1.860   5.785 -0.9154  2.2502  1.9766
 6755SOL    HW231725   0.774   1.950   5.853  0.3213 -0.0707  0.3114
 6756SOL     OW31726   2.014   0.934   2.023  0.1473 -0.1947 -0.3092
 6756SOL    HW131727   2.042   1.025   2.025  0.8640 -0.4278  0.2583
 6756SOL    HW231728   1.920   0.944   2.035  0.1771  0.8626 -1.0043
 6757SOL     OW31729   2.611   4.011  17.041 -0.4064  0.0166  0.0899
 6757SOL    HW131730   2.655   4.063  17.109  1.2116 -2.5687  1.0139
 6757SOL    HW231731   2.655   4.058  16.970 -1.0328 -2.5251 -1.9824
 6758SOL     OW31732   1.373   0.624   3.928  0.2503 -0.1286 -0.1269
 6758SOL    HW131733   1.282   0.596   3.926  0.5406 -1.0530 -0.2483
 6758SOL    HW231734   1.391   0.613   4.021  1.0600  0.1690 -0.2449
 6759SOL     OW31735   0.022   4.090   5.986  0.3721  0.4443 -0.4106
 6759SOL    HW131736   4.678   4.041   6.036  0.0664  0.0759 -1.1708
 6759SOL    HW231737   0.056   4.016   5.936  0.0307  1.0636 -1.5727
 6760SOL     OW31738   1.846   2.399  13.358  0.1930 -0.3943  0.0549
 6760SOL    HW131739   1.756   2.416  13.330  0.5637 -0.5535 -1.2770
 6760SOL    HW231740   1.853   2.467  13.425 -0.0231  0.9272 -1.2520
 6761SOL     OW31741   0.787   2.683   5.459  0.0173  0.6006 -0.0202
 6761SOL    HW131742   0.872   2.723   5.477  0.5926 -0.5368 -0.2123
 6761SOL    HW231743   0.724   2.752   5.477 -0.7750 -0.5712  1.6698
 6762SOL     OW31744   1.017   0.009   2.962 -0.3468 -0.7851  0.4172
 6762SOL    HW131745   0.925   4.705   2.960 -0.9093  1.2433 -0.3657
 6762SOL    HW231746   1.050   4.666   3.025  0.8371  1.4349  2.0893
 6763SOL     OW31747   0.764   0.795   3.984 -0.2870 -0.3303 -0.3613
 6763SOL    HW131748   0.684   0.756   4.019 -0.8930  0.0397 -1.3395
 6763SOL    HW231749   0.783   0.724   3.922  1.7450 -0.4757  0.4246
 6764SOL     OW31750   1.011   4.669   4.283 -0.2545 -0.0737  0.1095
 6764SOL    HW131751   1.047   4.583   4.304 -2.2406 -0.8264  0.4404
 6764SOL    HW231752   1.085   4.706   4.235  0.2924 -3.8762 -1.9780
 6765SOL     OW31753   0.922   0.920   1.655  0.2946 -0.2056  0.3103
 6765SOL    HW131754   0.965   0.902   1.571  1.8694  1.2146  0.7996
 6765SOL    HW231755   0.830   0.922   1.630  0.2562 -0.0482  0.4692
 6766SOL     OW31756   1.392   1.307   2.026 -0.7997 -0.1522 -0.2994
 6766SOL    HW131757   1.462   1.260   1.980 -0.6897  0.2860 -0.5811
 6766SOL    HW231758   1.422   1.299   2.117  1.4345  0.6764 -0.9503
 6767SOL     OW31759   1.375   2.663   7.057 -0.0808 -0.3754  0.6321
 6767SOL    HW131760   1.440   2.637   7.122  0.6975 -0.4867 -0.1800
 6767SOL    HW231761   1.326   2.734   7.099  0.5023  1.6727 -2.1517
 6768SOL     OW31762   4.116   0.315  17.335  0.0061 -0.2751 -0.3889
 6768SOL    HW131763   4.086   0.255  17.267 -0.9106  0.6754 -0.8298
 6768SOL    HW231764   4.048   0.296  17.400 -0.2543 -0.0425 -0.5896
 6769SOL     OW31765   3.594   0.231   2.099  0.7375 -0.3390  0.1902
 6769SOL    HW131766   3.514   0.238   2.151  0.7220 -1.2577  0.3042
 6769SOL    HW231767   3.558   0.193   2.018  1.7455 -0.4464 -0.2125
 6770SOL     OW31768   0.167   2.416  12.549 -0.3836 -0.2069  0.0301
 6770SOL    HW131769   0.252   2.445  12.516 -1.0775  2.9475  1.0016
 6770SOL    HW231770   0.187   2.371  12.631 -2.5306 -1.9858 -0.4121
 6771SOL     OW31771   0.720   4.364   4.553  0.0530 -0.5329 -0.2148
 6771SOL    HW131772   0.755   4.451   4.574 -1.3999  0.6372 -2.5659
 6771SOL    HW231773   0.706   4.326   4.639 -0.7743  0.8686  0.2659
 6772SOL     OW31774   4.096   2.374   8.733  0.2563 -0.4217  0.4219
 6772SOL    HW131775   4.023   2.352   8.675  0.5745  1.4538 -0.6903
 6772SOL    HW231776   4.051   2.347   8.813 -0.2444 -0.1209  0.2421
 6773SOL     OW31777   3.298   3.401  10.398  0.8178  0.0155  0.5210
 6773SOL    HW131778   3.387   3.372  10.374  0.1720 -2.4416  1.0605
 6773SOL    HW231779   3.321   3.477  10.451  1.0054 -0.2172  0.7750
 6774SOL     OW31780   2.231   3.618  11.148 -0.0620 -0.2832 -0.8616
 6774SOL    HW131781   2.149   3.570  11.145 -0.8554  1.1467 -2.3682
 6774SOL    HW231782   2.212   3.691  11.208  0.0713 -1.7891  0.9862
 6775SOL     OW31783   1.482   4.341   6.112 -0.3378 -0.3728  0.1455
 6775SOL    HW131784   1.422   4.382   6.175 -0.1824 -2.2370  1.4872
 6775SOL    HW231785   1.450   4.382   6.031 -2.8138  0.4367  1.5144
 6776SOL     OW31786   3.018   3.661   4.281 -0.0429 -0.1562 -0.4767
 6776SOL    HW131787   3.087   3.600   4.306 -0.3618 -0.5729 -0.6162
 6776SOL    HW231788   2.947   3.598   4.271 -0.8641  0.8628 -1.0224
 6777SOL     OW31789   3.165   0.405   7.584 -0.4300 -0.3613 -0.2763
 6777SOL    HW131790   3.210   0.384   7.666 -0.4546  0.2746 -0.0976
 6777SOL    HW231791   3.230   0.376   7.520  1.4703  0.6473  1.1697
 6778SOL     OW31792   2.650   1.798   5.930  0.1355 -0.4307  0.3224
 6778SOL    HW131793   2.681   1.887   5.944 -0.1892 -0.6017  2.1168
 6778SOL    HW231794   2.697   1.777   5.849 -0.1114  1.4697 -0.3125
 6779SOL     OW31795   4.347   0.645   9.265 -0.0690  0.3367  0.6906
 6779SOL    HW131796   4.420   0.651   9.203 -0.6682 -2.6799 -0.2850
 6779SOL    HW231797   4.309   0.726   9.232 -0.0703  0.1408  0.2060
 6780SOL     OW31798   0.992   2.315  16.931  0.0208  0.2508 -0.0992
 6780SOL    HW131799   1.048   2.251  16.974 -0.5097 -0.2127 -0.0935
 6780SOL    HW231800   1.010   2.286  16.841 -0.9736  0.1141 -0.2547
 6781SOL     OW31801   2.799   0.562   4.715 -0.3908 -0.5437 -0.4883
 6781SOL    HW131802   2.711   0.525   4.722 -1.3535  2.2137  1.6480
 6781SOL    HW231803   2.788   0.605   4.630  0.7248 -2.0205 -1.3971
 6782SOL     OW31804   1.154   4.193  10.066  0.0847  0.0778  0.1991
 6782SOL    HW131805   1.119   4.106  10.048  0.3843 -0.0167  0.0697
 6782SOL    HW231806   1.243   4.164  10.045  0.3351  1.1034 -0.1513
 6783SOL     OW31807   3.458   4.045   6.002 -0.3838  0.1594 -0.1695
 6783SOL    HW131808   3.479   4.067   5.911  0.3831 -0.5151 -0.1530
 6783SOL    HW231809   3.502   4.106   6.061 -1.6983  1.2794 -0.3346
 6784SOL     OW31810   3.230   3.213   6.149  0.1203  0.3106 -0.0908
 6784SOL    HW131811   3.280   3.291   6.172  0.6272  0.3916 -1.4802
 6784SOL    HW231812   3.302   3.150   6.146  0.6417  0.8813  0.6726
 6785SOL     OW31813   1.743   0.184   3.608  0.5178  0.0534 -0.0644
 6785SOL    HW131814   1.649   0.167   3.607  0.0932  2.2476  1.0582
 6785SOL    HW231815   1.765   0.108   3.554 -1.1033 -0.5895  0.1877
 6786SOL     OW31816   0.565   1.355   8.832 -0.0683  0.3606  0.0439
 6786SOL    HW131817   0.492   1.317   8.881  0.8113  0.5668  1.4989
 6786SOL    HW231818   0.546   1.447   8.844 -3.2254 -0.0442 -1.8702
 6787SOL     OW31819   2.455   4.213   1.750 -0.1419  0.1804  0.1324
 6787SOL    HW131820   2.383   4.152   1.769 -0.4329  0.7443  0.8758
 6787SOL    HW231821   2.449   4.230   1.656 -1.0051 -0.5244  0.0495
 6788SOL     OW31822   1.672   0.767   7.256  0.0530 -0.2160 -0.0667
 6788SOL    HW131823   1.616   0.697   7.287 -1.1671  0.5806 -0.4470
 6788SOL    HW231824   1.700   0.723   7.176 -0.7106 -2.0174  0.6696
 6789SOL     OW31825   1.806   0.567   1.480  0.6930 -0.1437 -0.0070
 6789SOL    HW131826   1.884   0.520   1.510 -0.4610 -1.5517  0.7755
 6789SOL    HW231827   1.842   0.651   1.449  2.7152 -0.7824  0.6188
 6790SOL     OW31828   4.212   2.942  11.485 -0.0665 -0.0227 -0.1574
 6790SOL    HW131829   4.304   2.947  11.460 -0.4751 -0.2992 -1.7312
 6790SOL    HW231830   4.187   2.856  11.451  1.3138 -0.1503 -0.8398
 6791SOL     OW31831   2.802   1.765   6.776  0.2064  0.0104 -0.5766
 6791SOL    HW131832   2.880   1.712   6.758  0.8593  1.5105 -2.1975
 6791SOL    HW231833   2.747   1.745   6.701  0.2088 -1.0428 -0.3055
 6792SOL     OW31834   2.740   2.734   5.870  0.1504 -0.1551  0.6709
 6792SOL    HW131835   2.786   2.711   5.951  0.7709 -0.6317  0.1813
 6792SOL    HW231836   2.814   2.716   5.811 -1.1922 -2.1472 -0.3990
 6793SOL     OW31837   3.429   1.770  14.572 -0.0348  0.8658  0.2335
 6793SOL    HW131838   3.359   1.707  14.558  0.5897 -0.1313  1.6348
 6793SOL    HW231839   3.410   1.800  14.661 -1.7570 -1.6341  0.7084
 6794SOL     OW31840   1.700   3.850  16.854 -0.5328  0.3028  0.8953
 6794SOL    HW131841   1.759   3.830  16.782 -0.8820 -1.0912  0.9915
 6794SOL    HW231842   1.738   3.930  16.890  1.2006  1.3530 -3.3257
 6795SOL     OW31843   1.589   0.305   7.155  0.6693  0.1202  0.3313
 6795SOL    HW131844   1.640   0.387   7.152  0.5725  0.1511 -0.5057
 6795SOL    HW231845   1.600   0.295   7.249  2.6755 -0.3376  0.0493
 6796SOL     OW31846   1.140   0.603   2.083  0.0673 -0.0234  0.4752
 6796SOL    HW131847   1.212   0.666   2.091  0.7367 -0.6925 -0.1829
 6796SOL    HW231848   1.192   0.526   2.058 -1.4004 -0.6859 -0.5277
 6797SOL     OW31849   1.009   0.495   2.919 -0.8055 -0.3269  0.4846
 6797SOL    HW131850   1.042   0.511   3.007  1.5586  3.8530 -1.1615
 6797SOL    HW231851   1.079   0.521   2.858 -2.7148  1.4658 -0.9286
 6798SOL     OW31852   2.704   2.758   8.720 -0.3189 -0.7022  0.4069
 6798SOL    HW131853   2.684   2.685   8.662 -1.4678  0.4990 -0.7116
 6798SOL    HW231854   2.692   2.713   8.804 -0.3280 -1.2590  0.1067
 6799SOL     OW31855   1.521   4.111   7.327  0.2442 -0.1105 -0.2578
 6799SOL    HW131856   1.479   4.099   7.412 -1.8008 -0.3384 -1.3004
 6799SOL    HW231857   1.550   4.020   7.320 -1.1462 -0.6007  0.2864
 6800SOL     OW31858   4.664   4.425   5.938  0.4978 -0.0627  0.3001
 6800SOL    HW131859   4.676   4.342   5.983 -1.1086  0.7872  2.2782
 6800SOL    HW231860   4.605   4.408   5.865  0.7372 -0.9541  0.3230
 6801SOL     OW31861   2.412   2.383  10.963  0.0452 -0.0238 -0.5590
 6801SOL    HW131862   2.480   2.412  10.903 -1.0304 -0.2435 -1.8748
 6801SOL    HW231863   2.409   2.287  10.957  0.7389 -0.1346  0.6132
 6802SOL     OW31864   3.857   2.955   2.978  0.2848  0.2339 -0.2965
 6802SOL    HW131865   3.906   2.882   2.942 -1.8406 -1.0641 -0.5718
 6802SOL    HW231866   3.859   3.019   2.907 -1.9446 -0.1095 -0.6810
 6803SOL     OW31867   0.311   1.591  16.998 -1.3047 -0.2866  0.0530
 6803SOL    HW131868   0.245   1.568  16.932 -0.1080 -2.3108 -0.4459
 6803SOL    HW231869   0.298   1.525  17.066  0.0970 -1.0695 -0.4452
 6804SOL     OW31870   1.591   4.423   1.102  0.1855 -0.5360  0.0089
 6804SOL    HW131871   1.619   4.363   1.171 -0.3155 -0.8441 -0.0495
 6804SOL    HW231872   1.663   4.485   1.113  1.5839 -1.9702 -1.0590
 6805SOL     OW31873   0.287   4.068   6.391 -0.4108 -0.0199 -0.1304
 6805SOL    HW131874   0.380   4.066   6.415 -1.0731 -0.0363  2.3688
 6805SOL    HW231875   0.288   4.061   6.295  0.8885 -1.2755 -0.0296
 6806SOL     OW31876   2.485   0.574   4.323 -0.5164 -0.1545 -0.1999
 6806SOL    HW131877   2.500   0.618   4.407  2.8283 -1.5361 -0.0959
 6806SOL    HW231878   2.491   0.646   4.260 -0.4080  0.7632  0.8607
 6807SOL     OW31879   0.119   3.185   8.301 -0.4913 -0.0949 -0.4451
 6807SOL    HW131880   0.084   3.248   8.364 -2.1926  1.0485 -2.4861
 6807SOL    HW231881   0.203   3.218   8.268  1.4777 -1.0027  3.7242
 6808SOL     OW31882   4.579   1.359   8.581 -0.2534 -0.2884 -0.6021
 6808SOL    HW131883   4.580   1.454   8.569 -1.4160 -0.2580 -0.4866
 6808SOL    HW231884   4.672   1.342   8.598 -0.3917  1.7792  2.2868
 6809SOL     OW31885   3.872   0.049   9.146  1.0508 -0.4012 -0.0235
 6809SOL    HW131886   3.872   4.718   9.226 -1.9552  0.0947  0.3048
 6809SOL    HW231887   3.891   0.134   9.186 -0.1652 -0.5177  0.7895
 6810SOL     OW31888   3.591   4.456   1.654  0.1876  0.2055  0.1546
 6810SOL    HW131889   3.685   4.475   1.644 -0.3255  2.8160  0.2518
 6810SOL    HW231890   3.565   4.398   1.582  2.1251 -0.2660 -0.1671
 6811SOL     OW31891   2.807   1.584  14.716  0.0912  0.4327 -0.3197
 6811SOL    HW131892   2.773   1.611  14.631 -1.7333  2.3552  1.0223
 6811SOL    HW231893   2.754   1.506  14.735  1.6973 -1.3490 -3.1388
 6812SOL     OW31894   1.103   0.261  13.230  0.1059 -0.0881 -0.0345
 6812SOL    HW131895   1.068   0.250  13.142  2.7311  0.1692 -1.1104
 6812SOL    HW231896   1.092   0.172  13.262 -0.8166  0.5842  1.5555
 6813SOL     OW31897   3.404   2.555   7.949 -0.1968 -0.5308  0.1513
 6813SOL    HW131898   3.474   2.533   8.009 -0.0563  0.4494  0.3443
 6813SOL    HW231899   3.413   2.649   7.928  1.0513 -0.1807  2.3435
 6814SOL     OW31900   0.139   0.628  17.160  0.4604  0.0454 -0.5723
 6814SOL    HW131901   0.080   0.553  17.150  0.4138  0.0826 -0.5704
 6814SOL    HW231902   0.188   0.628  17.077 -1.0444  3.4914 -1.4581
 6815SOL     OW31903   2.437   4.092   2.174  0.5028  0.8010 -0.2455
 6815SOL    HW131904   2.518   4.097   2.124 -0.5069  0.4804 -1.9091
 6815SOL    HW231905   2.375   4.089   2.101  1.5208  3.0552 -1.2066
 6816SOL     OW31906   3.582   3.706  16.709 -0.3622  0.0343 -0.5109
 6816SOL    HW131907   3.528   3.627  16.715 -0.1947 -0.1067 -0.8697
 6816SOL    HW231908   3.551   3.752  16.787 -3.2070  1.0226 -2.1903
 6817SOL     OW31909   1.574   2.151   5.559  0.5868 -0.0582  0.7755
 6817SOL    HW131910   1.510   2.211   5.598 -2.3519 -1.8311 -1.3112
 6817SOL    HW231911   1.621   2.206   5.495  1.1537 -0.3708  0.9265
 6818SOL     OW31912   1.904   1.367   3.079 -0.0765 -0.0930  0.1578
 6818SOL    HW131913   1.890   1.396   2.989  0.3924  1.0171  0.4513
 6818SOL    HW231914   1.999   1.358   3.081 -0.2280 -1.5272  1.2379
 6819SOL     OW31915   3.633   4.008  15.069  0.3109  0.4238  0.0231
 6819SOL    HW131916   3.552   3.959  15.083  0.2927  0.3763 -0.2515
 6819SOL    HW231917   3.683   3.945  15.018 -2.5840 -0.0961 -2.2068
 6820SOL     OW31918   2.115   2.485   4.305 -0.8117  0.4511 -0.1968
 6820SOL    HW131919   2.104   2.422   4.233 -1.1590  0.6267 -0.2944
 6820SOL    HW231920   2.151   2.421   4.366  0.5111  1.1962 -0.1970
 6821SOL     OW31921   1.143   2.471   3.730  0.4183 -0.3902 -0.1934
 6821SOL    HW131922   1.144   2.451   3.636  1.0851 -2.6777  0.2915
 6821SOL    HW231923   1.055   2.505   3.747  0.5624 -0.5865  0.9366
 6822SOL     OW31924   1.027   1.841  13.765 -0.1461 -0.1787 -0.0253
 6822SOL    HW131925   1.089   1.783  13.721 -0.2548 -1.8279  2.0281
 6822SOL    HW231926   1.083   1.918  13.777  1.6786 -1.3711 -0.8591
 6823SOL     OW31927   2.778   0.518   6.486  0.2132  0.5045 -0.1622
 6823SOL    HW131928   2.790   0.526   6.391 -0.7725  0.3634 -0.3026
 6823SOL    HW231929   2.846   0.460   6.519  0.0219 -1.2967 -3.0186
 6824SOL     OW31930   3.214   0.104   8.763  0.1849  0.3269 -0.3278
 6824SOL    HW131931   3.169   0.059   8.834 -2.0628  0.6346 -1.5414
 6824SOL    HW231932   3.269   0.161   8.816  2.1524 -1.7517 -0.1673
 6825SOL     OW31933   2.666   2.056  11.188  0.1949 -0.0778  0.1850
 6825SOL    HW131934   2.663   1.964  11.162  0.4340  0.1840 -0.7423
 6825SOL    HW231935   2.575   2.082  11.170  0.6908  0.8827 -0.9162
 6826SOL     OW31936   0.415   1.185   6.754 -0.4232  0.2731 -0.4285
 6826SOL    HW131937   0.364   1.248   6.703 -0.2012  1.1607  0.4390
 6826SOL    HW231938   0.461   1.139   6.684  1.7123 -0.2166  1.3099
 6827SOL     OW31939   3.608   3.439   6.326 -0.0561 -0.0783 -0.1838
 6827SOL    HW131940   3.589   3.372   6.392 -3.3328 -0.1292 -1.1679
 6827SOL    HW231941   3.703   3.451   6.332 -0.2772  0.9660  1.1421
 6828SOL     OW31942   2.220   2.964   3.877 -0.2921  0.5659  0.2271
 6828SOL    HW131943   2.170   2.980   3.957 -3.8466 -3.7471 -1.1940
 6828SOL    HW231944   2.255   2.876   3.891  3.1353  1.6075 -1.8115
 6829SOL     OW31945   0.216   3.245  15.285  0.1218  0.3328  0.1891
 6829SOL    HW131946   0.255   3.326  15.254 -0.5951  0.8817  0.7110
 6829SOL    HW231947   0.133   3.286  15.309 -0.1727  1.4009 -2.7156
 6830SOL     OW31948   1.133   3.816   6.613 -0.0683 -0.3022  0.0865
 6830SOL    HW131949   1.101   3.882   6.675 -0.9233  2.0789 -2.8928
 6830SOL    HW231950   1.140   3.875   6.538 -2.5253 -0.8263 -0.5746
 6831SOL     OW31951   3.615   1.660   3.135  0.2263  0.3682 -0.0829
 6831SOL    HW131952   3.580   1.703   3.212 -2.7266  1.6216 -2.1305
 6831SOL    HW231953   3.694   1.712   3.125 -0.5462  1.5081 -0.2496
 6832SOL     OW31954   1.952   3.257  10.815  0.1208 -0.8903 -0.2557
 6832SOL    HW131955   1.976   3.165  10.813 -0.9703 -1.1721 -0.0264
 6832SOL    HW231956   1.876   3.260  10.873  2.3419  1.9947  2.5575
 6833SOL     OW31957   2.868   3.222  11.066 -0.3442 -0.3090 -0.1061
 6833SOL    HW131958   2.781   3.183  11.060 -0.3068 -0.6561  1.5231
 6833SOL    HW231959   2.922   3.152  11.104 -1.0475 -0.3532  0.8053
 6834SOL     OW31960   2.504   1.809   8.983 -0.3271 -0.3752  0.5362
 6834SOL    HW131961   2.592   1.809   9.022 -0.7715 -0.3944  1.5368
 6834SOL    HW231962   2.510   1.893   8.937 -0.9161 -0.8414 -0.4070
 6835SOL     OW31963   0.365   3.397   6.625 -0.4648 -0.5665  0.0758
 6835SOL    HW131964   0.306   3.367   6.556 -2.9470  0.9289  1.5822
 6835SOL    HW231965   0.399   3.316   6.663 -0.2427 -0.8258 -0.6598
 6836SOL     OW31966   0.523   0.615   9.559  0.1139  0.2226 -0.0394
 6836SOL    HW131967   0.588   0.563   9.511 -0.3465  1.3149 -1.8375
 6836SOL    HW231968   0.584   0.671   9.606  2.4720 -1.7494 -0.7129
 6837SOL     OW31969   3.123   0.842   5.902  0.4507 -0.7069 -0.3568
 6837SOL    HW131970   3.200   0.867   5.851 -0.9848 -1.8598 -3.1221
 6837SOL    HW231971   3.169   0.805   5.977  0.5185 -2.6679 -1.3541
 6838SOL     OW31972   0.511   3.736   6.214  0.2695 -0.2883  0.7142
 6838SOL    HW131973   0.470   3.672   6.272 -0.9663 -0.0695  0.0738
 6838SOL    HW231974   0.457   3.814   6.229 -1.9741 -1.9002  0.8646
 6839SOL     OW31975   3.970   3.012   6.695  0.0128  0.1331 -0.2388
 6839SOL    HW131976   4.025   3.040   6.768 -0.2642  0.7624 -0.2670
 6839SOL    HW231977   3.901   3.076   6.713  1.1595  0.9847  1.1059
 6840SOL     OW31978   2.598   1.529   1.921 -0.8302  0.4295  0.0142
 6840SOL    HW131979   2.510   1.524   1.958 -0.6611  1.3624  0.5329
 6840SOL    HW231980   2.640   1.581   1.990 -2.2312  1.4181  0.1140
 6841SOL     OW31981   3.155   0.397   0.604  0.9479 -0.1022 -0.6965
 6841SOL    HW131982   3.241   0.369   0.572  0.5893 -3.1778  0.9609
 6841SOL    HW231983   3.190   0.466   0.660  0.3281 -0.1398 -0.2607
 6842SOL     OW31984   1.966   3.128  12.343 -0.2245 -0.1312 -0.2276
 6842SOL    HW131985   1.982   3.072  12.420 -1.7264 -2.5006 -1.6359
 6842SOL    HW231986   2.054   3.163  12.327 -0.0730  0.4586  1.8698
 6843SOL     OW31987   4.231   0.907   9.436 -0.9008 -0.2118 -0.2072
 6843SOL    HW131988   4.326   0.897   9.445 -1.1439 -1.7840  0.5475
 6843SOL    HW231989   4.225   1.003   9.430  0.2663 -0.2156 -1.4580
 6844SOL     OW31990   4.475   3.205  11.831 -0.1402  0.3090  0.0541
 6844SOL    HW131991   4.493   3.111  11.838 -2.0121  0.0004  0.7524
 6844SOL    HW231992   4.474   3.231  11.923  1.3516  0.7367 -0.0487
 6845SOL     OW31993   1.771   3.094   9.243 -0.0332  0.3054  0.5359
 6845SOL    HW131994   1.779   3.165   9.307  2.6314  0.5458 -0.0485
 6845SOL    HW231995   1.749   3.022   9.302 -0.3044 -0.6248 -0.7025
 6846SOL     OW31996   3.802   0.699  15.515 -0.3747 -0.4557  0.5188
 6846SOL    HW131997   3.819   0.759  15.587  0.0939  1.7936 -1.4709
 6846SOL    HW231998   3.836   0.616  15.550  0.0518 -0.9796 -1.1312
 6847SOL     OW31999   3.783   2.503  11.461  0.4321  0.2330 -0.1387
 6847SOL    HW132000   3.756   2.583  11.416 -1.9601  0.7097  2.1075
 6847SOL    HW232001   3.768   2.433  11.398 -0.3413 -1.5267  1.9868
 6848SOL     OW32002   4.345   3.320   5.391  0.0139 -0.5547 -0.1140
 6848SOL    HW132003   4.397   3.380   5.444 -1.0805 -1.2435  1.7382
 6848SOL    HW232004   4.352   3.241   5.443 -0.8103  0.6678  1.8479
 6849SOL     OW32005   0.482   3.022   2.358  0.1927  0.0470  0.0962
 6849SOL    HW132006   0.432   3.068   2.290  1.2319  1.0246  0.0083
 6849SOL    HW232007   0.569   3.033   2.321 -0.1848 -0.3697 -0.9275
 6850SOL     OW32008   0.933   0.283   9.369 -0.2888 -0.5940  0.5154
 6850SOL    HW132009   0.948   0.189   9.380  1.6814 -0.2366  0.9535
 6850SOL    HW232010   1.022   0.291   9.333 -0.5044  1.2350  0.3834
 6851SOL     OW32011   1.466   0.021   1.467 -0.1804 -0.1386  0.8154
 6851SOL    HW132012   1.530   4.688   1.421 -0.5452 -0.1761  0.3536
 6851SOL    HW232013   1.384   4.699   1.447 -1.7504  3.2428 -0.2037
 6852SOL     OW32014   3.151   0.130  14.717 -0.4142 -0.5342  0.6100
 6852SOL    HW132015   3.226   0.180  14.685 -0.4373 -0.6434  0.3812
 6852SOL    HW232016   3.114   0.186  14.784  1.0665  0.1167  0.8760
 6853SOL     OW32017   2.356   4.451   6.407  0.7141  0.5427 -0.1850
 6853SOL    HW132018   2.376   4.544   6.399 -0.5806  1.0095  2.0026
 6853SOL    HW232019   2.444   4.412   6.406  0.4041 -0.1644  0.5700
 6854SOL     OW32020   2.024   3.573   9.326  0.2290 -0.0851 -0.2847
 6854SOL    HW132021   2.075   3.594   9.247 -0.9334  0.8369 -0.7874
 6854SOL    HW232022   2.093   3.586   9.390  1.0737 -2.0903 -0.7706
 6855SOL     OW32023   3.854   2.128  10.183  0.0578 -0.3008  0.1203
 6855SOL    HW132024   3.931   2.173  10.146 -0.2359 -0.0723 -0.2123
 6855SOL    HW232025   3.788   2.170  10.128 -0.0446  1.3543  1.5103
 6856SOL     OW32026   4.717   4.514   0.498  0.7119 -0.1142 -0.3519
 6856SOL    HW132027   0.018   4.482   0.585  0.7595  2.3130  0.5378
 6856SOL    HW232028   4.656   4.443   0.479  1.2580 -1.2695  2.2125
 6857SOL     OW32029   3.825   3.511   5.115 -0.1998 -0.4496 -0.5540
 6857SOL    HW132030   3.881   3.461   5.056  0.0756 -0.1239 -0.5638
 6857SOL    HW232031   3.741   3.505   5.069  0.3918 -0.1946 -1.6525
 6858SOL     OW32032   3.791   3.188  14.823  0.1154  0.4732  0.6529
 6858SOL    HW132033   3.700   3.159  14.822 -0.1993  1.4236  1.8686
 6858SOL    HW232034   3.826   3.111  14.779 -2.0733  0.2626 -0.7120
 6859SOL     OW32035   1.888   3.967  12.678  0.1407  0.6162  0.2604
 6859SOL    HW132036   1.854   4.051  12.648 -0.7773 -0.4874 -1.7239
 6859SOL    HW232037   1.926   3.945  12.593  1.6279  2.0693  0.5341
 6860SOL     OW32038   2.841   2.827   6.995  0.3256  0.6654  0.0202
 6860SOL    HW132039   2.876   2.780   6.919 -1.7442 -1.9248  0.6556
 6860SOL    HW232040   2.875   2.775   7.067 -3.0154 -1.2883  0.2179
 6861SOL     OW32041   3.230   4.211  14.417 -0.1262 -0.4212  0.8266
 6861SOL    HW132042   3.226   4.149  14.343 -1.1444  0.7044 -0.0549
 6861SOL    HW232043   3.151   4.189  14.466 -1.0266  0.1171 -0.3951
 6862SOL     OW32044   2.253   4.376   3.791  0.0058 -0.2741 -0.0803
 6862SOL    HW132045   2.166   4.384   3.831 -0.2169  1.5590 -0.9316
 6862SOL    HW232046   2.240   4.422   3.709  0.7755 -0.1654 -0.1417
 6863SOL     OW32047   4.028   2.446   6.751  0.5449  0.2359 -0.5443
 6863SOL    HW132048   4.062   2.536   6.745  4.9067 -1.2341  2.6056
 6863SOL    HW232049   3.975   2.452   6.831 -1.0057  1.1170 -1.6142
 6864SOL     OW32050   2.226   1.864   8.421 -0.6133  0.6913  0.1620
 6864SOL    HW132051   2.299   1.845   8.362 -1.2999 -0.2902 -0.3476
 6864SOL    HW232052   2.264   1.840   8.506  0.5889 -0.1134 -0.6128
 6865SOL     OW32053   3.732   2.963   5.561 -0.1188 -0.0821  0.5183
 6865SOL    HW132054   3.754   2.948   5.469 -1.9161 -2.7824  0.5165
 6865SOL    HW232055   3.750   3.055   5.577 -0.4239  0.0413  0.1317
 6866SOL     OW32056   2.901   2.622   8.933 -0.3409 -0.5200 -0.5108
 6866SOL    HW132057   2.966   2.637   9.002 -0.5275  0.5679 -0.5706
 6866SOL    HW232058   2.826   2.591   8.982 -1.0265  0.9455 -0.6196
 6867SOL     OW32059   2.718   0.111  10.623 -0.1753  0.2925  0.6083
 6867SOL    HW132060   2.627   0.098  10.648 -0.2494 -0.0623  0.1314
 6867SOL    HW232061   2.735   0.027  10.582 -0.5852 -0.0954  1.2374
 6868SOL     OW32062   2.651   2.267   3.706  0.3521 -0.2864  0.2413
 6868SOL    HW132063   2.598   2.188   3.695 -0.6846  0.8968 -3.1108
 6868SOL    HW232064   2.659   2.259   3.801 -1.1787 -2.0628  0.2328
 6869SOL     OW32065   4.539   4.003   7.588 -0.4203 -0.3237 -0.8062
 6869SOL    HW132066   4.607   4.037   7.646 -1.3966  1.5721 -0.7730
 6869SOL    HW232067   4.585   3.986   7.506  0.1927  0.0199 -0.5323
 6870SOL     OW32068   3.302   0.958   7.289 -0.4556 -0.0249  0.0014
 6870SOL    HW132069   3.250   1.037   7.296 -0.8222 -0.0764 -2.0957
 6870SOL    HW232070   3.353   0.963   7.370  0.3673 -1.7538 -0.3947
 6871SOL     OW32071   1.280   3.231   3.142  0.0475 -0.4127 -0.0236
 6871SOL    HW132072   1.250   3.228   3.051  1.0923 -0.6995 -0.3549
 6871SOL    HW232073   1.331   3.150   3.149  0.0129 -0.4374 -0.0546
 6872SOL     OW32074   1.333   2.340   8.206  0.4306  0.3631 -0.2090
 6872SOL    HW132075   1.422   2.375   8.198  0.6349  0.2170  1.4213
 6872SOL    HW232076   1.322   2.331   8.300 -0.8748 -0.5426 -0.4567
 6873SOL     OW32077   1.313   1.747   3.992  0.1400  0.1831  0.4578
 6873SOL    HW132078   1.293   1.668   3.942 -1.4148 -0.5265  2.2236
 6873SOL    HW232079   1.378   1.785   3.932  0.0893  0.9860  0.9161
 6874SOL     OW32080   4.682   0.519  15.570 -0.4434 -0.3415 -0.5366
 6874SOL    HW132081   4.690   0.584  15.500  4.7604 -0.6068 -0.1934
 6874SOL    HW232082   4.658   0.447  15.513  1.0673 -0.2674 -1.2571
 6875SOL     OW32083   4.386   4.021   2.653 -0.0734 -0.1647  0.4068
 6875SOL    HW132084   4.378   4.114   2.675 -1.3715 -0.8458  2.8125
 6875SOL    HW232085   4.312   4.002   2.595  0.2662  1.9532 -0.7173
 6876SOL     OW32086   1.923   0.739   3.668 -0.1788  0.0340 -0.4004
 6876SOL    HW132087   1.891   0.728   3.757  1.0778 -3.8333 -0.4000
 6876SOL    HW232088   1.867   0.677   3.621 -0.9260  0.8689 -0.6031
 6877SOL     OW32089   0.579   4.185   2.520  0.3209 -0.3286 -0.0635
 6877SOL    HW132090   0.622   4.211   2.438  1.0701 -2.5588 -0.3814
 6877SOL    HW232091   0.488   4.202   2.497  0.4730  2.1889  1.0973
 6878SOL     OW32092   4.631   4.671   2.712  0.5804  0.2230 -0.1100
 6878SOL    HW132093   4.595   4.696   2.797  0.7168  0.6138 -0.1641
 6878SOL    HW232094   4.687   0.027   2.709 -1.8227  1.9931  0.9501
 6879SOL     OW32095   1.327   1.319   8.999 -0.4671 -0.2427  0.4507
 6879SOL    HW132096   1.342   1.390   8.936  2.8782 -1.7198 -0.3882
 6879SOL    HW232097   1.238   1.345   9.021  0.4952  1.7990  1.9398
 6880SOL     OW32098   3.073   0.677   4.568 -0.0590  0.3118  0.0224
 6880SOL    HW132099   3.112   0.601   4.612  0.8688  0.3501 -0.7418
 6880SOL    HW232100   3.148   0.737   4.567  2.5263 -2.8843 -0.4625
 6881SOL     OW32101   2.611   0.976   9.735 -0.6312  0.2920 -0.0329
 6881SOL    HW132102   2.533   0.956   9.684 -1.4773  0.7723  1.0806
 6881SOL    HW232103   2.675   0.976   9.664 -0.2367  1.4123  0.3087
 6882SOL     OW32104   2.265   2.306   4.429 -0.0685  0.1201 -0.3383
 6882SOL    HW132105   2.347   2.260   4.410 -0.5267 -0.5138 -0.7550
 6882SOL    HW232106   2.210   2.231   4.407 -0.9120  0.6678 -0.1000
 6883SOL     OW32107   0.788   3.051   7.852 -0.3309 -0.4298 -0.2229
 6883SOL    HW132108   0.694   3.069   7.861  0.2495  2.4074  0.1685
 6883SOL    HW232109   0.806   2.995   7.927  0.5982  0.6963  0.4063
 6884SOL     OW32110   3.227   3.829  10.421 -0.6007  0.3930 -0.3579
 6884SOL    HW132111   3.247   3.789  10.505 -2.1573 -0.6558 -0.4878
 6884SOL    HW232112   3.259   3.918  10.436  1.1161 -0.7526  2.7493
 6885SOL     OW32113   0.146   0.051   4.879 -0.1248  0.1532 -0.0094
 6885SOL    HW132114   0.149   0.139   4.840  0.5898  0.7258  1.3464
 6885SOL    HW232115   0.129   4.713   4.806 -1.0750 -1.0984  1.2367
 6886SOL     OW32116   2.894   1.306   1.297 -0.4163 -0.3158 -0.6860
 6886SOL    HW132117   2.853   1.356   1.367  0.0815 -1.0532  0.1413
 6886SOL    HW232118   2.821   1.298   1.235 -1.8825 -1.6288  1.2239
 6887SOL     OW32119   0.517   2.589   6.953  0.4660  0.4503 -0.1615
 6887SOL    HW132120   0.457   2.655   6.986  1.6166  0.4962  1.7949
 6887SOL    HW232121   0.590   2.593   7.014 -0.6728 -2.0453  1.3920
 6888SOL     OW32122   1.292   3.608   6.281  0.0896 -0.5258  0.0160
 6888SOL    HW132123   1.332   3.628   6.196  0.6311 -1.8902 -0.0378
 6888SOL    HW232124   1.321   3.683   6.333  0.4101 -1.3219  0.9801
 6889SOL     OW32125   1.400   3.558   8.763  0.3619  0.4902  0.5620
 6889SOL    HW132126   1.442   3.502   8.829  0.1023 -0.2077  0.1351
 6889SOL    HW232127   1.467   3.600   8.710  1.0408 -2.6682 -1.1299
 6890SOL     OW32128   3.021   0.974   8.831  0.0700 -0.8767  0.2230
 6890SOL    HW132129   3.002   0.989   8.923 -0.0637 -2.2067  0.4186
 6890SOL    HW232130   2.949   0.918   8.803  0.4756 -1.7795  0.9780
 6891SOL     OW32131   3.853   3.969  12.483 -0.4274 -0.3114  0.0054
 6891SOL    HW132132   3.771   3.935  12.445  0.8212 -2.2905 -0.9503
 6891SOL    HW232133   3.880   4.030  12.415  1.4980 -0.2945  0.7916
 6892SOL     OW32134   3.022   1.585   2.936  0.4587 -0.1258 -1.0345
 6892SOL    HW132135   3.065   1.564   2.853  0.4943  2.7393 -1.7487
 6892SOL    HW232136   2.941   1.621   2.900  0.2119  0.9390  0.6056
 6893SOL     OW32137   4.359   3.728   6.013  0.4853  0.2466  0.7725
 6893SOL    HW132138   4.353   3.762   5.924  2.3952  0.7456  0.8462
 6893SOL    HW232139   4.399   3.802   6.058  1.0968  0.0510  0.5490
 6894SOL     OW32140   1.092   1.838   3.121  0.3113 -0.8184 -0.4195
 6894SOL    HW132141   1.174   1.886   3.132  0.2932 -0.3320 -2.3781
 6894SOL    HW232142   1.095   1.776   3.048 -0.8321 -2.8323  1.2354
 6895SOL     OW32143   3.545   4.574   1.381 -0.5765  0.2710  0.4850
 6895SOL    HW132144   3.543   4.513   1.308 -0.8914 -0.3392  1.0007
 6895SOL    HW232145   3.471   4.539   1.431 -1.8599 -0.1375 -1.7228
 6896SOL     OW32146   1.672   1.095  13.762  0.1238 -0.3273 -0.1881
 6896SOL    HW132147   1.701   1.109  13.672  1.3234 -0.2071  0.2169
 6896SOL    HW232148   1.589   1.046  13.761 -0.5392  0.7361  1.6774
 6897SOL     OW32149   3.859   4.178   5.495 -0.2491  0.1881 -0.0095
 6897SOL    HW132150   3.803   4.256   5.485  0.8512  1.1017  1.0292
 6897SOL    HW232151   3.793   4.109   5.490  0.2564 -0.2361 -0.7233
 6898SOL     OW32152   1.401   4.003  14.844 -0.4815 -0.6936  0.5585
 6898SOL    HW132153   1.447   4.077  14.804  1.7681 -1.2103  2.1523
 6898SOL    HW232154   1.478   3.946  14.847 -0.0296 -0.1575 -0.9199
 6899SOL     OW32155   0.554   4.041   6.484 -0.4543  0.0324  0.1956
 6899SOL    HW132156   0.609   4.064   6.559  2.9635  0.3121 -2.3733
 6899SOL    HW232157   0.545   4.135   6.467  1.7440  0.6020  2.1419
 6900SOL     OW32158   4.677   0.755  16.104  0.2169  0.4024 -0.2046
 6900SOL    HW132159   4.670   0.850  16.094  0.4489  0.5730  1.2119
 6900SOL    HW232160   4.656   0.716  16.019 -1.1531  1.1747 -0.2159
 6901SOL     OW32161   1.912   1.738  14.916  0.1915 -0.1614 -0.2312
 6901SOL    HW132162   1.989   1.770  14.868  0.2080  1.1069  0.6478
 6901SOL    HW232163   1.859   1.696  14.848  0.2266 -2.0599  0.8960
 6902SOL     OW32164   1.280   0.845   9.420  0.2873 -0.2120  0.2746
 6902SOL    HW132165   1.346   0.864   9.353 -0.3563  1.3582  0.0720
 6902SOL    HW232166   1.202   0.885   9.381 -0.1740 -1.2740  0.1197
 6903SOL     OW32167   0.087   0.147   0.784 -0.2007  0.3128  0.0056
 6903SOL    HW132168   4.718   0.119   0.797  0.7625 -1.7153  2.3348
 6903SOL    HW232169   0.133   0.104   0.855  3.3310  1.2063 -1.7786
 6904SOL     OW32170   2.232   3.935   7.468  0.0064  0.1177  0.4442
 6904SOL    HW132171   2.244   3.982   7.386 -0.7205 -1.0534 -0.3335
 6904SOL    HW232172   2.322   3.946   7.501  0.8844  2.6163 -2.7913
 6905SOL     OW32173   1.960   3.997  11.110 -0.7337  0.4423 -0.4067
 6905SOL    HW132174   1.898   4.037  11.170 -1.0131 -0.6005 -0.0006
 6905SOL    HW232175   1.905   3.930  11.069  1.0111 -0.6275 -1.0293
 6906SOL     OW32176   1.834   4.233  12.628  0.0902  0.0096 -0.3276
 6906SOL    HW132177   1.841   4.267  12.539  0.5131  0.2164 -0.2153
 6906SOL    HW232178   1.887   4.300  12.672 -0.8578  2.9320 -3.6236
 6907SOL     OW32179   3.854   0.958   4.542  0.6302 -0.1175  0.2576
 6907SOL    HW132180   3.853   1.053   4.550 -1.0736 -0.1566  0.4485
 6907SOL    HW232181   3.846   0.945   4.447  1.0761  0.4450  0.1433
 6908SOL     OW32182   1.592   1.687   9.849 -0.1680  0.2345  0.1846
 6908SOL    HW132183   1.650   1.758   9.821  0.4025 -1.5595 -3.2112
 6908SOL    HW232184   1.640   1.609   9.821  0.4057  1.0080 -0.9930
 6909SOL     OW32185   0.544   3.388  12.229  0.0326 -0.1422 -0.2870
 6909SOL    HW132186   0.533   3.480  12.251 -1.9998 -0.6204  0.7203
 6909SOL    HW232187   0.608   3.384  12.158  0.8954 -3.2341  0.6440
 6910SOL     OW32188   0.303   2.273  16.602 -1.3439  0.2122 -0.3653
 6910SOL    HW132189   0.264   2.191  16.570  2.9204 -1.1697 -2.0144
 6910SOL    HW232190   0.320   2.320  16.521  1.2805  3.0754  1.8937
 6911SOL     OW32191   4.466   3.547  10.676  0.3380 -0.2645 -0.4914
 6911SOL    HW132192   4.376   3.537  10.645 -0.0526 -0.0906  0.6115
 6911SOL    HW232193   4.467   3.642  10.669 -0.3711 -0.2680 -0.6512
 6912SOL     OW32194   0.478   3.120  12.081  0.0364 -0.0630  0.0107
 6912SOL    HW132195   0.543   3.094  12.146 -1.1094  2.2493  2.0762
 6912SOL    HW232196   0.435   3.037  12.062  0.7658 -0.7275  1.2298
 6913SOL     OW32197   2.862   1.010   1.461 -0.5490 -0.1030 -0.2220
 6913SOL    HW132198   2.909   0.927   1.452 -1.0667 -0.5163  0.7710
 6913SOL    HW232199   2.829   1.002   1.551 -0.6191 -0.7577 -0.3072
 6914SOL     OW32200   1.999   2.261  17.231  0.1210 -0.2446 -0.1727
 6914SOL    HW132201   1.994   2.281  17.325  1.5356 -3.5189  0.6169
 6914SOL    HW232202   2.060   2.187  17.232  1.2952  0.7391  0.3467
 6915SOL     OW32203   0.506   3.484  14.394 -0.4429  0.2394 -0.7483
 6915SOL    HW132204   0.548   3.420  14.451 -1.2014  0.4163 -0.0003
 6915SOL    HW232205   0.546   3.563  14.430  1.1139 -0.2522 -1.4010
 6916SOL     OW32206   2.750   3.431   2.724  0.3620 -0.0426 -0.5280
 6916SOL    HW132207   2.679   3.427   2.660  1.1277  1.1287 -1.4391
 6916SOL    HW232208   2.752   3.342   2.761 -0.4825 -0.2198 -0.9155
 6917SOL     OW32209   1.857   0.985   1.535  0.1926  0.5559  0.3716
 6917SOL    HW132210   1.832   0.932   1.459 -1.6040 -0.0045  1.3525
 6917SOL    HW232211   1.778   1.038   1.546 -0.3650  0.0788 -1.3033
 6918SOL     OW32212   1.767   1.473   5.557 -0.0412  0.5875  0.7204
 6918SOL    HW132213   1.768   1.386   5.597 -0.3457  0.7725  1.1295
 6918SOL    HW232214   1.851   1.461   5.511 -1.0427 -0.6675 -0.7601
 6919SOL     OW32215   0.570   4.520  13.745 -0.1305  0.3090  0.3674
 6919SOL    HW132216   0.561   4.428  13.719 -0.5537  0.2296  0.8066
 6919SOL    HW232217   0.644   4.516  13.806 -0.0152 -0.6105  0.1767
 6920SOL     OW32218   4.003   3.185   5.865 -0.0766 -0.0374  0.1384
 6920SOL    HW132219   3.969   3.263   5.909 -0.1341  0.8004 -1.3999
 6920SOL    HW232220   3.941   3.173   5.794  1.7538 -0.4659 -1.3823
 6921SOL     OW32221   4.159   2.442   2.765  0.1633 -0.0701 -0.6136
 6921SOL    HW132222   4.190   2.394   2.688  4.2597  0.1493  0.9057
 6921SOL    HW232223   4.185   2.389   2.841 -0.8457 -0.7780 -0.7566
 6922SOL     OW32224   3.986   0.172   9.981 -0.4496  0.1971 -0.3854
 6922SOL    HW132225   3.921   0.102   9.983 -0.2712 -0.0183 -3.0730
 6922SOL    HW232226   3.975   0.201   9.891  0.6778  0.3467 -0.4807
 6923SOL     OW32227   3.608   3.683   5.685  0.3227  0.2247  0.0023
 6923SOL    HW132228   3.672   3.710   5.620  0.1414 -0.3171 -0.3935
 6923SOL    HW232229   3.541   3.752   5.682  0.7314  0.5420 -1.4333
 6924SOL     OW32230   4.082   3.994   5.587  0.7217  0.7527  0.9075
 6924SOL    HW132231   4.110   3.963   5.501 -0.2632  1.5656  0.3016
 6924SOL    HW232232   4.025   4.069   5.572  0.2307  0.2215  0.1445
 6925SOL     OW32233   3.125   3.236  13.626  0.5975  0.0967 -0.0572
 6925SOL    HW132234   3.144   3.314  13.678 -0.4583 -0.6879  1.4992
 6925SOL    HW232235   3.074   3.273  13.554  2.0889  2.5084  0.1445
 6926SOL     OW32236   1.714   0.690   4.162 -0.2573 -0.4222  0.1407
 6926SOL    HW132237   1.639   0.746   4.141 -1.1217 -0.6043  2.6452
 6926SOL    HW232238   1.709   0.693   4.258  2.3947 -2.2923  0.3258
 6927SOL     OW32239   3.844   2.001  15.258  0.9989 -0.0213  0.3116
 6927SOL    HW132240   3.832   2.081  15.207 -0.1622 -0.2101  0.2994
 6927SOL    HW232241   3.798   1.934  15.207 -0.4461  1.6024 -0.4933
 6928SOL     OW32242   0.323   0.347   4.885 -0.6487 -0.5754  0.2755
 6928SOL    HW132243   0.249   0.353   4.824 -0.1400 -1.9087 -0.4643
 6928SOL    HW232244   0.296   0.421   4.939  0.6671 -1.9052  2.7624
 6929SOL     OW32245   3.884   0.284   4.687  0.4168 -0.4422  0.2535
 6929SOL    HW132246   3.945   0.212   4.674 -0.9754 -1.5685 -0.1070
 6929SOL    HW232247   3.852   0.300   4.598 -0.1206 -3.6021 -0.1119
 6930SOL     OW32248   3.333   4.100   8.234 -0.8242  0.6949 -0.3951
 6930SOL    HW132249   3.316   4.037   8.304  2.2373 -0.2683 -0.5283
 6930SOL    HW232250   3.425   4.122   8.250 -1.0635  1.1504  0.3587
 6931SOL     OW32251   1.915   0.881   5.167 -0.0818  0.3547 -0.1138
 6931SOL    HW132252   1.973   0.920   5.102  0.6186 -0.2234  0.1606
 6931SOL    HW232253   1.949   0.918   5.249 -2.3278  0.7831  0.6479
 6932SOL     OW32254   3.443   2.694   2.333 -0.4669  0.3728 -0.2405
 6932SOL    HW132255   3.365   2.688   2.277 -0.5437  2.3793 -0.3495
 6932SOL    HW232256   3.452   2.607   2.371  2.4479  0.8730  0.1499
 6933SOL     OW32257   3.063   2.453   7.669  1.1063  0.1003  0.0942
 6933SOL    HW132258   3.138   2.445   7.727  0.0388 -1.6788  1.2138
 6933SOL    HW232259   3.000   2.404   7.722 -0.5164  0.5220 -1.4463
 6934SOL     OW32260   1.991   2.039   9.671 -0.4726 -0.1008 -0.1571
 6934SOL    HW132261   1.929   2.075   9.607 -1.0394 -0.5029  0.1673
 6934SOL    HW232262   2.049   1.992   9.612  0.0883  0.3383  0.0513
 6935SOL     OW32263   3.906   4.144   9.011 -0.3144  0.0670 -0.0198
 6935SOL    HW132264   3.842   4.122   8.943 -0.3369 -1.3050  0.4441
 6935SOL    HW232265   3.910   4.239   9.001  0.9677 -0.0485 -0.6153
 6936SOL     OW32266   4.624   0.286   8.443  0.2984  0.0261  0.3659
 6936SOL    HW132267   4.681   0.321   8.374  0.1588  0.1197  0.2986
 6936SOL    HW232268   4.659   0.332   8.520 -0.6115 -0.5687  1.1300
 6937SOL     OW32269   4.474   3.001   0.783  0.0146 -0.0874 -0.1402
 6937SOL    HW132270   4.401   2.949   0.748  1.5060 -0.0681 -3.2397
 6937SOL    HW232271   4.537   2.931   0.796 -1.1118 -0.9986  0.3702
 6938SOL     OW32272   3.413   0.099   8.188 -0.2684  0.6061 -0.4791
 6938SOL    HW132273   3.375   0.044   8.120 -1.5394 -2.4441  2.6936
 6938SOL    HW232274   3.477   0.149   8.138  0.9230 -2.5421 -2.0271
 6939SOL     OW32275   2.872   4.494  14.582  0.7738 -0.4010  0.4604
 6939SOL    HW132276   2.815   4.435  14.631  1.1086 -2.3479 -1.5285
 6939SOL    HW232277   2.920   4.536  14.654  1.2220  0.5041 -0.3585
 6940SOL     OW32278   1.805   3.312  12.472 -0.0267 -0.3053 -0.0041
 6940SOL    HW132279   1.868   3.252  12.434  0.1277 -1.0289  1.3974
 6940SOL    HW232280   1.839   3.326  12.560 -0.0321  3.2059 -0.5558
 6941SOL     OW32281   1.726   3.367   2.306 -0.2756  0.2782  0.3692
 6941SOL    HW132282   1.686   3.280   2.297  1.0217 -0.3146  0.2859
 6941SOL    HW232283   1.658   3.401   2.364 -1.1455  1.9190 -1.6249
 6942SOL     OW32284   1.229   0.979  17.045  0.2644 -0.1002 -0.5783
 6942SOL    HW132285   1.322   0.958  17.050 -0.0067 -0.4614  2.9086
 6942SOL    HW232286   1.189   0.900  17.083 -0.1056 -0.3898 -1.5735
 6943SOL     OW32287   1.402   1.315   3.007  0.3432 -0.2111  0.2498
 6943SOL    HW132288   1.392   1.331   2.913  0.3745  0.9700  0.4449
 6943SOL    HW232289   1.497   1.308   3.004  0.2684 -0.6282 -1.0633
 6944SOL     OW32290   3.443   1.723   8.264  0.5256  0.4075  0.3918
 6944SOL    HW132291   3.367   1.674   8.233 -0.0608 -0.6006  3.4397
 6944SOL    HW232292   3.490   1.651   8.306  2.2454  1.4240  0.1748
 6945SOL     OW32293   0.445   1.652   8.403  0.3927  0.9474  0.1211
 6945SOL    HW132294   0.400   1.614   8.327  1.1173 -1.3371  0.8322
 6945SOL    HW232295   0.508   1.713   8.365  0.2454  0.2280 -1.2651
 6946SOL     OW32296   0.895   3.271   4.820 -0.1595 -0.3204 -0.0241
 6946SOL    HW132297   0.855   3.345   4.865  0.5105  0.2181 -0.3171
 6946SOL    HW232298   0.957   3.246   4.889 -1.0481 -2.1461  0.1296
 6947SOL     OW32299   3.827   0.139  13.764 -0.2595 -0.4940 -0.0317
 6947SOL    HW132300   3.783   0.054  13.774 -0.4427 -0.5657 -1.4205
 6947SOL    HW232301   3.855   0.164  13.852 -1.8359 -1.4797  0.7599
 6948SOL     OW32302   3.905   1.572   7.643  0.3898 -0.0334  0.1709
 6948SOL    HW132303   3.871   1.483   7.654 -0.7378  0.5566  1.4177
 6948SOL    HW232304   3.964   1.556   7.569  0.9305  0.2435  0.5433
 6949SOL     OW32305   0.833   1.617  12.720  0.1481 -0.0691 -0.4189
 6949SOL    HW132306   0.858   1.694  12.771  0.2110  0.2339 -0.9191
 6949SOL    HW232307   0.740   1.605  12.737  0.6114 -1.4178  1.2229
 6950SOL     OW32308   2.559   1.347   5.147 -0.1263  0.5260  0.0839
 6950SOL    HW132309   2.486   1.376   5.201 -0.1084  2.2687 -0.8244
 6950SOL    HW232310   2.549   1.400   5.068 -2.2123 -1.9289 -1.2989
 6951SOL     OW32311   1.591   3.319   4.394 -0.1177  0.1002 -0.1364
 6951SOL    HW132312   1.499   3.338   4.410 -0.6370 -1.0591 -1.7152
 6951SOL    HW232313   1.578   3.225   4.406 -0.0966  0.1313  0.1222
 6952SOL     OW32314   4.099   4.177   2.484  0.2945  0.1152 -0.4612
 6952SOL    HW132315   4.149   4.098   2.505 -2.9195 -1.9215 -0.2507
 6952SOL    HW232316   4.173   4.226   2.450  0.7849  0.3755  1.0093
 6953SOL     OW32317   3.550   2.609   8.534 -0.0926 -0.3961 -0.4120
 6953SOL    HW132318   3.636   2.649   8.518 -0.1493 -0.5872 -1.2107
 6953SOL    HW232319   3.561   2.586   8.626 -0.6257 -1.4409 -0.6092
 6954SOL     OW32320   0.459   0.386   4.326 -0.4424 -0.2429 -0.4968
 6954SOL    HW132321   0.452   0.412   4.418  3.7399 -0.1138 -0.2042
 6954SOL    HW232322   0.554   0.375   4.330 -0.4559 -0.2848 -0.2469
 6955SOL     OW32323   4.483   0.078   3.216 -0.7407 -0.7434 -0.0143
 6955SOL    HW132324   4.570   0.042   3.236  0.3198  1.9168  0.2275
 6955SOL    HW232325   4.505   0.171   3.219 -0.0941 -0.8426 -1.5116
 6956SOL     OW32326   2.095   3.494   1.256 -0.2865 -0.0112  0.0617
 6956SOL    HW132327   2.158   3.423   1.245  0.6869  0.7049  1.0117
 6956SOL    HW232328   2.029   3.462   1.194 -0.6518 -0.1662  0.5318
 6957SOL     OW32329   0.144   1.386   8.733 -0.2314 -0.4510 -1.0141
 6957SOL    HW132330   0.202   1.457   8.707  1.7738 -1.5354  0.5116
 6957SOL    HW232331   0.083   1.437   8.787 -1.3950 -1.2453 -1.5843
 6958SOL     OW32332   4.549   2.607   8.918  0.1771 -0.5087 -0.3575
 6958SOL    HW132333   4.532   2.628   8.826  1.9843 -0.1982 -0.6090
 6958SOL    HW232334   4.531   2.513   8.922  1.6111 -0.7016  1.3224
 6959SOL     OW32335   1.853   0.288   8.078  0.1230 -0.6989 -0.1447
 6959SOL    HW132336   1.933   0.263   8.032  1.5348 -0.8327  2.4097
 6959SOL    HW232337   1.854   0.383   8.066  0.8658 -0.9701 -2.2029
 6960SOL     OW32338   1.793   0.123  10.418  0.8468  0.6226 -0.2297
 6960SOL    HW132339   1.827   0.038  10.389 -1.2343  0.3463 -1.8160
 6960SOL    HW232340   1.709   0.131  10.373 -0.0229  0.7840  1.3959
 6961SOL     OW32341   2.049   1.038   3.373  0.5722 -0.1802  0.2129
 6961SOL    HW132342   2.012   1.019   3.287  0.8401  0.4030 -0.0341
 6961SOL    HW232343   2.143   1.027   3.363  0.4876  0.9269 -2.0578
 6962SOL     OW32344   1.382   0.104  16.648  0.0287 -0.3994 -0.4428
 6962SOL    HW132345   1.433   0.042  16.595 -1.0424 -0.2531 -1.6442
 6962SOL    HW232346   1.359   0.057  16.727 -1.0444  0.8627 -0.0070
 6963SOL     OW32347   4.697   0.667   4.289 -0.7842  0.0963 -0.2220
 6963SOL    HW132348   0.060   0.648   4.249 -0.0202 -0.6642  1.7403
 6963SOL    HW232349   0.002   0.692   4.378  3.9816  1.5725 -2.0587
 6964SOL     OW32350   1.262   4.542   8.943  0.2431 -0.6121  0.2493
 6964SOL    HW132351   1.252   4.632   8.973 -0.9517 -0.0503 -1.8292
 6964SOL    HW232352   1.243   4.489   9.021 -2.3235 -0.5660 -0.3399
 6965SOL     OW32353   2.856   0.268   3.808  0.4349  0.3377  0.4290
 6965SOL    HW132354   2.827   0.181   3.837 -0.1390  0.6953  0.9375
 6965SOL    HW232355   2.788   0.290   3.744 -0.0699 -1.6437  0.2865
 6966SOL     OW32356   0.423   3.552   6.389  0.3582 -0.6919  0.1595
 6966SOL    HW132357   0.469   3.555   6.473 -0.4217  0.1383  0.5535
 6966SOL    HW232358   0.346   3.499   6.412  1.1611 -0.5906  3.1243
 6967SOL     OW32359   1.873   1.380   7.926  0.0349  0.2104 -0.2778
 6967SOL    HW132360   1.877   1.440   7.852  1.5437 -1.4421 -1.5573
 6967SOL    HW232361   1.897   1.439   7.997  0.1877  0.8028 -0.8213
 6968SOL     OW32362   2.695   3.076   3.330  0.6324  0.1303  0.4413
 6968SOL    HW132363   2.665   2.987   3.346 -0.4656  0.6745  1.3775
 6968SOL    HW232364   2.786   3.059   3.305  0.7849 -0.1864  1.2002
 6969SOL     OW32365   0.379   1.272   4.713 -0.5048  0.2274 -0.8782
 6969SOL    HW132366   0.353   1.363   4.705  2.3300  1.1260  0.2164
 6969SOL    HW232367   0.366   1.241   4.624  0.9610 -1.0474 -0.6505
 6970SOL     OW32368   0.275   3.767  15.914  0.2013  0.6377 -0.7787
 6970SOL    HW132369   0.324   3.769  15.996 -0.0661 -0.5655 -0.5921
 6970SOL    HW232370   0.297   3.680  15.880  0.8196 -0.4901  2.4712
 6971SOL     OW32371   1.070   3.540   4.339 -0.2537  0.6591  0.1826
 6971SOL    HW132372   0.982   3.575   4.320 -0.5033  0.6923  1.3833
 6971SOL    HW232373   1.051   3.448   4.324 -1.0205  0.8168  0.1440
 6972SOL     OW32374   0.525   2.177   7.149 -1.0261 -0.0398  0.0100
 6972SOL    HW132375   0.550   2.161   7.058 -0.2312 -0.1173  0.2396
 6972SOL    HW232376   0.583   2.249   7.174  2.4989 -3.3034  1.3013
 6973SOL     OW32377   4.571   2.905   2.343  0.3471 -0.4625 -0.1819
 6973SOL    HW132378   4.520   2.905   2.424 -0.2521 -0.8317 -0.5573
 6973SOL    HW232379   4.538   2.830   2.293  2.0142 -0.3385 -1.4492
 6974SOL     OW32380   0.402   1.465   0.748  0.4567 -0.0894  0.1406
 6974SOL    HW132381   0.328   1.426   0.702 -0.4560  0.5490  1.0748
 6974SOL    HW232382   0.404   1.554   0.713 -0.6671  0.6896  2.0843
 6975SOL     OW32383   3.692   2.231   5.461  0.2315 -0.5493 -0.3887
 6975SOL    HW132384   3.704   2.213   5.555 -0.5812 -2.8726 -0.7245
 6975SOL    HW232385   3.638   2.310   5.449  1.5650  0.6168  1.3235
 6976SOL     OW32386   2.480   2.438   1.336  0.2480  0.0387 -0.4421
 6976SOL    HW132387   2.445   2.484   1.412 -0.0005 -0.1499 -0.4435
 6976SOL    HW232388   2.408   2.447   1.273 -0.7556 -0.7133  0.5983
 6977SOL     OW32389   0.226   4.643   8.280 -0.1733 -0.3391  0.1894
 6977SOL    HW132390   0.313   4.674   8.258 -0.7254  0.3499 -1.0430
 6977SOL    HW232391   0.165   4.686   8.220 -2.0012  1.6645  3.4806
 6978SOL     OW32392   0.325   4.537   5.461  0.5112  0.0726  0.2660
 6978SOL    HW132393   0.296   4.612   5.512 -2.8316 -0.5462 -0.7150
 6978SOL    HW232394   0.264   4.467   5.483  2.6002 -2.2723 -1.3255
 6979SOL     OW32395   3.406   4.018  11.893  0.2537  0.0726 -0.5822
 6979SOL    HW132396   3.383   4.111  11.887  0.0212 -0.1526 -2.9944
 6979SOL    HW232397   3.417   4.006  11.987 -1.7741  0.5704 -0.2880
 6980SOL     OW32398   4.437   0.411   5.355 -0.1657  0.2404 -0.2542
 6980SOL    HW132399   4.382   0.480   5.391 -0.4607 -0.0920 -0.0656
 6980SOL    HW232400   4.374   0.339   5.359  0.8646 -0.6415  0.3289
 6981SOL     OW32401   1.313   0.690   7.665 -0.6139  0.2124  0.4094
 6981SOL    HW132402   1.323   0.737   7.582 -0.4612  2.6607  1.8310
 6981SOL    HW232403   1.313   0.762   7.729  2.4164  0.8081 -0.2460
 6982SOL     OW32404   4.133   3.590  13.334  0.0314 -0.2828  0.3306
 6982SOL    HW132405   4.151   3.498  13.354 -3.1492 -1.0288 -0.2332
 6982SOL    HW232406   4.129   3.628  13.422 -1.4474  2.0506 -0.7411
 6983SOL     OW32407   2.518   2.032   8.623  0.1292  0.1633 -0.0552
 6983SOL    HW132408   2.561   2.043   8.707  0.8454  1.7335 -0.6281
 6983SOL    HW232409   2.465   1.955   8.644 -1.6435  0.7580 -2.3095
 6984SOL     OW32410   2.368   3.856   4.659  0.0815  0.3807  0.0764
 6984SOL    HW132411   2.316   3.808   4.594  0.1317 -2.4567  2.1258
 6984SOL    HW232412   2.330   3.808   4.733 -1.0403  1.0655 -0.0531
 6985SOL     OW32413   4.201   2.829   1.895 -0.7054 -0.1676  0.0469
 6985SOL    HW132414   4.279   2.829   1.839  0.4506  2.4077  1.6597
 6985SOL    HW232415   4.231   2.828   1.986 -1.5304 -1.0428  0.3143
 6986SOL     OW32416   4.166   0.561  14.439 -0.4966  0.0119  0.2599
 6986SOL    HW132417   4.156   0.624  14.368 -0.7817  1.2704  1.4090
 6986SOL    HW232418   4.259   0.547  14.426 -0.0431  2.3744  0.8304
 6987SOL     OW32419   3.323   4.371   8.746 -0.3009  0.2269 -0.0600
 6987SOL    HW132420   3.315   4.409   8.833  1.5348 -1.1040  0.6788
 6987SOL    HW232421   3.326   4.451   8.694 -1.0274 -0.1583 -0.6974
 6988SOL     OW32422   3.763   0.073   8.205  0.4969  0.5852 -0.6819
 6988SOL    HW132423   3.723   4.713   8.234  0.4533  0.6901 -0.4419
 6988SOL    HW232424   3.837   0.030   8.162 -0.0138 -1.6307  0.6785
 6989SOL     OW32425   2.303   0.392   0.629  0.7883  0.3624  0.1695
 6989SOL    HW132426   2.333   0.445   0.555  1.8399 -1.6273 -0.8445
 6989SOL    HW232427   2.290   0.307   0.586 -0.5677  0.2855  0.7495
 6990SOL     OW32428   3.428   4.571   6.303  0.1980 -0.0820  0.0031
 6990SOL    HW132429   3.344   4.615   6.318 -1.9776 -4.3414  0.4203
 6990SOL    HW232430   3.406   4.536   6.216  1.6428  0.0062 -0.4015
 6991SOL     OW32431   2.367   2.230  10.225  0.3311  0.4675  0.0278
 6991SOL    HW132432   2.390   2.278  10.304 -2.6701  2.2886 -0.2048
 6991SOL    HW232433   2.277   2.200  10.237  0.7345 -0.5154  0.5842
 6992SOL     OW32434   2.948   1.926  14.752  0.3362  0.5043  0.3313
 6992SOL    HW132435   2.966   2.003  14.697 -2.5556 -0.1369 -1.5140
 6992SOL    HW232436   2.944   1.857  14.686 -1.1403  0.7779  0.1392
 6993SOL     OW32437   4.222   4.343   8.978 -0.1032 -0.1591 -0.0255
 6993SOL    HW132438   4.288   4.396   8.933 -0.1633 -0.1226 -0.0714
 6993SOL    HW232439   4.154   4.407   9.001 -0.7310  0.1717 -2.8140
 6994SOL     OW32440   1.891   0.626  11.563  0.4894  0.0126 -0.3139
 6994SOL    HW132441   1.805   0.637  11.522  0.9515  0.4246 -1.1882
 6994SOL    HW232442   1.848   0.614  11.647  1.9236 -2.1682  0.1047
 6995SOL     OW32443   2.849   2.029  17.674  0.3149  0.6354 -0.0163
 6995SOL    HW132444   2.824   1.981   0.065 -1.0152 -1.7788 -1.8883
 6995SOL    HW232445   2.899   2.099   0.027 -2.9516  2.1109  1.4047
 6996SOL     OW32446   1.454   0.719  14.935 -0.2952  0.0534 -0.7176
 6996SOL    HW132447   1.504   0.751  15.010 -0.6023 -2.6016  0.6243
 6996SOL    HW232448   1.395   0.655  14.976 -0.6691  0.9637  0.1898
 6997SOL     OW32449   2.021   0.055   4.503 -0.2936 -0.1004 -0.2312
 6997SOL    HW132450   2.013   0.030   4.595 -4.0422 -3.0506 -1.3776
 6997SOL    HW232451   2.103   0.104   4.513 -2.1978  2.9638  0.4603
 6998SOL     OW32452   4.397   0.188   1.043 -0.2556 -0.3435  0.1146
 6998SOL    HW132453   4.466   0.240   1.084  0.3836 -2.1458  1.2903
 6998SOL    HW232454   4.385   0.238   0.962 -0.1027 -0.4186  0.0464
 6999SOL     OW32455   4.553   4.628   1.763  0.0606 -0.4937  0.2548
 6999SOL    HW132456   4.551   4.573   1.685 -2.9902  1.2420 -0.8991
 6999SOL    HW232457   4.643   4.661   1.759 -0.7121  1.5688 -0.3601
 7000SOL     OW32458   0.362   4.534  11.270  0.0859  0.8833  0.6960
 7000SOL    HW132459   0.447   4.577  11.277 -0.4850  2.3378 -1.2812
 7000SOL    HW232460   0.391   4.443  11.274  2.2796  1.5876  0.5417
 7001SOL     OW32461   0.613   1.347   2.934  0.4637 -0.9499 -0.5765
 7001SOL    HW132462   0.558   1.373   2.860 -0.1564  0.1744  0.2773
 7001SOL    HW232463   0.549   1.320   3.000 -0.1471 -0.0543 -0.8073
 7002SOL     OW32464   1.458   1.488  17.286 -0.1092  0.1071 -0.0125
 7002SOL    HW132465   1.437   1.401  17.253 -1.7851 -0.0773  1.5226
 7002SOL    HW232466   1.553   1.483  17.275 -0.0056 -1.2983  1.6274
 7003SOL     OW32467   1.108   2.184   5.066 -0.4986 -0.3219  0.2269
 7003SOL    HW132468   1.192   2.146   5.040  1.2026  1.9463  2.3540
 7003SOL    HW232469   1.112   2.260   5.007 -2.7629 -0.1112  0.3782
 7004SOL     OW32470   3.722   3.879  12.716 -0.2334  0.2643 -0.0804
 7004SOL    HW132471   3.645   3.877  12.659  0.1246 -0.9594 -0.5153
 7004SOL    HW232472   3.793   3.878  12.652 -0.4538  1.1065 -0.3390
 7005SOL     OW32473   2.830   2.943   4.842 -0.4920 -0.1136 -0.2502
 7005SOL    HW132474   2.778   2.903   4.912  0.0311 -0.7018 -0.1916
 7005SOL    HW232475   2.759   2.963   4.781  0.5420 -0.5707 -1.6073
 7006SOL     OW32476   2.213   2.772  10.999 -0.0858  1.0151 -0.6383
 7006SOL    HW132477   2.222   2.857  10.954  0.9424  0.3072 -1.7541
 7006SOL    HW232478   2.224   2.804  11.088  1.4806 -1.0698 -0.1112
 7007SOL     OW32479   0.163   1.439   1.482  0.4660  0.2059 -0.2020
 7007SOL    HW132480   0.078   1.396   1.477 -0.2722  1.7395 -0.6798
 7007SOL    HW232481   0.170   1.509   1.418 -0.3790  0.3884 -0.0901
 7008SOL     OW32482   4.204   0.164   2.639  0.2397 -0.0680  0.4529
 7008SOL    HW132483   4.123   0.126   2.672 -0.1998 -0.8418 -1.4695
 7008SOL    HW232484   4.173   0.220   2.568 -0.1884 -1.1897 -0.2567
 7009SOL     OW32485   3.139   3.762   5.238 -0.0942 -0.3686  0.3033
 7009SOL    HW132486   3.103   3.775   5.150 -2.1113 -1.0193  1.0359
 7009SOL    HW232487   3.073   3.700   5.269  0.7801 -1.3446  0.2171
 7010SOL     OW32488   1.380   0.599   0.192 -0.1095 -0.2560 -0.1765
 7010SOL    HW132489   1.415   0.629   0.108 -1.5441 -1.9071 -1.3681
 7010SOL    HW232490   1.421   0.668   0.243  1.7025 -0.4620 -1.3663
 7011SOL     OW32491   0.250   2.776   8.762 -0.0185  0.1477 -0.0034
 7011SOL    HW132492   0.227   2.684   8.773 -0.7345  0.3808  0.4470
 7011SOL    HW232493   0.261   2.804   8.853  0.6684  0.5484 -0.2091
 7012SOL     OW32494   0.267   0.579   9.280  0.3747 -0.5016  0.5429
 7012SOL    HW132495   0.280   0.498   9.330  2.1643  0.1523  1.1466
 7012SOL    HW232496   0.177   0.566   9.251  0.5289  2.4574 -1.1842
 7013SOL     OW32497   3.249   2.059  17.599 -0.3568 -0.1464 -0.2326
 7013SOL    HW132498   3.208   2.114  17.533  0.9283  0.0704 -0.8308
 7013SOL    HW232499   3.211   1.975  17.573  2.3164 -1.6368  0.6715
 7014SOL     OW32500   1.002   0.568   1.621  0.3931 -0.2904 -0.1892
 7014SOL    HW132501   1.085   0.526   1.599  0.5939  0.9232 -1.7315
 7014SOL    HW232502   1.035   0.614   1.699 -2.1218  0.5171  0.3900
 7015SOL     OW32503   1.015   3.527  14.113  0.6711  0.1333 -0.9343
 7015SOL    HW132504   1.047   3.471  14.184  2.7910 -0.1037 -2.0689
 7015SOL    HW232505   1.017   3.472  14.035  1.2808 -0.7686 -0.2833
 7016SOL     OW32506   1.249   3.951   4.704  0.5185 -1.0083  0.2612
 7016SOL    HW132507   1.340   3.954   4.674  0.3070  2.6209 -0.0572
 7016SOL    HW232508   1.218   3.884   4.643  1.9085  0.0980 -1.6827
 7017SOL     OW32509   0.457   1.494  13.310 -1.1396  1.0799  0.0736
 7017SOL    HW132510   0.546   1.473  13.338 -0.9647 -0.8601 -1.9440
 7017SOL    HW232511   0.406   1.453  13.380  2.8270  0.6887  2.7304
 7018SOL     OW32512   4.235   1.635   8.526  0.6611 -0.0432 -0.2572
 7018SOL    HW132513   4.179   1.569   8.486  0.8152  0.3533 -1.1188
 7018SOL    HW232514   4.163   1.695   8.545  0.8642 -0.4151  1.6449
 7019SOL     OW32515   1.937   3.982   9.163  0.2166  0.2653 -0.3049
 7019SOL    HW132516   2.020   4.013   9.126  0.6812  1.2572  1.5302
 7019SOL    HW232517   1.943   4.007   9.255  2.6116 -1.6271  0.0834
 7020SOL     OW32518   4.483   2.947   3.660 -0.0320 -0.4673  0.6649
 7020SOL    HW132519   4.533   3.023   3.691 -1.8816  0.8586  0.3954
 7020SOL    HW232520   4.406   2.990   3.623  0.1262 -1.2818 -0.5897
 7021SOL     OW32521   2.007   2.374  17.474 -0.3825  0.0177  0.6400
 7021SOL    HW132522   2.082   2.355  17.531  0.6235  0.5191 -0.5141
 7021SOL    HW232523   1.944   2.311  17.507 -0.4433 -0.5815 -0.6217
 7022SOL     OW32524   0.877   3.869   3.466 -0.7120  0.0549  0.1505
 7022SOL    HW132525   0.951   3.875   3.526 -2.0726 -2.1112  2.0526
 7022SOL    HW232526   0.902   3.805   3.400  1.5772 -0.4904  1.5576
 7023SOL     OW32527   2.491   0.255   6.356  0.2117  0.0194  0.1006
 7023SOL    HW132528   2.457   0.330   6.406  0.0411  0.1835 -0.2588
 7023SOL    HW232529   2.499   0.288   6.266 -1.0169  1.1636  0.4071
 7024SOL     OW32530   1.616   2.534   8.933 -0.0372  0.1821  0.2638
 7024SOL    HW132531   1.636   2.573   9.018  0.3217 -1.1741  0.7960
 7024SOL    HW232532   1.539   2.585   8.908 -1.0287 -1.0487  0.8424
 7025SOL     OW32533   0.814   1.110  14.737  0.6590 -0.4110  0.2581
 7025SOL    HW132534   0.901   1.071  14.731  0.5598 -0.6756  0.5620
 7025SOL    HW232535   0.784   1.073  14.821 -1.5987 -0.6272 -0.6337
 7026SOL     OW32536   1.027   3.485  15.457 -0.0404  0.0964 -0.1034
 7026SOL    HW132537   1.061   3.568  15.424 -2.1542  0.5970 -1.0629
 7026SOL    HW232538   1.103   3.457  15.508 -1.1996 -0.6857  1.2134
 7027SOL     OW32539   4.181   2.869   7.004  0.2451 -0.8110  0.0478
 7027SOL    HW132540   4.252   2.896   7.063 -0.6935  1.8765 -0.0903
 7027SOL    HW232541   4.154   2.955   6.973  1.2076  0.0478  1.5951
 7028SOL     OW32542   1.888   3.131   9.003 -0.4198 -0.0643 -0.6133
 7028SOL    HW132543   1.885   3.225   8.983 -1.5457 -0.5154 -2.5876
 7028SOL    HW232544   1.841   3.128   9.086  0.9568 -2.7520  0.0652
 7029SOL     OW32545   1.584   4.287  13.060  0.7058  0.4925 -0.2977
 7029SOL    HW132546   1.646   4.311  12.990  1.0878  0.3491 -0.0067
 7029SOL    HW232547   1.642   4.283  13.135  2.0718  0.6081 -1.3463
 7030SOL     OW32548   0.653   4.628   3.438 -0.4957 -0.3820  0.0644
 7030SOL    HW132549   0.740   4.616   3.399 -1.5111 -1.8566 -1.7518
 7030SOL    HW232550   0.654   4.590   3.525  1.8973  0.4217  0.3884
 7031SOL     OW32551   2.164   1.473   0.859  0.1189 -0.7244 -0.3321
 7031SOL    HW132552   2.156   1.389   0.904 -0.8378 -0.3971  0.1089
 7031SOL    HW232553   2.222   1.447   0.787 -0.7779 -0.1133 -1.2769
 7032SOL     OW32554   3.903   3.878   3.752  0.2108  0.0114  0.3991
 7032SOL    HW132555   3.893   3.970   3.727  0.2014  0.5801  2.5464
 7032SOL    HW232556   3.815   3.851   3.778 -0.6725  1.9072 -0.6183
 7033SOL     OW32557   4.131   2.964   7.799 -0.5756 -0.3972 -0.4781
 7033SOL    HW132558   4.110   3.038   7.741 -0.5019 -1.3722 -1.7646
 7033SOL    HW232559   4.223   2.941   7.782 -0.6168 -2.4938  2.2468
 7034SOL     OW32560   0.923   3.094   6.088 -0.0562 -0.2121  0.1627
 7034SOL    HW132561   0.952   3.121   6.175 -0.5895  0.4716  0.1276
 7034SOL    HW232562   0.833   3.072   6.111  0.9621 -0.9500  3.3828
 7035SOL     OW32563   1.542   2.124   9.979 -0.5043 -0.0456  0.0525
 7035SOL    HW132564   1.541   2.136   9.884  0.9890 -0.4374 -0.0182
 7035SOL    HW232565   1.455   2.162   9.990 -1.0488 -0.7377 -1.8784
 7036SOL     OW32566   1.427   1.162  11.884  0.0343  0.1318  0.1752
 7036SOL    HW132567   1.387   1.233  11.834  0.0312 -0.6070 -0.8636
 7036SOL    HW232568   1.440   1.206  11.969 -0.7451  0.3573  0.1777
 7037SOL     OW32569   4.335   2.897   9.798 -0.3370 -0.5895 -0.1521
 7037SOL    HW132570   4.314   2.947   9.877 -1.5716  0.4019 -1.1129
 7037SOL    HW232571   4.418   2.855   9.822 -0.9219  0.1232  3.1350
 7038SOL     OW32572   0.233   0.556   8.609  0.3715  0.0020 -0.6568
 7038SOL    HW132573   0.244   0.467   8.577  1.8128  0.0582 -0.3301
 7038SOL    HW232574   0.214   0.590   8.521 -0.2360 -2.0381 -1.3181
 7039SOL     OW32575   1.050   4.391   5.127 -0.0411 -0.0957 -0.4397
 7039SOL    HW132576   1.010   4.404   5.213 -0.6792 -2.6440 -0.3543
 7039SOL    HW232577   1.044   4.295   5.128 -1.4963  0.0000 -0.6288
 7040SOL     OW32578   0.811   1.559  11.900 -0.3039  0.5019 -1.1114
 7040SOL    HW132579   0.886   1.618  11.901 -1.0110  1.4007 -1.9314
 7040SOL    HW232580   0.734   1.615  11.894  0.8950  2.3245  0.6336
 7041SOL     OW32581   1.926   3.877   5.352  0.6342  0.2440  0.2663
 7041SOL    HW132582   1.919   3.947   5.417  0.8475  1.7747 -1.3495
 7041SOL    HW232583   1.985   3.909   5.283 -0.3590 -1.2145 -1.2613
 7042SOL     OW32584   0.589   0.530   3.486 -0.0315 -0.4296  0.4666
 7042SOL    HW132585   0.556   0.499   3.402  1.5710  1.3721 -0.8245
 7042SOL    HW232586   0.657   0.588   3.453 -0.3557 -2.0457 -3.0372
 7043SOL     OW32587   3.293   4.216   5.020 -0.1952  0.6023  0.0935
 7043SOL    HW132588   3.341   4.227   5.102 -2.6216 -2.5031  1.9321
 7043SOL    HW232589   3.218   4.164   5.050  0.7067  0.5983  2.3357
 7044SOL     OW32590   2.717   3.043  10.506  0.0818  0.4126  0.3896
 7044SOL    HW132591   2.764   3.014  10.427  0.5911  2.5300 -0.0769
 7044SOL    HW232592   2.697   3.134  10.482 -0.7160  0.1384 -0.0050
 7045SOL     OW32593   0.684   3.973   0.409 -0.2654 -0.2399  0.3395
 7045SOL    HW132594   0.596   3.939   0.424 -0.0602 -1.3032 -0.8996
 7045SOL    HW232595   0.665   4.067   0.406 -0.5875 -0.4355 -3.2038
 7046SOL     OW32596   2.855   3.403   4.960  0.3050 -0.2818  0.1338
 7046SOL    HW132597   2.806   3.442   4.888  0.5639 -2.4120 -1.1832
 7046SOL    HW232598   2.805   3.323   4.975  0.8767 -0.5050  0.8528
 7047SOL     OW32599   0.822   2.712  16.133  0.2655 -0.0095  0.6422
 7047SOL    HW132600   0.733   2.730  16.103 -0.2704 -1.5473  1.3019
 7047SOL    HW232601   0.794   2.662  16.210  1.4802 -1.8920 -0.1312
 7048SOL     OW32602   4.397   0.707   7.713 -0.2029  0.0940  0.2741
 7048SOL    HW132603   4.371   0.617   7.727  0.2746 -0.0578  0.1873
 7048SOL    HW232604   4.430   0.729   7.800  2.4461  1.4945 -1.0458
 7049SOL     OW32605   0.280   4.628   5.897  0.0898 -0.3664  0.0908
 7049SOL    HW132606   0.371   4.614   5.923 -0.0794 -0.1119  0.8195
 7049SOL    HW232607   0.229   4.608   5.976 -0.8053 -0.2761 -0.4615
 7050SOL     OW32608   0.840   4.541  13.819  0.3725 -0.7426 -0.1923
 7050SOL    HW132609   0.849   4.618  13.763 -0.0375  1.0265  2.1802
 7050SOL    HW232610   0.817   4.579  13.904  1.5322 -0.4668  0.0072
 7051SOL     OW32611   0.960   1.894   4.826 -0.2237  0.0951 -0.4232
 7051SOL    HW132612   0.932   1.839   4.753 -0.5300  0.9031 -0.9169
 7051SOL    HW232613   0.905   1.972   4.820  0.9471  1.1640  2.9490
 7052SOL     OW32614   2.996   4.531   2.240  0.6381  0.2462 -0.4711
 7052SOL    HW132615   2.923   4.531   2.179  0.2498 -3.2568 -0.0251
 7052SOL    HW232616   3.023   4.623   2.242 -0.6209  0.6011 -0.0899
 7053SOL     OW32617   2.158   1.249   3.553 -0.0374 -0.4654 -0.0901
 7053SOL    HW132618   2.098   1.246   3.627  1.1714  1.7534  0.9548
 7053SOL    HW232619   2.098   1.269   3.481  0.0407  1.3203  0.3504
 7054SOL     OW32620   0.345   3.090   2.798 -0.3377 -0.4938  0.1369
 7054SOL    HW132621   0.348   3.155   2.728 -0.9588  0.4975  1.0411
 7054SOL    HW232622   0.409   3.024   2.772  0.9302  0.0256  1.9221
 7055SOL     OW32623   2.388   4.062   5.250 -0.2936 -0.5931 -0.1768
 7055SOL    HW132624   2.468   4.048   5.301 -0.1452  1.8626  0.2445
 7055SOL    HW232625   2.393   4.157   5.243  1.4243 -0.7200 -0.7699
 7056SOL     OW32626   1.673   1.378   3.643 -0.1081 -0.2796  0.8407
 7056SOL    HW132627   1.739   1.433   3.686 -1.0710 -0.3381  2.3940
 7056SOL    HW232628   1.691   1.294   3.686 -2.8600 -1.5869 -0.5797
 7057SOL     OW32629   2.428   3.663   2.134 -0.3425  0.6182  0.6453
 7057SOL    HW132630   2.429   3.629   2.044  0.7891  0.3777  0.7564
 7057SOL    HW232631   2.511   3.652   2.180 -0.0722  0.7558  0.1974
 7058SOL     OW32632   0.241   1.010  12.077 -0.2059 -0.0009  0.0109
 7058SOL    HW132633   0.199   0.987  12.159 -0.5336  3.3464  0.7844
 7058SOL    HW232634   0.321   1.055  12.105  0.5861 -1.0611 -0.5280
 7059SOL     OW32635   0.525   2.545  15.746 -0.7801 -0.8900  0.5853
 7059SOL    HW132636   0.509   2.450  15.747 -2.6138 -0.6064 -1.5435
 7059SOL    HW232637   0.536   2.567  15.653 -2.8135 -1.7278  0.1359
 7060SOL     OW32638   3.754   0.735   6.731 -0.2527  0.1646 -0.5224
 7060SOL    HW132639   3.835   0.771   6.769 -0.2035 -0.8617  0.3655
 7060SOL    HW232640   3.697   0.788   6.787  1.1743 -1.3776  2.4251
 7061SOL     OW32641   3.265   0.529   3.966  0.1150 -0.2190 -0.1816
 7061SOL    HW132642   3.172   0.534   3.990  0.1288 -0.2285 -0.1272
 7061SOL    HW232643   3.258   0.530   3.870  0.7478  0.0862 -0.2260
 7062SOL     OW32644   3.766   4.385   7.606 -0.4879  0.4182  0.1783
 7062SOL    HW132645   3.780   4.431   7.689 -0.9526  2.4247 -0.8716
 7062SOL    HW232646   3.671   4.374   7.611 -0.5799  0.6586 -1.1250
 7063SOL     OW32647   1.967   2.472  15.909  0.2452  0.1689 -0.4880
 7063SOL    HW132648   1.989   2.559  15.875  1.4804 -0.7468 -2.0024
 7063SOL    HW232649   2.058   2.444  15.917  0.0314 -0.4532 -0.2611
 7064SOL     OW32650   1.146   2.982   7.901  0.3743 -0.4102  0.3509
 7064SOL    HW132651   1.113   2.913   7.844  0.7604  0.0607 -0.4453
 7064SOL    HW232652   1.238   2.957   7.912  1.1820  2.1032 -0.6714
 7065SOL     OW32653   4.056   4.486  16.984  0.3122 -0.6674 -0.0367
 7065SOL    HW132654   4.118   4.555  17.008 -0.0156  0.0236 -1.1943
 7065SOL    HW232655   4.063   4.433  17.063  0.4130  1.1003  1.1627
 7066SOL     OW32656   3.604   3.630   3.312 -0.0449  0.9511 -0.4209
 7066SOL    HW132657   3.601   3.706   3.254 -0.3917 -0.4868 -2.2993
 7066SOL    HW232658   3.586   3.668   3.398 -2.6528 -3.1220  0.8268
 7067SOL     OW32659   1.978   2.949   7.964 -0.3817 -0.3042  0.9217
 7067SOL    HW132660   1.993   2.932   7.871 -0.4387 -1.1427  1.0678
 7067SOL    HW232661   1.949   2.861   7.989  1.5186 -2.1654 -3.4133
 7068SOL     OW32662   0.549   4.491   2.788  0.0533  0.0992  0.1454
 7068SOL    HW132663   0.548   4.519   2.696 -1.7444 -0.6525 -0.0634
 7068SOL    HW232664   0.572   4.398   2.788 -2.9202 -0.6388  0.8576
 7069SOL     OW32665   0.342   2.042   5.354 -0.5009 -0.5245 -0.2108
 7069SOL    HW132666   0.296   2.081   5.428  0.7562 -2.6783  1.7043
 7069SOL    HW232667   0.320   1.949   5.362 -2.5075  0.0044  0.3829
 7070SOL     OW32668   3.217   4.317   2.604  0.0072  0.5828 -0.3818
 7070SOL    HW132669   3.300   4.342   2.563 -0.0226  0.5631 -0.4534
 7070SOL    HW232670   3.253   4.280   2.684 -0.9250 -0.2816 -0.3644
 7071SOL     OW32671   2.518   0.923   2.862 -0.4306  0.2716 -0.9226
 7071SOL    HW132672   2.515   0.965   2.776 -1.8434 -0.1702 -1.0850
 7071SOL    HW232673   2.564   0.991   2.912 -0.3819  0.0809 -0.7103
 7072SOL     OW32674   4.381   2.843  13.655  0.0891  0.2712  1.0114
 7072SOL    HW132675   4.303   2.852  13.709 -0.8300 -0.3194 -0.1993
 7072SOL    HW232676   4.420   2.920  13.695  0.5560  0.3021  0.4877
 7073SOL     OW32677   2.239   1.752   9.042  0.1587 -0.0603  0.0169
 7073SOL    HW132678   2.211   1.803   9.118  0.3947  0.8382 -0.4871
 7073SOL    HW232679   2.329   1.782   9.027 -0.4822  2.1156  0.4653
 7074SOL     OW32680   3.278   1.432  11.421 -0.2902 -0.3512 -0.4990
 7074SOL    HW132681   3.352   1.388  11.378  0.5573 -0.2937  0.9026
 7074SOL    HW232682   3.311   1.522  11.423  1.1728 -0.9270  0.9184
 7075SOL     OW32683   1.570   3.054   9.914  0.6920  0.5749 -0.3533
 7075SOL    HW132684   1.616   3.087   9.991 -0.3170  3.1681 -0.8405
 7075SOL    HW232685   1.489   3.105   9.913  0.6705  0.5117 -1.8698
 7076SOL     OW32686   4.335   4.618   3.373  0.1790  0.3025 -0.2193
 7076SOL    HW132687   4.245   4.651   3.381 -0.7577 -1.9512 -1.3827
 7076SOL    HW232688   4.374   4.694   3.330 -0.1089  1.2366  1.1663
 7077SOL     OW32689   0.120   4.306   2.579  0.2260  0.2072  0.4587
 7077SOL    HW132690   0.176   4.269   2.647 -0.9730 -1.7315  0.3929
 7077SOL    HW232691   0.180   4.340   2.513  1.0745  0.5084  1.3937
 7078SOL     OW32692   2.764   4.168  10.773  0.2731  0.3295 -0.7278
 7078SOL    HW132693   2.705   4.223  10.824 -1.5264 -3.0794  0.8294
 7078SOL    HW232694   2.827   4.156  10.845 -1.1522 -3.1234 -0.0965
 7079SOL     OW32695   0.713   3.990   3.655  0.6435  0.0336 -0.0293
 7079SOL    HW132696   0.766   3.970   3.732  0.9261 -0.7963 -0.4371
 7079SOL    HW232697   0.768   3.943   3.593  0.3075  0.8633 -0.9473
 7080SOL     OW32698   4.532   2.287   4.612  0.0889 -0.0645 -0.1157
 7080SOL    HW132699   4.544   2.309   4.520  0.4203  0.8550  0.1435
 7080SOL    HW232700   4.503   2.196   4.611  1.9485 -0.6198 -2.1656
 7081SOL     OW32701   1.470   2.684   7.528  0.4081 -0.6241  0.2925
 7081SOL    HW132702   1.455   2.619   7.596 -1.5726  0.7142  1.1316
 7081SOL    HW232703   1.553   2.722   7.557 -0.3793  1.5346 -0.3039
 7082SOL     OW32704   4.117   1.733   6.364  0.3157 -0.1802 -0.1114
 7082SOL    HW132705   4.175   1.670   6.322 -0.0862 -0.0541 -0.8504
 7082SOL    HW232706   4.175   1.808   6.382 -0.2170  0.2272 -0.0948
 7083SOL     OW32707   1.279   0.675   5.094  0.1351 -0.1123 -0.2297
 7083SOL    HW132708   1.277   0.615   5.020  0.6715  0.1863 -0.4892
 7083SOL    HW232709   1.269   0.619   5.171 -0.1914 -0.5418 -0.5910
 7084SOL     OW32710   3.773   3.436   3.134  0.4970  0.3009  0.3258
 7084SOL    HW132711   3.748   3.489   3.210  0.7324 -1.6875  1.7885
 7084SOL    HW232712   3.801   3.355   3.176 -2.0062 -0.4197  0.6114
 7085SOL     OW32713   3.061   0.324  17.381 -0.2236  0.0754  0.2393
 7085SOL    HW132714   3.075   0.285  17.294 -3.3501 -1.0405  0.2411
 7085SOL    HW232715   2.991   0.269  17.416 -0.6228  0.2893 -0.2161
 7086SOL     OW32716   0.314   0.186   6.261  0.2183  0.4477  0.2190
 7086SOL    HW132717   0.304   0.206   6.354 -0.3264 -1.7028  0.6304
 7086SOL    HW232718   0.322   0.091   6.270  0.5263  0.0770 -3.6593
 7087SOL     OW32719   1.950   2.572   5.506  0.4704  0.6218  0.0222
 7087SOL    HW132720   1.877   2.610   5.458 -1.8650 -3.4705  0.3344
 7087SOL    HW232721   2.021   2.575   5.443  1.4614  0.3085  1.1178
 7088SOL     OW32722   2.156   2.778   3.009 -0.0400  0.2882 -0.6124
 7088SOL    HW132723   2.162   2.684   2.993 -0.1334  0.3567 -1.0633
 7088SOL    HW232724   2.212   2.794   3.085 -0.3486 -2.1902  0.1111
 7089SOL     OW32725   2.623   3.061   9.138 -0.4977  0.3821 -0.2579
 7089SOL    HW132726   2.632   3.146   9.180 -2.0279  0.0914  0.6558
 7089SOL    HW232727   2.530   3.058   9.119  0.3811  0.9778 -4.6869
 7090SOL     OW32728   3.987   4.578   3.734 -0.1705  0.0074  0.8454
 7090SOL    HW132729   3.964   4.503   3.680 -1.1985  0.8323  0.1436
 7090SOL    HW232730   3.937   4.653   3.701 -1.5241 -0.8751  0.8532
 7091SOL     OW32731   3.331   2.255   0.392  0.0087  0.4373 -0.0716
 7091SOL    HW132732   3.303   2.208   0.470  1.3514  1.5207  1.0564
 7091SOL    HW232733   3.401   2.203   0.353 -0.7991 -1.4467  0.9697
 7092SOL     OW32734   3.286   1.463   8.661  0.2683 -0.1783  0.4371
 7092SOL    HW132735   3.264   1.550   8.693  1.3307  0.2504 -0.0302
 7092SOL    HW232736   3.372   1.477   8.622  0.6953 -2.9609  0.3317
 7093SOL     OW32737   1.815   3.624   0.393  0.2774 -0.0093  0.1181
 7093SOL    HW132738   1.864   3.698   0.357  0.9644 -0.7918 -0.5722
 7093SOL    HW232739   1.890   3.573   0.425  1.2483  1.0512 -0.4365
 7094SOL     OW32740   0.065   2.495  17.543  0.0048  0.5010 -0.3990
 7094SOL    HW132741   0.082   2.587  17.562 -0.7606  0.7021 -0.6565
 7094SOL    HW232742   0.152   2.458  17.533 -0.7266 -1.1932 -0.5020
 7095SOL     OW32743   0.167   2.235  10.382  0.1917  0.0581 -0.3306
 7095SOL    HW132744   0.075   2.259  10.383  0.0680 -0.4742  1.0795
 7095SOL    HW232745   0.194   2.247  10.291 -1.6077 -4.3526 -1.4108
 7096SOL     OW32746   4.669   1.687   7.518 -0.3331  0.1596 -0.2639
 7096SOL    HW132747   4.659   1.656   7.608 -2.2087  1.5498  0.0142
 7096SOL    HW232748   4.583   1.728   7.516 -0.8666 -0.9587 -0.2738
 7097SOL     OW32749   2.024   2.496   8.921  0.0187  0.5117 -0.1204
 7097SOL    HW132750   2.108   2.539   8.938  1.1241 -1.4833 -0.5194
 7097SOL    HW232751   2.045   2.406   8.897 -0.6958  0.5866 -1.0651
 7098SOL     OW32752   3.425   1.539   3.641  0.2114 -0.4738 -0.2162
 7098SOL    HW132753   3.345   1.548   3.692  0.6381  0.8207  0.2197
 7098SOL    HW232754   3.424   1.443   3.634 -0.6451 -0.5767  1.4014
 7099SOL     OW32755   0.003   3.039   6.193  0.0643 -0.1908 -0.4353
 7099SOL    HW132756   0.085   2.991   6.187 -0.0324 -0.5294  1.1026
 7099SOL    HW232757   4.665   2.971   6.225  0.5429 -0.4037 -0.0079
 7100SOL     OW32758   2.942   4.054   5.441 -0.2105 -0.1956 -0.1484
 7100SOL    HW132759   2.960   3.991   5.511  0.1288 -0.3930 -0.4050
 7100SOL    HW232760   2.851   4.036   5.418 -0.4212  1.9292 -0.9455
 7101SOL     OW32761   1.409   3.717   1.011 -0.5630 -0.5234 -0.3174
 7101SOL    HW132762   1.426   3.748   0.922 -1.3607 -0.6288 -0.5059
 7101SOL    HW232763   1.359   3.792   1.045  1.5181  1.0109 -0.6112
 7102SOL     OW32764   1.079   3.717  15.657  0.0673 -0.0578  0.0561
 7102SOL    HW132765   1.100   3.674  15.740 -0.6786 -0.4718  0.0310
 7102SOL    HW232766   0.986   3.701  15.641  0.2934 -1.8416  0.5105
 7103SOL     OW32767   2.312   2.626   0.571 -0.2298  0.2321  0.0545
 7103SOL    HW132768   2.346   2.648   0.658  0.0115  1.2112 -0.2810
 7103SOL    HW232769   2.221   2.655   0.580 -0.9510 -1.3535 -2.2155
 7104SOL     OW32770   3.442   3.977   0.133  0.2919 -0.2533 -0.5107
 7104SOL    HW132771   3.491   4.005   0.055  1.7540 -1.7825 -0.1446
 7104SOL    HW232772   3.356   4.016   0.118 -0.0369 -0.7090  0.2559
 7105SOL     OW32773   4.110   0.651  15.639 -0.1137  0.2901 -0.2329
 7105SOL    HW132774   4.103   0.560  15.610 -0.7030  0.2516  0.0290
 7105SOL    HW232775   4.200   0.675  15.615  1.0397 -4.0540 -0.2226
 7106SOL     OW32776   2.740   2.918   4.421  0.1987  0.1176 -0.3208
 7106SOL    HW132777   2.666   2.926   4.362  1.3692 -0.5738 -1.8719
 7106SOL    HW232778   2.807   2.931   4.354  0.9138 -3.0049 -0.2137
 7107SOL     OW32779   1.998   3.374  11.157 -0.1637 -0.1533  0.5861
 7107SOL    HW132780   1.905   3.360  11.139  0.2938 -1.4042 -0.7640
 7107SOL    HW232781   2.037   3.287  11.147  0.7437  0.4383 -0.8753
 7108SOL     OW32782   1.095   3.867   3.612 -0.1654  0.3418 -0.0216
 7108SOL    HW132783   1.087   3.782   3.655 -0.8524  0.8512  0.8546
 7108SOL    HW232784   1.124   3.842   3.525 -1.4055  0.2631 -0.4114
 7109SOL     OW32785   3.435   2.098   2.621  0.1588 -0.6571 -0.7260
 7109SOL    HW132786   3.404   2.188   2.619  0.1462 -0.6026  2.4011
 7109SOL    HW232787   3.363   2.062   2.569 -1.5502  2.3168 -0.4112
 7110SOL     OW32788   3.372   2.005  10.298 -0.0573 -0.1600 -0.6076
 7110SOL    HW132789   3.451   2.053  10.320  0.9269 -1.4425 -1.3245
 7110SOL    HW232790   3.407   1.948  10.229  0.2366  0.0214 -0.6043
 7111SOL     OW32791   0.152   1.161   8.883 -0.0946  0.4125  0.3741
 7111SOL    HW132792   0.136   1.224   8.812  0.7896 -0.6736 -0.7940
 7111SOL    HW232793   0.152   1.081   8.830  1.3937  0.2519  0.6233
 7112SOL     OW32794   1.414   3.952   7.559  0.6905  0.4953 -0.5287
 7112SOL    HW132795   1.508   3.964   7.572  0.4880  0.4566  0.9781
 7112SOL    HW232796   1.401   3.925   7.650  1.5478 -0.8731 -0.8013
 7113SOL     OW32797   3.297   2.299   3.413 -0.2217 -0.0254 -0.3839
 7113SOL    HW132798   3.368   2.289   3.350  0.7534  0.5754  0.6277
 7113SOL    HW232799   3.250   2.218   3.392  0.1368 -0.5943  0.9816
 7114SOL     OW32800   2.946   3.964   8.202 -0.5349 -0.1137  0.4127
 7114SOL    HW132801   2.959   3.876   8.167 -0.4358 -0.4025  1.1803
 7114SOL    HW232802   3.025   3.982   8.252 -0.8201  0.8116  0.5342
 7115SOL     OW32803   3.910   1.378  12.376 -0.4945 -0.3495  0.1557
 7115SOL    HW132804   3.916   1.471  12.397 -2.6528 -0.6562  2.0567
 7115SOL    HW232805   3.956   1.344  12.453 -0.3695  0.2966  0.3627
 7116SOL     OW32806   1.469   0.189   5.245 -0.4694  0.1493  0.1716
 7116SOL    HW132807   1.415   0.225   5.316 -0.4088  0.4138  0.0863
 7116SOL    HW232808   1.422   0.107   5.234 -0.8757  0.5325 -0.9489
 7117SOL     OW32809   3.847   2.221  11.010 -0.2238  0.6261  0.4955
 7117SOL    HW132810   3.755   2.245  11.015 -0.3695  0.6843 -2.7312
 7117SOL    HW232811   3.835   2.130  10.980  1.0996  1.2320 -1.8357
 7118SOL     OW32812   4.503   4.679   0.100  0.3810 -0.0997 -0.1060
 7118SOL    HW132813   4.491   4.707   0.190  0.9110 -0.3989  0.0572
 7118SOL    HW232814   4.553   0.033   0.069  1.3678 -1.0715 -0.8921
 7119SOL     OW32815   1.920   3.663   3.089 -0.3712  0.0462  0.0111
 7119SOL    HW132816   1.896   3.734   3.148  0.4024  1.0792 -0.9324
 7119SOL    HW232817   1.899   3.704   3.006 -0.7909 -0.4677 -0.1407
 7120SOL     OW32818   2.348   4.598   4.097  0.1056 -0.0548  0.2296
 7120SOL    HW132819   2.407   4.575   4.170  0.9387 -2.9934 -1.3792
 7120SOL    HW232820   2.275   4.633   4.149 -0.9326 -0.5553 -0.8994
 7121SOL     OW32821   3.157   3.285   4.850 -0.5440 -0.1914  0.1236
 7121SOL    HW132822   3.111   3.203   4.832  0.9985 -1.2253  0.8612
 7121SOL    HW232823   3.091   3.339   4.894  0.4373  0.4522  0.8068
 7122SOL     OW32824   3.683   3.429   3.906  0.2286 -0.6087  0.5152
 7122SOL    HW132825   3.608   3.426   3.846 -0.8248 -0.3313  1.8276
 7122SOL    HW232826   3.732   3.353   3.876 -1.9231 -1.6948 -0.2385
 7123SOL     OW32827   1.029   4.002   0.491 -0.2189 -0.4122 -0.5954
 7123SOL    HW132828   1.117   4.036   0.506  0.5665 -2.3480 -0.8083
 7123SOL    HW232829   0.987   4.086   0.471 -1.9420 -0.3865  3.1260
 7124SOL     OW32830   1.222   1.504   4.648  0.8397 -0.1007 -0.0219
 7124SOL    HW132831   1.229   1.409   4.636 -2.5448  0.0530 -3.1234
 7124SOL    HW232832   1.163   1.509   4.723  1.4137 -0.8701  0.4938
 7125SOL     OW32833   1.494   2.545   6.838 -0.4658 -0.4196  0.6871
 7125SOL    HW132834   1.568   2.603   6.824  0.6356 -1.8414  0.6253
 7125SOL    HW232835   1.438   2.589   6.902  1.5171  1.3045  1.2322
 7126SOL     OW32836   2.234   0.563   6.129  0.0584  0.6614  0.0134
 7126SOL    HW132837   2.208   0.518   6.210 -0.2572  0.6464 -0.0968
 7126SOL    HW232838   2.157   0.609   6.097 -1.1615 -0.2069  1.7061
 7127SOL     OW32839   4.273   1.061  11.911 -0.3938 -0.0293  0.3792
 7127SOL    HW132840   4.301   1.127  11.974  2.9749  0.0677 -1.1994
 7127SOL    HW232841   4.286   1.107  11.828 -0.7078  1.1834  1.0149
 7128SOL     OW32842   0.962   0.404   6.496  0.6002 -0.7233 -0.3756
 7128SOL    HW132843   0.996   0.487   6.463  1.0040 -0.5280  0.5425
 7128SOL    HW232844   0.910   0.373   6.422 -0.2088  0.5704 -0.3387
 7129SOL     OW32845   1.493   0.961  17.047  0.2443  0.4454 -0.0439
 7129SOL    HW132846   1.585   0.972  17.072  0.8288  0.5806 -2.3050
 7129SOL    HW232847   1.498   0.988  16.956 -1.7780  0.5306 -0.1329
 7130SOL     OW32848   4.530   3.793   6.818 -0.4385  0.1805 -0.4152
 7130SOL    HW132849   4.583   3.741   6.759 -1.9688  1.2645 -2.7303
 7130SOL    HW232850   4.521   3.736   6.894  2.4597  0.4173  0.1270
 7131SOL     OW32851   4.169   4.717   0.832 -0.3807  0.1863  0.1209
 7131SOL    HW132852   4.153   0.050   0.909  0.7710  0.7258 -0.0286
 7131SOL    HW232853   4.136   0.051   0.762 -2.5334  2.9625  3.3425
 7132SOL     OW32854   3.831   0.225   2.215 -0.3746  0.5716  0.5815
 7132SOL    HW132855   3.751   0.249   2.170 -0.5223 -1.3381 -0.1943
 7132SOL    HW232856   3.879   0.180   2.145  0.4442  1.6089  0.4722
 7133SOL     OW32857   1.371   2.814  10.968  0.3001 -0.1786  0.0484
 7133SOL    HW132858   1.296   2.779  11.016 -1.2448  1.1092 -1.4140
 7133SOL    HW232859   1.348   2.906  10.957  3.0263  0.3861 -0.8974
 7134SOL     OW32860   2.939   3.356  13.455  0.2281 -0.6565 -0.3676
 7134SOL    HW132861   2.947   3.400  13.370 -0.6169  1.3889  0.6057
 7134SOL    HW232862   2.849   3.375  13.483  0.3432  0.0367 -0.4684
 7135SOL     OW32863   3.560   3.032  17.637  0.8984  0.0271  0.4613
 7135SOL    HW132864   3.641   3.005  17.681  2.5439  2.4060 -1.1123
 7135SOL    HW232865   3.571   3.014  17.543  0.9226 -0.9526  0.6508
 7136SOL     OW32866   2.143   3.680   6.376 -0.2843  0.0709  0.2782
 7136SOL    HW132867   2.184   3.593   6.373 -0.1011  0.2265 -2.2778
 7136SOL    HW232868   2.167   3.710   6.463  0.0312  2.3907 -0.6232
 7137SOL     OW32869   1.445   0.575   8.421  0.2338  0.3720  0.0377
 7137SOL    HW132870   1.513   0.638   8.446 -2.2814  3.2502 -0.4084
 7137SOL    HW232871   1.505   0.508   8.387  0.8106 -0.7611  3.2498
 7138SOL     OW32872   0.559   2.573  15.445  0.0273 -0.6107 -0.8388
 7138SOL    HW132873   0.475   2.527  15.443  0.1041 -0.8229  1.6071
 7138SOL    HW232874   0.584   2.576  15.352 -1.2912 -0.4199 -1.1858
 7139SOL     OW32875   0.642   3.531   5.000 -0.0206  0.0389  0.1132
 7139SOL    HW132876   0.683   3.544   4.914  0.0544 -0.6346  0.0465
 7139SOL    HW232877   0.695   3.593   5.051 -0.1685  0.8294 -0.6877
 7140SOL     OW32878   4.531   3.676   1.426 -0.4532 -0.0569  0.0129
 7140SOL    HW132879   4.456   3.728   1.456 -0.2792  0.2112 -0.0178
 7140SOL    HW232880   4.481   3.606   1.384 -1.5279  2.1213 -2.3524
 7141SOL     OW32881   3.833   3.975   6.617  0.0391 -0.1900 -0.1065
 7141SOL    HW132882   3.752   4.014   6.649  1.7505  1.6580  1.9489
 7141SOL    HW232883   3.836   3.905   6.682  0.2738  0.3830  0.5046
 7142SOL     OW32884   2.514   4.243   3.407 -0.2863  0.2739  0.7130
 7142SOL    HW132885   2.507   4.333   3.440  2.0356  1.2361 -1.4095
 7142SOL    HW232886   2.431   4.250   3.359  1.2858  2.1926 -1.7463
 7143SOL     OW32887   0.741   0.432   5.879 -0.3595  0.4388 -0.2510
 7143SOL    HW132888   0.791   0.434   5.798  0.6097  0.2255  0.3426
 7143SOL    HW232889   0.785   0.368   5.934 -0.5244  0.2161 -0.3776
 7144SOL     OW32890   4.612   2.820   0.246  0.1459  0.0104 -0.0006
 7144SOL    HW132891   4.630   2.910   0.221 -1.3168  0.2457 -0.2162
 7144SOL    HW232892   4.614   2.834   0.340 -1.4913  0.0968  0.0255
 7145SOL     OW32893   3.905   0.745   8.407  0.2451  0.1438 -0.2217
 7145SOL    HW132894   3.829   0.793   8.375 -0.3014 -1.8385 -1.9015
 7145SOL    HW232895   3.865   0.666   8.444  1.0430  0.3667  1.1398
 7146SOL     OW32896   4.715   0.594   2.156  0.0566 -0.3257 -0.0034
 7146SOL    HW132897   0.086   0.571   2.160 -0.0008 -0.6217 -0.3698
 7146SOL    HW232898   0.001   0.684   2.188  0.0778 -0.3937  0.1828
 7147SOL     OW32899   3.541   1.092   6.834  0.2184  0.4041 -0.0075
 7147SOL    HW132900   3.498   1.032   6.896  1.8764 -1.4507 -0.6229
 7147SOL    HW232901   3.480   1.165   6.828  0.8411  1.0059  1.0165
 7148SOL     OW32902   1.381   2.901   4.571 -0.5544 -0.3534  0.0636
 7148SOL    HW132903   1.324   2.868   4.501  1.5054  1.7298 -2.5697
 7148SOL    HW232904   1.315   2.929   4.635 -0.2818 -0.1829  0.2732
 7149SOL     OW32905   3.944   3.141  14.208  0.6547 -0.3461  0.0143
 7149SOL    HW132906   4.038   3.148  14.219  0.8120 -1.2372 -0.7411
 7149SOL    HW232907   3.911   3.194  14.281  1.5639 -1.6433  1.3495
 7150SOL     OW32908   2.314   2.096   6.522 -0.2166  0.0870  0.0266
 7150SOL    HW132909   2.356   2.174   6.557 -2.3512  0.7149  1.2038
 7150SOL    HW232910   2.315   2.134   6.434  1.8808 -0.5219 -0.1958
 7151SOL     OW32911   1.981   1.790   6.841 -0.2333  0.1441 -0.1175
 7151SOL    HW132912   1.957   1.705   6.878  2.5991 -1.4825 -2.0702
 7151SOL    HW232913   1.977   1.763   6.750 -2.1399  0.1989 -0.0466
 7152SOL     OW32914   3.579   4.670   7.906 -0.6403  0.2389  0.3571
 7152SOL    HW132915   3.666   4.633   7.916  0.0055  1.3146 -1.3215
 7152SOL    HW232916   3.545   4.635   7.823  0.8039  2.4609 -1.1793
 7153SOL     OW32917   3.365   4.340  10.644 -0.2894  0.2467  0.5067
 7153SOL    HW132918   3.403   4.301  10.722  0.7672  2.8645  1.2877
 7153SOL    HW232919   3.269   4.337  10.654 -0.5232  0.8176 -1.5647
 7154SOL     OW32920   3.476   1.500  15.895  0.2742  0.1152  0.0972
 7154SOL    HW132921   3.547   1.562  15.911 -1.6669  2.0203  1.2593
 7154SOL    HW232922   3.463   1.522  15.802  0.1537  0.6611  0.2450
 7155SOL     OW32923   3.537   0.392  15.176  0.0355 -0.2199 -0.2914
 7155SOL    HW132924   3.554   0.330  15.105  0.6474 -1.9888  1.4057
 7155SOL    HW232925   3.556   0.468  15.122 -1.0639 -0.0727 -0.4790
 7156SOL     OW32926   1.640   2.431   4.849  0.4072  0.1938 -0.4919
 7156SOL    HW132927   1.668   2.494   4.915 -0.4418  0.0286  0.0216
 7156SOL    HW232928   1.703   2.361   4.868 -0.5633 -1.0564 -1.7996
 7157SOL     OW32929   2.225   2.309   6.298  0.5095  0.7023  0.5095
 7157SOL    HW132930   2.218   2.396   6.336 -0.5450  0.7096  0.2972
 7157SOL    HW232931   2.272   2.327   6.216  1.8899  0.5797  1.2657
 7158SOL     OW32932   1.909   4.452   3.624  0.6355 -0.1566  0.2170
 7158SOL    HW132933   1.979   4.518   3.628 -1.4545  1.9683  1.6175
 7158SOL    HW232934   1.916   4.417   3.713  1.1050  1.1140  0.6898
 7159SOL     OW32935   4.350   3.421  11.106 -0.2967  0.3781 -0.7575
 7159SOL    HW132936   4.398   3.362  11.164 -0.0316  2.9769  1.6533
 7159SOL    HW232937   4.415   3.451  11.043 -1.9519 -0.6441 -2.9501
 7160SOL     OW32938   1.820   2.997   8.254 -0.0410  0.1657 -0.2791
 7160SOL    HW132939   1.802   3.004   8.161  1.5750 -0.2633 -0.6275
 7160SOL    HW232940   1.909   3.031   8.245 -0.6390  2.0946  1.1676
 7161SOL     OW32941   1.431   1.046  13.012  0.3089 -0.0533  0.3810
 7161SOL    HW132942   1.341   1.036  12.980 -0.1255 -0.1979  1.6487
 7161SOL    HW232943   1.421   1.136  13.043  1.7590 -0.3699  1.7604
 7162SOL     OW32944   0.929   1.999   8.816  0.0771 -0.2435  0.0786
 7162SOL    HW132945   0.881   1.917   8.803  1.7910 -1.3294  0.5341
 7162SOL    HW232946   1.007   1.962   8.857  0.1036 -1.4945 -1.0701
 7163SOL     OW32947   4.258   4.235   7.801 -0.4158 -0.1037  0.4878
 7163SOL    HW132948   4.302   4.152   7.780  1.3609  0.8238  0.5869
 7163SOL    HW232949   4.172   4.201   7.827 -0.1053  0.7606  2.5936
 7164SOL     OW32950   2.825   4.026   7.778  0.0790 -0.0729 -0.1183
 7164SOL    HW132951   2.909   3.984   7.761  0.6673  0.8120  0.6223
 7164SOL    HW232952   2.809   4.004   7.869 -3.2934 -1.5778 -1.0639
 7165SOL     OW32953   1.489   4.010  15.325  0.1985 -0.3191 -0.3304
 7165SOL    HW132954   1.574   4.055  15.320 -0.5451  0.9745 -1.3427
 7165SOL    HW232955   1.446   4.055  15.397  1.9505  1.7097 -0.5514
 7166SOL     OW32956   3.453   1.985   8.200 -0.5375 -0.4852 -0.1621
 7166SOL    HW132957   3.369   2.020   8.231 -0.7783 -0.3886 -0.9214
 7166SOL    HW232958   3.450   1.908   8.256  1.1295 -0.4446 -0.0188
 7167SOL     OW32959   2.405   3.995   1.000  0.4522  0.1018  0.4868
 7167SOL    HW132960   2.314   4.002   1.029  0.4677  0.6483  0.4019
 7167SOL    HW232961   2.419   3.900   1.005  0.4524  0.0843  0.1445
 7168SOL     OW32962   0.264   2.426   2.708  0.6392  0.2812 -0.3306
 7168SOL    HW132963   0.217   2.459   2.784 -1.4266 -0.4981 -1.2729
 7168SOL    HW232964   0.193   2.374   2.670 -0.9408 -0.2205  3.3922
 7169SOL     OW32965   3.283   1.180   2.433 -0.1172 -0.0552 -0.3262
 7169SOL    HW132966   3.310   1.091   2.457  1.7733  0.8365  0.8788
 7169SOL    HW232967   3.188   1.183   2.427 -0.0140  0.1832 -1.7918
 7170SOL     OW32968   0.004   2.229   8.483 -0.2654  0.1337  0.2977
 7170SOL    HW132969   4.720   2.284   8.562  0.9760 -1.2571  1.3608
 7170SOL    HW232970   4.636   2.197   8.486 -0.3487  0.2265 -1.6247
 7171SOL     OW32971   0.148   2.708   6.920 -0.1223 -0.0178 -0.3093
 7171SOL    HW132972   0.129   2.619   6.891 -1.6604 -0.0348  0.7181
 7171SOL    HW232973   0.235   2.733   6.889  0.7607 -2.9198 -0.1004
 7172SOL     OW32974   3.120   0.241   8.393 -0.4449 -0.2860 -0.2336
 7172SOL    HW132975   3.060   0.244   8.319 -0.9659 -0.9885  0.1581
 7172SOL    HW232976   3.092   0.161   8.439  0.3264 -1.0555 -1.0936
 7173SOL     OW32977   4.283   3.200   2.688  0.0969 -0.2660  0.6334
 7173SOL    HW132978   4.319   3.248   2.613 -2.2690 -0.6467 -0.7564
 7173SOL    HW232979   4.269   3.270   2.751 -0.4175 -0.5352  0.8194
 7174SOL     OW32980   2.628   3.821   4.583 -0.3933  1.1969 -0.3687
 7174SOL    HW132981   2.561   3.759   4.613  0.4346 -0.3041 -1.5573
 7174SOL    HW232982   2.604   3.902   4.627  0.9884  0.5802  1.5329
 7175SOL     OW32983   1.169   0.908  12.793 -0.3337  0.2240 -0.2385
 7175SOL    HW132984   1.122   0.849  12.851  0.6753  0.7894  1.1433
 7175SOL    HW232985   1.098   0.960  12.756 -0.1498  1.7693  1.5688
 7176SOL     OW32986   2.481   2.046   3.768 -0.0411  0.3859  0.4699
 7176SOL    HW132987   2.419   2.009   3.705  3.0658 -3.0038 -0.6590
 7176SOL    HW232988   2.441   2.030   3.853 -1.4575  3.3783  0.3447
 7177SOL     OW32989   4.554   3.488   5.527 -0.2038 -0.1560  0.2420
 7177SOL    HW132990   4.500   3.536   5.591 -1.4727 -0.2944 -0.7170
 7177SOL    HW232991   4.636   3.476   5.575  0.2024 -0.0566 -0.4432
 7178SOL     OW32992   1.815   4.574   6.376 -0.0966  0.8455  0.2184
 7178SOL    HW132993   1.794   4.524   6.297 -2.0939 -1.3427  2.1432
 7178SOL    HW232994   1.730   4.617   6.385 -0.5811 -0.1377  0.3896
 7179SOL     OW32995   1.183   3.688   3.121  0.2577 -0.1563  0.5219
 7179SOL    HW132996   1.139   3.616   3.076  0.6242  0.8071 -1.3664
 7179SOL    HW232997   1.228   3.730   3.047 -0.3170 -2.0031 -0.8887
 7180SOL     OW32998   0.014   0.903   8.273 -0.0080  0.1287 -0.0229
 7180SOL    HW132999   0.003   0.821   8.224  2.7587  0.7942 -1.7956
 7180SOL    HW233000   4.699   0.874   8.356 -0.9460  0.4774 -0.3226
 7181SOL     OW33001   0.594   0.178   3.739  0.6353  0.1317  0.1759
 7181SOL    HW133002   0.566   0.094   3.775  0.7147  0.3118  0.6616
 7181SOL    HW233003   0.671   0.193   3.795  0.2206 -3.6246  1.7539
 7182SOL     OW33004   2.873   2.240   6.209 -0.0382 -0.6853 -0.4303
 7182SOL    HW133005   2.832   2.157   6.231  1.2828 -1.6948 -1.7704
 7182SOL    HW233006   2.829   2.298   6.271 -0.2252 -0.9246 -0.3392
 7183SOL     OW33007   3.163   1.175   7.312  0.5179 -0.0911  0.2572
 7183SOL    HW133008   3.086   1.232   7.307  2.4044  2.3581 -1.1016
 7183SOL    HW233009   3.213   1.209   7.386  1.1184  0.0490 -0.2119
 7184SOL     OW33010   4.581   0.376   5.117  0.2448 -0.5502  0.0550
 7184SOL    HW133011   4.551   0.288   5.141  0.0160 -0.7580 -0.9960
 7184SOL    HW233012   4.555   0.421   5.198  2.4674 -2.2395  1.6897
 7185SOL     OW33013   1.150   0.289   5.655 -0.1163 -0.3264 -0.1088
 7185SOL    HW133014   1.201   0.347   5.712  1.7452 -0.7254 -1.3505
 7185SOL    HW233015   1.077   0.346   5.633 -0.6681  0.3149  3.4085
 7186SOL     OW33016   1.881   4.352   2.624 -0.3354 -0.1657  0.4932
 7186SOL    HW133017   1.935   4.397   2.558  0.0289 -0.3709  0.6514
 7186SOL    HW233018   1.941   4.282   2.648  1.9503  1.2127 -1.2290
 7187SOL     OW33019   3.158   3.302   8.886 -0.1645 -0.2179  0.3522
 7187SOL    HW133020   3.158   3.397   8.893  0.9400 -0.0063 -2.2900
 7187SOL    HW233021   3.248   3.281   8.861  0.2526  1.6573  0.3389
 7188SOL     OW33022   4.687   3.394   3.784 -0.4210  0.4203 -0.6635
 7188SOL    HW133023   4.623   3.460   3.813  0.8022  0.9918  0.7909
 7188SOL    HW233024   0.018   3.377   3.862  0.3862  0.0522 -1.2943
 7189SOL     OW33025   4.008   2.878   9.499 -0.8316 -0.0921 -1.0000
 7189SOL    HW133026   3.958   2.954   9.530 -0.9928 -0.8878  0.6826
 7189SOL    HW233027   4.094   2.896   9.535 -1.0897 -1.2197  0.1673
 7190SOL     OW33028   2.831   3.339   8.346  0.1256 -0.5424  0.3396
 7190SOL    HW133029   2.924   3.317   8.333  0.3311  0.7818 -0.4040
 7190SOL    HW233030   2.820   3.409   8.282  0.8714 -0.3935  0.3716
 7191SOL     OW33031   0.201   3.320   6.422  0.7984 -0.3021  0.5227
 7191SOL    HW133032   0.106   3.316   6.425  0.6435  2.7048  0.0504
 7191SOL    HW233033   0.219   3.280   6.337 -1.6864  1.3399 -0.7839
 7192SOL     OW33034   1.795   1.338  10.059 -0.3540  0.7500  0.1622
 7192SOL    HW133035   1.839   1.374   9.982  2.1985 -0.6531  0.9616
 7192SOL    HW233036   1.769   1.251  10.029 -0.7776  0.5552  1.0897
 7193SOL     OW33037   3.353   2.576  12.116 -0.0801  0.3516 -0.8792
 7193SOL    HW133038   3.421   2.580  12.049  0.3533 -0.5469 -0.4851
 7193SOL    HW233039   3.270   2.598  12.075 -0.1623  0.7687 -0.4922
 7194SOL     OW33040   0.809   1.869  15.268 -0.2197 -0.0540  0.5220
 7194SOL    HW133041   0.896   1.903  15.248 -0.6380  0.9434  0.3845
 7194SOL    HW233042   0.807   1.798  15.204  0.8416 -0.3530  0.8177
 7195SOL     OW33043   4.471   2.084   4.404 -0.3141  0.2630 -0.5320
 7195SOL    HW133044   4.431   2.014   4.352  0.7061 -0.2042 -0.6858
 7195SOL    HW233045   4.542   2.108   4.345 -0.0222 -0.7474 -0.5887
 7196SOL     OW33046   0.228   2.688   3.251  0.3204 -0.0340 -0.0986
 7196SOL    HW133047   0.162   2.737   3.201  0.3082 -1.3109 -1.3450
 7196SOL    HW233048   0.296   2.754   3.259  2.6345 -2.4781  0.1312
 7197SOL     OW33049   0.148   4.152   1.790 -0.0213  0.4630 -0.3865
 7197SOL    HW133050   0.068   4.107   1.764  1.6639 -3.1086  0.5149
 7197SOL    HW233051   0.164   4.098   1.867  1.3378  0.1449 -0.8774
 7198SOL     OW33052   2.196   3.262   8.013  0.3284 -0.1226  0.5441
 7198SOL    HW133053   2.272   3.238   7.960  0.7179  0.9542  0.6285
 7198SOL    HW233054   2.134   3.272   7.941 -1.5925 -0.4942  2.1527
 7199SOL     OW33055   1.998   0.814  12.274 -0.5688 -0.5227 -0.1512
 7199SOL    HW133056   2.039   0.898  12.297 -0.5557 -0.2941 -1.0245
 7199SOL    HW233057   1.915   0.851  12.245 -1.0122  0.8140  2.7628
 7200SOL     OW33058   2.413   0.192   6.628 -0.5739 -0.2792  0.7851
 7200SOL    HW133059   2.388   0.162   6.716 -0.5601  0.3056  0.9858
 7200SOL    HW233060   2.336   0.239   6.595 -0.6013 -1.0955 -0.2902
 7201SOL     OW33061   4.118   4.310   6.263 -0.0066  0.1301  0.2738
 7201SOL    HW133062   4.149   4.237   6.209  1.1408  1.2969 -0.6497
 7201SOL    HW233063   4.170   4.380   6.224 -1.1072  1.0091  0.3916
 7202SOL     OW33064   3.669   0.269   7.582 -0.4204 -0.5260  0.0151
 7202SOL    HW133065   3.737   0.321   7.539 -0.0505 -0.4228  0.7183
 7202SOL    HW233066   3.630   0.333   7.642 -2.2897 -2.5386  0.9454
 7203SOL     OW33067   4.645   3.994   2.611 -0.2828  1.0889  0.2074
 7203SOL    HW133068   4.675   4.080   2.639 -0.0266  1.0013  0.2070
 7203SOL    HW233069   4.551   4.008   2.611 -0.8457 -2.5655  0.4606
 7204SOL     OW33070   1.394   0.384   6.732  0.5309 -0.3210 -0.6679
 7204SOL    HW133071   1.347   0.310   6.694  0.7824 -0.7048 -0.2370
 7204SOL    HW233072   1.329   0.438   6.778  1.6204  1.1654 -0.8743
 7205SOL     OW33073   2.453   0.563  11.628 -0.0263  0.0065 -0.1473
 7205SOL    HW133074   2.391   0.633  11.650  1.0863 -0.0209  2.9601
 7205SOL    HW233075   2.399   0.521  11.561 -1.4948  2.7847 -0.7079
 7206SOL     OW33076   0.787   2.108   4.764 -0.5052 -0.2409  0.2495
 7206SOL    HW133077   0.815   2.131   4.852 -1.8569 -2.2184  1.1931
 7206SOL    HW233078   0.760   2.191   4.725 -2.6351 -1.2206 -0.3692
 7207SOL     OW33079   4.066   1.114   4.706  0.1788  0.0241  0.1163
 7207SOL    HW133080   4.059   1.138   4.614 -0.4869 -0.0151  0.1613
 7207SOL    HW233081   4.145   1.060   4.717 -0.6578 -1.0040  1.1462
 7208SOL     OW33082   4.251   1.027  10.874 -0.1011 -0.1725 -0.4231
 7208SOL    HW133083   4.200   0.978  10.938 -0.3374  1.0178  0.2931
 7208SOL    HW233084   4.202   1.002  10.795  0.6977  0.9036 -1.2549
 7209SOL     OW33085   1.122   4.448   1.941  0.0975 -0.6649 -0.4425
 7209SOL    HW133086   1.165   4.496   2.012  0.0113  2.7969 -2.7393
 7209SOL    HW233087   1.037   4.492   1.936  0.3369 -0.3610 -1.8451
 7210SOL     OW33088   1.783   1.658   4.067 -0.1360 -0.0375 -0.2276
 7210SOL    HW133089   1.855   1.665   4.005 -1.5050 -0.9112 -1.9099
 7210SOL    HW233090   1.733   1.588   4.026  1.0285 -1.0282  0.0356
 7211SOL     OW33091   4.386   1.309   7.285  0.2701  0.2737 -0.0956
 7211SOL    HW133092   4.306   1.359   7.269 -0.7879 -1.5474 -0.5088
 7211SOL    HW233093   4.445   1.384   7.278  1.7050 -0.9516 -1.1582
 7212SOL     OW33094   3.138   2.090   3.322  0.3977  0.2274 -0.5477
 7212SOL    HW133095   3.137   2.016   3.382 -1.2295  1.2731  0.7150
 7212SOL    HW233096   3.094   2.051   3.247  0.1205  0.8424 -0.7080
 7213SOL     OW33097   1.191   2.183   1.968 -0.2637 -0.3576  0.3070
 7213SOL    HW133098   1.237   2.111   2.011  0.0114 -0.1891  0.2966
 7213SOL    HW233099   1.256   2.249   1.941 -1.6673 -0.6352 -3.7849
 7214SOL     OW33100   1.190   2.991   5.258  0.0262 -0.1011 -0.1025
 7214SOL    HW133101   1.254   2.949   5.316  0.8878 -1.4583 -2.0214
 7214SOL    HW233102   1.147   3.050   5.320 -0.5414  2.3452 -2.8214
 7215SOL     OW33103   0.504   1.994   8.615  0.3013  0.3299 -0.3778
 7215SOL    HW133104   0.426   2.049   8.600  1.1106  2.2827  2.5675
 7215SOL    HW233105   0.499   1.967   8.707  0.8129  2.0125  0.1539
 7216SOL     OW33106   0.958   3.185   4.542  0.0621  0.3247 -0.4234
 7216SOL    HW133107   0.905   3.227   4.609  1.8981 -1.3034  2.0429
 7216SOL    HW233108   0.886   3.174   4.479  0.4736 -1.2893 -0.6356
 7217SOL     OW33109   1.325   3.903   6.890  0.2914  0.1467  0.3270
 7217SOL    HW133110   1.330   3.829   6.951  2.2796 -1.3904 -1.7175
 7217SOL    HW233111   1.298   3.970   6.953  0.1851  1.1798 -0.8284
 7218SOL     OW33112   2.380   3.882   8.552  0.5117 -0.4588  0.3626
 7218SOL    HW133113   2.346   3.968   8.527 -0.2513 -0.2062  2.3266
 7218SOL    HW233114   2.414   3.861   8.465  1.1625  0.9036  0.2785
 7219SOL     OW33115   2.505   3.978  13.048  1.1096  0.1191  0.3835
 7219SOL    HW133116   2.430   3.989  12.989 -0.0449 -2.2432  1.3879
 7219SOL    HW233117   2.578   3.997  12.988  0.8698  1.7299  0.6132
 7220SOL     OW33118   2.631   2.308   4.636  0.3591 -0.1489  0.6575
 7220SOL    HW133119   2.645   2.308   4.541  2.4688  0.0035  0.9869
 7220SOL    HW233120   2.574   2.239   4.669  1.8049 -2.1946 -1.1168
 7221SOL     OW33121   1.149   1.303   6.319  0.1378  0.0610  0.0738
 7221SOL    HW133122   1.155   1.252   6.400  1.7171  0.2252  0.0757
 7221SOL    HW233123   1.208   1.253   6.262 -0.6739 -0.7871 -0.0065
 7222SOL     OW33124   4.523   0.250   3.864 -0.9803  0.3859  0.1081
 7222SOL    HW133125   4.484   0.294   3.940 -0.8512 -1.7151  1.4120
 7222SOL    HW233126   4.526   0.319   3.798  3.2859 -1.3504 -1.5166
 7223SOL     OW33127   3.805   1.874   5.963 -0.1466 -0.3401  0.4527
 7223SOL    HW133128   3.842   1.837   6.044  2.3380  1.3981  0.1209
 7223SOL    HW233129   3.712   1.875   5.986 -0.2328  3.8105 -0.1637
 7224SOL     OW33130   1.347   3.066   4.116 -0.3838  0.3136  0.4099
 7224SOL    HW133131   1.428   3.064   4.167 -0.1295 -0.8495 -0.0307
 7224SOL    HW233132   1.392   3.041   4.036 -0.5045  0.9513  0.1437
 7225SOL     OW33133   1.618   0.671  11.126 -0.2310 -0.7685  0.3857
 7225SOL    HW133134   1.684   0.741  11.133 -0.1572 -1.0068  2.0670
 7225SOL    HW233135   1.649   0.624  11.049 -0.5734  0.7318 -0.6731
 7226SOL     OW33136   0.085   2.293  16.368  0.9684  0.0006  0.0701
 7226SOL    HW133137   0.169   2.334  16.350  1.5132 -0.9815  0.4021
 7226SOL    HW233138   0.098   2.203  16.339  0.0278  0.0754 -0.6013
 7227SOL     OW33139   2.959   1.098   9.172  0.6539 -0.4506 -0.4933
 7227SOL    HW133140   2.987   1.053   9.251  2.2135  1.0643 -0.1999
 7227SOL    HW233141   2.879   1.053   9.144 -0.0681  1.6627 -1.8634
 7228SOL     OW33142   1.614   2.615  11.463 -0.3558  0.1382 -0.6612
 7228SOL    HW133143   1.644   2.693  11.509  0.2014 -1.1015  1.1026
 7228SOL    HW233144   1.612   2.644  11.372  0.6548  0.5471 -0.5485
 7229SOL     OW33145   0.671   1.488  13.667 -0.3179  0.0536  0.2002
 7229SOL    HW133146   0.607   1.441  13.721  0.6092 -0.6482  0.6986
 7229SOL    HW233147   0.724   1.518  13.742 -3.3648  0.9902  1.9556
 7230SOL     OW33148   2.934   1.103   5.679  0.3394 -0.4981  1.0773
 7230SOL    HW133149   2.889   1.163   5.618  1.6285 -0.6204  0.0188
 7230SOL    HW233150   2.985   1.170   5.724  0.4529  0.1220  0.0350
 7231SOL     OW33151   0.975   2.316   3.242 -0.2837 -0.3167 -0.5508
 7231SOL    HW133152   0.944   2.226   3.256  2.5218 -1.0177  1.3127
 7231SOL    HW233153   1.055   2.300   3.192  0.0916  2.2125 -0.7643
 7232SOL     OW33154   0.491   2.366   4.213  0.3727 -0.0234  0.8453
 7232SOL    HW133155   0.553   2.432   4.182  0.2948 -0.7231 -0.8299
 7232SOL    HW233156   0.485   2.310   4.135  1.7015  0.8790  0.0912
 7233SOL     OW33157   0.548   2.311  17.518  0.3144  1.0591  0.7435
 7233SOL    HW133158   0.567   2.219  17.535  1.9712  1.4686  1.0559
 7233SOL    HW233159   0.636   2.344  17.533  0.7451  1.1993 -2.0333
 7234SOL     OW33160   2.690   0.137   7.633 -0.0862  0.3852  0.3119
 7234SOL    HW133161   2.779   0.167   7.618  0.5879 -1.7748 -0.0765
 7234SOL    HW233162   2.691   0.045   7.606 -0.0627  0.3678  0.3741
 7235SOL     OW33163   0.299   4.463   4.934 -0.4305  0.2593  0.2537
 7235SOL    HW133164   0.249   4.424   4.862  1.5344 -0.6873 -0.5973
 7235SOL    HW233165   0.240   4.429   5.001 -0.7696 -0.3899 -0.3831
 7236SOL     OW33166   2.460   3.043  17.579 -0.1205 -0.3479  0.0546
 7236SOL    HW133167   2.518   2.989  17.526 -0.8226  0.3560 -1.4393
 7236SOL    HW233168   2.513   3.045  17.660  0.5278 -0.3486 -0.3674
 7237SOL     OW33169   2.602   2.891   6.681 -0.9542  0.0566 -0.2313
 7237SOL    HW133170   2.566   2.926   6.599  0.7355 -0.1770 -1.0950
 7237SOL    HW233171   2.606   2.973   6.730  2.8543 -0.3566  0.1821
 7238SOL     OW33172   1.299   1.982   6.811 -0.8521 -0.5464 -0.4873
 7238SOL    HW133173   1.294   2.041   6.736 -1.2801 -0.9691 -0.7921
 7238SOL    HW233174   1.206   1.961   6.820 -0.7283 -1.2880 -0.9261
 7239SOL     OW33175   1.452   1.511   2.607 -0.5151  0.1138 -0.0685
 7239SOL    HW133176   1.373   1.546   2.649 -0.5747  0.5339 -0.5249
 7239SOL    HW233177   1.424   1.420   2.607 -2.2039  0.6303 -1.6180
 7240SOL     OW33178   0.037   3.577  12.809 -0.2253 -0.6087  0.4724
 7240SOL    HW133179   0.085   3.586  12.891 -0.3334 -5.3543  1.0207
 7240SOL    HW233180   0.093   3.630  12.752 -0.0643 -1.3416 -0.0476
 7241SOL     OW33181   0.579   0.795   4.460 -0.0499  0.4535 -0.0754
 7241SOL    HW133182   0.605   0.746   4.539 -0.1572 -2.7427 -2.0086
 7241SOL    HW233183   0.660   0.844   4.447 -0.1476  0.2318 -1.5079
 7242SOL     OW33184   0.412   1.774   3.857  0.3412  0.3649  0.1419
 7242SOL    HW133185   0.353   1.825   3.913  1.2790  1.7186 -0.0807
 7242SOL    HW233186   0.466   1.840   3.812 -0.0212  1.3497  1.1453
 7243SOL     OW33187   3.724   1.593   2.824 -0.2724 -0.5016  0.5402
 7243SOL    HW133188   3.745   1.686   2.814  0.3069 -0.5536  1.2365
 7243SOL    HW233189   3.702   1.563   2.736  0.9086 -1.3697  0.5347
 7244SOL     OW33190   4.205   3.121  14.288  0.8589 -0.0025 -0.6591
 7244SOL    HW133191   4.188   3.067  14.365  1.4322  1.0536  0.2011
 7244SOL    HW233192   4.298   3.137  14.304  0.4900 -0.9032  2.4069
 7245SOL     OW33193   0.201   2.423   7.752  0.0864  0.1203  0.1596
 7245SOL    HW133194   0.110   2.391   7.750 -0.4827  1.6116  1.9920
 7245SOL    HW233195   0.246   2.343   7.779  0.9098  1.3402  2.3419
 7246SOL     OW33196   1.310   0.840   6.948 -0.0943 -0.3216 -0.2906
 7246SOL    HW133197   1.295   0.759   6.997  1.2332 -0.8628 -0.7875
 7246SOL    HW233198   1.238   0.843   6.886  1.5286  0.6155 -2.1348
 7247SOL     OW33199   0.661   4.658   3.944  0.4253  0.3297 -0.4790
 7247SOL    HW133200   0.745   4.654   3.898  0.2177  1.3084 -0.9612
 7247SOL    HW233201   0.671   4.586   4.006  0.1000 -1.5515 -2.6136
 7248SOL     OW33202   1.835   1.849   8.937 -0.0678 -0.1937 -0.4220
 7248SOL    HW133203   1.786   1.930   8.956  0.3548 -0.2027  0.7612
 7248SOL    HW233204   1.787   1.785   8.989 -1.7311  1.9838  0.7629
 7249SOL     OW33205   1.440   2.514   7.736 -0.6267 -0.4625 -0.0533
 7249SOL    HW133206   1.401   2.481   7.816  0.2906 -2.4706 -0.4471
 7249SOL    HW233207   1.501   2.444   7.716 -1.5767 -1.1274 -0.6645
 7250SOL     OW33208   3.797   3.798   5.141  0.4628 -0.1328  0.0074
 7250SOL    HW133209   3.742   3.790   5.219  0.1890  0.4413 -0.1326
 7250SOL    HW233210   3.822   3.707   5.121  1.4517  0.4554 -1.4518
 7251SOL     OW33211   2.818   2.647   6.124  0.0179 -0.2093  0.5689
 7251SOL    HW133212   2.729   2.619   6.145 -0.5821  0.9197 -0.4176
 7251SOL    HW233213   2.866   2.594   6.187 -0.7497 -0.4399  0.9522
 7252SOL     OW33214   3.625   2.618   8.786 -0.0829 -0.3943 -0.0977
 7252SOL    HW133215   3.664   2.570   8.860 -0.5803 -0.4400  0.1364
 7252SOL    HW233216   3.659   2.705   8.808 -1.2077 -0.1272  0.5700
 7253SOL     OW33217   0.912   0.705   5.454 -0.0893  0.5668 -0.2656
 7253SOL    HW133218   0.953   0.706   5.541 -0.1858 -0.8826 -0.2104
 7253SOL    HW233219   0.937   0.617   5.426 -2.5064 -0.5920  1.1899
 7254SOL     OW33220   4.018   2.056   7.601  0.3284  0.0047  0.5823
 7254SOL    HW133221   3.942   1.997   7.603 -1.2870  2.1781  3.3975
 7254SOL    HW233222   4.095   2.003   7.580 -0.3898 -0.5853 -0.5953
 7255SOL     OW33223   3.097   4.360   8.503 -0.4871  0.2297  0.5233
 7255SOL    HW133224   3.044   4.432   8.534  1.7173  1.6619  0.9634
 7255SOL    HW233225   3.053   4.283   8.539 -0.8892  0.2263  0.0209
 7256SOL     OW33226   4.684   0.752  11.452  0.1310  0.2172  0.0684
 7256SOL    HW133227   4.648   0.763  11.541 -1.3937  0.1042 -0.5358
 7256SOL    HW233228   4.639   0.823  11.406 -1.8954  0.4460  2.3913
 7257SOL     OW33229   2.031   0.811   2.731 -0.1382 -0.0972  0.0082
 7257SOL    HW133230   2.030   0.775   2.820 -1.9917 -1.4406 -0.5703
 7257SOL    HW233231   2.066   0.735   2.685 -0.2311 -0.7803  1.0595
 7258SOL     OW33232   2.801   0.992   7.505 -0.1224 -0.1327 -0.4249
 7258SOL    HW133233   2.730   0.942   7.545  0.8853 -2.2695 -1.3144
 7258SOL    HW233234   2.873   0.929   7.505 -0.1810 -0.1960 -1.0768
 7259SOL     OW33235   3.386   2.856  15.515  0.5333 -0.2167  0.0634
 7259SOL    HW133236   3.449   2.864  15.587 -1.1237  2.1565  1.2409
 7259SOL    HW233237   3.371   2.949  15.503  1.6896  0.4711  3.9345
 7260SOL     OW33238   3.942   0.642   9.160 -0.0707 -0.3318  0.2429
 7260SOL    HW133239   3.956   0.713   9.223  0.0764  0.4995 -0.7416
 7260SOL    HW233240   4.011   0.657   9.096 -1.2139 -0.5554 -1.0507
 7261SOL     OW33241   4.148   4.406  11.018  0.4428 -0.2798  0.1059
 7261SOL    HW133242   4.206   4.397  11.094 -0.5970 -0.2269  0.9210
 7261SOL    HW233243   4.183   4.488  10.984 -0.2131 -0.4717 -1.0157
 7262SOL     OW33244   2.867   1.583   2.061  0.2047 -0.4020  0.5610
 7262SOL    HW133245   2.913   1.654   2.017  0.4766 -1.9228 -1.5991
 7262SOL    HW233246   2.834   1.621   2.143  0.5008  1.5809 -0.2601
 7263SOL     OW33247   3.532   3.696   6.230 -0.0459  0.1677  0.1138
 7263SOL    HW133248   3.586   3.753   6.285 -0.2697 -0.4537  0.9761
 7263SOL    HW233249   3.542   3.623   6.291  1.1312 -0.3762 -0.7240
 7264SOL     OW33250   0.390   3.490   5.294 -0.2406 -0.1947  0.0590
 7264SOL    HW133251   0.462   3.548   5.316  0.5357 -0.8348 -0.7774
 7264SOL    HW233252   0.335   3.477   5.371  1.5756 -2.8672  0.8969
 7265SOL     OW33253   4.531   0.276  11.435  0.3766  0.3604  0.0158
 7265SOL    HW133254   4.465   0.313  11.378 -0.7930 -1.0211  0.4828
 7265SOL    HW233255   4.526   0.181  11.424  0.0648 -0.0063  3.2399
 7266SOL     OW33256   2.177   4.019  13.725 -1.0385 -0.6976  0.2834
 7266SOL    HW133257   2.095   4.023  13.676 -1.2948 -2.0921  0.5879
 7266SOL    HW233258   2.226   3.981  13.652 -1.2174 -0.7092  0.1692
 7267SOL     OW33259   3.506   0.438   5.226  0.0297 -0.0803  0.8397
 7267SOL    HW133260   3.466   0.449   5.140  0.8331  1.9108  0.7220
 7267SOL    HW233261   3.430   0.406   5.274 -0.6004  1.0540  0.5967
 7268SOL     OW33262   2.918   2.512   0.518 -0.8750  0.2725 -0.0245
 7268SOL    HW133263   3.010   2.511   0.491 -0.6658 -0.2852  0.7079
 7268SOL    HW233264   2.915   2.423   0.553 -0.9248  0.9573  1.7145
 7269SOL     OW33265   2.840   2.230  16.055 -0.2144  0.0875 -0.5914
 7269SOL    HW133266   2.834   2.139  16.025 -1.1725 -0.1057  0.1781
 7269SOL    HW233267   2.752   2.237  16.093  0.1766 -0.0867  0.3589
 7270SOL     OW33268   2.384   2.701   8.533  0.3007 -0.0634  0.5768
 7270SOL    HW133269   2.366   2.778   8.587 -0.4158 -1.0739  1.7668
 7270SOL    HW233270   2.294   2.668   8.532  0.3928 -0.2901 -0.3355
 7271SOL     OW33271   3.730   4.552   4.352 -0.3764 -0.0072  0.1003
 7271SOL    HW133272   3.690   4.601   4.280 -0.0056 -3.2061 -2.2932
 7271SOL    HW233273   3.663   4.493   4.386  0.9928  0.0316  2.8090
 7272SOL     OW33274   4.035   0.765  16.049 -0.2328  0.0411  0.4898
 7272SOL    HW133275   4.058   0.780  16.140  3.2644 -2.4161  0.0273
 7272SOL    HW233276   4.043   0.669  16.046 -0.3221  0.0085  1.2552
 7273SOL     OW33277   4.313   0.777   1.790 -0.4272  0.4198 -0.5706
 7273SOL    HW133278   4.383   0.727   1.832 -0.2644  1.8392  0.8836
 7273SOL    HW233279   4.296   0.850   1.850 -2.1165 -0.5254  0.0998
 7274SOL     OW33280   1.942   0.665  12.550  0.3509  0.1579  0.2670
 7274SOL    HW133281   2.027   0.664  12.506  0.5421 -2.4158  0.6722
 7274SOL    HW233282   1.881   0.643  12.480  0.5785 -1.0683  0.4553
 7275SOL     OW33283   0.538   4.451   2.272 -0.7812  0.9156  0.1672
 7275SOL    HW133284   0.622   4.405   2.264  0.4194  3.0877  0.2707
 7275SOL    HW233285   0.496   4.419   2.192  0.4596  0.9671 -0.5022
 7276SOL     OW33286   2.355   3.782   8.290 -0.0967 -0.0192  0.4051
 7276SOL    HW133287   2.346   3.828   8.207 -2.0576  1.0729  1.2134
 7276SOL    HW233288   2.270   3.737   8.296 -1.5504  2.7692  0.5932
 7277SOL     OW33289   3.096   0.677  12.171  0.2110 -0.2493 -0.4319
 7277SOL    HW133290   3.009   0.666  12.134 -0.5130 -0.1851  1.2456
 7277SOL    HW233291   3.106   0.603  12.230  1.2400 -0.0616 -0.3681
 7278SOL     OW33292   4.326   4.627   2.662  0.0468 -0.2623 -0.5334
 7278SOL    HW133293   4.406   4.641   2.712 -1.1888  1.8589  0.8572
 7278SOL    HW233294   4.288   4.715   2.670 -1.5508 -1.1153  1.2046
 7279SOL     OW33295   2.034   2.666  17.585  0.1415  0.0164 -0.4003
 7279SOL    HW133296   1.941   2.648  17.600  1.0363 -2.8110  1.7945
 7279SOL    HW233297   2.078   2.582  17.600 -1.1228 -0.5514  0.1485
 7280SOL     OW33298   1.537   3.815   4.005  0.2384 -0.1099 -0.0841
 7280SOL    HW133299   1.514   3.755   4.077 -0.4550 -0.1552 -0.3395
 7280SOL    HW233300   1.472   3.795   3.938 -1.0251  2.4216  0.3954
 7281SOL     OW33301   2.898   3.695   5.398 -0.0443 -0.1729  0.3675
 7281SOL    HW133302   2.805   3.703   5.422 -0.4384 -2.0185 -0.5480
 7281SOL    HW233303   2.932   3.630   5.459  0.7681  0.4731  0.6089
 7282SOL     OW33304   2.550   1.137   6.294 -0.6179  0.1346 -0.1894
 7282SOL    HW133305   2.475   1.112   6.348  0.3925  0.9121  1.5717
 7282SOL    HW233306   2.506   1.207   6.246  0.6068  0.5858 -0.6515
 7283SOL     OW33307   4.420   3.038   6.437  0.0363 -0.1879  0.3004
 7283SOL    HW133308   4.447   2.974   6.504  0.2446  0.1033  0.4938
 7283SOL    HW233309   4.371   2.980   6.379 -0.1517 -2.1285  2.3591
 7284SOL     OW33310   1.173   2.738   3.283 -0.5223  0.5814 -0.8180
 7284SOL    HW133311   1.087   2.704   3.309 -0.9364  0.1589 -2.7675
 7284SOL    HW233312   1.224   2.658   3.292 -2.8177 -0.6915  1.1187
 7285SOL     OW33313   0.449   2.061  15.529 -0.1396 -0.0709  0.0707
 7285SOL    HW133314   0.458   2.034  15.437 -0.0648 -2.0731  0.6788
 7285SOL    HW233315   0.514   2.005  15.572  0.5087  0.0513 -0.7378
 7286SOL     OW33316   1.579   0.339   8.856 -0.3092 -0.6951 -0.2453
 7286SOL    HW133317   1.567   0.334   8.762  0.3619 -0.0701 -0.3599
 7286SOL    HW233318   1.618   0.255   8.879 -1.4739 -1.9025 -2.6725
 7287SOL     OW33319   4.362   3.039  10.042  0.2670 -0.1325 -0.5723
 7287SOL    HW133320   4.449   3.020  10.079  0.0779  1.8533  0.9309
 7287SOL    HW233321   4.316   2.970  10.088  0.9876  0.6826  1.3721
 7288SOL     OW33322   4.552   2.586   0.143 -0.1119 -0.0572 -0.1794
 7288SOL    HW133323   4.559   2.679   0.168  0.0728  0.5281 -2.4381
 7288SOL    HW233324   4.638   2.552   0.168  0.2823 -0.5172 -2.2325
 7289SOL     OW33325   3.000   2.291   2.508  0.6335  0.0002  0.5577
 7289SOL    HW133326   2.920   2.344   2.505  0.9264  0.4740  0.9943
 7289SOL    HW233327   3.070   2.357   2.511  0.1316  0.5625 -0.2779
 7290SOL     OW33328   1.319   0.240   7.897 -0.3108 -0.0985  0.0498
 7290SOL    HW133329   1.367   0.317   7.867  1.5210 -0.7893  1.1793
 7290SOL    HW233330   1.228   0.267   7.890 -0.1592 -0.3368 -2.7322
 7291SOL     OW33331   3.113   3.471   6.443 -0.2621 -0.1263 -0.4161
 7291SOL    HW133332   3.021   3.445   6.432 -0.7001  1.4606 -0.5027
 7291SOL    HW233333   3.115   3.534   6.370 -2.0115 -0.5632 -0.8623
 7292SOL     OW33334   2.541   4.647   1.507 -0.3102 -0.0576  0.2489
 7292SOL    HW133335   2.613   4.635   1.444 -0.8692  1.5351 -0.6808
 7292SOL    HW233336   2.535   4.555   1.533  0.4279 -0.2731 -0.3165
 7293SOL     OW33337   2.481   0.488   2.303  0.2836 -0.8695 -0.3961
 7293SOL    HW133338   2.521   0.571   2.279 -0.2784  0.2096  2.4501
 7293SOL    HW233339   2.479   0.438   2.222  0.5379 -0.8958 -0.3862
 7294SOL     OW33340   2.913   2.944  11.173  0.0139  0.2123 -0.5456
 7294SOL    HW133341   2.923   2.913  11.083  0.8189  0.0323 -0.3972
 7294SOL    HW233342   2.887   2.858  11.207  1.6517 -1.4174 -3.3512
 7295SOL     OW33343   0.208   1.688   6.105  0.2662 -0.4281  0.2462
 7295SOL    HW133344   0.128   1.701   6.053  0.0953  0.7627  0.8132
 7295SOL    HW233345   0.195   1.755   6.172 -0.0950 -0.9850  0.7307
 7296SOL     OW33346   1.620   4.098   7.939 -0.5401 -0.0367  0.2813
 7296SOL    HW133347   1.607   4.193   7.938 -2.9343 -0.3936 -1.1366
 7296SOL    HW233348   1.626   4.079   8.033 -1.8707 -2.4955 -0.1408
 7297SOL     OW33349   0.961   1.824   1.004 -0.1947 -0.2048  0.2531
 7297SOL    HW133350   0.980   1.759   0.937  0.4549  0.3092 -0.0620
 7297SOL    HW233351   1.029   1.825   1.070  0.6784 -0.8756 -0.6427
 7298SOL     OW33352   3.092   4.302   3.687 -0.8655  0.1346  0.7794
 7298SOL    HW133353   3.066   4.316   3.596  3.4799 -1.6963 -0.7120
 7298SOL    HW233354   3.185   4.284   3.679 -0.5811  1.9751 -0.0683
 7299SOL     OW33355   3.573   3.722  13.103 -0.2032  0.3885  0.1219
 7299SOL    HW133356   3.564   3.650  13.040  0.6103 -1.4754  2.1369
 7299SOL    HW233357   3.556   3.679  13.187  1.1686 -0.8825 -0.2571
 7300SOL     OW33358   2.354   3.358   4.119 -0.6394 -0.4214  0.5871
 7300SOL    HW133359   2.429   3.300   4.129  0.1695  0.2896 -1.4956
 7300SOL    HW233360   2.389   3.442   4.091 -0.0754 -0.3247  1.5736
 7301SOL     OW33361   1.750   3.755   0.927  0.0677 -0.1439 -0.1607
 7301SOL    HW133362   1.683   3.815   0.895  0.8060  0.8274  0.1280
 7301SOL    HW233363   1.754   3.690   0.857  0.4350 -0.2672 -0.0261
 7302SOL     OW33364   1.430   1.878  16.583 -0.0091  0.1469  0.3526
 7302SOL    HW133365   1.442   1.969  16.559  0.2891  0.0186  0.0201
 7302SOL    HW233366   1.519   1.843  16.581 -0.2081 -0.3058 -0.6185
 7303SOL     OW33367   1.827   4.214   9.458 -0.2414  0.4872 -0.1042
 7303SOL    HW133368   1.881   4.135   9.461 -2.7375 -1.2683 -1.7509
 7303SOL    HW233369   1.893   4.269   9.501  0.4796 -1.8281  1.7012
 7304SOL     OW33370   0.098   0.680   6.602  0.0779  0.0956 -0.3897
 7304SOL    HW133371   0.173   0.638   6.645  1.5030  0.7395 -2.2961
 7304SOL    HW233372   0.030   0.612   6.601  0.7384 -0.5735  0.0326
 7305SOL     OW33373   1.150   3.045   7.399 -0.1895 -0.2843 -0.2243
 7305SOL    HW133374   1.198   2.986   7.456  1.5149  0.5275 -0.8206
 7305SOL    HW233375   1.203   3.125   7.400  0.0815 -0.4585 -0.9357
 7306SOL     OW33376   4.132   4.207  12.075  0.1161  0.0376  0.2932
 7306SOL    HW133377   4.186   4.162  12.010 -0.6622  1.1945 -1.1399
 7306SOL    HW233378   4.087   4.261  12.010  0.5075  0.9263  0.7618
 7307SOL     OW33379   3.604   1.771   2.388 -0.3592 -0.2552  0.1177
 7307SOL    HW133380   3.640   1.836   2.448 -0.0734 -0.6390  0.3565
 7307SOL    HW233381   3.662   1.786   2.313 -0.7619 -1.4614 -0.4344
 7308SOL     OW33382   1.670   0.661   0.081 -0.0008  0.1500 -0.0223
 7308SOL    HW133383   1.590   0.671   0.030 -0.4681 -0.1224  0.6607
 7308SOL    HW233384   1.735   0.710   0.031  0.8116  0.7182  1.5821
 7309SOL     OW33385   1.318   3.909   5.228 -0.1220 -0.5186 -0.2219
 7309SOL    HW133386   1.338   3.815   5.233 -4.4233 -1.4435 -0.2834
 7309SOL    HW233387   1.408   3.941   5.228  0.0578 -1.0226  1.9158
 7310SOL     OW33388   4.188   0.052   2.954  0.3104 -0.3229 -0.4773
 7310SOL    HW133389   4.135   4.714   3.009 -1.1153  1.6813  0.3132
 7310SOL    HW233390   4.177   0.011   2.868 -0.5410 -1.4792  0.1770
 7311SOL     OW33391   0.212   2.474   5.038 -0.0073 -0.2244  0.2046
 7311SOL    HW133392   0.142   2.520   5.083 -0.3039 -0.0646 -0.4124
 7311SOL    HW233393   0.267   2.462   5.115 -0.6350 -2.1539  0.3671
 7312SOL     OW33394   3.425   1.393  17.613 -0.6503  0.1318 -0.1724
 7312SOL    HW133395   3.513   1.382  17.650 -1.1351 -1.1957  0.5677
 7312SOL    HW233396   3.445   1.404  17.520 -0.3201 -0.1619 -0.1333
 7313SOL     OW33397   1.997   0.554   2.920 -0.1660  0.2143  0.2060
 7313SOL    HW133398   1.917   0.507   2.947 -0.0594 -0.3793 -0.5113
 7313SOL    HW233399   2.020   0.511   2.837 -0.1983  0.8210 -0.1170
 7314SOL     OW33400   4.588   3.378  12.892  0.2219 -0.3030  0.4004
 7314SOL    HW133401   4.530   3.423  12.954  0.5685  0.8936 -0.1446
 7314SOL    HW233402   4.649   3.449  12.873 -0.3243 -0.0551 -0.4559
 7315SOL     OW33403   0.141   3.785   3.166 -0.1554 -0.1885 -0.4946
 7315SOL    HW133404   0.152   3.712   3.105  0.9630  0.5373 -1.1674
 7315SOL    HW233405   0.227   3.801   3.206 -1.1285  0.0048  1.5451
 7316SOL     OW33406   0.839   0.523   8.884  0.0553 -0.4706  0.5501
 7316SOL    HW133407   0.820   0.538   8.792  1.4419 -1.5397  0.0939
 7316SOL    HW233408   0.746   0.511   8.907 -0.1267 -1.1756 -0.5464
 7317SOL     OW33409   0.181   1.397   2.700  0.0792 -0.2387  0.5526
 7317SOL    HW133410   0.111   1.332   2.712 -1.1107  1.1447  1.1133
 7317SOL    HW233411   0.158   1.455   2.772  1.8431 -0.1613  1.0505
 7318SOL     OW33412   2.504   4.421  16.007  0.2750 -0.4525 -0.2413
 7318SOL    HW133413   2.438   4.389  15.945  2.2920 -2.0190 -1.5733
 7318SOL    HW233414   2.580   4.413  15.949  0.1252  0.2942 -0.5431
 7319SOL     OW33415   0.044   0.383   6.467 -0.0810 -0.2152  0.1487
 7319SOL    HW133416   0.055   0.425   6.381  1.5055  0.3888  0.6541
 7319SOL    HW233417   0.131   0.345   6.481  0.0698  0.0597 -0.0326
 7320SOL     OW33418   1.803   4.566   6.951  0.2851 -0.4730 -0.3058
 7320SOL    HW133419   1.769   4.560   6.862  1.5602 -1.1648 -0.7597
 7320SOL    HW233420   1.889   4.606   6.941  0.0933  0.3727  1.4082
 7321SOL     OW33421   1.866   1.608   3.560  0.0912  0.0800  0.4899
 7321SOL    HW133422   1.789   1.652   3.525 -0.2201  0.0312  1.1228
 7321SOL    HW233423   1.901   1.554   3.489  0.3006 -0.3636  0.9327
 7322SOL     OW33424   0.560   0.552   8.852 -0.1456 -0.0150 -0.3168
 7322SOL    HW133425   0.555   0.647   8.848 -3.3691 -0.2298 -1.6663
 7322SOL    HW233426   0.468   0.529   8.844 -0.4936  0.9176  0.8875
 7323SOL     OW33427   2.413   1.209   9.068  0.5340  0.1244 -0.0224
 7323SOL    HW133428   2.389   1.254   8.987  1.8340 -0.9645 -1.0108
 7323SOL    HW233429   2.509   1.206   9.066  0.6492  3.5303 -0.6072
 7324SOL     OW33430   2.589   0.328   7.458  0.2528 -0.7669  0.0243
 7324SOL    HW133431   2.592   0.263   7.528  2.2865  1.0553  1.6076
 7324SOL    HW233432   2.502   0.310   7.421  0.6008 -1.7461 -0.3265
 7325SOL     OW33433   0.614   0.672   4.688 -0.1534 -0.0918 -0.0699
 7325SOL    HW133434   0.543   0.696   4.747  0.5482 -0.9539  1.1412
 7325SOL    HW233435   0.624   0.579   4.711 -1.1132  0.4140  2.3295
 7326SOL     OW33436   1.873   0.848   8.393  0.0505 -0.2313 -0.3553
 7326SOL    HW133437   1.911   0.857   8.481 -1.1220  1.7212 -0.0429
 7326SOL    HW233438   1.953   0.823   8.346  2.0146  1.8682  1.8673
 7327SOL     OW33439   0.576   4.254  13.720  0.0323  0.5916 -0.3407
 7327SOL    HW133440   0.547   4.163  13.723 -1.1034  1.0264  1.6893
 7327SOL    HW233441   0.670   4.237  13.728 -0.3946 -1.0325  1.2153
 7328SOL     OW33442   2.422   2.816  10.059  0.0458 -0.3630  0.4399
 7328SOL    HW133443   2.419   2.723  10.035  1.8542 -1.0079  2.7707
 7328SOL    HW233444   2.347   2.808  10.118 -1.2555 -1.7458 -1.3754
 7329SOL     OW33445   0.702   3.514   1.100  0.6047  0.0971  0.1906
 7329SOL    HW133446   0.645   3.494   1.026  1.3149  1.4016 -0.6963
 7329SOL    HW233447   0.701   3.441   1.162 -0.2033 -0.3352 -0.3276
 7330SOL     OW33448   3.598   3.185   6.977 -0.3412  0.9145  0.2271
 7330SOL    HW133449   3.536   3.224   6.916 -0.7213 -1.5114 -0.9288
 7330SOL    HW233450   3.575   3.237   7.053 -1.1462  1.8763 -0.6800
 7331SOL     OW33451   2.416   4.346   7.912 -0.1649 -0.2901  0.2680
 7331SOL    HW133452   2.438   4.439   7.911  0.7972 -0.5714 -2.8923
 7331SOL    HW233453   2.352   4.332   7.982  1.1462 -0.6712  1.4037
 7332SOL     OW33454   4.588   1.820   3.942 -0.3460 -0.4717 -0.1783
 7332SOL    HW133455   4.524   1.869   3.994 -0.9828  0.7321 -2.0956
 7332SOL    HW233456   4.560   1.849   3.855  1.9821 -0.8382 -1.0530
 7333SOL     OW33457   3.937   2.320  11.589 -0.1884 -0.2951 -0.0613
 7333SOL    HW133458   3.885   2.395  11.562 -0.3357 -0.2347  0.3848
 7333SOL    HW233459   3.985   2.294  11.510 -0.4348 -3.5298  0.8503
 7334SOL     OW33460   2.163   0.903   4.603  0.5068 -0.4180 -0.1025
 7334SOL    HW133461   2.126   0.963   4.668  2.6764 -0.1669  0.9104
 7334SOL    HW233462   2.135   0.935   4.518  0.6435  0.1125  0.0533
 7335SOL     OW33463   3.151   2.964   9.175  0.7308  0.2462 -0.0640
 7335SOL    HW133464   3.205   2.895   9.137  0.9582  0.6805 -0.5416
 7335SOL    HW233465   3.067   2.944   9.133  0.5278 -0.0760  0.4952
 7336SOL     OW33466   2.626   2.798  10.612 -0.5793 -0.1583 -0.2714
 7336SOL    HW133467   2.635   2.788  10.707  0.1291 -0.5418 -0.3727
 7336SOL    HW233468   2.626   2.893  10.605  0.7360 -0.0942  0.4154
 7337SOL     OW33469   1.467   0.812   9.652 -0.1856  0.0375 -0.0711
 7337SOL    HW133470   1.421   0.802   9.569  2.8053 -1.6344 -1.5666
 7337SOL    HW233471   1.429   0.897   9.674  2.4826  1.4275 -0.7629
 7338SOL     OW33472   0.360   1.380  14.065 -0.3443 -0.2182 -0.2326
 7338SOL    HW133473   0.368   1.474  14.054 -0.8447 -0.1432  0.0290
 7338SOL    HW233474   0.279   1.378  14.117  0.5736 -0.4141  1.1800
 7339SOL     OW33475   0.862   3.470   6.145  0.0246  0.4645 -0.5724
 7339SOL    HW133476   0.908   3.488   6.063  0.8201 -1.1463 -0.4834
 7339SOL    HW233477   0.936   3.431   6.192 -1.4112 -0.7166  0.7022
 7340SOL     OW33478   0.172   2.387   4.547 -0.7036  0.0394  0.1276
 7340SOL    HW133479   0.137   2.364   4.634 -2.4593  0.5748 -0.4406
 7340SOL    HW233480   0.182   2.300   4.508  1.6885 -0.7947  2.5670
 7341SOL     OW33481   0.472   2.286  16.059 -0.4454  0.6993 -0.1487
 7341SOL    HW133482   0.527   2.249  15.990 -0.9897 -0.7361  0.1839
 7341SOL    HW233483   0.382   2.292  16.025 -0.1824 -0.2173 -1.0056
 7342SOL     OW33484   3.451   2.305   7.320  0.2544  0.4464 -0.3095
 7342SOL    HW133485   3.360   2.300   7.347  0.5958 -1.1921  0.5624
 7342SOL    HW233486   3.487   2.266   7.400  0.0210 -1.3619 -1.0981
 7343SOL     OW33487   0.637   3.213   3.561  0.0145  0.1794  0.4920
 7343SOL    HW133488   0.671   3.252   3.642  1.5978  1.3045 -0.7173
 7343SOL    HW233489   0.581   3.290   3.549 -0.2614 -0.0271  0.4754
 7344SOL     OW33490   4.653   0.351   3.105 -0.0672 -0.3739  0.8112
 7344SOL    HW133491   4.686   0.261   3.100 -0.9134 -0.7306  1.4797
 7344SOL    HW233492   0.008   0.397   3.073  0.8093  1.1849  5.2727
 7345SOL     OW33493   2.770   1.430  10.572 -0.3659 -0.2161 -0.3453
 7345SOL    HW133494   2.725   1.365  10.626 -1.9228  1.6304  0.6093
 7345SOL    HW233495   2.838   1.383  10.525  1.0313 -0.2132  1.6793
 7346SOL     OW33496   2.467   2.023   2.977  0.1376 -0.1131 -0.2144
 7346SOL    HW133497   2.510   1.938   2.989  0.4207 -0.2427 -2.1955
 7346SOL    HW233498   2.540   2.076   3.009 -0.4716  0.1756  0.7059
 7347SOL     OW33499   0.472   0.515   2.324 -0.0695 -0.3343 -0.1233
 7347SOL    HW133500   0.400   0.536   2.384  0.5382  1.0250  0.1476
 7347SOL    HW233501   0.533   0.482   2.390 -2.4470 -1.3727  1.5722
 7348SOL     OW33502   2.110   0.607   3.892 -0.0082 -0.0458 -0.5007
 7348SOL    HW133503   2.077   0.518   3.904 -0.8398  0.4141  0.7173
 7348SOL    HW233504   2.039   0.658   3.932 -0.4355 -1.7027  0.8751
 7349SOL     OW33505   0.874   0.516   3.889  0.3113  0.4448  0.1658
 7349SOL    HW133506   0.867   0.430   3.929  1.1231  0.9573  1.4186
 7349SOL    HW233507   0.822   0.523   3.809  0.8001  0.3275 -0.1612
 7350SOL     OW33508   3.822   2.170   9.060 -0.1865 -0.5331 -0.2315
 7350SOL    HW133509   3.904   2.220   9.052  0.0323 -0.6410  1.2472
 7350SOL    HW233510   3.758   2.237   9.081  0.7777 -0.0971  1.3511
 7351SOL     OW33511   4.651   3.665   5.204  0.2615 -0.5257 -0.5347
 7351SOL    HW133512   0.023   3.663   5.185  0.5949  1.5939  0.8732
 7351SOL    HW233513   4.638   3.573   5.226  0.6048 -0.4018  0.1722
 7352SOL     OW33514   1.088   0.633  12.769  0.3154 -0.6334  0.7998
 7352SOL    HW133515   1.049   0.550  12.740 -1.7712  1.7521 -3.1725
 7352SOL    HW233516   1.157   0.645  12.703  1.6138  1.1233  2.5117
 7353SOL     OW33517   3.104   2.658   8.470 -0.1915  0.0186 -0.8541
 7353SOL    HW133518   3.102   2.711   8.550  0.4317 -0.8536 -0.2676
 7353SOL    HW233519   3.182   2.694   8.427  0.4666  0.7177  0.8966
 7354SOL     OW33520   0.816   0.571   9.778  0.2167 -0.1562 -0.2801
 7354SOL    HW133521   0.892   0.593   9.833 -0.9411 -2.9563  2.4690
 7354SOL    HW233522   0.868   0.555   9.699 -0.2046  1.5817 -0.9183
 7355SOL     OW33523   4.286   4.674   2.379  0.3867 -0.6532  0.6492
 7355SOL    HW133524   4.300   4.652   2.471 -2.9379  0.7085  1.4790
 7355SOL    HW233525   4.290   4.587   2.341  0.9921 -1.2227  2.0361
 7356SOL     OW33526   4.247   0.983  14.221  0.5766 -0.1101 -0.0295
 7356SOL    HW133527   4.299   1.064  14.226  1.8980 -1.2469  4.6032
 7356SOL    HW233528   4.239   0.984  14.125  0.5783  1.2555 -0.0216
 7357SOL     OW33529   0.099   4.423   6.483 -0.4791 -0.1289  0.2184
 7357SOL    HW133530   0.076   4.331   6.498  0.1171  0.0032  1.9498
 7357SOL    HW233531   0.019   4.462   6.520 -1.1390  0.3463 -1.6925
 7358SOL     OW33532   2.485   2.100   9.578 -0.0003 -0.6659 -0.2477
 7358SOL    HW133533   2.487   2.033   9.510 -1.2468 -1.6603  0.7020
 7358SOL    HW233534   2.448   2.049   9.650 -0.5875  1.0045  0.6414
 7359SOL     OW33535   2.035   3.184   7.016  0.1170 -0.3667 -1.0752
 7359SOL    HW133536   2.105   3.188   7.081 -0.0639 -0.7507 -0.8586
 7359SOL    HW233537   2.072   3.237   6.946 -0.6277  1.3807 -0.1425
 7360SOL     OW33538   4.358   3.302   6.454  0.3578  0.2102 -0.4320
 7360SOL    HW133539   4.395   3.214   6.463  1.4129  0.5207 -1.6504
 7360SOL    HW233540   4.315   3.290   6.369  1.2320  1.5025 -1.0569
 7361SOL     OW33541   1.110   3.478   5.622 -0.3744 -0.0436 -0.4330
 7361SOL    HW133542   1.188   3.425   5.604 -0.0400 -0.2392  1.5067
 7361SOL    HW233543   1.054   3.408   5.655 -0.2865  1.2688  2.5019
 7362SOL     OW33544   0.090   1.024   4.093  0.2588  0.3939 -0.1743
 7362SOL    HW133545   4.721   1.056   4.104 -0.8463 -3.0121  0.4833
 7362SOL    HW233546   0.118   1.021   4.184  2.6014  1.9970 -0.8412
 7363SOL     OW33547   2.154   0.544   5.174  0.4485 -0.1905  0.5857
 7363SOL    HW133548   2.083   0.484   5.154  2.0053 -1.1304 -2.1257
 7363SOL    HW233549   2.108   0.601   5.236 -1.5758 -1.2719  0.0461
 7364SOL     OW33550   1.008   2.114   1.766  0.0526 -0.0901 -0.7587
 7364SOL    HW133551   1.034   2.122   1.858  1.6741 -1.7144 -1.0854
 7364SOL    HW233552   0.987   2.021   1.758  0.6683 -0.1725 -1.4286
 7365SOL     OW33553   2.183   1.141  14.172 -0.2710  0.3842 -0.2132
 7365SOL    HW133554   2.201   1.129  14.079 -0.0916 -0.2511 -0.0984
 7365SOL    HW233555   2.211   1.232  14.181  1.3213 -0.4794  3.6236
 7366SOL     OW33556   4.097   2.782   5.466 -0.2147 -0.2257  0.6153
 7366SOL    HW133557   4.118   2.692   5.493 -2.7736 -1.1702 -0.5489
 7366SOL    HW233558   4.123   2.831   5.544 -1.7030  2.2075 -0.4178
 7367SOL     OW33559   0.958   0.532  13.557 -0.5156  0.3419 -0.7803
 7367SOL    HW133560   1.020   0.586  13.606  0.8118  0.6708 -2.8350
 7367SOL    HW233561   1.009   0.493  13.486 -2.5643  0.5207 -2.3555
 7368SOL     OW33562   0.171   0.128  10.617 -0.2613  0.0657 -0.1238
 7368SOL    HW133563   0.191   0.069  10.690 -0.4480 -1.9105 -1.6838
 7368SOL    HW233564   0.143   0.200  10.674  0.7608 -0.8408  1.5124
 7369SOL     OW33565   4.612   0.779   0.550 -0.5316 -0.3080  0.2323
 7369SOL    HW133566   4.573   0.862   0.524 -1.2721 -1.6662 -3.0719
 7369SOL    HW233567   4.547   0.728   0.501  0.6948  1.2490 -2.9939
 7370SOL     OW33568   1.602   2.258   7.762 -0.0278 -0.0329 -0.0702
 7370SOL    HW133569   1.602   2.193   7.691  0.0232  0.4253 -0.4886
 7370SOL    HW233570   1.573   2.199   7.831  0.2076  2.7087  2.3342
 7371SOL     OW33571   0.754   0.377   3.617  0.0432 -0.6877 -0.0294
 7371SOL    HW133572   0.694   0.426   3.561 -0.4857 -0.4017  0.7868
 7371SOL    HW233573   0.705   0.296   3.629 -1.0883  0.2630  1.6910
 7372SOL     OW33574   4.658   1.842  14.642 -0.2951 -0.5520  0.0035
 7372SOL    HW133575   4.669   1.884  14.728  3.6759 -1.1723 -0.2025
 7372SOL    HW233576   0.031   1.836  14.625 -0.1320  2.6655 -0.3033
 7373SOL     OW33577   0.527   2.069   6.126 -0.6236  0.1090  0.2903
 7373SOL    HW133578   0.620   2.066   6.104  0.0154 -0.4192  3.0131
 7373SOL    HW233579   0.517   1.995   6.187 -0.4526  0.1728  0.3977
 7374SOL     OW33580   0.118   4.418  12.748  0.4694 -0.1757 -0.0032
 7374SOL    HW133581   0.027   4.444  12.763 -0.2537 -1.4132 -2.3075
 7374SOL    HW233582   0.121   4.384  12.658  1.3264 -1.1177  0.3938
 7375SOL     OW33583   3.898   2.475   1.268 -0.1144 -0.6820 -0.0422
 7375SOL    HW133584   3.837   2.490   1.195 -2.6645 -0.2887  2.1989
 7375SOL    HW233585   3.904   2.566   1.295  2.1190 -1.1298  0.9687
 7376SOL     OW33586   1.944   4.088   2.006 -0.3675 -0.1038  0.0447
 7376SOL    HW133587   1.883   4.159   1.986  1.0769  1.3618  0.7824
 7376SOL    HW233588   1.899   4.010   1.973  1.0437 -1.4478  1.2669
 7377SOL     OW33589   1.498   0.749   4.808 -0.3145  0.0175 -0.1003
 7377SOL    HW133590   1.459   0.797   4.735  1.5564  0.8733 -0.5233
 7377SOL    HW233591   1.462   0.662   4.791 -1.3516  0.2040  1.2014
 7378SOL     OW33592   0.414   3.855   2.874  0.3919 -0.0184 -0.1805
 7378SOL    HW133593   0.433   3.777   2.927  0.9594  0.6847  0.6648
 7378SOL    HW233594   0.460   3.840   2.792 -0.4052  1.7007 -0.9357
 7379SOL     OW33595   4.572   0.352   0.583 -0.3407 -0.3501  0.2630
 7379SOL    HW133596   4.547   0.408   0.510  2.9333 -0.5086 -0.9898
 7379SOL    HW233597   4.492   0.338   0.634 -0.6529  0.3331 -0.0513
 7380SOL     OW33598   3.715   2.042   6.644  0.1407 -0.4801 -0.2754
 7380SOL    HW133599   3.733   2.061   6.553  0.8835  0.7945  0.1414
 7380SOL    HW233600   3.749   1.952   6.647 -0.7582 -0.8296 -0.8134
 7381SOL     OW33601   1.842   1.018   8.809  0.2285 -0.3368  0.0513
 7381SOL    HW133602   1.799   0.949   8.860  0.0619 -1.2178 -1.2712
 7381SOL    HW233603   1.771   1.061   8.761  1.9352 -0.0110 -2.1843
 7382SOL     OW33604   3.329   1.780   0.420 -0.3147  0.6156 -0.5400
 7382SOL    HW133605   3.375   1.766   0.502 -1.1576  1.8353  0.1432
 7382SOL    HW233606   3.299   1.690   0.408 -0.4798  0.6094 -0.0548
 7383SOL     OW33607   3.761   0.306   1.143  0.6709  0.1714 -0.4435
 7383SOL    HW133608   3.813   0.226   1.132  3.7030  2.2248 -0.9921
 7383SOL    HW233609   3.685   0.261   1.181  2.1231  0.7583  3.1147
 7384SOL     OW33610   0.142   3.082   4.485  0.1239  0.0746  0.1783
 7384SOL    HW133611   0.115   3.164   4.526 -0.7623 -0.2884  0.3281
 7384SOL    HW233612   0.215   3.121   4.437  0.1554 -1.3813 -0.9778
 7385SOL     OW33613   1.728   1.899   3.922 -0.7117 -0.1532 -0.8767
 7385SOL    HW133614   1.752   1.812   3.955  1.9919 -0.0041 -2.4645
 7385SOL    HW233615   1.699   1.886   3.832  1.7197 -3.3333 -1.2288
 7386SOL     OW33616   3.499   2.805   7.880  0.5152  0.0267  0.2050
 7386SOL    HW133617   3.509   2.858   7.959 -3.1926  1.0368 -0.0342
 7386SOL    HW233618   3.577   2.749   7.887  0.2937 -0.2673  0.3070
 7387SOL     OW33619   2.953   0.665  17.461 -0.8357  0.1077 -0.2040
 7387SOL    HW133620   2.964   0.735  17.524 -0.6777 -0.8419  0.8226
 7387SOL    HW233621   2.975   0.710  17.379  1.8811 -3.0809 -1.2317
 7388SOL     OW33622   2.701   3.206  10.727  0.1729 -0.2777 -0.4127
 7388SOL    HW133623   2.673   3.129  10.676 -1.0450  0.1563 -0.3889
 7388SOL    HW233624   2.645   3.275  10.694  1.2785  1.9038  2.2705
 7389SOL     OW33625   1.001   2.917   5.888 -0.1023 -0.0549 -0.6009
 7389SOL    HW133626   1.085   2.878   5.911  0.2470  0.3381 -1.2312
 7389SOL    HW233627   0.984   2.969   5.967  0.2011 -1.2469  0.2610
 7390SOL     OW33628   3.314   4.485   6.078  0.0952 -0.0753  0.1201
 7390SOL    HW133629   3.222   4.493   6.056 -0.0175  1.1262  1.0401
 7390SOL    HW233630   3.338   4.409   6.025  1.0868  0.8472 -0.7428
 7391SOL     OW33631   1.091   3.505   8.262  0.3055 -0.3058  0.5187
 7391SOL    HW133632   1.055   3.472   8.345  1.7559 -0.3627  1.1165
 7391SOL    HW233633   1.122   3.593   8.283  1.1774 -0.4331 -0.2323
 7392SOL     OW33634   0.673   0.135  16.244  0.4972  0.7025  0.3019
 7392SOL    HW133635   0.667   0.180  16.328 -0.9062  0.2465  0.4495
 7392SOL    HW233636   0.588   0.099  16.218  0.6699 -0.7532  1.7905
 7393SOL     OW33637   3.426   3.221  10.007  0.2373  0.2261 -0.4393
 7393SOL    HW133638   3.450   3.216   9.914 -0.4851  0.6976 -0.6583
 7393SOL    HW233639   3.507   3.194  10.050 -0.1406  0.9329  0.7109
 7394SOL     OW33640   0.407   0.971   4.556  0.3816  0.4438  0.0019
 7394SOL    HW133641   0.470   1.041   4.573  0.0876  0.5118  0.8483
 7394SOL    HW233642   0.454   0.895   4.520  0.4554  1.3173 -1.7311
 7395SOL     OW33643   0.749   0.867   3.585  0.0605 -0.0419  0.5188
 7395SOL    HW133644   0.665   0.906   3.560  0.8481  1.5622  0.4030
 7395SOL    HW233645   0.804   0.927   3.535 -0.8820  0.9719  0.7072
 7396SOL     OW33646   1.002   4.719  13.336  0.5091 -0.0250  0.0841
 7396SOL    HW133647   1.027   4.629  13.357  0.4412 -0.1001 -0.1609
 7396SOL    HW233648   0.924   4.696  13.285  0.3262  4.1349 -1.5037
 7397SOL     OW33649   1.732   2.762   5.044 -0.0541  0.4319  0.3518
 7397SOL    HW133650   1.745   2.763   5.139 -1.8218 -2.0649  0.6254
 7397SOL    HW233651   1.787   2.688   5.019 -2.0595 -1.1355  0.5640
 7398SOL     OW33652   1.839   1.494   0.907 -0.8333  0.0610 -0.0652
 7398SOL    HW133653   1.872   1.406   0.886 -1.0060  0.1242 -0.6016
 7398SOL    HW233654   1.772   1.501   0.839  2.0788  1.2737 -2.7649
 7399SOL     OW33655   2.203   3.676   9.147  0.6061 -0.3631 -0.9188
 7399SOL    HW133656   2.204   3.771   9.135 -2.0251 -0.2221 -0.0474
 7399SOL    HW233657   2.185   3.650   9.056 -2.1545  0.4404 -0.5867
 7400SOL     OW33658   1.921   2.303  12.687  0.2507 -0.4665  0.5565
 7400SOL    HW133659   1.868   2.260  12.755 -2.2422 -0.5928 -1.4955
 7400SOL    HW233660   1.981   2.351  12.744  0.4307 -0.7121  0.5768
 7401SOL     OW33661   0.164   1.324   4.217  0.0229 -0.0033 -0.3011
 7401SOL    HW133662   0.222   1.316   4.140 -0.1260  3.4457 -0.7506
 7401SOL    HW233663   0.148   1.418   4.207 -1.3793 -0.3466 -1.3131
 7402SOL     OW33664   0.918   3.184  16.876  0.2907  0.3741 -0.4407
 7402SOL    HW133665   0.964   3.256  16.833  2.5445 -1.3364 -0.8459
 7402SOL    HW233666   0.868   3.150  16.802 -0.2141 -1.1634  0.5999
 7403SOL     OW33667   0.839   2.066  15.789 -0.2993 -0.1103 -0.1791
 7403SOL    HW133668   0.881   2.045  15.872 -1.1859 -0.8646  0.0845
 7403SOL    HW233669   0.919   2.069  15.737 -0.4007 -0.1431 -0.3349
 7404SOL     OW33670   3.335   1.076  13.223  0.1061 -0.0164  0.2179
 7404SOL    HW133671   3.337   1.031  13.307  1.8262 -2.2707 -1.0059
 7404SOL    HW233672   3.388   1.149  13.254  0.6303  0.7284 -2.3667
 7405SOL     OW33673   1.155   1.541   5.682  0.2573  0.1045  0.5063
 7405SOL    HW133674   1.143   1.494   5.599 -1.7793  0.2161  0.7518
 7405SOL    HW233675   1.101   1.619   5.671  0.8769  0.4353 -0.2605
 7406SOL     OW33676   2.170   3.690   1.459 -0.0157  0.3713 -0.2644
 7406SOL    HW133677   2.228   3.733   1.396 -0.6410  0.3908 -0.8347
 7406SOL    HW233678   2.134   3.617   1.408  0.3659  1.3856 -1.9774
 7407SOL     OW33679   1.688   0.690   8.518 -0.0595  0.5420 -0.4335
 7407SOL    HW133680   1.736   0.746   8.456  1.7703  0.5142  0.9531
 7407SOL    HW233681   1.708   0.603   8.484  1.2976  0.5743  0.2877
 7408SOL     OW33682   0.457   0.169   1.156 -0.6691 -0.3522 -0.6830
 7408SOL    HW133683   0.511   0.247   1.148 -1.6935  0.4066 -0.2886
 7408SOL    HW233684   0.482   0.129   1.073  0.2201  2.0173 -1.5723
 7409SOL     OW33685   3.780   2.768   3.615  0.6226 -0.2720  0.1721
 7409SOL    HW133686   3.809   2.780   3.524 -1.7399 -2.1028 -0.8212
 7409SOL    HW233687   3.690   2.737   3.606  0.9023 -1.5060  1.6055
 7410SOL     OW33688   3.727   4.058  12.069  0.6262 -0.3684 -0.2033
 7410SOL    HW133689   3.660   4.015  12.121 -0.3486 -1.6242 -2.4952
 7410SOL    HW233690   3.720   4.009  11.987  1.2328 -0.0431 -0.4520
 7411SOL     OW33691   3.147   1.601   1.140 -0.2073 -0.4843  0.4638
 7411SOL    HW133692   3.140   1.633   1.050 -0.7098 -0.9617  0.3361
 7411SOL    HW233693   3.153   1.508   1.119  0.9647 -0.3334  0.1149
 7412SOL     OW33694   0.673   0.341   0.780  0.4545  0.1540  0.3055
 7412SOL    HW133695   0.597   0.315   0.728  0.2642 -0.3424  0.8278
 7412SOL    HW233696   0.636   0.389   0.854 -2.7800 -0.4627 -0.9212
 7413SOL     OW33697   1.544   2.954   5.445  0.1289 -0.0570  0.3157
 7413SOL    HW133698   1.601   2.958   5.368 -0.6749  0.5021 -0.2528
 7413SOL    HW233699   1.507   2.867   5.432 -0.2623 -0.1106  1.7726
 7414SOL     OW33700   4.129   3.343  16.675  0.2486  0.0728  0.2330
 7414SOL    HW133701   4.099   3.398  16.747 -0.7936  1.2779 -1.1354
 7414SOL    HW233702   4.066   3.354  16.603  1.7885  0.1742 -1.0927
 7415SOL     OW33703   2.167   0.422   3.231 -0.2151  0.4446 -0.0915
 7415SOL    HW133704   2.097   0.483   3.253 -0.3495 -0.1679  1.2051
 7415SOL    HW233705   2.162   0.355   3.299  0.6903 -2.1219 -2.5487
 7416SOL     OW33706   1.768   4.665   2.430 -0.3418 -0.2450  0.0401
 7416SOL    HW133707   1.809   4.666   2.344  0.1576 -3.0725  0.2309
 7416SOL    HW233708   1.702   4.597   2.416  1.7432 -2.1975 -0.3596
 7417SOL     OW33709   0.903   4.623   3.752 -0.2745 -0.3964  0.1028
 7417SOL    HW133710   0.965   4.558   3.785 -3.7233 -3.7609  0.0761
 7417SOL    HW233711   0.967   4.687   3.721  0.6417 -0.3038  2.1774
 7418SOL     OW33712   0.898   2.500  11.175 -0.2831 -0.3412 -0.0374
 7418SOL    HW133713   0.971   2.543  11.130 -1.1284  0.5793 -0.5309
 7418SOL    HW233714   0.875   2.443  11.102  0.1702 -2.0390  1.1459
 7419SOL     OW33715   3.797   3.057   2.404  0.3288  0.2924 -0.2830
 7419SOL    HW133716   3.817   2.998   2.476 -1.1146 -1.7606 -1.5583
 7419SOL    HW233717   3.774   2.994   2.335  3.2301  1.2546 -2.1781
 7420SOL     OW33718   0.026   0.206   2.797 -0.2536 -0.4813  0.0537
 7420SOL    HW133719   4.700   0.289   2.802  0.6628  0.1347 -1.4678
 7420SOL    HW233720   0.112   0.238   2.770 -2.0253  3.4001 -1.0510
 7421SOL     OW33721   4.196   2.428   6.539  0.1362 -0.1163 -0.0963
 7421SOL    HW133722   4.147   2.427   6.621  0.0474  1.0762 -0.1278
 7421SOL    HW233723   4.198   2.524   6.533  1.6322 -0.1329  0.2116
 7422SOL     OW33724   3.746   4.360   7.207  0.1376 -0.5523  0.6711
 7422SOL    HW133725   3.800   4.291   7.246 -0.3035 -0.6156  1.1768
 7422SOL    HW233726   3.769   4.436   7.261 -1.7657 -0.8741  1.9770
 7423SOL     OW33727   3.071   3.818  17.535 -0.1958 -0.7508  0.0795
 7423SOL    HW133728   3.093   3.910  17.522 -1.3859 -0.3748  0.8081
 7423SOL    HW233729   3.132   3.777  17.473  1.5930 -2.2994  2.8233
 7424SOL     OW33730   2.908   4.579   0.226 -0.1161 -0.3548 -0.0537
 7424SOL    HW133731   2.904   4.507   0.288 -0.4147 -0.3375 -0.0530
 7424SOL    HW233732   2.908   4.656   0.282 -0.6985  0.0110 -0.5614
 7425SOL     OW33733   0.234   4.117   2.759 -0.4655  0.0875  0.4352
 7425SOL    HW133734   0.149   4.154   2.780 -0.9121 -0.3038 -0.7113
 7425SOL    HW233735   0.251   4.068   2.840 -2.4627 -0.7230  0.3694
 7426SOL     OW33736   2.439   3.398  15.760 -0.4447 -0.0785 -0.6751
 7426SOL    HW133737   2.501   3.352  15.816 -0.4802  0.0213 -0.5532
 7426SOL    HW233738   2.378   3.450  15.813  2.0521  0.3335  1.7626
 7427SOL     OW33739   2.790   0.068   4.059  0.1583  0.9130 -0.4354
 7427SOL    HW133740   2.761   4.700   4.041  1.1954  0.5546 -0.2974
 7427SOL    HW233741   2.885   0.060   4.054  0.0685  2.1884 -4.0568
 7428SOL     OW33742   3.868   4.085  15.213 -0.0836 -0.3480 -0.2704
 7428SOL    HW133743   3.796   4.070  15.152 -1.3992 -0.3931  1.3095
 7428SOL    HW233744   3.857   4.018  15.281 -2.5338  0.4897  0.1508
 7429SOL     OW33745   2.215   1.428   9.905 -0.1047  0.2020  0.0044
 7429SOL    HW133746   2.309   1.419   9.893 -0.0714 -0.7437  0.9898
 7429SOL    HW233747   2.210   1.522   9.921  0.4271  0.2690 -0.2233
 7430SOL     OW33748   2.322   0.653  16.339 -0.1257 -0.0209  0.3591
 7430SOL    HW133749   2.301   0.659  16.432 -0.4474 -1.4019  0.3776
 7430SOL    HW233750   2.402   0.706  16.339 -0.4591  0.4864 -1.7180
 7431SOL     OW33751   4.127   1.326   3.787 -0.2349 -0.3742 -0.2693
 7431SOL    HW133752   4.050   1.289   3.743  0.5617 -0.0281 -1.9740
 7431SOL    HW233753   4.096   1.417   3.785 -0.5927 -0.4937 -0.2705
 7432SOL     OW33754   3.654   4.534  10.775  0.4364 -0.8155  1.2889
 7432SOL    HW133755   3.675   4.548  10.867  0.5059 -1.6226  1.3972
 7432SOL    HW233756   3.559   4.530  10.773  0.4439 -0.2696 -0.2279
 7433SOL     OW33757   1.082   4.118   5.126  0.7868  0.1428 -0.4492
 7433SOL    HW133758   1.057   4.067   5.202  0.6128  1.7309  0.5571
 7433SOL    HW233759   1.133   4.050   5.081  0.0215 -0.8878  0.2397
 7434SOL     OW33760   4.511   0.423  16.732 -0.0259  0.3040  0.5318
 7434SOL    HW133761   4.497   0.338  16.691  0.1876  0.0685  0.9462
 7434SOL    HW233762   4.605   0.439  16.726  0.4630 -1.8644  2.6253
 7435SOL     OW33763   0.227   4.356   8.256 -0.0229 -0.2097 -0.5259
 7435SOL    HW133764   0.290   4.325   8.320 -1.6929 -2.7951 -0.1155
 7435SOL    HW233765   0.238   4.451   8.257  2.8152 -0.5496 -0.0165
 7436SOL     OW33766   1.702   2.458   4.481 -0.2785 -0.2956  0.3682
 7436SOL    HW133767   1.651   2.478   4.401  0.6916  0.1497 -0.1408
 7436SOL    HW233768   1.635   2.457   4.549 -0.4345  1.7309  0.2651
 7437SOL     OW33769   0.573   3.063   0.638 -0.4012  0.6170 -0.1294
 7437SOL    HW133770   0.566   2.970   0.659  3.3450  0.5726  0.8454
 7437SOL    HW233771   0.480   3.085   0.632 -0.4106  0.1070 -1.8415
 7438SOL     OW33772   2.982   3.188   2.586  0.5513  0.3128 -0.2998
 7438SOL    HW133773   2.930   3.212   2.662 -0.6769  1.2701 -1.4354
 7438SOL    HW233774   2.919   3.128   2.547  0.1037  0.7861 -0.3038
 7439SOL     OW33775   3.064   4.136  17.170  0.6517  0.3761 -0.6826
 7439SOL    HW133776   3.044   4.105  17.082  0.4623  2.3314 -1.3142
 7439SOL    HW233777   3.008   4.213  17.172  1.9922  1.3665 -1.3326
 7440SOL     OW33778   4.220   0.895   6.217  0.7919  0.3636 -1.1534
 7440SOL    HW133779   4.222   0.985   6.249 -2.0693 -0.4412  1.3308
 7440SOL    HW233780   4.151   0.902   6.151 -1.0379  0.4767  0.7493
 7441SOL     OW33781   0.229   4.320   2.206 -0.4632  0.9870 -0.1309
 7441SOL    HW133782   0.306   4.317   2.150  0.3574  0.1759  1.0532
 7441SOL    HW233783   0.167   4.378   2.161  0.5737  2.5285  0.4335
 7442SOL     OW33784   0.458   2.166   5.124 -0.0456  0.4463  0.2299
 7442SOL    HW133785   0.516   2.239   5.147 -1.4224  1.0692  1.6775
 7442SOL    HW233786   0.382   2.173   5.181 -0.5035  1.2877 -0.4798
 7443SOL     OW33787   1.048   1.596  13.202  0.4506  0.1686  0.3979
 7443SOL    HW133788   1.034   1.684  13.167  1.7286  0.0014 -0.5375
 7443SOL    HW233789   0.958   1.565  13.202  0.4324  0.2157  0.9219
 7444SOL     OW33790   2.080   0.678   5.393  0.2011  0.2342 -0.1236
 7444SOL    HW133791   2.067   0.604   5.453 -1.5979 -0.9914 -2.0275
 7444SOL    HW233792   2.084   0.748   5.457 -0.5970  1.6062 -1.5709
 7445SOL     OW33793   1.382   0.731   5.643  0.1014 -0.2184 -0.8830
 7445SOL    HW133794   1.324   0.777   5.582 -0.7017  3.0771  2.4216
 7445SOL    HW233795   1.367   0.771   5.728  1.3781  2.2635 -1.8241
 7446SOL     OW33796   4.216   0.250   4.042 -0.0836  0.4115  0.0576
 7446SOL    HW133797   4.133   0.242   3.994 -0.8997 -0.4651  1.6516
 7446SOL    HW233798   4.278   0.229   3.972 -0.3999  1.2764 -0.4929
 7447SOL     OW33799   1.213   1.935   4.904  0.7802  0.2475 -0.2969
 7447SOL    HW133800   1.121   1.932   4.879  0.4401  2.2686  0.7186
 7447SOL    HW233801   1.263   1.885   4.840  1.1232 -0.6748  0.6883
 7448SOL     OW33802   3.523   3.046   8.036  0.1649  0.6446 -0.2559
 7448SOL    HW133803   3.578   3.086   7.968  0.6086  0.7030  0.1402
 7448SOL    HW233804   3.548   3.107   8.105 -1.1785 -0.2290  0.9923
 7449SOL     OW33805   0.406   2.388   8.683 -0.0053 -0.2095  0.4819
 7449SOL    HW133806   0.493   2.350   8.691 -0.2726 -1.1954 -1.2482
 7449SOL    HW233807   0.418   2.430   8.597  1.4885 -0.3360  0.6284
 7450SOL     OW33808   3.774   4.146   4.822  0.0556  1.0168 -0.5330
 7450SOL    HW133809   3.752   4.070   4.875  0.1839  0.7312 -0.8852
 7450SOL    HW233810   3.822   4.196   4.889 -0.9107  0.7018  0.3834
 7451SOL     OW33811   2.686   0.127   4.862  0.0719  0.4934 -0.2660
 7451SOL    HW133812   2.652   0.135   4.773  1.2282  0.4428 -0.7113
 7451SOL    HW233813   2.694   0.032   4.872  2.0262  0.4529 -2.1241
 7452SOL     OW33814   1.626   1.994   2.900  0.5350 -0.6571 -0.3752
 7452SOL    HW133815   1.718   1.997   2.873  0.7993  2.1274  0.8505
 7452SOL    HW233816   1.616   2.084   2.931  0.7058 -0.0433 -2.0745
 7453SOL     OW33817   2.472   3.453   8.554 -0.2905 -0.0858  0.3807
 7453SOL    HW133818   2.568   3.453   8.556 -0.3360  1.2066  2.7897
 7453SOL    HW233819   2.452   3.427   8.464  1.3623  0.5281 -0.1705
 7454SOL     OW33820   0.298   2.663  16.334  0.6307 -0.3840  0.1261
 7454SOL    HW133821   0.218   2.612  16.348 -0.6276  0.3192 -4.5643
 7454SOL    HW233822   0.263   2.752  16.330  0.0528 -0.5561  1.3705
 7455SOL     OW33823   1.599   1.467   4.450 -0.6244  0.0664  0.3386
 7455SOL    HW133824   1.550   1.446   4.371 -1.3939  0.8115  0.6159
 7455SOL    HW233825   1.688   1.450   4.418 -0.3586 -0.6892  1.4954
 7456SOL     OW33826   2.716   3.638   6.150 -0.2810  0.0627 -0.0337
 7456SOL    HW133827   2.780   3.709   6.156 -0.8708  0.6242 -0.3540
 7456SOL    HW233828   2.754   3.602   6.070 -2.4357 -0.0956 -0.9986
 7457SOL     OW33829   1.710   4.532   7.760 -0.1837  0.3356  0.5869
 7457SOL    HW133830   1.682   4.480   7.836  0.0169  3.0409  2.5325
 7457SOL    HW233831   1.668   4.618   7.773 -1.8804 -0.2486 -1.0162
 7458SOL     OW33832   1.077   0.343   8.944 -0.5336  0.3256 -1.2488
 7458SOL    HW133833   1.019   0.396   8.888 -0.0528  0.2949 -1.7698
 7458SOL    HW233834   1.088   0.272   8.880 -2.0052 -0.1500 -0.9929
 7459SOL     OW33835   2.780   0.159   6.376  0.1752 -0.1708 -0.3224
 7459SOL    HW133836   2.706   0.218   6.392  0.3250 -0.4180  1.3585
 7459SOL    HW233837   2.744   0.099   6.311 -2.2092  0.3689  0.4675
 7460SOL     OW33838   3.895   0.171  14.239 -0.1366  0.4696  0.4639
 7460SOL    HW133839   3.968   0.228  14.264  0.0027 -0.6535  2.7124
 7460SOL    HW233840   3.831   0.180  14.310 -1.8582  0.7018 -1.1116
 7461SOL     OW33841   1.274   0.224  10.237  0.2615 -0.3955 -0.5531
 7461SOL    HW133842   1.282   0.320  10.238  0.2623 -0.4056  0.8969
 7461SOL    HW233843   1.369   0.207  10.237  0.8433  2.8058 -1.5940
 7462SOL     OW33844   4.191   3.893   4.990 -0.0979  0.2754 -0.1660
 7462SOL    HW133845   4.160   3.870   4.903 -1.2116  2.8544 -0.4310
 7462SOL    HW233846   4.174   3.987   4.985 -1.7394 -0.0760 -0.8390
 7463SOL     OW33847   3.006   4.501   2.931  0.1329  0.4109 -0.4300
 7463SOL    HW133848   2.960   4.417   2.935 -0.4940  0.7904  0.4774
 7463SOL    HW233849   2.946   4.558   2.883  0.0084 -0.7326 -1.6253
 7464SOL     OW33850   4.099   1.443   4.394 -0.8441  0.4419 -0.3444
 7464SOL    HW133851   4.191   1.440   4.368 -0.4496  1.2887  0.9609
 7464SOL    HW233852   4.057   1.499   4.328 -0.3396  0.2606 -0.8232
 7465SOL     OW33853   3.889   1.050  12.576 -0.0176  0.1116  0.6967
 7465SOL    HW133854   3.964   1.109  12.567 -0.7180  0.7762 -0.7488
 7465SOL    HW233855   3.924   0.983  12.635 -1.2000 -1.6132 -0.5801
 7466SOL     OW33856   4.699   4.258   8.291 -0.4363 -1.0734 -0.2336
 7466SOL    HW133857   0.058   4.307   8.273  0.1262 -2.2525 -0.9171
 7466SOL    HW233858   4.707   4.242   8.385  0.9307 -0.5363 -0.2611
 7467SOL     OW33859   1.308   0.607   3.599 -0.0935 -0.5305  0.1453
 7467SOL    HW133860   1.293   0.603   3.693  0.6980  0.2623  0.3101
 7467SOL    HW233861   1.343   0.520   3.579  0.8677 -0.1499  0.1284
 7468SOL     OW33862   0.387   3.170  16.606 -0.7642 -0.1117 -0.1565
 7468SOL    HW133863   0.457   3.123  16.652 -2.2724 -1.1897  1.0397
 7468SOL    HW233864   0.316   3.109  16.622 -1.5144  1.4780  2.4746
 7469SOL     OW33865   4.451   3.031  13.824 -0.3263  0.1517  0.7717
 7469SOL    HW133866   4.518   3.041  13.891 -0.9875 -2.3452  1.8005
 7469SOL    HW233867   4.374   3.069  13.865 -2.2279 -2.5332 -0.2607
 7470SOL     OW33868   1.564   2.538   6.346  0.0367  0.7797 -0.2277
 7470SOL    HW133869   1.492   2.542   6.409 -1.2681  0.2389 -1.6583
 7470SOL    HW233870   1.581   2.444   6.341  1.4679  1.0916 -1.2955
 7471SOL     OW33871   3.291   2.998  16.555  0.3762  0.6690  0.0959
 7471SOL    HW133872   3.230   3.000  16.629 -1.1220 -2.8507 -1.0194
 7471SOL    HW233873   3.259   2.918  16.512 -1.3428  0.1898  2.2538
 7472SOL     OW33874   4.651   0.799  12.983  0.2768 -0.2040  0.0936
 7472SOL    HW133875   4.572   0.846  13.008  0.9399  0.9196  0.0852
 7472SOL    HW233876   4.684   0.870  12.927  0.5461  0.5043  1.1554
 7473SOL     OW33877   0.134   1.984   4.207 -0.2976  0.2170  0.7686
 7473SOL    HW133878   0.154   1.918   4.141 -0.8896 -0.8755  1.6608
 7473SOL    HW233879   0.175   1.946   4.285 -0.1991 -1.8134 -0.2691
 7474SOL     OW33880   1.377   0.811   7.430 -0.0398  0.5248 -0.0707
 7474SOL    HW133881   1.463   0.854   7.423  0.9811 -1.3549  0.7731
 7474SOL    HW233882   1.321   0.851   7.364  0.8913 -1.1573 -1.8736
 7475SOL     OW33883   2.004   2.514   2.812 -0.0130 -0.3603 -0.0272
 7475SOL    HW133884   2.065   2.523   2.885 -0.6551 -0.1088  0.4794
 7475SOL    HW233885   2.043   2.443   2.761  2.4864  0.9961 -0.0114
 7476SOL     OW33886   1.562   1.187   2.436  0.2457 -0.0058  0.6065
 7476SOL    HW133887   1.557   1.227   2.349  0.1830 -0.8811  0.2096
 7476SOL    HW233888   1.646   1.143   2.433  0.7679  1.1624 -1.7188
 7477SOL     OW33889   3.688   2.882  10.892  0.4872 -0.7053  0.3496
 7477SOL    HW133890   3.626   2.920  10.955  1.0563  2.2060 -0.8179
 7477SOL    HW233891   3.755   2.869  10.958  2.1591  2.0592 -0.7831
 7478SOL     OW33892   1.092   2.919  12.580 -0.3808  0.3575  0.2401
 7478SOL    HW133893   1.102   2.915  12.675 -1.2592 -3.4505  0.1683
 7478SOL    HW233894   1.159   2.983  12.556 -1.5855  1.7185  0.5228
 7479SOL     OW33895   4.422   3.681   6.372 -0.4407 -0.6032  0.3157
 7479SOL    HW133896   4.390   3.769   6.391 -1.8413 -1.1981  0.7290
 7479SOL    HW233897   4.340   3.631   6.369 -0.9989  0.3885 -1.0889
 7480SOL     OW33898   4.592   4.704  10.396 -0.0862 -0.3231  0.4336
 7480SOL    HW133899   4.546   0.063  10.374  0.3659  0.1821  1.3750
 7480SOL    HW233900   4.678   0.004  10.358  0.1878  0.5683  1.5869
 7481SOL     OW33901   0.486   2.597  11.686  0.0644 -0.4308  0.6796
 7481SOL    HW133902   0.482   2.656  11.610  1.7841 -1.8809 -0.5378
 7481SOL    HW233903   0.555   2.642  11.734  0.7761 -2.0599  1.1717
 7482SOL     OW33904   2.454   1.203  10.007 -0.1637  0.2526  0.1282
 7482SOL    HW133905   2.461   1.298  10.015 -0.7135  0.3673 -0.7492
 7482SOL    HW233906   2.453   1.194   9.912 -0.5186  1.8116 -0.0107
 7483SOL     OW33907   1.553   2.592   2.338  0.1731 -0.5465  0.4409
 7483SOL    HW133908   1.495   2.557   2.270  3.1942  0.2559 -2.5939
 7483SOL    HW233909   1.516   2.564   2.422 -0.0350  1.1061  0.9014
 7484SOL     OW33910   0.115   2.060  16.577  0.4369  0.8688  0.0171
 7484SOL    HW133911   0.071   1.983  16.540 -0.0827  1.7816 -1.2956
 7484SOL    HW233912   0.071   2.060  16.662 -1.1267  0.8487 -0.7986
 7485SOL     OW33913   2.102   1.064   6.675 -0.1313 -0.3082  0.4031
 7485SOL    HW133914   2.017   1.057   6.717 -0.7102  1.5908 -0.4245
 7485SOL    HW233915   2.136   1.145   6.712  0.3140  0.3334 -1.3842
 7486SOL     OW33916   2.282   4.134   7.263 -0.4705  0.1427  0.2737
 7486SOL    HW133917   2.301   4.225   7.287  1.9788 -0.5339  0.8903
 7486SOL    HW233918   2.271   4.159   7.171 -1.3845 -0.6525  0.1618
 7487SOL     OW33919   3.894   1.922   1.367  0.2022 -0.5461  0.2380
 7487SOL    HW133920   3.942   1.997   1.332  0.9137 -0.6662  0.9546
 7487SOL    HW233921   3.817   1.911   1.311 -0.5556  2.0603  0.8176
 7488SOL     OW33922   0.518   1.350   0.956 -0.0205 -0.1325  0.5571
 7488SOL    HW133923   0.487   1.393   0.876 -0.4018  1.1848  1.4212
 7488SOL    HW233924   0.523   1.260   0.922  0.5462 -0.1619  0.7198
 7489SOL     OW33925   3.143   4.589  15.584  0.0274  0.0912  0.1663
 7489SOL    HW133926   3.066   4.532  15.579 -1.2739  1.6529  2.5508
 7489SOL    HW233927   3.123   4.655  15.517  0.5853  0.5773  0.4768
 7490SOL     OW33928   3.809   0.601   9.544  0.1444  0.2746 -0.9966
 7490SOL    HW133929   3.726   0.609   9.592  1.4294  1.0029  1.1285
 7490SOL    HW233930   3.772   0.629   9.461  0.9633  1.7528 -0.8773
 7491SOL     OW33931   2.324   1.632   6.899  0.3213 -1.0250  0.2262
 7491SOL    HW133932   2.365   1.717   6.887  1.2810 -1.3841  0.9691
 7491SOL    HW233933   2.389   1.595   6.959  0.5721 -3.0632 -1.2958
 7492SOL     OW33934   2.943   3.312   7.929 -0.6809  0.4402 -0.1218
 7492SOL    HW133935   3.031   3.283   7.952 -1.4479 -2.0583 -0.4010
 7492SOL    HW233936   2.934   3.402   7.962  1.5296  1.2386 -1.6985
 7493SOL     OW33937   1.569   4.672   4.611  0.4096 -0.3996 -0.3006
 7493SOL    HW133938   1.542   4.582   4.632  1.5616 -0.2319  1.8601
 7493SOL    HW233939   1.582   4.711   4.697  0.5150  0.0700 -0.5309
 7494SOL     OW33940   1.021   4.393   8.373 -0.2339 -0.5015 -1.0980
 7494SOL    HW133941   1.022   4.475   8.323 -1.2295  0.0491 -0.2236
 7494SOL    HW233942   0.997   4.324   8.312  0.3347 -0.7974 -0.9842
 7495SOL     OW33943   3.748   4.384   6.239 -0.3810 -0.4343  0.0149
 7495SOL    HW133944   3.741   4.331   6.319 -2.4106 -1.2592 -0.6985
 7495SOL    HW233945   3.779   4.463   6.283  1.5517 -0.6752 -0.9444
 7496SOL     OW33946   2.315   0.952   2.657  0.4600  0.0302  0.3893
 7496SOL    HW133947   2.278   0.864   2.661 -1.7766  0.8896 -1.2289
 7496SOL    HW233948   2.310   0.967   2.562  0.0880 -2.2619  0.0338
 7497SOL     OW33949   3.477   3.426   0.320  0.5090  0.3490  0.0437
 7497SOL    HW133950   3.543   3.364   0.350 -0.4387 -0.1978  0.9947
 7497SOL    HW233951   3.456   3.406   0.229 -0.6762  1.3844  0.0821
 7498SOL     OW33952   4.199   4.454   8.139 -0.4398  0.0424 -0.1362
 7498SOL    HW133953   4.173   4.406   8.217 -3.4505  0.3918 -0.9489
 7498SOL    HW233954   4.217   4.533   8.190  0.3434  0.0218 -0.3675
 7499SOL     OW33955   1.635   3.604   6.357  0.5073 -0.0699 -0.4391
 7499SOL    HW133956   1.652   3.526   6.306 -1.3052 -1.4105  1.0082
 7499SOL    HW233957   1.722   3.645   6.356  0.6518 -0.3565  0.2883
 7500SOL     OW33958   1.704   0.323   4.922  0.5293 -0.5914 -0.3349
 7500SOL    HW133959   1.632   0.346   4.981 -1.6169 -0.9119 -2.8511
 7500SOL    HW233960   1.777   0.358   4.973  0.2630  0.5110 -0.7105
 7501SOL     OW33961   1.243   3.263   9.023  0.1306  0.2242  0.5127
 7501SOL    HW133962   1.218   3.170   9.020 -3.0581  1.1147 -1.2532
 7501SOL    HW233963   1.316   3.241   9.080  0.7483  1.7905  0.3118
 7502SOL     OW33964   2.118   0.658   2.512 -0.0898  0.4724  0.8539
 7502SOL    HW133965   2.175   0.597   2.465  1.1437  1.1163  1.4892
 7502SOL    HW233966   2.102   0.718   2.440  3.7243 -0.6756 -0.9478
 7503SOL     OW33967   0.572   0.825   2.169 -0.2801 -0.3595 -0.1473
 7503SOL    HW133968   0.501   0.871   2.214  0.2062  1.1837 -0.9817
 7503SOL    HW233969   0.632   0.811   2.243 -0.2280  0.5298 -0.0238
 7504SOL     OW33970   3.231   2.791   6.395  0.2259  0.7105 -0.2867
 7504SOL    HW133971   3.244   2.885   6.403  0.1119  0.7888 -1.0103
 7504SOL    HW233972   3.275   2.768   6.313 -0.8952 -1.4425 -0.2812
 7505SOL     OW33973   4.076   1.680   3.135 -0.2821 -0.2045 -0.3428
 7505SOL    HW133974   4.070   1.682   3.230  1.1589 -0.5431 -0.2528
 7505SOL    HW233975   4.006   1.618   3.113  1.3989 -1.7266 -1.3800
 7506SOL     OW33976   4.719   0.220  11.195  0.6239  0.0835  0.3671
 7506SOL    HW133977   4.677   0.177  11.270 -1.7983  0.5945 -0.6865
 7506SOL    HW233978   0.086   0.185  11.206  1.0494  0.3160 -2.4122
 7507SOL     OW33979   3.066   1.773   9.186 -0.5085 -0.1648 -0.6878
 7507SOL    HW133980   3.125   1.713   9.140 -1.2130  0.4651 -2.4113
 7507SOL    HW233981   3.124   1.850   9.188  2.1753 -2.2382  1.0155
 7508SOL     OW33982   3.795   1.728   5.701 -0.0913  0.5123  0.4259
 7508SOL    HW133983   3.741   1.802   5.674 -2.6896 -1.8850 -1.0299
 7508SOL    HW233984   3.805   1.760   5.791  0.4496  1.5927 -0.0214
 7509SOL     OW33985   0.444   1.888   1.312  0.0565 -0.1048  0.8200
 7509SOL    HW133986   0.493   1.826   1.259  1.0456  0.1663  1.4261
 7509SOL    HW233987   0.356   1.872   1.278  0.5519  1.2474 -1.0894
 7510SOL     OW33988   4.539   1.615   4.848 -0.4048 -0.9198 -0.0951
 7510SOL    HW133989   4.514   1.523   4.858 -0.8388 -0.5343  2.5134
 7510SOL    HW233990   4.505   1.638   4.762 -1.5872  3.1147  1.4299
 7511SOL     OW33991   1.851   3.269   3.847  0.1377  0.0879 -0.0458
 7511SOL    HW133992   1.916   3.204   3.875 -1.6952 -1.3719  0.7590
 7511SOL    HW233993   1.862   3.264   3.752 -0.1422  1.1784 -0.1384
 7512SOL     OW33994   0.821   0.977   7.935 -0.2838 -0.4664 -0.5352
 7512SOL    HW133995   0.836   0.909   7.870 -2.4371 -1.0005 -0.4994
 7512SOL    HW233996   0.906   1.020   7.934 -0.8657  0.7329  1.9333
 7513SOL     OW33997   4.071   1.361   5.449  0.4928 -0.6849 -0.1007
 7513SOL    HW133998   4.162   1.390   5.444  0.2359  0.2123  0.5713
 7513SOL    HW233999   4.019   1.441   5.436 -0.9469 -1.3157  1.9015
 7514SOL     OW34000   1.839   3.127   6.831 -0.2750 -0.2070  0.2103
 7514SOL    HW134001   1.885   3.149   6.912  2.5118 -1.4433 -1.0018
 7514SOL    HW234002   1.812   3.204   6.782  2.4620 -0.3725 -1.5973
 7515SOL     OW34003   0.014   1.796  16.537  0.0540  0.0923  0.3270
 7515SOL    HW134004   4.667   1.775  16.600  0.1060  0.6174  0.5581
 7515SOL    HW234005   0.072   1.720  16.537  1.4593  1.1509 -0.3055
 7516SOL     OW34006   1.397   0.352   2.264 -0.4052  0.8199  0.2808
 7516SOL    HW134007   1.492   0.360   2.275 -0.2382 -1.1987  0.3429
 7516SOL    HW234008   1.394   0.395   2.179 -1.2958 -0.0053 -0.1015
 7517SOL     OW34009   2.425   1.998  12.857 -0.0117  0.2695 -0.0096
 7517SOL    HW134010   2.341   1.974  12.897 -0.1492 -1.2266 -1.1527
 7517SOL    HW234011   2.397   2.079  12.815  0.9831  0.8201  0.4004
 7518SOL     OW34012   2.421   4.503   8.550  0.1815 -0.1582 -0.0417
 7518SOL    HW134013   2.351   4.438   8.562  0.6192 -0.4113  1.2068
 7518SOL    HW234014   2.476   4.451   8.492  0.1555  0.4940 -0.6353
 7519SOL     OW34015   3.083   1.286   3.367  0.4747 -0.0817 -0.4086
 7519SOL    HW134016   3.000   1.310   3.327 -0.1627 -2.3786 -0.4590
 7519SOL    HW234017   3.085   1.202   3.322 -1.8587 -1.0117  1.2143
 7520SOL     OW34018   4.054   4.240   4.355 -0.3083  0.8588 -0.1965
 7520SOL    HW134019   4.038   4.244   4.261  0.5964 -1.3361 -0.4409
 7520SOL    HW234020   4.107   4.317   4.376 -1.3356  1.6988 -0.6825
 7521SOL     OW34021   0.724   1.800   1.902  0.4949  0.1806 -0.1379
 7521SOL    HW134022   0.802   1.853   1.921 -1.9848  3.2156  1.6140
 7521SOL    HW234023   0.757   1.750   1.827  2.8821 -0.2674  1.2036
 7522SOL     OW34024   1.655   2.062   7.357 -0.3490 -0.3117 -0.8113
 7522SOL    HW134025   1.749   2.075   7.342 -0.6685 -0.1405 -2.6765
 7522SOL    HW234026   1.620   2.144   7.321 -0.5904 -0.2120 -0.3466
 7523SOL     OW34027   0.512   0.917  16.744  0.4206 -0.1264  0.2209
 7523SOL    HW134028   0.470   0.834  16.765 -2.6485  0.9101 -1.8547
 7523SOL    HW234029   0.474   0.975  16.809  0.1335  0.7202 -0.7022
 7524SOL     OW34030   2.603   0.958   6.901  0.3051 -0.6353 -0.6960
 7524SOL    HW134031   2.658   0.916   6.835  2.7006  1.6273 -0.1524
 7524SOL    HW234032   2.673   0.994   6.956 -0.1085  2.2982 -2.1032
 7525SOL     OW34033   0.210   2.669  11.861 -0.1867 -0.0821 -0.1830
 7525SOL    HW134034   0.120   2.699  11.844 -1.2533 -2.5274  1.0097
 7525SOL    HW234035   0.217   2.614  11.783 -0.6172 -0.3284 -0.0522
 7526SOL     OW34036   2.708   4.253   1.169 -0.6757  0.6321  0.3943
 7526SOL    HW134037   2.748   4.333   1.204 -0.5022 -0.5276  2.8853
 7526SOL    HW234038   2.785   4.200   1.153 -1.0438  0.3292 -0.3538
 7527SOL     OW34039   3.996   1.235  10.995 -0.0686 -0.0339 -0.1135
 7527SOL    HW134040   3.914   1.187  10.992 -0.3487  0.3769  0.7351
 7527SOL    HW234041   4.051   1.178  11.049 -0.2485 -0.6000 -0.5438
 7528SOL     OW34042   3.364   2.475   2.905 -0.3145  0.1366  0.7345
 7528SOL    HW134043   3.424   2.436   2.842  0.7241 -0.6674  2.2364
 7528SOL    HW234044   3.338   2.399   2.958 -0.8032 -0.8000 -0.8429
 7529SOL     OW34045   0.011   0.534   5.497  0.2705 -0.2740  0.3095
 7529SOL    HW134046   0.085   0.546   5.438 -0.2593 -0.6917 -0.4439
 7529SOL    HW234047   4.664   0.594   5.466 -0.0684 -1.1526 -0.6594
 7530SOL     OW34048   0.889   2.167   7.878 -0.4862 -0.2824  0.3259
 7530SOL    HW134049   0.982   2.160   7.898 -0.4091 -2.8757 -0.8949
 7530SOL    HW234050   0.862   2.226   7.948  0.6604  1.2539 -0.5519
 7531SOL     OW34051   4.597   1.422   8.976 -0.3663 -0.0771  0.2230
 7531SOL    HW134052   4.524   1.430   9.037 -1.5186 -0.2847 -1.1216
 7531SOL    HW234053   4.665   1.398   9.040 -1.1714 -0.4237  0.9406
 7532SOL     OW34054   3.256   1.738   8.684  0.1837  0.1548  0.0867
 7532SOL    HW134055   3.337   1.787   8.700  0.0626 -0.0370  1.3089
 7532SOL    HW234056   3.201   1.810   8.653 -1.3181 -1.6701 -1.4771
 7533SOL     OW34057   0.712   0.806   9.679  0.5572  0.2847 -0.3846
 7533SOL    HW134058   0.787   0.823   9.622 -0.2615 -0.2051 -1.6197
 7533SOL    HW234059   0.730   0.718   9.713 -2.8144 -1.3040 -2.7269
 7534SOL     OW34060   0.347   1.627   6.468 -0.1620 -0.7299  0.1534
 7534SOL    HW134061   0.302   1.707   6.441  1.4166  0.4510  1.0427
 7534SOL    HW234062   0.385   1.648   6.554 -0.0706  1.0597 -0.3167
 7535SOL     OW34063   4.319   4.487   7.171  0.0561 -0.1557  0.1822
 7535SOL    HW134064   4.291   4.556   7.112  3.4288  0.4212 -0.7412
 7535SOL    HW234065   4.233   4.455   7.200 -0.3656 -0.8692 -1.8568
 7536SOL     OW34066   2.326   2.784   9.121  0.5918 -0.2876 -0.0504
 7536SOL    HW134067   2.249   2.789   9.177 -0.2607  1.1088 -1.3375
 7536SOL    HW234068   2.335   2.877   9.102  3.0882 -0.9526 -2.2164
 7537SOL     OW34069   1.399   0.081   2.357 -0.8123  0.2658  0.1572
 7537SOL    HW134070   1.431   0.157   2.308  0.2963 -0.1575  0.2348
 7537SOL    HW234071   1.444   0.005   2.323  0.6672  0.7899  0.9432
 7538SOL     OW34072   0.715   4.646   9.505  0.0296  0.0053  0.5490
 7538SOL    HW134073   0.735   4.574   9.564 -1.1834 -1.0733 -0.3713
 7538SOL    HW234074   0.704   4.710   9.576  0.2616  0.9451 -0.2530
 7539SOL     OW34075   0.190   0.387   6.121  0.1858  0.0940 -0.5727
 7539SOL    HW134076   0.275   0.431   6.126  0.3551 -0.4504  1.1890
 7539SOL    HW234077   0.215   0.304   6.160  1.3503  0.2800 -0.9342
 7540SOL     OW34078   0.949   3.935   3.885 -0.2209 -0.5045  0.0675
 7540SOL    HW134079   0.936   3.905   3.975 -1.1752 -1.0095 -0.2390
 7540SOL    HW234080   1.012   3.870   3.853  0.0890  1.7850 -3.9729
 7541SOL     OW34081   1.969   0.575   5.629  0.1864 -0.0491 -0.1702
 7541SOL    HW134082   1.898   0.634   5.605  0.5631  0.8340  0.8917
 7541SOL    HW234083   1.921   0.529   5.698 -0.3521 -1.6943 -1.6384
 7542SOL     OW34084   1.279   0.713   8.194  0.0336  0.4016  0.4946
 7542SOL    HW134085   1.347   0.657   8.231  1.5735  1.6114 -0.5443
 7542SOL    HW234086   1.317   0.800   8.189  0.1280  0.3612  0.5137
 7543SOL     OW34087   0.357   0.107  13.363  0.0694 -0.0747 -0.3297
 7543SOL    HW134088   0.314   0.099  13.448 -2.8177  1.8555 -1.6132
 7543SOL    HW234089   0.306   0.178  13.326  1.4304  2.0999  1.9566
 7544SOL     OW34090   3.508   0.151   6.543 -0.6654 -0.1726 -0.5178
 7544SOL    HW134091   3.444   0.192   6.485 -0.0229  1.6803  0.0764
 7544SOL    HW234092   3.574   0.220   6.552 -1.1210  0.0922  0.7821
 7545SOL     OW34093   4.491   0.469   9.051  0.2473  0.3932  0.8983
 7545SOL    HW134094   4.397   0.463   9.069 -0.0672  1.3396 -0.3826
 7545SOL    HW234095   4.516   0.379   9.031  0.3193  0.4728  0.6225
 7546SOL     OW34096   2.659   1.097   1.323  0.3656  0.4570 -0.1729
 7546SOL    HW134097   2.748   1.070   1.343  0.4411 -0.1280 -1.2762
 7546SOL    HW234098   2.640   1.173   1.378 -0.9499  0.2422 -0.3159
 7547SOL     OW34099   3.492   3.974  14.438 -0.0817 -0.0154 -0.0512
 7547SOL    HW134100   3.527   3.980  14.527  1.1610  1.1289 -0.6344
 7547SOL    HW234101   3.519   4.051  14.389 -0.4321 -0.6650 -1.2757
 7548SOL     OW34102   0.967   2.516   4.670  0.1413  0.2631 -0.4574
 7548SOL    HW134103   1.014   2.485   4.593 -0.8174  0.6387 -1.1837
 7548SOL    HW234104   0.931   2.595   4.631  2.5233 -0.0236 -3.1662
 7549SOL     OW34105   3.569   2.613  12.303  0.2731  0.3266 -0.5726
 7549SOL    HW134106   3.500   2.668  12.267 -1.1174 -0.7180  0.4864
 7549SOL    HW234107   3.521   2.530  12.307  0.4880  0.1214 -2.2428
 7550SOL     OW34108   3.516   3.892  16.929 -0.0673  0.5385 -0.0265
 7550SOL    HW134109   3.431   3.907  16.888 -0.8590 -1.8661  0.7350
 7550SOL    HW234110   3.502   3.813  16.982 -0.5430 -0.5784 -1.8057
 7551SOL     OW34111   3.077   0.075   4.930  0.0749 -0.0960  0.3792
 7551SOL    HW134112   3.076   4.707   4.897  1.6308  0.3575 -0.8762
 7551SOL    HW234113   3.150   0.074   4.991 -1.2276 -2.0861  1.9109
 7552SOL     OW34114   1.869   1.774  14.603 -0.1591 -0.4222 -0.6300
 7552SOL    HW134115   1.952   1.801  14.643  0.9990 -1.2876 -2.4562
 7552SOL    HW234116   1.910   1.728  14.530  0.1944 -1.6068  0.3309
 7553SOL     OW34117   4.084   3.016  13.681  0.4918 -0.2709  0.1300
 7553SOL    HW134118   4.013   2.959  13.651  1.6017 -1.5107 -0.1861
 7553SOL    HW234119   4.109   3.067  13.604 -0.2195 -1.2594 -0.7586
 7554SOL     OW34120   1.179   1.495  15.629 -0.1300  0.2322 -0.4166
 7554SOL    HW134121   1.252   1.474  15.571  1.3788  1.0079  1.2316
 7554SOL    HW234122   1.224   1.494  15.713 -2.5166 -0.4214  0.8597
 7555SOL     OW34123   3.656   4.364   2.983 -0.0475 -0.5746  0.0976
 7555SOL    HW134124   3.633   4.453   3.009 -0.7163 -0.3868 -1.0870
 7555SOL    HW234125   3.609   4.359   2.899 -1.5307  0.7489  0.8461
 7556SOL     OW34126   2.597   3.809   0.723 -0.1239  0.0614  0.4210
 7556SOL    HW134127   2.502   3.799   0.722 -0.0450 -0.7577  0.8217
 7556SOL    HW234128   2.615   3.866   0.647  0.6811 -0.6717  0.0643
 7557SOL     OW34129   0.160   0.516   7.391 -0.2340  0.1009  0.2709
 7557SOL    HW134130   0.078   0.537   7.437 -1.2218 -1.0954 -0.9624
 7557SOL    HW234131   0.228   0.544   7.452  0.2738 -0.7508  0.0918
 7558SOL     OW34132   4.159   1.448   5.062  0.2928  0.5650  0.0473
 7558SOL    HW134133   4.227   1.386   5.089 -2.3517 -2.6878 -0.8651
 7558SOL    HW234134   4.200   1.532   5.083 -0.7170  1.1834 -0.4379
 7559SOL     OW34135   3.313   1.021   8.941 -0.3171 -0.0594 -0.3819
 7559SOL    HW134136   3.383   1.084   8.924 -1.2026  0.8452 -0.6807
 7559SOL    HW234137   3.240   1.058   8.890 -0.0171  1.2213  0.1187
 7560SOL     OW34138   2.484   2.413   8.602 -0.7613 -0.1480  0.2085
 7560SOL    HW134139   2.433   2.479   8.554  0.0706  1.2086  1.2248
 7560SOL    HW234140   2.425   2.362   8.657 -0.6924 -1.1566 -0.6448
 7561SOL     OW34141   3.429   1.755   9.034 -0.4218  0.0761 -0.4055
 7561SOL    HW134142   3.488   1.796   8.972 -0.0795 -1.6253 -1.2114
 7561SOL    HW234143   3.487   1.713   9.097 -1.4423 -0.2493  0.3342
 7562SOL     OW34144   3.529   2.478   2.465  0.0505 -0.2902  0.0642
 7562SOL    HW134145   3.607   2.433   2.431  1.0548 -0.0561  2.0506
 7562SOL    HW234146   3.526   2.453   2.558 -0.3468 -0.1715  0.0841
 7563SOL     OW34147   0.317   2.125   6.338  0.0696  0.8602 -0.1509
 7563SOL    HW134148   0.351   2.123   6.248  0.6992  1.1283  0.0868
 7563SOL    HW234149   0.380   2.170   6.394  0.5661  2.0711 -1.6978
 7564SOL     OW34150   1.484   2.869  11.815  0.3426 -0.1971  0.2894
 7564SOL    HW134151   1.452   2.894  11.728  1.4849 -0.3062 -0.1682
 7564SOL    HW234152   1.578   2.878  11.801  0.4608 -2.3556 -0.2150
 7565SOL     OW34153   4.201   3.354   3.015 -0.2207  0.3202  0.6610
 7565SOL    HW134154   4.139   3.393   2.953 -0.2562 -1.1129 -0.2176
 7565SOL    HW234155   4.173   3.263   3.010  1.7152 -0.1369 -2.0803
 7566SOL     OW34156   3.080   1.873   0.854 -0.4247 -0.0468  0.6152
 7566SOL    HW134157   3.116   1.784   0.855  1.3517  0.6692  0.4937
 7566SOL    HW234158   3.109   1.898   0.941  0.0987  2.9093 -0.3881
 7567SOL     OW34159   3.297   1.230   4.022  0.1437  0.0577  0.0873
 7567SOL    HW134160   3.305   1.134   4.020 -1.4477 -0.1242  2.5266
 7567SOL    HW234161   3.208   1.246   4.053 -0.1127  0.8058 -1.0255
 7568SOL     OW34162   3.930   2.711   5.786  0.3506  0.1968  0.0001
 7568SOL    HW134163   3.981   2.789   5.763  0.0723  0.1249 -0.8451
 7568SOL    HW234164   3.961   2.651   5.718  0.0092  1.2980 -1.1365
 7569SOL     OW34165   3.964   3.233  13.257 -0.1083  0.8340 -0.2302
 7569SOL    HW134166   4.058   3.217  13.264 -0.1847  1.4145  2.0846
 7569SOL    HW234167   3.921   3.215  13.340 -1.6219  0.0784 -1.1831
 7570SOL     OW34168   0.424   3.271   2.589  0.0494  0.4524  0.0423
 7570SOL    HW134169   0.417   3.266   2.494  0.1749  1.5036 -0.0182
 7570SOL    HW234170   0.512   3.308   2.590  1.5904 -3.2787  0.8063
 7571SOL     OW34171   1.299   2.778   5.631  0.0872 -0.0563  0.1815
 7571SOL    HW134172   1.333   2.781   5.720  0.6070  1.1583 -0.0587
 7571SOL    HW234173   1.261   2.864   5.610 -1.6892 -1.1579 -1.0917
 7572SOL     OW34174   0.790   3.504  13.333 -0.1915  0.0690  0.1845
 7572SOL    HW134175   0.869   3.453  13.354 -1.7836 -1.6314  1.9925
 7572SOL    HW234176   0.731   3.467  13.398 -2.4538 -0.6444 -2.2847
 7573SOL     OW34177   4.189   4.103   9.103 -0.1833 -0.0682  0.3246
 7573SOL    HW134178   4.101   4.104   9.065 -1.2490 -2.1848  2.7335
 7573SOL    HW234179   4.220   4.186   9.067 -2.0416  1.1255  1.4379
 7574SOL     OW34180   3.627   3.597  13.393  0.4872  0.3441  0.3338
 7574SOL    HW134181   3.656   3.540  13.322  0.0204 -1.0280  1.2454
 7574SOL    HW234182   3.667   3.562  13.472  0.5760 -0.5813 -0.1290
 7575SOL     OW34183   0.953   3.858  13.143  0.6504  0.4716 -0.2418
 7575SOL    HW134184   0.983   3.802  13.214 -0.6718 -0.7361 -0.6377
 7575SOL    HW234185   1.039   3.895  13.121  1.5515 -0.0104  2.4251
 7576SOL     OW34186   2.923   4.364   0.387 -0.0384 -0.2897 -0.1345
 7576SOL    HW134187   2.954   4.299   0.324 -0.5576  0.2781 -0.9841
 7576SOL    HW234188   2.874   4.319   0.456 -0.1576  0.1999  0.1076
 7577SOL     OW34189   2.074   3.246  14.175 -0.0910 -0.1088 -0.1001
 7577SOL    HW134190   1.993   3.196  14.187  1.7051 -2.5224  1.8680
 7577SOL    HW234191   2.039   3.329  14.143 -0.6795  0.2078  1.3786
 7578SOL     OW34192   2.282   1.699   4.732  0.5204  0.1219 -0.0076
 7578SOL    HW134193   2.219   1.645   4.779  0.4554  0.7330  0.6188
 7578SOL    HW234194   2.362   1.684   4.783 -0.7693  3.6978  3.1017
 7579SOL     OW34195   1.080   0.558   8.341  0.4694 -0.5934 -0.4347
 7579SOL    HW134196   1.138   0.617   8.293  0.2080 -0.2735 -0.3539
 7579SOL    HW234197   1.077   0.606   8.423 -0.5081 -0.8501 -0.3102
 7580SOL     OW34198   2.733   3.479   8.575  0.4251  0.3868  0.4446
 7580SOL    HW134199   2.753   3.396   8.531  0.6884 -0.4607  2.1504
 7580SOL    HW234200   2.792   3.544   8.537 -0.7398  1.2777  0.1675
 7581SOL     OW34201   3.013   1.641   3.207 -0.5982  0.1341 -0.5353
 7581SOL    HW134202   2.986   1.625   3.117 -1.0105  1.0013 -0.5653
 7581SOL    HW234203   2.970   1.571   3.256 -0.9173 -0.2368 -1.3548
 7582SOL     OW34204   4.110   0.872   6.556  0.1643 -0.2245  0.3169
 7582SOL    HW134205   4.132   0.804   6.618  3.1269  1.0923  0.7270
 7582SOL    HW234206   4.075   0.808   6.494 -2.6235 -0.6642  2.4075
 7583SOL     OW34207   4.363   2.484  16.378  0.1906  0.0948  0.2967
 7583SOL    HW134208   4.417   2.426  16.324  0.8237 -0.7136  1.7881
 7583SOL    HW234209   4.337   2.442  16.460 -1.8876 -0.7700 -0.8086
 7584SOL     OW34210   3.479   4.292  10.911 -0.1435 -0.7331  0.1395
 7584SOL    HW134211   3.446   4.380  10.929  1.3967 -0.3207  0.9387
 7584SOL    HW234212   3.567   4.313  10.878 -0.4505 -1.8944 -1.4366
 7585SOL     OW34213   0.137   4.271   1.187 -0.0279 -0.0040  0.2217
 7585SOL    HW134214   0.231   4.255   1.189 -0.2519 -1.6303 -1.6556
 7585SOL    HW234215   0.107   4.187   1.152  0.0927  0.5113 -1.1328
 7586SOL     OW34216   4.395   1.048  16.322  0.5353 -0.2142 -0.1271
 7586SOL    HW134217   4.363   1.136  16.338 -0.5730 -0.5335 -0.5743
 7586SOL    HW234218   4.388   1.012  16.411  1.9337  3.1381  1.3547
 7587SOL     OW34219   0.254   2.629   3.816 -0.0701  0.7893 -0.3631
 7587SOL    HW134220   0.283   2.713   3.780 -0.5894  1.6438  1.2082
 7587SOL    HW234221   0.165   2.618   3.781  0.2599 -0.7370 -0.7358
 7588SOL     OW34222   1.741   2.126  17.204  0.3941 -0.6696 -0.0079
 7588SOL    HW134223   1.831   2.138  17.173  1.0191 -1.6402  1.3970
 7588SOL    HW234224   1.718   2.190  17.272  1.9710 -1.1059  0.9409
 7589SOL     OW34225   0.607   2.072  15.287 -0.4279 -0.5348  0.4514
 7589SOL    HW134226   0.681   2.013  15.300 -0.5394 -1.2584 -2.1265
 7589SOL    HW234227   0.640   2.152  15.328 -2.7398  0.6825 -0.1032
 7590SOL     OW34228   0.094   2.420   2.420 -0.0537 -0.3127 -0.2986
 7590SOL    HW134229   0.144   2.371   2.354  0.5965 -1.4082  1.0195
 7590SOL    HW234230   0.037   2.352   2.456 -1.5974  0.3147 -1.5553
 7591SOL     OW34231   2.938   2.631   7.209  0.1108 -0.3272  0.1018
 7591SOL    HW134232   2.979   2.708   7.248  1.0559 -0.7111 -0.1309
 7591SOL    HW234233   2.924   2.580   7.290 -1.5135  1.0500  0.6782
 7592SOL     OW34234   3.387   3.321  10.731  0.0622 -0.1375 -0.0365
 7592SOL    HW134235   3.296   3.292  10.734  0.0347 -0.0941 -0.4138
 7592SOL    HW234236   3.381   3.416  10.715 -0.2923  0.1327  1.7345
 7593SOL     OW34237   2.238   1.704   9.989  0.3768 -0.2008 -0.1517
 7593SOL    HW134238   2.320   1.710   9.941  1.5851 -0.4742  1.8954
 7593SOL    HW234239   2.243   1.784  10.041  0.3885  1.0533 -2.0532
 7594SOL     OW34240   1.096   0.739   7.983  0.4009 -0.0922  0.1159
 7594SOL    HW134241   1.096   0.829   8.014  0.4238 -0.2024  0.4398
 7594SOL    HW234242   1.175   0.709   8.027  1.4406 -0.9137 -2.3150
 7595SOL     OW34243   1.960   0.065  14.055  0.2600 -0.1916  0.3216
 7595SOL    HW134244   1.949   4.710  13.998 -0.0333  0.9244 -1.1165
 7595SOL    HW234245   1.873   0.102  14.046  0.0352 -0.5545  0.9306
 7596SOL     OW34246   1.676   3.358   7.362  0.0589 -0.4457 -0.2398
 7596SOL    HW134247   1.682   3.373   7.267  3.0429 -1.6347 -0.2231
 7596SOL    HW234248   1.708   3.268   7.357  0.6226 -0.3443  1.7968
 7597SOL     OW34249   1.453   2.849   5.009 -0.2232 -0.2313 -0.5201
 7597SOL    HW134250   1.454   2.792   4.932 -0.1802  2.2243 -2.3594
 7597SOL    HW234251   1.545   2.848   5.036 -0.1748 -2.2132 -0.8112
 7598SOL     OW34252   3.606   4.573   6.900  0.6251  0.3066 -0.4124
 7598SOL    HW134253   3.553   4.637   6.852  1.7859  0.3108 -1.6773
 7598SOL    HW234254   3.680   4.577   6.840 -0.9912 -1.9048 -2.5607
 7599SOL     OW34255   3.735   1.815   9.455 -0.1981  0.1757 -0.2488
 7599SOL    HW134256   3.728   1.899   9.502  0.5444 -0.5485  1.1483
 7599SOL    HW234257   3.762   1.845   9.368  0.2545 -2.2220 -0.9340
 7600SOL     OW34258   0.616   0.631   0.193 -0.3440 -0.3755 -0.0781
 7600SOL    HW134259   0.548   0.669   0.248  1.4999  2.4689  0.2494
 7600SOL    HW234260   0.596   0.660   0.104 -0.2067  2.0356  0.6761
 7601SOL     OW34261   4.156   0.898   5.558 -0.0583 -0.1449 -0.1267
 7601SOL    HW134262   4.084   0.948   5.598  0.4823  0.8905 -0.4372
 7601SOL    HW234263   4.232   0.902   5.617  2.3845  0.1840 -3.3167
 7602SOL     OW34264   0.064   2.358   6.172  0.1865 -0.5122  0.0686
 7602SOL    HW134265   0.056   2.454   6.169 -0.3213 -0.5214  1.7180
 7602SOL    HW234266   4.701   2.330   6.138  0.3225  0.3042 -0.9708
 7603SOL     OW34267   0.442   0.758   4.892  0.0871  0.3386  0.0129
 7603SOL    HW134268   0.387   0.810   4.951  0.3167 -0.5582  1.0390
 7603SOL    HW234269   0.444   0.676   4.943  0.8753  0.1183 -0.3830
 7604SOL     OW34270   2.544   2.219   5.819 -0.1072 -0.1318 -0.4496
 7604SOL    HW134271   2.563   2.311   5.838  1.0936 -0.3037 -0.8167
 7604SOL    HW234272   2.473   2.234   5.756 -0.0308  1.0575 -0.2663
 7605SOL     OW34273   0.114   1.533   5.858 -0.0108  0.0664  0.0416
 7605SOL    HW134274   0.209   1.536   5.874  0.2942 -1.6349 -1.4031
 7605SOL    HW234275   0.102   1.580   5.775  3.6226  1.3173  0.2199
 7606SOL     OW34276   1.373   4.315   8.349  0.4346 -0.2255 -0.4413
 7606SOL    HW134277   1.431   4.278   8.415 -1.2002  0.2435  1.2729
 7606SOL    HW234278   1.298   4.335   8.404  0.2959 -3.1575  0.3846
 7607SOL     OW34279   1.072   1.815   2.608  0.1078  0.6657  0.1051
 7607SOL    HW134280   0.995   1.811   2.665  2.3341 -1.2296  3.0220
 7607SOL    HW234281   1.131   1.745   2.635  0.1745 -0.1091 -2.0446
 7608SOL     OW34282   4.069   4.612   6.104 -0.3324 -0.2260 -0.1600
 7608SOL    HW134283   4.016   4.667   6.163 -2.2189  0.3168 -2.3216
 7608SOL    HW234284   4.151   4.597   6.150  0.0011  1.3866 -0.2327
 7609SOL     OW34285   0.466   1.044   6.465  0.2978 -0.7994  0.2074
 7609SOL    HW134286   0.381   0.999   6.466  0.4812 -1.1934 -2.3601
 7609SOL    HW234287   0.519   0.965   6.473  0.8741 -0.3647  0.6139
 7610SOL     OW34288   4.444   4.111   4.258 -0.0499 -0.1875 -0.3351
 7610SOL    HW134289   4.517   4.081   4.312 -0.9096 -1.4416  0.1058
 7610SOL    HW234290   4.381   4.046   4.287  0.5441 -0.5951  0.0406
 7611SOL     OW34291   1.854   4.379   1.234 -0.0140  0.4874  0.0302
 7611SOL    HW134292   1.854   4.293   1.276  0.5581  2.1198  3.3290
 7611SOL    HW234293   1.948   4.393   1.223  0.1594 -1.8051 -1.4213
 7612SOL     OW34294   4.523   0.691   1.969  0.4774  0.1781  0.5325
 7612SOL    HW134295   4.567   0.773   1.992 -0.2173  0.4054  1.0495
 7612SOL    HW234296   4.581   0.628   2.013  0.3047 -1.1793 -1.1909
 7613SOL     OW34297   2.238   4.011   6.460  0.1063 -0.1460 -0.0336
 7613SOL    HW134298   2.331   3.990   6.466 -0.3477 -2.0976 -0.0580
 7613SOL    HW234299   2.205   3.946   6.521 -2.4269  1.2532  0.1077
 7614SOL     OW34300   3.385   3.017  12.177 -0.2326  0.3337  0.9201
 7614SOL    HW134301   3.422   2.930  12.192  2.9610  1.5213 -0.1104
 7614SOL    HW234302   3.299   3.010  12.218 -0.2055 -1.1044  0.7210
 7615SOL     OW34303   2.419   3.919   6.153 -0.3091  0.1417 -0.2194
 7615SOL    HW134304   2.417   3.915   6.249  2.8812 -0.3541 -0.1851
 7615SOL    HW234305   2.462   4.004   6.144 -0.1939 -0.2208 -2.9274
 7616SOL     OW34306   1.233   4.437   3.489 -0.3794 -0.2761 -0.5281
 7616SOL    HW134307   1.194   4.509   3.439 -2.1054 -0.3216  0.7409
 7616SOL    HW234308   1.310   4.418   3.437  0.5588  0.2386  0.6817
 7617SOL     OW34309   0.093   1.000   6.892  0.1026  0.1305 -0.2206
 7617SOL    HW134310   0.110   1.062   6.963  0.6698  1.8481 -1.8631
 7617SOL    HW234311   0.029   1.045   6.837  0.8199  1.0019 -0.3494
 7618SOL     OW34312   0.991   3.225   6.861 -0.3157  0.4008  0.0988
 7618SOL    HW134313   0.943   3.299   6.898 -1.6345 -0.7242  0.6593
 7618SOL    HW234314   0.917   3.165   6.871 -0.9307  1.1565  0.0345
 7619SOL     OW34315   3.505   2.688   9.221  0.6079  0.4875 -0.3695
 7619SOL    HW134316   3.558   2.610   9.233 -1.4744 -0.6508  1.4606
 7619SOL    HW234317   3.453   2.660   9.146 -0.7115 -0.6104  0.9496
 7620SOL     OW34318   4.317   1.169  15.988 -0.5280 -0.4810  0.4956
 7620SOL    HW134319   4.291   1.244  15.934 -1.0233 -0.3669  0.8826
 7620SOL    HW234320   4.405   1.152  15.957 -0.1487 -0.2452  1.4434
 7621SOL     OW34321   4.583   2.429   7.330  0.1718 -0.4313  0.1504
 7621SOL    HW134322   4.647   2.453   7.262  1.4244 -0.8816  1.1852
 7621SOL    HW234323   4.501   2.428   7.281 -0.6146  1.8288  1.4412
 7622SOL     OW34324   0.227   0.938   7.631 -0.4885  0.4392 -0.4372
 7622SOL    HW134325   0.305   0.907   7.677 -0.6165  1.7209  0.6768
 7622SOL    HW234326   0.156   0.895   7.679  1.8720 -2.0231  0.8500
 7623SOL     OW34327   3.912   1.532  16.964 -0.3352  0.1872  0.3066
 7623SOL    HW134328   3.842   1.479  17.002 -0.5219 -0.1684 -0.5299
 7623SOL    HW234329   3.971   1.547  17.038  0.7776  0.4304 -0.6263
 7624SOL     OW34330   2.166   0.606   6.874  0.6780 -0.1460 -0.0371
 7624SOL    HW134331   2.177   0.700   6.859  0.4752 -0.2769 -1.0095
 7624SOL    HW234332   2.218   0.601   6.954  1.1233 -1.0644 -0.3904
 7625SOL     OW34333   3.270   1.737   3.044  0.0194  0.1091 -0.2604
 7625SOL    HW134334   3.218   1.697   2.974 -0.6454  0.8117 -0.1684
 7625SOL    HW234335   3.265   1.663   3.104 -0.8636 -0.7364 -1.3842
 7626SOL     OW34336   4.694   2.266  17.673 -0.0534 -0.2529  0.1677
 7626SOL    HW134337   4.689   2.303   0.073 -3.6263  2.2986 -1.0808
 7626SOL    HW234338   0.008   2.345  17.634  1.5351 -1.1570 -0.1806
 7627SOL     OW34339   3.323   4.102  17.077  0.6068 -0.0012 -0.0843
 7627SOL    HW134340   3.347   4.087  16.985 -1.9116 -1.0895 -0.5796
 7627SOL    HW234341   3.228   4.093  17.066  0.5724 -0.4542  0.5852
 7628SOL     OW34342   0.796   0.887   7.492 -0.5005  0.0780  0.1542
 7628SOL    HW134343   0.758   0.941   7.422  2.8585 -0.7145 -2.2585
 7628SOL    HW234344   0.868   0.941   7.525  1.0103 -1.6544 -0.3040
 7629SOL     OW34345   1.802   1.351   6.850 -0.3280  0.2015 -0.0493
 7629SOL    HW134346   1.870   1.382   6.791 -1.1732  0.7190 -0.7519
 7629SOL    HW234347   1.732   1.411   6.826 -0.6649 -0.7217 -1.3583
 7630SOL     OW34348   3.529   4.409   4.668 -0.1222 -0.3300  0.0325
 7630SOL    HW134349   3.503   4.480   4.609 -0.6385  1.3719  2.2903
 7630SOL    HW234350   3.499   4.335   4.616 -1.0025  0.1268 -0.1149
 7631SOL     OW34351   3.913   4.566   6.420 -0.2944 -0.1819 -0.1498
 7631SOL    HW134352   3.830   4.606   6.445 -1.6788 -0.5963 -4.0442
 7631SOL    HW234353   3.949   4.623   6.352  0.6371  2.6140  2.6963
 7632SOL     OW34354   0.965   3.956  16.397 -0.1772  0.4171  0.4416
 7632SOL    HW134355   0.874   3.986  16.400 -0.3038  0.1295 -0.6726
 7632SOL    HW234356   1.003   4.028  16.347 -0.5418  0.4789  0.2531
 7633SOL     OW34357   0.289   4.560   6.664  0.7121 -0.3530 -0.3422
 7633SOL    HW134358   0.256   4.498   6.598  1.6344 -1.1461 -0.0446
 7633SOL    HW234359   0.341   4.511   6.727  0.1050 -0.4263  0.1015
 7634SOL     OW34360   4.462   3.167   3.040  0.3715  0.6526 -0.8254
 7634SOL    HW134361   4.471   3.190   2.947  1.3045  0.6583 -0.7340
 7634SOL    HW234362   4.451   3.255   3.077  0.1290  0.2690 -0.0010
 7635SOL     OW34363   2.203   3.543   0.400 -0.1217  0.1082  0.1407
 7635SOL    HW134364   2.290   3.513   0.375 -0.0780 -1.3036  1.9461
 7635SOL    HW234365   2.161   3.518   0.318 -0.5090 -0.0256  0.3785
 7636SOL     OW34366   3.657   1.214   8.333 -0.3167  0.0888 -0.1064
 7636SOL    HW134367   3.601   1.190   8.259 -0.3847  0.7711 -0.2695
 7636SOL    HW234368   3.611   1.158   8.396 -0.1845 -0.4179 -0.4623
 7637SOL     OW34369   2.650   4.480  11.838 -0.4197 -0.3091  0.2847
 7637SOL    HW134370   2.665   4.518  11.752  0.7669 -0.2906  0.5076
 7637SOL    HW234371   2.555   4.485  11.850 -0.5533 -0.4882 -0.6677
 7638SOL     OW34372   3.024   0.829   8.508 -0.2197 -0.0380 -0.2573
 7638SOL    HW134373   2.958   0.762   8.522 -0.2942 -0.3642 -2.2773
 7638SOL    HW234374   3.090   0.796   8.569  0.0384 -0.0478 -0.5427
 7639SOL     OW34375   4.518   1.552   7.760  0.8395 -0.5742  0.8804
 7639SOL    HW134376   4.429   1.551   7.725  1.8494 -1.2559 -1.6260
 7639SOL    HW234377   4.514   1.530   7.853  0.4385 -4.6124 -0.0763
 7640SOL     OW34378   4.169   0.042   9.256  0.6632 -0.3184 -0.3031
 7640SOL    HW134379   4.240   0.056   9.319  1.7423 -0.6397 -1.4616
 7640SOL    HW234380   4.116   4.699   9.303  0.8326 -0.8570 -0.8653
 7641SOL     OW34381   0.207   2.846   2.765  0.2451 -0.2710  0.2674
 7641SOL    HW134382   0.175   2.825   2.677  1.1881 -0.4389 -0.0401
 7641SOL    HW234383   0.217   2.942   2.763  1.4699 -0.4086 -0.3839
 7642SOL     OW34384   4.359   0.829   3.667  0.0216 -0.7072  0.0730
 7642SOL    HW134385   4.447   0.798   3.688  0.6530 -0.0385 -1.5424
 7642SOL    HW234386   4.326   0.844   3.755 -0.0359  1.1051 -0.2410
 7643SOL     OW34387   0.329   0.882  15.396 -0.2370  0.9191 -0.5977
 7643SOL    HW134388   0.240   0.910  15.417 -0.7443 -0.0381 -1.4873
 7643SOL    HW234389   0.335   0.826  15.474  1.5863  2.7455  0.5894
 7644SOL     OW34390   1.280   4.590   4.252 -0.1880  0.1794  0.5758
 7644SOL    HW134391   1.289   4.549   4.165  3.3940  1.5350  0.2925
 7644SOL    HW234392   1.370   4.564   4.273  0.1050  0.0456 -0.8456
 7645SOL     OW34393   3.178   1.966   0.262  0.1143  0.0650  0.0229
 7645SOL    HW134394   3.257   2.006   0.225  0.7221 -0.7606  0.4189
 7645SOL    HW234395   3.218   1.907   0.326 -2.3854 -0.6376  0.9520
 7646SOL     OW34396   4.164   4.643   6.977  0.0645 -0.6496  0.0822
 7646SOL    HW134397   4.091   4.624   7.036  1.4069 -0.0199  1.9500
 7646SOL    HW234398   4.154   4.586   6.900  0.4164  1.6736 -1.6788
 7647SOL     OW34399   2.480   3.509  12.538 -0.1153 -0.0461 -0.1691
 7647SOL    HW134400   2.504   3.589  12.491  0.2940  1.2694  2.2854
 7647SOL    HW234401   2.384   3.510  12.538 -0.0958  3.1020 -0.1263
 7648SOL     OW34402   0.717   0.965   2.606 -0.1326 -0.0297  0.4384
 7648SOL    HW134403   0.622   0.958   2.619 -0.5022  1.7435 -1.4123
 7648SOL    HW234404   0.717   1.059   2.590 -0.1653 -0.3564 -1.4248
 7649SOL     OW34405   0.883   3.474  12.170 -0.4990 -0.0382  0.4556
 7649SOL    HW134406   0.899   3.568  12.172 -0.4408 -0.0662  1.4721
 7649SOL    HW234407   0.967   3.439  12.198  0.4426 -0.0716 -2.5113
 7650SOL     OW34408   2.196   2.032  13.019  0.6347 -0.9779 -0.3142
 7650SOL    HW134409   2.107   2.054  12.989  0.7597 -0.3237 -0.2090
 7650SOL    HW234410   2.167   2.040  13.109 -0.6235  0.7831 -0.8707
 7651SOL     OW34411   1.208   0.715  10.146  0.2212  0.0578 -0.1390
 7651SOL    HW134412   1.121   0.754  10.150  0.7798  1.1912  1.2293
 7651SOL    HW234413   1.266   0.789  10.163  0.0872  0.4688 -1.4941
 7652SOL     OW34414   2.188   2.445   0.182 -0.4243  0.5589  0.0226
 7652SOL    HW134415   2.224   2.377   0.239  2.1661  0.6243 -1.5126
 7652SOL    HW234416   2.251   2.513   0.207  0.9697 -1.3846  1.8093
 7653SOL     OW34417   0.592   1.596  15.429  0.5334  0.2000 -0.1149
 7653SOL    HW134418   0.520   1.541  15.459  0.9086 -0.1183  0.2068
 7653SOL    HW234419   0.585   1.595  15.334 -1.8089 -1.4939  0.0916
 7654SOL     OW34420   1.882   1.044   6.506 -0.2493 -0.3057  0.3404
 7654SOL    HW134421   1.865   1.084   6.591 -0.5297  0.3356 -0.0190
 7654SOL    HW234422   1.977   1.052   6.503 -0.4801  2.5613  0.2249
 7655SOL     OW34423   2.663   3.099   7.274 -0.2445  0.5653  0.4643
 7655SOL    HW134424   2.756   3.121   7.264  0.3498 -2.5014 -0.8031
 7655SOL    HW234425   2.650   3.147   7.356 -0.2910  1.2260  0.0674
 7656SOL     OW34426   4.603   3.224  15.045 -0.3460 -0.3999 -0.2678
 7656SOL    HW134427   4.671   3.247  14.982 -1.1038 -4.6774 -2.6361
 7656SOL    HW234428   4.561   3.308  15.061  3.6517  1.5707 -0.1421
 7657SOL     OW34429   0.361   1.459  15.808  0.2932 -0.0978  0.1903
 7657SOL    HW134430   0.380   1.430  15.719  2.1859  0.7544  0.3010
 7657SOL    HW234431   0.308   1.535  15.785  0.0568  0.1418  1.5302
 7658SOL     OW34432   3.111   3.990  14.601 -1.0117 -0.4794  0.3880
 7658SOL    HW134433   3.187   3.974  14.546 -0.3608  1.3797  0.7467
 7658SOL    HW234434   3.059   3.912  14.581 -2.1682 -0.4432  3.1657
 7659SOL     OW34435   0.121   1.506   2.301 -0.2769  0.1560 -0.4752
 7659SOL    HW134436   0.055   1.497   2.232  0.3461 -0.5291 -0.9758
 7659SOL    HW234437   0.161   1.419   2.305 -1.3088 -0.2351  1.7429
 7660SOL     OW34438   2.844   3.387   4.009 -0.6477  0.5000  0.4033
 7660SOL    HW134439   2.901   3.433   4.071 -0.7117  2.8423 -1.2471
 7660SOL    HW234440   2.818   3.462   3.955 -0.2400  0.3863  0.0428
 7661SOL     OW34441   3.071   2.843  14.555 -0.3738  0.5372  0.8356
 7661SOL    HW134442   3.122   2.763  14.563  1.2755  1.5377  0.1273
 7661SOL    HW234443   3.115   2.903  14.616 -0.5112  1.7550 -0.2547
 7662SOL     OW34444   0.637   1.353   0.499  0.1161 -0.4109 -0.2714
 7662SOL    HW134445   0.611   1.261   0.508 -0.5782 -0.3479 -1.6779
 7662SOL    HW234446   0.727   1.341   0.469 -0.0730 -1.9839 -0.1925
 7663SOL     OW34447   3.386   1.698   2.192 -0.6174 -0.4608 -0.2217
 7663SOL    HW134448   3.460   1.696   2.130  0.8945 -0.8554  1.5916
 7663SOL    HW234449   3.429   1.735   2.269  1.4658  1.0179 -2.0670
 7664SOL     OW34450   3.016   1.081   2.345  0.2597  0.1439 -0.8402
 7664SOL    HW134451   2.961   1.087   2.267 -1.3351 -1.8354  0.1205
 7664SOL    HW234452   3.062   1.005   2.309  1.2594  0.1924  0.3467
 7665SOL     OW34453   2.634   4.000   4.864  0.4571 -0.1688  0.4639
 7665SOL    HW134454   2.543   3.988   4.891  1.1527 -1.4234  2.2359
 7665SOL    HW234455   2.677   3.916   4.883  0.5177 -0.3495 -0.4590
 7666SOL     OW34456   1.063   0.369  11.655 -0.3594  0.4864  0.1053
 7666SOL    HW134457   1.114   0.425  11.714 -1.4494  1.3331  0.2530
 7666SOL    HW234458   1.086   0.396  11.566  0.0107 -1.0639 -0.2671
 7667SOL     OW34459   4.018   3.444   9.021  0.3996  0.1447 -0.0182
 7667SOL    HW134460   4.024   3.373   9.085  2.5494  0.5120  0.2086
 7667SOL    HW234461   4.087   3.504   9.051  1.3958 -0.9171 -0.1573
 7668SOL     OW34462   1.830   2.707   9.559 -0.0076 -0.1509 -0.0623
 7668SOL    HW134463   1.797   2.628   9.602 -0.0554  0.1675  0.4904
 7668SOL    HW234464   1.909   2.657   9.540  0.7045  1.2572 -0.7747
 7669SOL     OW34465   0.494   3.546   0.082 -0.1476 -0.3032  0.2901
 7669SOL    HW134466   0.404   3.517   0.071 -0.0401  0.1127 -1.6417
 7669SOL    HW234467   0.508   3.524   0.174  0.4374  0.2664  0.3388
 7670SOL     OW34468   3.196   1.268   8.454  0.2557  0.7676 -0.5933
 7670SOL    HW134469   3.220   1.339   8.513  0.2479 -2.4088  3.2174
 7670SOL    HW234470   3.210   1.184   8.497  0.4699  1.3947  0.5592
 7671SOL     OW34471   1.023   3.272   2.436  0.3153 -0.2268  0.1446
 7671SOL    HW134472   1.061   3.244   2.352  2.0856  0.1820  0.8027
 7671SOL    HW234473   1.026   3.367   2.432 -1.9149 -0.2090 -0.9693
 7672SOL     OW34474   2.191   3.588  12.596 -0.4010 -0.5927 -0.5886
 7672SOL    HW134475   2.167   3.528  12.667  0.9536  1.5518  1.6968
 7672SOL    HW234476   2.162   3.544  12.516 -2.8886  1.2342 -0.6996
 7673SOL     OW34477   1.378   2.513   8.737  0.4140  0.1669  0.0757
 7673SOL    HW134478   1.383   2.608   8.729  1.2380  0.0731 -0.5483
 7673SOL    HW234479   1.439   2.485   8.669  1.7659 -1.3712  1.9322
 7674SOL     OW34480   0.891   1.484   5.109  0.0012 -0.2778  0.5946
 7674SOL    HW134481   0.865   1.487   5.202 -1.1236 -1.6697  0.3440
 7674SOL    HW234482   0.835   1.548   5.065  0.4946 -0.5074 -0.3586
 7675SOL     OW34483   4.421   0.592   8.266 -0.0172  0.4835  0.3280
 7675SOL    HW134484   4.330   0.567   8.283 -0.0990 -0.3468 -1.3696
 7675SOL    HW234485   4.454   0.610   8.354  0.5874  0.9517  0.0077
 7676SOL     OW34486   1.590   2.663  13.602 -0.0847  0.1817 -0.4198
 7676SOL    HW134487   1.673   2.618  13.616  0.8173  1.6559 -0.9743
 7676SOL    HW234488   1.568   2.614  13.522  3.7853 -0.7509 -0.8772
 7677SOL     OW34489   2.075   0.921  10.798 -0.5137  0.1394 -0.0028
 7677SOL    HW134490   2.073   0.826  10.801  1.5130 -0.0104 -3.6621
 7677SOL    HW234491   2.164   0.933  10.831 -1.0882  0.4901  1.4153
 7678SOL     OW34492   3.717   3.627   7.028 -0.1595  0.5379  0.0828
 7678SOL    HW134493   3.645   3.592   7.080 -0.4165  1.6447  0.4771
 7678SOL    HW234494   3.683   3.715   7.013 -2.4979 -0.9240 -3.1183
 7679SOL     OW34495   0.919   0.542   6.125 -0.0644  0.1075  0.1477
 7679SOL    HW134496   0.876   0.611   6.075 -1.1354 -1.8496 -1.6190
 7679SOL    HW234497   0.865   0.522   6.202 -0.4792 -1.9503 -0.6706
 7680SOL     OW34498   0.164   4.526   4.595 -0.2861  0.0533 -0.6598
 7680SOL    HW134499   0.095   4.519   4.529  0.4562  2.4110 -1.6774
 7680SOL    HW234500   0.172   4.620   4.609  0.2690  0.6861 -5.3439
 7681SOL     OW34501   3.018   4.472   2.536  0.7296 -0.2825  0.4246
 7681SOL    HW134502   3.093   4.423   2.569  1.7706 -0.2531 -1.8967
 7681SOL    HW234503   3.038   4.491   2.444  0.6121  1.6965  0.8126
 7682SOL     OW34504   2.603   4.690   2.565 -0.6517  0.2281  0.1716
 7682SOL    HW134505   2.519   4.677   2.521 -1.1144 -0.2909  1.2307
 7682SOL    HW234506   2.648   4.611   2.535 -1.5026 -0.7288  1.4335
 7683SOL     OW34507   1.938   4.597  11.958  0.0016  0.2291 -0.1980
 7683SOL    HW134508   1.889   4.648  11.893  0.9217  2.8061  1.1057
 7683SOL    HW234509   1.934   4.660  12.030  3.5697  0.6950 -0.4013
 7684SOL     OW34510   2.245   0.661  12.067 -0.6354 -0.1305  0.0088
 7684SOL    HW134511   2.333   0.695  12.083  0.1065 -1.5555 -1.0371
 7684SOL    HW234512   2.256   0.590  12.004 -1.2120 -0.7463  0.5964
 7685SOL     OW34513   4.151   1.812   1.222  0.2019 -0.0281  0.0990
 7685SOL    HW134514   4.102   1.740   1.261 -0.8948  0.7553  0.1699
 7685SOL    HW234515   4.181   1.870   1.292  0.6206  0.3739 -0.4162
 7686SOL     OW34516   3.163   1.247   4.613 -0.1449 -0.4958 -0.3502
 7686SOL    HW134517   3.090   1.307   4.607 -1.8445 -2.4658  0.5605
 7686SOL    HW234518   3.154   1.192   4.691 -0.7795 -2.2474 -1.6522
 7687SOL     OW34519   2.433   3.949   6.808  0.2672 -0.7157 -0.3217
 7687SOL    HW134520   2.429   4.043   6.796 -0.4807 -0.7831 -0.5960
 7687SOL    HW234521   2.366   3.925   6.873 -0.3567 -2.5948 -1.6696
 7688SOL     OW34522   0.257   1.782  12.868  0.4611 -0.4598  0.8183
 7688SOL    HW134523   0.284   1.870  12.896  0.5600 -0.9173  2.1463
 7688SOL    HW234524   0.304   1.729  12.932 -1.1561 -1.6049  1.0482
 7689SOL     OW34525   4.317   2.425  11.627 -0.1008 -0.5999 -0.4915
 7689SOL    HW134526   4.245   2.472  11.587  1.3698  2.0748 -0.0117
 7689SOL    HW234527   4.352   2.370  11.557 -0.0798 -0.0208 -0.9274
 7690SOL     OW34528   0.172   3.597   4.293 -0.2571 -0.3656 -0.1710
 7690SOL    HW134529   0.139   3.660   4.357 -2.5025 -2.0885  0.3720
 7690SOL    HW234530   0.095   3.555   4.253 -1.4915  1.8483 -0.0909
 7691SOL     OW34531   2.836   2.865   9.437 -0.5652 -0.3254 -0.0015
 7691SOL    HW134532   2.920   2.847   9.479 -0.6599 -0.2545  0.2211
 7691SOL    HW234533   2.858   2.942   9.383  0.5281  0.7778  2.0030
 7692SOL     OW34534   3.640   1.228  13.394  0.7344 -0.5051 -0.2247
 7692SOL    HW134535   3.723   1.235  13.440 -0.0421  1.3014  0.8619
 7692SOL    HW234536   3.666   1.263  13.309 -0.5437 -0.1354 -0.4651
 7693SOL     OW34537   3.049   3.587  10.514 -0.2716 -0.1752 -0.4971
 7693SOL    HW134538   2.971   3.563  10.563  1.0545 -1.1971  1.1235
 7693SOL    HW234539   3.083   3.502  10.485  0.2492 -0.2232  0.2498
 7694SOL     OW34540   3.860   3.214   5.620  0.3721 -0.1438 -0.1478
 7694SOL    HW134541   3.811   3.296   5.620  1.1019  0.2756 -2.1089
 7694SOL    HW234542   3.937   3.254   5.581 -2.2996  1.1311 -4.1378
 7695SOL     OW34543   3.157   0.508   3.707  0.6763  0.6908  0.3574
 7695SOL    HW134544   3.070   0.537   3.681 -0.0445 -0.4834  1.4612
 7695SOL    HW234545   3.176   0.446   3.637  0.7683 -0.8994  1.7918
 7696SOL     OW34546   0.811   2.659  10.306  0.3270 -0.4906 -0.4576
 7696SOL    HW134547   0.767   2.589  10.259 -0.3985 -0.3774  0.0596
 7696SOL    HW234548   0.894   2.668  10.259  0.1211  1.0277 -0.5250
 7697SOL     OW34549   2.129   1.843   3.925 -0.3457  0.0971  0.1443
 7697SOL    HW134550   2.103   1.909   3.989 -0.1467  0.0821  0.2388
 7697SOL    HW234551   2.093   1.878   3.843  0.3996 -0.2505 -0.3321
 7698SOL     OW34552   1.228   1.625   2.715 -0.2005 -0.7307  0.1873
 7698SOL    HW134553   1.212   1.609   2.808  2.9873 -1.3286  0.6471
 7698SOL    HW234554   1.157   1.576   2.674 -0.4377 -1.0235  0.9629
 7699SOL     OW34555   3.812   0.751   6.456 -0.1902 -0.5749  0.0614
 7699SOL    HW134556   3.760   0.761   6.536  0.8317  0.2512  0.6198
 7699SOL    HW234557   3.827   0.845   6.441  0.4877 -0.9167 -1.3593
 7700SOL     OW34558   1.451   3.519  12.931 -0.0783  0.7251  0.6505
 7700SOL    HW134559   1.509   3.579  12.884  1.2998 -0.2180  1.1593
 7700SOL    HW234560   1.516   3.477  12.987  0.1540 -0.4422 -0.4981
 7701SOL     OW34561   3.933   3.689   3.392 -0.0404 -0.3337 -0.1674
 7701SOL    HW134562   3.995   3.617   3.391  2.9394  2.2933 -2.0135
 7701SOL    HW234563   3.923   3.700   3.487  0.3665  1.5140 -0.3431
 7702SOL     OW34564   3.787   2.100   6.400 -0.3757 -0.1687 -0.2789
 7702SOL    HW134565   3.834   2.174   6.361 -1.7011 -0.5374 -2.5407
 7702SOL    HW234566   3.832   2.023   6.364  0.5519  0.9613 -1.5457
 7703SOL     OW34567   3.577   3.993  14.710 -0.1052  0.1575  0.6639
 7703SOL    HW134568   3.526   3.963  14.785  0.9849 -1.4249  0.7911
 7703SOL    HW234569   3.603   4.081  14.740 -4.1399  0.5712  2.9238
 7704SOL     OW34570   0.718   1.775   8.757  0.0731 -0.1662  0.9428
 7704SOL    HW134571   0.637   1.823   8.774 -0.3371 -1.5120  2.6919
 7704SOL    HW234572   0.708   1.713   8.829  2.1042 -0.9309  0.5806
 7705SOL     OW34573   0.666   3.780   3.878 -0.0181  0.1196  0.3693
 7705SOL    HW134574   0.595   3.796   3.816 -0.7642  0.0299  1.1946
 7705SOL    HW234575   0.717   3.710   3.837 -1.5675  0.2500 -1.7697
 7706SOL     OW34576   4.071   3.531   2.573 -0.0427  0.6483  0.0426
 7706SOL    HW134577   4.034   3.444   2.565  0.4885  0.4423 -0.1687
 7706SOL    HW234578   3.990   3.581   2.564 -0.0008  0.9076  1.0718
 7707SOL     OW34579   3.024   3.633   3.994 -0.2800 -0.2413 -0.0813
 7707SOL    HW134580   3.082   3.582   3.937  0.1134  1.0779 -0.8831
 7707SOL    HW234581   3.078   3.708   4.021  0.5472 -0.7183 -0.4071
 7708SOL     OW34582   3.071   3.854  14.965 -0.0318  0.9369 -0.1737
 7708SOL    HW134583   3.094   3.886  15.052 -0.6954 -1.1214  0.7468
 7708SOL    HW234584   3.050   3.765  14.990 -0.6787  2.3832  4.3839
 7709SOL     OW34585   2.304   1.193  13.558 -0.0658  0.3654  0.4552
 7709SOL    HW134586   2.229   1.244  13.588 -0.2557 -0.2811  1.0920
 7709SOL    HW234587   2.279   1.105  13.585  3.5746 -0.0174  2.5314
 7710SOL     OW34588   1.036   0.255  12.052  0.5626 -0.3392  0.4812
 7710SOL    HW134589   1.103   0.204  12.096  1.1481  0.5441  0.6188
 7710SOL    HW234590   0.962   0.220  12.101 -0.3265 -0.4317 -0.9239
 7711SOL     OW34591   0.335   0.919   8.105 -0.5839  0.5172 -0.1292
 7711SOL    HW134592   0.427   0.892   8.101 -0.7133 -0.2276  1.6037
 7711SOL    HW234593   0.329   0.953   8.194  0.4785 -0.4774  0.3284
 7712SOL     OW34594   3.888   3.300   4.876  0.3087 -0.3769  0.2578
 7712SOL    HW134595   3.872   3.258   4.791 -0.7268 -1.5172  1.0203
 7712SOL    HW234596   3.947   3.371   4.851  0.0958  0.8736  3.3381
 7713SOL     OW34597   2.839   3.287   1.405  0.0486 -0.1529 -0.4519
 7713SOL    HW134598   2.853   3.290   1.499 -1.6561  1.5781 -0.2575
 7713SOL    HW234599   2.916   3.335   1.374 -1.5612  0.6434 -3.2627
 7714SOL     OW34600   1.098   2.460   2.457  0.6002  0.0032 -0.7532
 7714SOL    HW134601   1.103   2.374   2.416 -0.6571 -0.4436  0.0438
 7714SOL    HW234602   1.099   2.441   2.551  0.3052  0.0998 -0.7297
 7715SOL     OW34603   1.177   1.213  11.550  0.3917  0.3518  0.3116
 7715SOL    HW134604   1.214   1.177  11.469 -0.7674 -1.3049  0.5137
 7715SOL    HW234605   1.131   1.135  11.582 -1.8295  1.1205 -0.9744
 7716SOL     OW34606   2.867   0.897   5.837 -0.2916 -0.6931 -0.3040
 7716SOL    HW134607   2.956   0.885   5.872 -0.3718  0.5122  0.3352
 7716SOL    HW234608   2.884   0.963   5.770  0.9072 -1.3666 -0.6552
 7717SOL     OW34609   0.475   1.378   1.896  0.1026 -0.7597  0.2579
 7717SOL    HW134610   0.418   1.432   1.842 -0.5086  0.4444  2.1363
 7717SOL    HW234611   0.479   1.431   1.975 -0.0998  1.4263 -1.2175
 7718SOL     OW34612   0.172   0.322   0.478  0.5825  0.2524 -0.0129
 7718SOL    HW134613   0.169   0.345   0.385 -0.6025  1.0208  0.2127
 7718SOL    HW234614   0.141   0.232   0.471 -0.7135  0.8737 -2.2145
 7719SOL     OW34615   0.502   1.053  13.576 -0.0123 -0.3114 -0.1874
 7719SOL    HW134616   0.437   0.983  13.574 -0.4222  0.1398 -2.2061
 7719SOL    HW234617   0.553   1.020  13.502  2.5746 -1.9096  2.3158
 7720SOL     OW34618   1.706   0.642   2.849  0.2839  0.0474  0.6386
 7720SOL    HW134619   1.801   0.630   2.847  0.4011  1.3130 -1.2755
 7720SOL    HW234620   1.681   0.612   2.936 -2.2610 -1.3279 -0.5746
 7721SOL     OW34621   1.642   3.015   0.224 -0.0588 -0.0825 -0.4803
 7721SOL    HW134622   1.700   2.943   0.200 -1.2411 -1.1843 -0.0039
 7721SOL    HW234623   1.561   2.966   0.213 -0.8178  1.1851 -0.4863
 7722SOL     OW34624   3.900   1.880   7.315 -0.5413  0.1765 -0.0351
 7722SOL    HW134625   3.875   1.843   7.400 -1.4932  1.0795  0.0718
 7722SOL    HW234626   3.825   1.935   7.293  0.3195  1.0375 -0.8136
 7723SOL     OW34627   1.437   2.971  11.558 -0.0447  0.1954 -0.1636
 7723SOL    HW134628   1.412   2.897  11.503  1.3532  0.2620 -0.8932
 7723SOL    HW234629   1.481   3.032  11.499 -1.5222  0.3357 -1.1130
 7724SOL     OW34630   3.963   1.564  16.170  0.9080  0.1575  0.3674
 7724SOL    HW134631   4.037   1.590  16.115 -1.2587  2.6600 -1.3678
 7724SOL    HW234632   3.921   1.650  16.175  1.0661  0.1922  1.0519
 7725SOL     OW34633   2.875   2.543   3.501 -0.3188  0.1978  0.6068
 7725SOL    HW134634   2.959   2.498   3.505 -0.1530  0.4109 -0.7011
 7725SOL    HW234635   2.857   2.545   3.407 -1.3205  0.2270  0.7900
 7726SOL     OW34636   1.556   4.387   6.910 -0.2342  0.1666 -0.2850
 7726SOL    HW134637   1.509   4.466   6.883 -1.4593 -0.3832  0.2297
 7726SOL    HW234638   1.638   4.429   6.936 -0.3354 -0.1079  0.4889
 7727SOL     OW34639   3.120   0.508   3.154 -1.1952  0.2623  0.5717
 7727SOL    HW134640   3.036   0.464   3.168 -1.3392  0.0143 -1.0445
 7727SOL    HW234641   3.133   0.495   3.060 -1.0625 -0.9672  0.7717
 7728SOL     OW34642   0.725   0.211   8.489 -0.0012 -0.4611 -0.0030
 7728SOL    HW134643   0.634   0.193   8.514 -0.2880  3.2050  1.5704
 7728SOL    HW234644   0.715   0.219   8.395 -2.2758 -3.7073 -0.0441
 7729SOL     OW34645   3.707   2.828   4.419 -0.0803 -0.2519 -0.3769
 7729SOL    HW134646   3.669   2.915   4.433 -0.1933 -0.2359 -0.7713
 7729SOL    HW234647   3.711   2.822   4.324  0.1101 -0.5722 -0.3479
 7730SOL     OW34648   1.492   2.937  10.584 -0.5335  0.3846  0.2564
 7730SOL    HW134649   1.405   2.962  10.616 -0.3478  1.6404 -0.2247
 7730SOL    HW234650   1.461   2.864  10.530 -1.8764  0.4728  0.8969
 7731SOL     OW34651   2.168   2.992  13.965 -0.2459  0.5934  0.4904
 7731SOL    HW134652   2.261   2.976  13.947  0.2182  0.0497  3.3309
 7731SOL    HW234653   2.155   2.945  14.047  0.8552 -0.4904  0.0442
 7732SOL     OW34654   1.485   0.351   4.367 -0.1029 -0.3617  0.9659
 7732SOL    HW134655   1.553   0.323   4.427  1.7479 -1.2652 -1.5852
 7732SOL    HW234656   1.404   0.309   4.397 -2.1639  2.3281 -0.7543
 7733SOL     OW34657   1.289   2.201  11.391  0.5618  0.0120  0.3282
 7733SOL    HW134658   1.329   2.223  11.306 -0.1726 -0.4640 -0.1447
 7733SOL    HW234659   1.354   2.209  11.460  1.1315  1.5291 -0.3708
 7734SOL     OW34660   1.867   2.066   1.556  0.1798  0.1874  0.3181
 7734SOL    HW134661   1.926   2.019   1.616  2.4235  0.2611 -1.8108
 7734SOL    HW234662   1.846   2.140   1.613 -0.0241 -0.9781  1.7780
 7735SOL     OW34663   0.002   3.519   0.203  0.4393 -0.2043 -0.2012
 7735SOL    HW134664   4.698   3.473   0.283  0.3960  0.2558  0.0534
 7735SOL    HW234665   4.650   3.502   0.145  1.0791  0.5955 -1.2485
 7736SOL     OW34666   0.783   0.259   3.942  0.3038  0.3550  0.9834
 7736SOL    HW134667   0.718   0.248   4.012 -2.0347  0.0408 -1.2235
 7736SOL    HW234668   0.841   0.189   3.972  0.6988  0.1373 -0.2892
 7737SOL     OW34669   3.763   4.586  13.783  0.1511 -0.4192 -0.0123
 7737SOL    HW134670   3.732   4.500  13.809 -1.4816  0.3759  0.6702
 7737SOL    HW234671   3.858   4.580  13.791  0.2047  2.2399  1.4558
 7738SOL     OW34672   3.281   0.861   4.483 -0.8807 -0.0664 -0.2894
 7738SOL    HW134673   3.247   0.941   4.441 -1.3510 -0.2581 -0.2722
 7738SOL    HW234674   3.345   0.906   4.539 -1.8896  0.5348  0.3870
 7739SOL     OW34675   4.117   3.399   5.252 -0.0313  0.1960  0.0805
 7739SOL    HW134676   4.189   3.338   5.270 -0.6379 -0.3682  0.5921
 7739SOL    HW234677   4.046   3.346   5.217  0.4833 -2.3051  2.8285
 7740SOL     OW34678   2.771   0.589   1.722 -0.0592 -0.1690  0.0471
 7740SOL    HW134679   2.708   0.571   1.652  0.2504  0.8137 -0.4865
 7740SOL    HW234680   2.792   0.681   1.703  1.2556 -0.0859  1.9719
 7741SOL     OW34681   0.859   0.131   8.236 -0.4815  0.1388  0.2701
 7741SOL    HW134682   0.909   0.211   8.252  0.1045  0.0036 -0.8768
 7741SOL    HW234683   0.888   0.091   8.318  2.0915  0.3698 -0.5390
 7742SOL     OW34684   0.305   2.616   4.563  0.1602  0.2081 -0.2993
 7742SOL    HW134685   0.334   2.598   4.653  1.0287 -0.5333 -0.7245
 7742SOL    HW234686   0.270   2.530   4.540  2.1938 -1.6995  3.7269
 7743SOL     OW34687   0.264   3.421   9.969 -0.6011 -0.2316 -0.5119
 7743SOL    HW134688   0.214   3.340   9.968 -2.1584  0.7157  0.6137
 7743SOL    HW234689   0.275   3.431  10.063  1.9590 -1.2121 -0.7126
 7744SOL     OW34690   0.933   3.012   8.094  0.0735  0.2981  0.0830
 7744SOL    HW134691   0.982   3.060   8.161 -0.4197  1.1042 -0.1211
 7744SOL    HW234692   0.995   3.008   8.021  0.2471  1.4184  0.1655
 7745SOL     OW34693   3.077   1.464   6.381  0.2528 -0.1268 -0.8589
 7745SOL    HW134694   2.994   1.485   6.339 -1.0229  1.8241  2.6449
 7745SOL    HW234695   3.079   1.369   6.392 -0.6731  0.0243  0.5474
 7746SOL     OW34696   3.291   2.781   3.912 -0.0632 -0.3760 -0.6833
 7746SOL    HW134697   3.301   2.748   4.001 -0.9547  3.9622  0.9923
 7746SOL    HW234698   3.300   2.700   3.860 -3.6046  0.0297 -1.9329
 7747SOL     OW34699   3.779   2.478   9.493 -0.3925 -0.0923  0.5993
 7747SOL    HW134700   3.864   2.517   9.511  0.6661 -1.6470 -1.1066
 7747SOL    HW234701   3.726   2.519   9.562  1.1622 -0.5448  2.0418
 7748SOL     OW34702   1.575   1.803   4.896  0.7441  0.1919  0.1334
 7748SOL    HW134703   1.598   1.722   4.943  0.4736 -0.1480 -0.3177
 7748SOL    HW234704   1.566   1.867   4.967  3.0270  0.1083  0.4952
 7749SOL     OW34705   2.756   3.327   8.865 -0.3595  0.0503  0.3666
 7749SOL    HW134706   2.679   3.355   8.915 -1.0288  1.4492 -1.4403
 7749SOL    HW234707   2.759   3.383   8.787  1.8425 -1.1130 -0.3658
 7750SOL     OW34708   2.374   1.114   7.278 -0.5795 -0.0071 -0.4772
 7750SOL    HW134709   2.389   1.116   7.372 -0.8192  1.0028 -0.4634
 7750SOL    HW234710   2.423   1.037   7.248  0.8621  1.1365 -1.0730
 7751SOL     OW34711   2.680   2.298   8.803  0.0876  0.6631  0.5597
 7751SOL    HW134712   2.753   2.354   8.777 -0.0942  0.5785 -0.1228
 7751SOL    HW234713   2.617   2.335   8.741  1.2281 -1.1729 -1.7138
 7752SOL     OW34714   4.135   0.037   8.663 -0.0383 -0.0565  0.5832
 7752SOL    HW134715   4.088   0.106   8.709  1.8380  0.9051  1.0901
 7752SOL    HW234716   4.058   0.001   8.619 -0.4999  1.5447  0.0888
 7753SOL     OW34717   0.631   0.378  16.425 -0.4428 -0.6248 -0.3383
 7753SOL    HW134718   0.553   0.415  16.466  0.6726 -0.2172  1.3902
 7753SOL    HW234719   0.629   0.414  16.336 -2.2478 -1.7517 -0.7544
 7754SOL     OW34720   3.308   0.332   7.326  0.4447 -0.0197  0.7796
 7754SOL    HW134721   3.388   0.295   7.288  0.6297  1.6173 -0.3842
 7754SOL    HW234722   3.343   0.421   7.327  0.5412 -0.0244 -2.4869
 7755SOL     OW34723   3.547   2.057  13.685  0.3232 -0.0436  0.7904
 7755SOL    HW134724   3.593   1.998  13.624 -1.5875  0.3021 -0.9769
 7755SOL    HW234725   3.615   2.113  13.721  0.3383  1.3867 -1.5176
 7756SOL     OW34726   3.785   4.175   0.186  0.0452 -0.2464  0.1108
 7756SOL    HW134727   3.714   4.133   0.234 -0.2290 -2.0510 -1.8804
 7756SOL    HW234728   3.807   4.242   0.251  1.1623 -0.8647  0.3682
 7757SOL     OW34729   4.171   3.855  13.755 -0.4875  0.3836  0.1914
 7757SOL    HW134730   4.212   3.922  13.700  0.8428 -0.2639  0.4180
 7757SOL    HW234731   4.184   3.894  13.841 -1.2078 -0.9544  0.8994
 7758SOL     OW34732   0.228   2.021   5.650  0.3123 -0.3122 -0.4261
 7758SOL    HW134733   0.164   2.092   5.657  0.7486 -0.0848  1.2774
 7758SOL    HW234734   0.268   2.004   5.735  1.1432 -2.7247 -1.3025
 7759SOL     OW34735   4.021   3.855  12.875 -0.3258  0.2888 -0.1578
 7759SOL    HW134736   3.928   3.868  12.895 -1.4909 -3.1799 -3.5156
 7759SOL    HW234737   4.034   3.788  12.808  0.9549  0.2795  0.1005
 7760SOL     OW34738   1.678   1.650   2.685 -0.1300 -0.4299  0.4639
 7760SOL    HW134739   1.606   1.598   2.649 -1.0655 -0.0412  1.7576
 7760SOL    HW234740   1.627   1.732   2.688 -0.0709 -0.4101  0.8962
 7761SOL     OW34741   3.438   0.917   2.622 -0.7786 -0.4949 -0.4537
 7761SOL    HW134742   3.443   0.982   2.692 -2.8609  1.0295 -1.7364
 7761SOL    HW234743   3.440   0.834   2.669 -0.1922 -0.7844 -0.9946
 7762SOL     OW34744   2.538   1.580   7.593 -0.3738 -0.1871  0.3306
 7762SOL    HW134745   2.456   1.622   7.619  0.5002  0.7097  1.6049
 7762SOL    HW234746   2.526   1.602   7.500  0.1754  0.2268  0.3616
 7763SOL     OW34747   0.205   3.033   6.482  0.0786 -0.2436 -0.1619
 7763SOL    HW134748   0.192   3.028   6.387  1.8346 -1.2360 -0.3582
 7763SOL    HW234749   0.230   3.125   6.490 -0.4084  0.0329 -1.9335
 7764SOL     OW34750   0.922   2.785  12.020 -0.3106 -0.8664  0.5253
 7764SOL    HW134751   1.011   2.754  12.005  0.2245  1.1742 -0.5188
 7764SOL    HW234752   0.944   2.876  11.999  0.5609 -0.9026  1.2928
 7765SOL     OW34753   3.993   0.278   9.306 -0.2939  0.0282  0.0316
 7765SOL    HW134754   4.073   0.241   9.271  0.3062  0.1251  1.2972
 7765SOL    HW234755   4.018   0.321   9.388 -1.3038 -1.2596  1.0298
 7766SOL     OW34756   4.448   0.534   6.154 -0.0840 -0.3165  0.4931
 7766SOL    HW134757   4.356   0.532   6.181 -0.4139 -3.7086 -0.8693
 7766SOL    HW234758   4.480   0.447   6.177 -1.2294 -1.1146 -0.8730
 7767SOL     OW34759   0.586   2.825  12.377  0.4971 -0.0138  0.1740
 7767SOL    HW134760   0.597   2.881  12.455  1.9524  0.6221 -0.4795
 7767SOL    HW234761   0.636   2.873  12.311  1.7099 -0.2750  0.8913
 7768SOL     OW34762   4.661   3.579   6.650 -0.1328  0.9486 -0.3638
 7768SOL    HW134763   0.023   3.566   6.695  0.0778  0.3109 -0.9409
 7768SOL    HW234764   4.678   3.651   6.589  2.4462 -0.9037 -1.8114
 7769SOL     OW34765   2.322   2.964  12.110 -0.2932 -0.1284 -0.8222
 7769SOL    HW134766   2.375   2.972  12.189 -0.6084 -0.2644 -0.5946
 7769SOL    HW234767   2.392   2.981  12.047 -0.0869  1.7034 -0.0957
 7770SOL     OW34768   0.496   3.669   4.261 -0.0519 -0.4880 -0.2624
 7770SOL    HW134769   0.454   3.701   4.341 -1.9744  0.5248 -1.6752
 7770SOL    HW234770   0.427   3.609   4.232 -0.9871 -0.9090  2.8220
 7771SOL     OW34771   3.805   1.861  13.175 -0.6107 -0.4214 -0.6202
 7771SOL    HW134772   3.747   1.843  13.101  0.0675  1.9322 -1.7074
 7771SOL    HW234773   3.869   1.790  13.166 -0.3974 -0.5791  2.3228
 7772SOL     OW34774   2.924   2.441   8.714 -0.1348 -0.3680  0.1237
 7772SOL    HW134775   2.943   2.508   8.780 -1.7267  1.4630 -1.2603
 7772SOL    HW234776   3.014   2.414   8.698 -0.2460  0.1337 -1.3273
 7773SOL     OW34777   1.046   0.729   5.677 -0.2485 -0.5895  0.2058
 7773SOL    HW134778   0.996   0.809   5.689 -0.5871 -0.8212  0.3415
 7773SOL    HW234779   1.111   0.773   5.622 -1.4726  4.3736  2.7809
 7774SOL     OW34780   4.690   1.130   7.457  0.5130 -0.3735 -0.0591
 7774SOL    HW134781   0.013   1.183   7.523 -0.3001 -0.5003  0.5912
 7774SOL    HW234782   4.633   1.084   7.519  1.4947 -1.0776  0.3317
 7775SOL     OW34783   4.437   1.222   3.370 -0.0618  0.5378 -0.5763
 7775SOL    HW134784   4.382   1.170   3.429  2.0035  0.0137  0.8856
 7775SOL    HW234785   4.401   1.310   3.375 -0.8743  0.1885 -0.3018
 7776SOL     OW34786   3.502   3.441   2.784  0.3241  0.2652  0.8671
 7776SOL    HW134787   3.562   3.447   2.709 -1.2408  0.6735 -0.3486
 7776SOL    HW234788   3.435   3.505   2.760  1.1417  1.6181  2.2055
 7777SOL     OW34789   0.445   3.708   5.616 -0.0280 -0.6228  0.1340
 7777SOL    HW134790   0.460   3.726   5.523  2.2113  1.5087  0.9199
 7777SOL    HW234791   0.481   3.788   5.653 -0.7231 -0.0989 -0.3259
 7778SOL     OW34792   2.895   3.909   9.660  0.5599  0.9357 -0.0427
 7778SOL    HW134793   2.990   3.915   9.649  0.6119  1.9103  0.9621
 7778SOL    HW234794   2.877   3.989   9.709 -1.3671  1.2682 -1.2680
 7779SOL     OW34795   4.213   0.645   9.530  0.2531 -0.4258 -0.3868
 7779SOL    HW134796   4.195   0.728   9.486  2.5151  0.1247 -0.2767
 7779SOL    HW234797   4.307   0.638   9.513  1.0168  1.3146  3.1845
 7780SOL     OW34798   2.219   1.183   8.387  0.3989 -0.5625  0.7645
 7780SOL    HW134799   2.223   1.096   8.347  3.0357 -0.5964  1.1601
 7780SOL    HW234800   2.255   1.229   8.311  0.2533 -2.4340 -0.4526
 7781SOL     OW34801   3.017   3.088   5.666  0.4329  0.2088 -0.3614
 7781SOL    HW134802   3.102   3.045   5.655  0.6815  0.8380 -0.9156
 7781SOL    HW234803   3.060   3.153   5.722  2.9881 -2.3883  0.6737
 7782SOL     OW34804   1.179   0.055   6.224  0.2048  0.1497 -0.2765
 7782SOL    HW134805   1.165   0.121   6.156 -0.9423  1.8164  1.5703
 7782SOL    HW234806   1.120   0.078   6.296  0.5306 -3.4484  1.1114
 7783SOL     OW34807   2.041   0.151   5.239 -0.0651  0.2112 -0.3477
 7783SOL    HW134808   1.973   0.148   5.171 -0.2636  3.9601 -0.3412
 7783SOL    HW234809   1.982   0.141   5.313  0.0674 -0.9258 -0.3980
 7784SOL     OW34810   3.215   1.750   5.173  0.4650 -0.7821  0.0182
 7784SOL    HW134811   3.249   1.705   5.095 -0.0175 -0.1050 -0.5849
 7784SOL    HW234812   3.127   1.713   5.176  0.2518  0.0253  3.9338
 7785SOL     OW34813   3.240   1.858   4.703  0.4073  0.2932 -0.1472
 7785SOL    HW134814   3.308   1.834   4.640 -0.2334 -0.0262 -0.7133
 7785SOL    HW234815   3.256   1.953   4.709  0.4035  0.3230 -0.6395
 7786SOL     OW34816   1.066   1.464   5.440 -0.1963 -0.4148  0.4516
 7786SOL    HW134817   1.068   1.403   5.366  1.5944  0.6699 -0.3823
 7786SOL    HW234818   0.992   1.520   5.418  0.6097 -0.1548 -1.6271
 7787SOL     OW34819   4.141   3.250   6.287  0.7216 -0.1252 -0.5033
 7787SOL    HW134820   4.123   3.287   6.374 -4.2741 -2.2678 -0.6541
 7787SOL    HW234821   4.064   3.203   6.258  1.0408  0.0906 -1.6821
 7788SOL     OW34822   3.009   4.391   6.874 -0.0047 -0.0476 -0.0152
 7788SOL    HW134823   3.018   4.367   6.966 -0.1692  0.0618  0.0304
 7788SOL    HW234824   3.042   4.481   6.876 -0.4735  0.0857  1.4249
 7789SOL     OW34825   0.242   3.851   0.708  0.1056  0.1053 -0.3641
 7789SOL    HW134826   0.288   3.866   0.791  3.3258 -1.5032 -1.8821
 7789SOL    HW234827   0.150   3.858   0.737  0.1911  1.8760 -0.4965
 7790SOL     OW34828   1.857   1.086   6.786  0.0062 -0.2855 -0.1153
 7790SOL    HW134829   1.780   1.056   6.835  0.9840 -1.2465  0.8093
 7790SOL    HW234830   1.855   1.177   6.816  0.3469 -1.0100  2.1070
 7791SOL     OW34831   4.250   4.237  13.884 -0.2301  0.1532 -0.2096
 7791SOL    HW134832   4.264   4.148  13.917 -0.8355  0.4395  0.8023
 7791SOL    HW234833   4.178   4.265  13.940 -0.8759  1.8352 -1.8673
 7792SOL     OW34834   1.219   2.046   5.560  0.7056  0.2458  0.2276
 7792SOL    HW134835   1.173   2.064   5.478 -1.3848  0.1487  1.3919
 7792SOL    HW234836   1.306   2.084   5.547  0.8542  1.0417  3.5371
 7793SOL     OW34837   2.242   2.296  17.631 -0.5324 -0.3177 -0.3723
 7793SOL    HW134838   2.247   2.366   0.007  0.9137 -0.7078 -0.0513
 7793SOL    HW234839   2.232   2.218  17.686  0.4590 -1.8284 -2.3341
 7794SOL     OW34840   1.193   3.222   6.007 -0.3011 -0.2781  0.4903
 7794SOL    HW134841   1.155   3.138   5.981  0.8020 -0.1628 -1.4975
 7794SOL    HW234842   1.277   3.194   6.042 -0.9664 -1.8118  0.8647
 7795SOL     OW34843   0.805   3.307   5.338  0.1380  0.5705 -0.5994
 7795SOL    HW134844   0.761   3.268   5.263 -0.1603  0.0590 -0.1619
 7795SOL    HW234845   0.732   3.337   5.393 -1.3379  0.3535 -2.4329
 7796SOL     OW34846   3.724   0.262   9.450  0.0820 -0.1581 -0.2814
 7796SOL    HW134847   3.812   0.294   9.432  0.3933 -0.7052  0.2599
 7796SOL    HW234848   3.676   0.282   9.370 -1.5723  1.4454  1.1268
 7797SOL     OW34849   2.783   1.814   4.826  0.2333 -0.2643 -0.3372
 7797SOL    HW134850   2.823   1.731   4.855 -1.1918 -0.7005  0.3948
 7797SOL    HW234851   2.751   1.782   4.742 -1.4610 -0.2651  0.3083
 7798SOL     OW34852   0.804   2.582   2.665 -0.6537 -0.1026 -0.6890
 7798SOL    HW134853   0.752   2.647   2.619  0.5901  0.3960 -1.4028
 7798SOL    HW234854   0.879   2.638   2.687  0.2586 -0.7721 -2.0993
 7799SOL     OW34855   3.027   4.150   2.475  0.0819  0.0092 -0.0236
 7799SOL    HW134856   3.072   4.199   2.406 -0.3958 -1.0256 -1.0685
 7799SOL    HW234857   3.086   4.178   2.545  0.9651  0.9631 -1.1522
 7800SOL     OW34858   2.819   0.424   7.928  0.9953 -0.1764 -0.2508
 7800SOL    HW134859   2.738   0.476   7.922  0.0802 -1.6344 -0.3583
 7800SOL    HW234860   2.803   0.365   8.001  0.1402 -0.0886 -0.3672
 7801SOL     OW34861   0.204   4.370   3.944  0.8313  0.1095  1.1261
 7801SOL    HW134862   0.111   4.362   3.969  0.9227 -1.0775  1.1046
 7801SOL    HW234863   0.234   4.439   4.003  0.3180  2.9514 -1.9208
 7802SOL     OW34864   1.810   0.096   1.385 -0.0523  0.4941 -0.0454
 7802SOL    HW134865   1.858   0.051   1.455 -1.8642 -1.0843  0.2022
 7802SOL    HW234866   1.772   0.018   1.346 -0.9655  0.6818  0.4582
 7803SOL     OW34867   1.847   1.929   9.252  0.0218  0.4263 -0.0947
 7803SOL    HW134868   1.812   1.949   9.165  1.3073  3.0624 -0.0192
 7803SOL    HW234869   1.798   1.993   9.304  0.9855  0.7378  0.4292
 7804SOL     OW34870   0.608   3.459   5.997 -0.5954  0.3233  0.7647
 7804SOL    HW134871   0.699   3.466   6.027 -0.1468 -1.1080 -0.2496
 7804SOL    HW234872   0.616   3.494   5.908 -1.0538 -0.0048  0.5961
 7805SOL     OW34873   1.691   1.779   5.401 -0.2127 -0.1628  0.0827
 7805SOL    HW134874   1.779   1.803   5.433  0.8320 -1.2746 -1.9776
 7805SOL    HW234875   1.711   1.717   5.331  1.6465 -0.3075  0.7342
 7806SOL     OW34876   0.570   2.674  12.072  0.1249  0.1622 -0.7173
 7806SOL    HW134877   0.621   2.666  12.152 -0.1654 -0.9625 -0.6488
 7806SOL    HW234878   0.617   2.738  12.019  1.8003  1.2540  2.1125
 7807SOL     OW34879   4.377   2.743   7.580 -0.1644  0.4204  0.3583
 7807SOL    HW134880   4.446   2.717   7.520 -0.9674 -0.8272 -0.0205
 7807SOL    HW234881   4.409   2.810   7.640  3.1613 -0.5860 -0.2950
 7808SOL     OW34882   3.684   3.416   8.535  0.0706  0.6654 -0.0868
 7808SOL    HW134883   3.741   3.357   8.584 -1.0649 -1.2095 -1.0256
 7808SOL    HW234884   3.740   3.430   8.459 -0.1921  1.3196 -0.1616
 7809SOL     OW34885   0.134   1.925   6.774 -0.3270  0.5561  0.1390
 7809SOL    HW134886   0.070   1.886   6.715 -0.8242  0.0547  1.0133
 7809SOL    HW234887   0.074   1.945   6.846 -1.1225  0.3583 -0.4766
 7810SOL     OW34888   3.301   4.093   5.531  0.3557 -0.3821 -0.1356
 7810SOL    HW134889   3.220   4.067   5.487  0.2364  0.0169 -0.1513
 7810SOL    HW234890   3.281   4.168   5.586 -2.1530  1.1313 -3.1075
 7811SOL     OW34891   3.507   1.077   8.490  0.2843 -0.3695  0.3279
 7811SOL    HW134892   3.538   1.004   8.544  2.0249  1.2060  1.4322
 7811SOL    HW234893   3.423   1.090   8.533 -0.8814 -2.3635 -1.3387
 7812SOL     OW34894   4.637   2.261  10.298 -0.6185 -0.1568 -0.3049
 7812SOL    HW134895   4.572   2.326  10.271 -0.2170  0.2839 -0.2237
 7812SOL    HW234896   4.632   2.192  10.232 -3.1208 -1.1475  0.9052
 7813SOL     OW34897   4.468   0.346  15.799  0.2309  0.2260 -0.5103
 7813SOL    HW134898   4.507   0.433  15.811  0.3390  0.4685 -2.6250
 7813SOL    HW234899   4.505   0.320  15.714 -1.8101 -3.6773 -0.2043
 7814SOL     OW34900   0.168   1.291   3.444 -0.3113  0.9917  0.6625
 7814SOL    HW134901   0.155   1.233   3.518  1.8381 -0.5977 -0.2064
 7814SOL    HW234902   0.214   1.223   3.395  1.2499  3.3969 -1.2391
 7815SOL     OW34903   4.428   1.791   7.543 -0.2218  0.4026 -0.2998
 7815SOL    HW134904   4.413   1.885   7.532 -2.5385 -0.0439 -0.8142
 7815SOL    HW234905   4.347   1.774   7.592 -0.9202 -0.6198 -1.8334
 7816SOL     OW34906   1.743   1.137   3.796 -0.4384  0.4638 -0.8228
 7816SOL    HW134907   1.829   1.174   3.818 -0.3282 -1.0228  1.2388
 7816SOL    HW234908   1.730   1.077   3.869 -1.3081  1.6351 -0.0205
 7817SOL     OW34909   0.202   2.086  10.831 -0.4870 -0.0399  0.0273
 7817SOL    HW134910   0.113   2.054  10.817 -0.8112  0.7979  0.1706
 7817SOL    HW234911   0.248   2.036  10.764  1.6844  2.5940 -0.4370
 7818SOL     OW34912   3.608   0.297  14.907 -0.0140 -0.2944 -0.2838
 7818SOL    HW134913   3.639   0.208  14.891  0.2771 -0.0274 -1.2288
 7818SOL    HW234914   3.681   0.348  14.870  0.5336 -0.5317  0.4662
 7819SOL     OW34915   0.982   3.916   5.882  0.6264  0.0893 -0.2165
 7819SOL    HW134916   1.024   3.960   5.808 -1.6823  0.4473 -1.2926
 7819SOL    HW234917   0.920   3.987   5.897  0.6914  0.0741  0.1336
 7820SOL     OW34918   2.201   2.576   5.382 -1.0598  0.2946  0.6275
 7820SOL    HW134919   2.250   2.631   5.321  0.1665  1.3910  2.6316
 7820SOL    HW234920   2.244   2.493   5.363  0.2351  1.4119 -1.3595
 7821SOL     OW34921   0.433   4.065   3.110  0.3980  0.4039 -0.3562
 7821SOL    HW134922   0.436   4.002   3.038 -0.4067  2.8347 -2.5135
 7821SOL    HW234923   0.528   4.066   3.119  0.3169 -0.6392  0.7048
 7822SOL     OW34924   4.547   2.511  10.162 -0.5627  0.2593 -0.1835
 7822SOL    HW134925   4.462   2.555  10.169  0.0931  1.6640 -0.9408
 7822SOL    HW234926   4.562   2.490  10.070  0.9994 -0.3788  0.2223
 7823SOL     OW34927   1.429   1.836   2.524 -0.6350 -0.2517  0.2930
 7823SOL    HW134928   1.433   1.794   2.438 -1.3670 -1.6263  0.9350
 7823SOL    HW234929   1.349   1.787   2.544  0.5833 -2.5492 -0.5686
 7824SOL     OW34930   4.488   0.492   3.264  0.4135  0.2151  0.1166
 7824SOL    HW134931   4.419   0.539   3.217  0.3258 -0.9658 -0.9381
 7824SOL    HW234932   4.545   0.451   3.199  0.4779  3.1459 -1.6684
 7825SOL     OW34933   2.227   3.882   4.063  0.4790  0.5945 -0.9811
 7825SOL    HW134934   2.202   3.963   4.018 -2.4149 -0.8840 -2.0417
 7825SOL    HW234935   2.145   3.836   4.081  0.7551  1.3353  2.0445
 7826SOL     OW34936   2.947   3.785   6.516  0.3109  0.7228 -0.1459
 7826SOL    HW134937   2.990   3.850   6.460 -2.4327  1.6377 -1.2189
 7826SOL    HW234938   2.999   3.791   6.595  1.0765 -0.3986 -0.5698
 7827SOL     OW34939   0.570   1.044  11.915 -0.2176  0.1488  0.0264
 7827SOL    HW134940   0.508   0.970  11.921 -0.5295  0.3296 -0.9275
 7827SOL    HW234941   0.649   1.001  11.948 -0.1823  1.4534  1.6537
 7828SOL     OW34942   2.361   1.637   3.035 -0.3043  0.3699  0.6157
 7828SOL    HW134943   2.290   1.621   3.097  0.9895 -0.5388  1.8821
 7828SOL    HW234944   2.440   1.629   3.089  0.6343 -0.6691 -0.9046
 7829SOL     OW34945   1.202   3.286   8.176  0.6808  0.3677 -0.0343
 7829SOL    HW134946   1.178   3.222   8.244  0.0073  0.1438 -0.4894
 7829SOL    HW234947   1.169   3.370   8.207 -0.3363  0.4200 -1.2782
 7830SOL     OW34948   3.212   0.699   7.216  0.1182  0.3684  0.2240
 7830SOL    HW134949   3.280   0.633   7.226 -1.0487 -1.1762 -1.9070
 7830SOL    HW234950   3.253   0.783   7.238  2.5333 -1.2089  1.6468
 7831SOL     OW34951   3.985   1.579   3.804 -0.2624  0.3296 -0.2014
 7831SOL    HW134952   4.056   1.643   3.796 -0.0752 -0.0723 -1.6959
 7831SOL    HW234953   3.927   1.626   3.864  1.0890  2.5511 -0.6372
 7832SOL     OW34954   0.357   1.164   6.085 -0.5012  0.6886  0.0869
 7832SOL    HW134955   0.348   1.247   6.132  0.1496  1.2499 -0.7790
 7832SOL    HW234956   0.270   1.175   6.049  0.3481  0.5338 -1.9987
 7833SOL     OW34957   0.868   0.695   4.350  0.5149  0.4914 -0.4256
 7833SOL    HW134958   0.822   0.732   4.425  0.1887  1.6197 -1.1744
 7833SOL    HW234959   0.806   0.637   4.306  4.5708 -2.5556 -2.1198
 7834SOL     OW34960   0.694   1.674   5.017  0.2679 -0.4645  0.5431
 7834SOL    HW134961   0.619   1.625   5.050  0.6749 -0.9229  0.7955
 7834SOL    HW234962   0.670   1.680   4.925  0.4757  0.6543  0.5624
 7835SOL     OW34963   2.439   2.335  14.533  0.3360  0.4183  0.2087
 7835SOL    HW134964   2.441   2.348  14.628 -2.2366 -0.0497  0.3265
 7835SOL    HW234965   2.365   2.275  14.529  0.7000 -0.1366  1.6774
 7836SOL     OW34966   2.864   2.516  10.979  0.4412 -0.0918  0.1998
 7836SOL    HW134967   2.818   2.446  11.025 -1.6058  0.3576 -1.1541
 7836SOL    HW234968   2.939   2.463  10.951  0.0079 -0.6668  0.1132
 7837SOL     OW34969   0.457   2.170   3.853 -0.1956  0.1278 -0.0902
 7837SOL    HW134970   0.405   2.165   3.934  0.0766  0.7530  0.1197
 7837SOL    HW234971   0.399   2.218   3.793 -0.0236  2.3276  1.5273
 7838SOL     OW34972   2.323   4.133   8.432  0.1703 -0.4230  0.4733
 7838SOL    HW134973   2.243   4.096   8.394  0.4634 -0.2676 -0.2896
 7838SOL    HW234974   2.286   4.212   8.471  0.6332 -1.0409  2.1877
 7839SOL     OW34975   0.739   4.072   3.129  0.1638 -0.0645 -0.2743
 7839SOL    HW134976   0.827   4.092   3.160  0.3844 -1.4956  0.0333
 7839SOL    HW234977   0.739   3.981   3.099 -0.6962 -0.2952  0.4198
 7840SOL     OW34978   4.520   0.444   7.437 -0.3822  0.2313 -0.5710
 7840SOL    HW134979   4.573   0.414   7.363  2.0740  3.1816 -0.0095
 7840SOL    HW234980   4.431   0.419   7.412 -0.1462 -0.2541 -0.9269
 7841SOL     OW34981   2.404   3.159   1.786  0.2299  0.3548  0.3786
 7841SOL    HW134982   2.456   3.222   1.737  0.5006  0.1070  0.3491
 7841SOL    HW234983   2.340   3.220   1.823  0.5054 -0.1689  1.7366
 7842SOL     OW34984   2.225   3.349   3.463  0.7867 -0.5453  0.3503
 7842SOL    HW134985   2.268   3.393   3.390 -0.9051  1.4783  0.5710
 7842SOL    HW234986   2.176   3.416   3.510 -1.9530 -1.6939 -0.8460
 7843SOL     OW34987   3.204   1.922   5.381 -0.3776  0.6343  0.8120
 7843SOL    HW134988   3.246   1.862   5.319 -1.7306  1.4280 -0.8717
 7843SOL    HW234989   3.206   2.006   5.335  1.2452 -0.2393 -0.7127
 7844SOL     OW34990   4.594   1.331   4.971 -0.4052  0.2124 -0.2694
 7844SOL    HW134991   4.684   1.300   4.973  0.4297  2.6778  2.1511
 7844SOL    HW234992   4.581   1.310   4.879  2.7438 -0.4023 -0.5696
 7845SOL     OW34993   4.353   2.424   4.787  0.3300 -0.0767  0.2307
 7845SOL    HW134994   4.395   2.384   4.711  0.1719  1.9811 -0.9471
 7845SOL    HW234995   4.262   2.416   4.757  0.7341 -1.0669 -0.7258
 7846SOL     OW34996   0.962   1.060  10.730 -0.5046  0.2070 -0.0011
 7846SOL    HW134997   0.886   1.002  10.719 -1.0578  0.7230  1.1207
 7846SOL    HW234998   0.936   1.135  10.676 -3.5411  0.2509  1.4962
 7847SOL     OW34999   0.711   2.351   4.652  0.0043 -0.1142  0.2160
 7847SOL    HW135000   0.628   2.328   4.609  0.4335 -0.5732 -0.3645
 7847SOL    HW235001   0.772   2.383   4.585 -0.3596  1.4345  0.6363
 7848SOL     OW35002   4.170   2.237   6.353  0.2443  0.1571  0.2597
 7848SOL    HW135003   4.229   2.266   6.282  1.3002  0.9045  1.4386
 7848SOL    HW235004   4.191   2.297   6.424 -0.7862  0.2192  0.5103
 7849SOL     OW35005   2.522   0.426   6.902  0.2840  0.0075 -0.0103
 7849SOL    HW135006   2.506   0.509   6.856  0.6136  0.1006  0.0439
 7849SOL    HW235007   2.550   0.448   6.990 -1.4133 -0.3539  0.6261
 7850SOL     OW35008   2.660   3.349   2.038 -0.1611 -0.0883  0.3481
 7850SOL    HW135009   2.669   3.263   1.997 -0.2384  0.2817 -0.4597
 7850SOL    HW235010   2.570   3.329   2.065  0.1785  0.5913  1.9661
 7851SOL     OW35011   2.698   0.908   8.541  0.0043 -0.5138  0.2946
 7851SOL    HW135012   2.752   0.986   8.558 -0.0892 -0.3858  0.0037
 7851SOL    HW235013   2.754   0.843   8.583 -1.3509  0.4340  3.5797
 7852SOL     OW35014   1.729   3.833   3.677 -0.0628 -0.0369  0.2273
 7852SOL    HW135015   1.741   3.747   3.717 -0.4302  0.4408  1.3520
 7852SOL    HW235016   1.653   3.864   3.726 -1.8998 -1.0920 -1.9604
 7853SOL     OW35017   2.257   1.780  14.140 -0.1692 -0.3552  0.2207
 7853SOL    HW135018   2.195   1.790  14.068  0.9012  0.6160 -0.5602
 7853SOL    HW235019   2.251   1.866  14.182 -0.2317  1.1224 -2.8280
 7854SOL     OW35020   1.660   1.752  15.879  0.5260 -0.3898  0.3844
 7854SOL    HW135021   1.694   1.740  15.968 -3.1827  3.3028  2.2665
 7854SOL    HW235022   1.739   1.729  15.830 -0.0287 -1.1312 -0.1624
 7855SOL     OW35023   4.612   0.091  12.682  0.7776 -0.0281 -0.0153
 7855SOL    HW135024   4.665   0.142  12.743  1.4559 -0.6128 -0.1053
 7855SOL    HW235025   4.531   0.141  12.689 -0.1675 -1.8311  1.7722
 7856SOL     OW35026   1.208   3.668   7.772 -0.2792  0.1766 -0.1546
 7856SOL    HW135027   1.256   3.618   7.838 -1.8937  0.7252  1.4251
 7856SOL    HW235028   1.280   3.693   7.713 -0.5350  0.2376 -0.4422
 7857SOL     OW35029   2.311   2.795   4.609 -0.1011 -0.3000 -0.2522
 7857SOL    HW135030   2.293   2.703   4.588 -1.1388  0.0372 -0.8200
 7857SOL    HW235031   2.227   2.811   4.651  0.1095 -0.7450  0.3432
 7858SOL     OW35032   4.335   2.232   8.732  0.0711  0.8480  0.1235
 7858SOL    HW135033   4.264   2.296   8.739 -0.3244  0.5753 -1.3376
 7858SOL    HW235034   4.295   2.161   8.783 -0.7407  0.6537 -0.7631
 7859SOL     OW35035   1.258   3.305   5.286  0.3103  0.3205 -0.4331
 7859SOL    HW135036   1.197   3.236   5.313 -0.2423  0.9377 -0.1164
 7859SOL    HW235037   1.202   3.379   5.266  1.5029  1.8069  1.8400
 7860SOL     OW35038   2.604   4.170   3.769 -0.3664  0.0489  0.2908
 7860SOL    HW135039   2.538   4.140   3.707  0.6663  0.3997 -0.9667
 7860SOL    HW235040   2.691   4.140   3.741  0.3822  1.1368  1.4740
 7861SOL     OW35041   0.287   3.160   5.008 -0.5373 -0.5981 -0.4570
 7861SOL    HW135042   0.312   3.183   5.097  1.2745 -0.0887 -1.0983
 7861SOL    HW235043   0.336   3.224   4.957  1.2236  0.1516  2.1959
 7862SOL     OW35044   3.742   2.394   5.188  0.7602 -0.8501 -0.5668
 7862SOL    HW135045   3.715   2.445   5.264 -1.0666  0.0610 -1.8308
 7862SOL    HW235046   3.724   2.443   5.107 -1.7468 -1.8757 -0.6224
 7863SOL     OW35047   0.762   1.775  15.527 -0.2505 -0.0912  0.0375
 7863SOL    HW135048   0.806   1.817  15.453 -0.0244  0.0826  0.2717
 7863SOL    HW235049   0.712   1.700  15.496 -0.5789 -0.2239  0.8927
 7864SOL     OW35050   3.995   0.217  13.999  0.8273  0.1280 -0.2356
 7864SOL    HW135051   4.072   0.265  14.030  0.6043 -0.5818  1.3754
 7864SOL    HW235052   3.974   0.174  14.081  1.1678  3.1159  1.4203
 7865SOL     OW35053   3.370   3.961   7.741  0.2693 -0.2550 -0.1448
 7865SOL    HW135054   3.345   3.946   7.832  3.6646  2.4818  1.2413
 7865SOL    HW235055   3.432   4.033   7.747  3.7727 -3.2778  0.2230
 7866SOL     OW35056   0.541   4.382  17.482  0.4442 -0.1251 -0.1109
 7866SOL    HW135057   0.573   4.417  17.565  1.4515  0.8753 -0.9051
 7866SOL    HW235058   0.623   4.396  17.434  0.4047 -1.2146 -0.4880
 7867SOL     OW35059   1.293   1.062   8.669 -0.3880 -0.2039 -0.3194
 7867SOL    HW135060   1.365   1.011   8.705  0.6817  1.2343 -0.4470
 7867SOL    HW235061   1.223   1.045   8.733 -0.8430 -0.4618 -0.8800
 7868SOL     OW35062   2.806   3.857   3.719  0.0818 -0.0265 -0.3077
 7868SOL    HW135063   2.851   3.845   3.803 -0.5100 -1.2337 -0.1663
 7868SOL    HW235064   2.842   3.941   3.688 -1.2301  0.8526  0.5610
 7869SOL     OW35065   0.633   3.912   2.123  0.2279 -0.3977 -0.0005
 7869SOL    HW135066   0.551   3.957   2.143  0.0241 -1.7891  2.2401
 7869SOL    HW235067   0.617   3.871   2.037 -0.6770 -0.5716  0.2549
 7870SOL     OW35068   2.345   2.124   1.703  0.2887  0.3156 -0.0621
 7870SOL    HW135069   2.408   2.093   1.639  1.6537  1.9412  0.4881
 7870SOL    HW235070   2.379   2.205   1.741 -1.6869  0.1282  2.1020
 7871SOL     OW35071   0.791   2.962  15.249 -0.4852  0.3132  0.3733
 7871SOL    HW135072   0.860   2.980  15.312  0.2082 -0.0483 -0.2929
 7871SOL    HW235073   0.838   2.942  15.168  0.2266  0.0951  0.8495
 7872SOL     OW35074   0.667   1.340   8.318 -0.1053 -0.5688 -0.1069
 7872SOL    HW135075   0.618   1.344   8.400 -0.5833  1.0885 -0.4681
 7872SOL    HW235076   0.611   1.302   8.251  0.0212 -0.0133 -0.5304
 7873SOL     OW35077   2.423   2.519   7.686  0.5238  0.2857 -0.0719
 7873SOL    HW135078   2.356   2.473   7.737  1.4977  0.1237  1.0573
 7873SOL    HW235079   2.470   2.565   7.755  0.2306  0.8528 -0.2454
 7874SOL     OW35080   0.292   1.618   7.122 -0.0275  0.1530  0.0484
 7874SOL    HW135081   0.356   1.566   7.168 -1.9295 -1.5397  0.7813
 7874SOL    HW235082   0.330   1.703   7.145 -2.6112  1.2310  0.3808
 7875SOL     OW35083   4.006   1.177   7.199  0.3229 -0.5559 -0.4746
 7875SOL    HW135084   3.933   1.167   7.260  0.4051 -1.0429 -0.4544
 7875SOL    HW235085   4.051   1.095   7.219  1.7796 -0.0017 -1.4752
 7876SOL     OW35086   3.339   3.743   8.979 -0.4802  0.4372  0.0363
 7876SOL    HW135087   3.268   3.679   8.980 -0.7178  0.7018 -0.0074
 7876SOL    HW235088   3.321   3.786   8.896  0.0665  2.4445  0.9687
 7877SOL     OW35089   0.459   2.854   4.811 -0.2203 -0.3730  0.0252
 7877SOL    HW135090   0.408   2.895   4.741 -1.4107  0.4998  1.4085
 7877SOL    HW235091   0.513   2.931   4.830  0.3965 -0.8827  0.3266
 7878SOL     OW35092   0.472   3.565  12.839 -0.7259  0.7752 -0.2250
 7878SOL    HW135093   0.441   3.484  12.878 -2.5065  1.9550  0.8117
 7878SOL    HW235094   0.503   3.615  12.914  0.1591 -0.7795  0.4247
 7879SOL     OW35095   3.896   3.789   3.143 -0.3765  1.0543 -0.0569
 7879SOL    HW135096   3.900   3.760   3.234  0.6620  1.9439  0.1807
 7879SOL    HW235097   3.973   3.845   3.141  0.0417  0.5846  2.9614
 7880SOL     OW35098   1.900   3.154   7.271  0.2391 -0.0700  0.1446
 7880SOL    HW135099   1.931   3.129   7.183 -1.1388 -1.2897  0.0127
 7880SOL    HW235100   1.967   3.112   7.325  0.3292 -0.8292 -0.5470
 7881SOL     OW35101   4.695   0.381   2.401  0.5229 -0.1872 -0.5488
 7881SOL    HW135102   4.666   0.300   2.442 -2.3964  0.3170 -1.6214
 7881SOL    HW235103   0.002   0.357   2.313 -0.0087 -1.8803 -0.2571
 7882SOL     OW35104   0.957   0.361   2.562 -0.2637 -0.6081  0.6194
 7882SOL    HW135105   1.022   0.386   2.497 -0.2265  0.0892  0.9306
 7882SOL    HW235106   1.007   0.334   2.639 -0.5594 -0.2413  0.9445
 7883SOL     OW35107   2.864   1.872   8.237  0.1208  0.0630  0.3540
 7883SOL    HW135108   2.817   1.923   8.303  0.4411  0.0930  0.5613
 7883SOL    HW235109   2.949   1.867   8.281 -0.3556  0.0107  1.2699
 7884SOL     OW35110   0.507   2.952   2.949 -0.4644 -0.2386  0.3758
 7884SOL    HW135111   0.441   3.015   2.979 -0.1526  1.0108 -1.5821
 7884SOL    HW235112   0.571   2.949   3.020 -2.5414 -0.1123  2.2627
 7885SOL     OW35113   3.599   0.343   8.894  1.0368  0.2874 -0.2675
 7885SOL    HW135114   3.633   0.310   8.811  0.7010  0.3426 -0.4272
 7885SOL    HW235115   3.676   0.374   8.941 -1.3820  2.5934  2.2028
 7886SOL     OW35116   1.166   3.655   0.468 -0.4908  0.0448  0.0918
 7886SOL    HW135117   1.239   3.717   0.473 -1.7119  1.5761 -1.0226
 7886SOL    HW235118   1.095   3.712   0.439  1.7695  1.9835 -1.6600
 7887SOL     OW35119   3.711   2.643   7.884 -0.8215 -0.3361 -0.4058
 7887SOL    HW135120   3.777   2.659   7.952 -2.1430 -1.3828  1.1084
 7887SOL    HW235121   3.769   2.636   7.807 -0.1857  1.5327 -0.0931
 7888SOL     OW35122   3.552   2.073  10.705 -0.0211 -0.2614  0.1581
 7888SOL    HW135123   3.627   2.026  10.740 -0.0996  2.5025  4.0415
 7888SOL    HW235124   3.487   2.036  10.764  0.4441 -1.9653 -0.4046
 7889SOL     OW35125   3.178   2.862  15.853 -0.4255  0.1095  0.6623
 7889SOL    HW135126   3.104   2.848  15.912  0.9662  0.9094  2.5745
 7889SOL    HW235127   3.136   2.900  15.776 -2.2339 -0.8119  1.1905
 7890SOL     OW35128   3.684   0.349   6.004  0.1036 -0.3078  0.1912
 7890SOL    HW135129   3.681   0.253   5.993 -2.4779 -0.1438 -0.5236
 7890SOL    HW235130   3.757   0.376   5.949 -1.1586  1.0333 -0.8154
 7891SOL     OW35131   0.330   2.460  17.504 -0.4013 -0.2833  0.0638
 7891SOL    HW135132   0.387   2.537  17.504  0.5254 -0.9693 -0.4718
 7891SOL    HW235133   0.391   2.386  17.509 -0.1653 -0.0529  0.7264
 7892SOL     OW35134   2.553   0.216  15.441 -0.0080 -0.4933  0.3129
 7892SOL    HW135135   2.579   0.217  15.348 -0.5740  1.2727  0.1780
 7892SOL    HW235136   2.627   0.268  15.472  2.0797 -2.0005 -2.1769
 7893SOL     OW35137   0.400   0.543  16.470 -0.1887 -0.3622 -0.4962
 7893SOL    HW135138   0.421   0.603  16.398  1.8565  0.4191  0.7315
 7893SOL    HW235139   0.319   0.502  16.440 -1.9292  1.9485  1.0659
 7894SOL     OW35140   0.570   2.499   2.385  0.1019 -0.1065 -0.0980
 7894SOL    HW135141   0.509   2.557   2.431  0.7072 -1.1075  1.9429
 7894SOL    HW235142   0.656   2.527   2.418 -1.0198 -0.6119  3.1880
 7895SOL     OW35143   0.589   1.067   7.827  0.0866  0.1909 -0.0437
 7895SOL    HW135144   0.547   0.982   7.812 -0.3622  0.8302 -2.4271
 7895SOL    HW235145   0.661   1.037   7.883 -1.4172 -2.1214  0.6663
 7896SOL     OW35146   1.989   4.115   4.012  0.4623  0.1442 -0.2222
 7896SOL    HW135147   1.921   4.056   3.980 -0.3749  0.1962  1.4883
 7896SOL    HW235148   2.058   4.087   3.952  1.2453  1.2346  0.1740
 7897SOL     OW35149   3.208   2.503   0.457  0.3601 -0.5082  0.0322
 7897SOL    HW135150   3.253   2.520   0.540  2.1324  0.1042 -1.0568
 7897SOL    HW235151   3.265   2.442   0.412 -1.2198 -1.5131 -0.6076
 7898SOL     OW35152   3.601   0.850   5.140  0.1730  0.5714 -0.0521
 7898SOL    HW135153   3.510   0.867   5.163 -0.1422 -0.9958 -0.1840
 7898SOL    HW235154   3.626   0.781   5.201  1.2245 -0.2229 -1.3863
 7899SOL     OW35155   2.598   2.499  10.826  0.1992  0.6793 -0.4828
 7899SOL    HW135156   2.655   2.448  10.767  0.6836  0.4968  0.1402
 7899SOL    HW235157   2.618   2.588  10.799  1.8410  0.5336  0.2186
 7900SOL     OW35158   4.348   2.039   5.121  0.0657  0.0054  0.4004
 7900SOL    HW135159   4.301   2.058   5.040  2.0246  0.0387 -0.7434
 7900SOL    HW235160   4.432   2.003   5.090 -0.1545 -0.5037  0.4031
 7901SOL     OW35161   3.549   1.179   7.949 -0.4446 -0.0907 -0.1279
 7901SOL    HW135162   3.486   1.198   8.018 -1.0034  1.1002 -0.9764
 7901SOL    HW235163   3.519   1.228   7.872  0.1582  1.4947  0.6641
 7902SOL     OW35164   3.491   3.411   3.715  0.3518 -0.3323  0.1521
 7902SOL    HW135165   3.526   3.400   3.627 -0.0206 -0.5778  0.0347
 7902SOL    HW235166   3.423   3.474   3.692  1.0413  1.2181  2.3344
 7903SOL     OW35167   0.924   0.391   0.613  0.0417 -0.1467 -0.0678
 7903SOL    HW135168   0.893   0.427   0.529  2.3696 -0.6346 -1.1537
 7903SOL    HW235169   0.853   0.334   0.641 -1.1649 -0.0081 -2.8161
 7904SOL     OW35170   0.845   2.548   2.383  0.3112  0.2146 -0.0771
 7904SOL    HW135171   0.920   2.520   2.435  1.5320  0.7869 -1.5402
 7904SOL    HW235172   0.884   2.539   2.296 -1.4171  1.6791 -1.0091
 7905SOL     OW35173   2.073   1.360  10.158 -0.7899  0.2646  0.3904
 7905SOL    HW135174   1.986   1.391  10.134 -0.8660  0.2091  0.5969
 7905SOL    HW235175   2.115   1.377  10.074 -0.2053 -0.7923  0.4784
 7906SOL     OW35176   4.250   1.353   2.270  0.5652  0.3041 -0.5929
 7906SOL    HW135177   4.255   1.368   2.364  0.2817 -0.5421 -0.4429
 7906SOL    HW235178   4.324   1.404   2.236  1.4316 -0.3735  0.2919
 7907SOL     OW35179   1.424   0.965   8.202  0.7353  0.3155  0.0825
 7907SOL    HW135180   1.365   0.985   8.275  0.3823 -0.5526  0.0285
 7907SOL    HW235181   1.408   1.018   8.124 -0.6093  0.2069  0.2897
 7908SOL     OW35182   0.359   2.755  16.906  0.1150 -0.3028  0.1163
 7908SOL    HW135183   0.420   2.753  16.980 -0.3664  0.7269  0.5332
 7908SOL    HW235184   0.303   2.823  16.943  1.6644  0.9296  0.1928
 7909SOL     OW35185   2.558   2.574  11.109 -0.3312  0.1344 -0.4538
 7909SOL    HW135186   2.633   2.542  11.059  0.6670  2.5430 -0.4926
 7909SOL    HW235187   2.491   2.510  11.085  0.6035 -1.4629  1.2491
 7910SOL     OW35188   2.209   3.229   6.213  0.4243 -0.3006  0.0075
 7910SOL    HW135189   2.152   3.297   6.176  0.6871 -1.1670 -2.0341
 7910SOL    HW235190   2.173   3.158   6.159 -0.4896 -0.0911  0.3387
 7911SOL     OW35191   1.438   4.434   3.326 -0.4254 -0.2174 -0.6467
 7911SOL    HW135192   1.428   4.499   3.256 -0.6702  1.7223  1.2153
 7911SOL    HW235193   1.525   4.397   3.314  0.0446  0.8321 -0.4323
 7912SOL     OW35194   3.890   4.256  16.191  0.4260  0.1761  0.0295
 7912SOL    HW135195   3.964   4.239  16.250  1.2244 -0.2750 -1.0925
 7912SOL    HW235196   3.943   4.297  16.123 -2.5622 -0.5298 -2.6945
 7913SOL     OW35197   2.123   4.436   3.059 -0.2990 -0.2296 -0.2508
 7913SOL    HW135198   2.034   4.468   3.072 -0.2150 -0.8784  1.7730
 7913SOL    HW235199   2.174   4.513   3.083  1.0510 -1.1219 -0.2616
 7914SOL     OW35200   4.437   2.714   3.790  0.2598  0.0776 -0.3093
 7914SOL    HW135201   4.440   2.789   3.731 -1.9934 -1.0904 -1.8928
 7914SOL    HW235202   4.352   2.674   3.773 -0.0595  0.7525 -0.2893
 7915SOL     OW35203   1.664   0.799  15.801 -0.3536 -0.3961 -0.5173
 7915SOL    HW135204   1.637   0.806  15.709  1.2257  0.4419 -0.9313
 7915SOL    HW235205   1.760   0.792  15.795 -0.5124 -1.3868 -1.9963
 7916SOL     OW35206   3.436   0.722   5.433 -0.4938  0.8380  0.9536
 7916SOL    HW135207   3.467   0.633   5.418 -1.1994  1.2385 -2.9447
 7916SOL    HW235208   3.364   0.697   5.491  0.4884  0.9306  2.2059
 7917SOL     OW35209   3.573   3.563   8.883 -0.0649 -0.3815  0.3821
 7917SOL    HW135210   3.642   3.615   8.842 -0.6478 -0.8558 -1.1826
 7917SOL    HW235211   3.510   3.632   8.903  0.3437  0.2431 -0.4870
 7918SOL     OW35212   4.693   2.163   2.445  0.2418  0.0791  0.4749
 7918SOL    HW135213   4.607   2.150   2.406 -0.0415 -0.6117  1.3549
 7918SOL    HW235214   0.019   2.084   2.421  1.0283  1.0131 -1.0160
 7919SOL     OW35215   2.055   2.835   7.736  0.2085 -0.2078  0.9162
 7919SOL    HW135216   2.021   2.750   7.707 -1.5496  0.3879  1.1946
 7919SOL    HW235217   2.136   2.822   7.687 -0.0125  0.0778  0.4780
 7920SOL     OW35218   0.225   0.597  10.664 -0.0815  0.0960 -0.4495
 7920SOL    HW135219   0.287   0.543  10.615  1.4362  0.4385  1.0864
 7920SOL    HW235220   0.281   0.613  10.740 -3.0525  2.3433  1.2658
 7921SOL     OW35221   2.084   1.333  13.631  0.7167 -0.0411  0.1968
 7921SOL    HW135222   2.053   1.383  13.556 -1.6627 -2.3408 -0.3296
 7921SOL    HW235223   2.013   1.348  13.694  1.1854  0.4867  0.6027
 7922SOL     OW35224   3.776   2.497   6.388 -0.3213  0.9108  0.0635
 7922SOL    HW135225   3.767   2.541   6.303 -0.5311  2.7838  1.0461
 7922SOL    HW235226   3.821   2.420   6.355 -0.9027 -1.0985  3.8790
 7923SOL     OW35227   4.594   2.772   7.311 -0.1297 -0.5499  0.4267
 7923SOL    HW135228   4.662   2.840   7.313  0.5207 -1.1931  0.2812
 7923SOL    HW235229   4.652   2.695   7.309  1.4216  0.6638 -1.3707
 7924SOL     OW35230   1.967   3.868  14.853 -0.2416 -0.2544  0.3404
 7924SOL    HW135231   2.004   3.955  14.840  2.3957 -1.3882  0.3671
 7924SOL    HW235232   1.884   3.888  14.895 -0.5249  0.6794 -0.6517
 7925SOL     OW35233   0.944   3.739  12.245  0.1855 -0.2530 -0.5827
 7925SOL    HW135234   1.027   3.773  12.212 -0.9489  2.2966 -0.7417
 7925SOL    HW235235   0.939   3.792  12.324 -1.2541  1.5699 -1.8888
 7926SOL     OW35236   2.020   0.096   4.025  0.0159 -0.2483 -0.2983
 7926SOL    HW135237   1.949   0.156   4.005  0.5649  0.0977 -1.2177
 7926SOL    HW235238   2.043   0.060   3.939  0.4794  0.0823 -0.3131
 7927SOL     OW35239   2.627   2.281   4.363  0.0119  0.2671  0.3859
 7927SOL    HW135240   2.713   2.302   4.326 -0.0672  0.7389  0.4727
 7927SOL    HW235241   2.615   2.191   4.334  0.5045  0.1729  0.4662
 7928SOL     OW35242   1.483   0.075   6.616 -0.0456  0.4837 -0.2388
 7928SOL    HW135243   1.557   0.128   6.646  0.5146 -1.2276  1.3310
 7928SOL    HW235244   1.493   0.069   6.521  3.5663 -0.9215  0.2414
 7929SOL     OW35245   2.202   3.342   1.530 -0.3170 -0.0591 -0.2560
 7929SOL    HW135246   2.115   3.306   1.512  0.9634 -1.9700 -2.6930
 7929SOL    HW235247   2.187   3.404   1.601  1.2360  0.8394 -0.7201
 7930SOL     OW35248   3.614   1.227   5.025  0.1277 -0.1080 -0.2235
 7930SOL    HW135249   3.615   1.143   4.977 -0.9003 -0.9731  1.2631
 7930SOL    HW235250   3.656   1.206   5.108 -0.6000 -0.0262  0.1682
 7931SOL     OW35251   4.172   2.174   1.308  0.0993 -0.3960  0.0857
 7931SOL    HW135252   4.209   2.091   1.337 -1.1572 -1.0552 -0.2221
 7931SOL    HW235253   4.224   2.202   1.232 -0.3234 -0.3277 -0.1728
 7932SOL     OW35254   3.560   3.694  14.100 -0.7989 -0.0804  0.4115
 7932SOL    HW135255   3.584   3.615  14.148 -1.6692 -1.2243 -1.0264
 7932SOL    HW235256   3.486   3.729  14.150 -0.7845 -1.8200  1.6437
 7933SOL     OW35257   0.483   1.635   3.633 -0.0430  0.0652  0.3589
 7933SOL    HW135258   0.404   1.609   3.586 -0.7501  1.1172  0.9634
 7933SOL    HW235259   0.446   1.677   3.710  0.5828  2.5806 -0.7096
 7934SOL     OW35260   1.667   0.867  10.409 -0.4074  0.2763  0.3188
 7934SOL    HW135261   1.580   0.881  10.446  0.8571  2.4528  2.4340
 7934SOL    HW235262   1.677   0.941  10.349  0.5426  2.0887  2.7224
 7935SOL     OW35263   3.179   0.368   2.161 -0.2892  0.3207 -0.3532
 7935SOL    HW135264   3.231   0.348   2.084 -0.7424 -1.7264 -0.1271
 7935SOL    HW235265   3.091   0.365   2.124 -0.4288  1.4463 -0.1212
 7936SOL     OW35266   1.865   4.535   2.192 -0.6755  0.0288 -0.1799
 7936SOL    HW135267   1.947   4.576   2.220 -0.1407 -1.2028  0.0712
 7936SOL    HW235268   1.887   4.442   2.202 -0.1289  0.1154 -0.5272
 7937SOL     OW35269   1.349   4.198   4.034  0.5732 -0.3137 -0.2662
 7937SOL    HW135270   1.366   4.162   3.947 -0.6544 -1.0499 -0.2059
 7937SOL    HW235271   1.356   4.293   4.027 -2.7407 -0.0079  0.2912
 7938SOL     OW35272   0.343   2.988   8.628 -0.1879  0.0803  0.0167
 7938SOL    HW135273   0.345   2.965   8.535  0.2258  0.1796 -0.0009
 7938SOL    HW235274   0.308   2.914   8.678 -1.9947  0.4410 -0.7309
 7939SOL     OW35275   2.595   4.716  11.357  0.0852 -0.2714 -0.1103
 7939SOL    HW135276   2.669   0.055  11.360 -1.7480  1.9886 -1.1107
 7939SOL    HW235277   2.593   4.702  11.263 -1.3070  0.3527 -0.1662
 7940SOL     OW35278   1.133   0.363   9.182 -0.5623  0.3174 -0.1149
 7940SOL    HW135279   1.085   0.444   9.194 -0.2543  0.2828  1.2999
 7940SOL    HW235280   1.127   0.351   9.087 -0.4562 -0.5591 -0.0128
 7941SOL     OW35281   0.815   1.298   7.002 -0.5712  0.6104  0.1203
 7941SOL    HW135282   0.871   1.371   7.024 -1.0348  1.3424 -1.1279
 7941SOL    HW235283   0.845   1.226   7.058 -0.8636 -0.9724 -1.7482
 7942SOL     OW35284   0.973   2.148   4.055 -0.3564  0.2834 -0.6080
 7942SOL    HW135285   0.923   2.097   3.991 -2.1115 -1.0368  1.8433
 7942SOL    HW235286   1.005   2.076   4.111  0.1941  1.4127  0.5272
 7943SOL     OW35287   2.891   3.308  15.580 -0.5831 -0.0127 -0.5196
 7943SOL    HW135288   2.963   3.360  15.616 -0.4502 -1.2026  0.9240
 7943SOL    HW235289   2.862   3.275  15.665  1.4951  0.3350  0.3160
 7944SOL     OW35290   0.949   1.030   6.454  0.2434  0.0170 -0.1102
 7944SOL    HW135291   0.884   1.015   6.385 -2.5129  0.5618  2.3487
 7944SOL    HW235292   1.028   1.015   6.403  1.8401  0.8996  2.0900
 7945SOL     OW35293   4.392   4.427   6.189  0.3403 -0.0048 -0.8092
 7945SOL    HW135294   4.430   4.343   6.164  0.5453  0.0734 -0.7585
 7945SOL    HW235295   4.354   4.412   6.275  2.2373 -0.7248 -0.1082
 7946SOL     OW35296   3.858   0.004   5.057  0.5445  0.3045  0.2783
 7946SOL    HW135297   3.816   4.644   5.084  0.4413  0.1432 -0.3830
 7946SOL    HW235298   3.789   0.070   5.064 -1.0973 -1.4257  0.1143
 7947SOL     OW35299   0.837   0.046   1.564  0.2435 -0.0935  0.0618
 7947SOL    HW135300   0.927   0.078   1.570  1.3128 -2.9007 -0.7838
 7947SOL    HW235301   0.786   0.121   1.594 -0.4858  0.1150 -1.7161
 7948SOL     OW35302   1.102   2.215  11.640  0.0151  0.7532 -0.1583
 7948SOL    HW135303   1.086   2.207  11.546  1.1166  3.1750 -0.5742
 7948SOL    HW235304   1.194   2.239  11.639  0.4821 -1.0757 -0.2316
 7949SOL     OW35305   0.138   0.286   2.225  0.2086 -0.1732 -0.2508
 7949SOL    HW135306   0.199   0.253   2.290  0.3137  0.9562  0.2279
 7949SOL    HW235307   0.179   0.369   2.201  1.8432 -0.8739  0.1595
 7950SOL     OW35308   3.512   2.369  15.056  0.2023 -0.3958 -0.3819
 7950SOL    HW135309   3.559   2.292  15.025  0.9519  0.0670 -0.4081
 7950SOL    HW235310   3.429   2.327  15.079 -0.2313  0.4983 -0.3234
 7951SOL     OW35311   0.523   1.433  11.720 -0.1389 -0.0814 -0.2808
 7951SOL    HW135312   0.447   1.489  11.740 -0.2011 -0.6180  0.9599
 7951SOL    HW235313   0.578   1.500  11.680  1.2872 -2.5931 -2.4558
 7952SOL     OW35314   3.269   0.517   6.762 -0.3812 -0.3983  0.2529
 7952SOL    HW135315   3.247   0.601   6.804  1.4820 -0.1423  0.6984
 7952SOL    HW235316   3.232   0.450   6.821  2.0795 -1.5128  0.5053
 7953SOL     OW35317   4.141   3.264  12.709 -0.0024 -0.2322  0.1080
 7953SOL    HW135318   4.181   3.179  12.727 -0.8831 -1.0997 -1.9809
 7953SOL    HW235319   4.128   3.246  12.616 -0.0447  1.7381 -0.2639
 7954SOL     OW35320   0.820   1.579   5.350  0.3952  0.5350  0.4162
 7954SOL    HW135321   0.806   1.563   5.443  1.0551 -3.4697 -0.1708
 7954SOL    HW235322   0.783   1.666   5.339 -0.6946 -0.0166 -0.3561
 7955SOL     OW35323   2.544   2.012  13.140 -0.1543  0.3450  0.2602
 7955SOL    HW135324   2.471   1.963  13.178  1.0524 -1.6680 -0.0262
 7955SOL    HW235325   2.529   2.001  13.046  0.1041 -2.0601  0.5015
 7956SOL     OW35326   3.263   4.295   7.430 -0.3350 -0.0042  0.4022
 7956SOL    HW135327   3.200   4.286   7.502  0.3071 -1.5168  0.7802
 7956SOL    HW235328   3.261   4.209   7.387  0.2748 -0.6282  1.6183
 7957SOL     OW35329   1.213   0.060   3.953  0.6548 -0.1833 -0.1929
 7957SOL    HW135330   1.285   0.081   4.012 -1.2953  1.1294  1.7172
 7957SOL    HW235331   1.207   0.144   3.908 -0.2732  0.0940  0.4359
 7958SOL     OW35332   3.891   1.405   5.136 -0.5374 -0.4320  0.1226
 7958SOL    HW135333   3.977   1.396   5.096 -1.0665 -0.6109 -0.9502
 7958SOL    HW235334   3.858   1.315   5.143 -2.9115  0.3838 -0.3103
 7959SOL     OW35335   0.848   4.686   2.374 -0.2252 -0.5949  0.0614
 7959SOL    HW135336   0.843   4.646   2.461  0.3465  1.5798  1.0954
 7959SOL    HW235337   0.943   4.691   2.364 -0.2042 -1.7380 -0.3820
 7960SOL     OW35338   4.594   2.992  10.166 -0.2566  0.3220  0.7529
 7960SOL    HW135339   4.592   2.916  10.225  1.8121  0.3852  0.8833
 7960SOL    HW235340   4.660   3.050  10.203  1.8023 -0.8952 -1.0703
 7961SOL     OW35341   0.645   0.147   6.799 -0.2092 -0.1175  0.2097
 7961SOL    HW135342   0.739   0.162   6.811 -0.1982  0.0702 -0.1033
 7961SOL    HW235343   0.635   0.078   6.864 -0.1547 -0.8529 -0.5719
 7962SOL     OW35344   1.140   2.463   4.464 -0.4039 -0.0582 -0.2747
 7962SOL    HW135345   1.116   2.432   4.377  0.2674 -0.8074 -0.1836
 7962SOL    HW235346   1.202   2.398   4.495 -1.1274 -0.4993  0.2628
 7963SOL     OW35347   1.071   1.602   2.188  0.3376 -0.5203  0.1714
 7963SOL    HW135348   1.106   1.560   2.109  0.3215 -2.8816  1.4414
 7963SOL    HW235349   0.980   1.573   2.196 -0.0823  0.3723 -1.4578
 7964SOL     OW35350   2.410   1.152   3.455 -0.1154  0.2280  0.2522
 7964SOL    HW135351   2.333   1.200   3.484  0.1795 -0.3275  1.9633
 7964SOL    HW235352   2.459   1.139   3.536  1.8811 -1.1540 -1.1657
 7965SOL     OW35353   3.706   2.314   5.760  0.3631 -0.3543  0.2309
 7965SOL    HW135354   3.692   2.277   5.848  1.0800 -0.1393  0.4378
 7965SOL    HW235355   3.690   2.407   5.778 -0.1369  0.4697 -4.5012
 7966SOL     OW35356   2.138   2.340   9.658 -0.5022  0.0399 -0.4748
 7966SOL    HW135357   2.095   2.420   9.627 -1.0395  0.0320  0.2457
 7966SOL    HW235358   2.218   2.343   9.607  0.4883  0.1341  1.1009
 7967SOL     OW35359   1.208   0.711   8.544 -0.0872 -0.5960  0.2179
 7967SOL    HW135360   1.225   0.676   8.632  0.4437 -1.7235 -0.3347
 7967SOL    HW235361   1.272   0.657   8.499 -1.1685 -0.8871 -0.9789
 7968SOL     OW35362   3.338   0.343   0.212 -0.3947 -0.2436 -0.1702
 7968SOL    HW135363   3.308   0.342   0.303  1.2916 -1.4309  0.3741
 7968SOL    HW235364   3.264   0.297   0.173 -0.6246 -0.7927  0.9049
 7969SOL     OW35365   2.448   2.242   7.996  0.0885 -0.0156  0.1187
 7969SOL    HW135366   2.489   2.327   8.010  3.4046 -1.5581 -0.3641
 7969SOL    HW235367   2.495   2.185   8.057 -0.5592  0.4401  1.0437
 7970SOL     OW35368   0.462   4.479   5.231  0.0897  0.4344  1.0722
 7970SOL    HW135369   0.408   4.498   5.308 -1.3880 -2.6544  0.8026
 7970SOL    HW235370   0.390   4.479   5.168  0.2640 -0.0344  0.8769
 7971SOL     OW35371   3.631   2.190   7.058  0.1759 -0.4488 -0.3231
 7971SOL    HW135372   3.651   2.210   7.150  2.0464 -0.1601 -0.8027
 7971SOL    HW235373   3.622   2.278   7.021  0.0284 -0.8334 -1.1859
 7972SOL     OW35374   4.445   0.437   3.559 -0.2900  0.3948  0.5637
 7972SOL    HW135375   4.436   0.470   3.470  0.1015 -0.5564  0.1774
 7972SOL    HW235376   4.538   0.454   3.575  0.3731 -1.8585 -0.9681
 7973SOL     OW35377   1.758   2.304  16.162 -0.0603  0.0241 -0.1222
 7973SOL    HW135378   1.840   2.282  16.205 -0.6852  1.1743  1.6494
 7973SOL    HW235379   1.699   2.262  16.224 -1.1264 -2.0969 -2.5776
 7974SOL     OW35380   3.233   0.972   6.137  0.2386 -0.4524  0.0829
 7974SOL    HW135381   3.165   1.003   6.077  2.2980  3.0501 -0.4094
 7974SOL    HW235382   3.245   1.048   6.194  1.6989 -0.7990  0.2384
 7975SOL     OW35383   2.399   1.832   5.771  0.1155  0.4173  0.7749
 7975SOL    HW135384   2.482   1.858   5.810  0.2426  1.9434 -0.5242
 7975SOL    HW235385   2.429   1.774   5.700 -1.4940  2.2256 -1.3946
 7976SOL     OW35386   2.154   1.488   3.728 -0.5289  0.0358  0.5499
 7976SOL    HW135387   2.180   1.538   3.651  0.4196 -1.0238  0.1646
 7976SOL    HW235388   2.203   1.408   3.706 -1.9207 -0.3357 -1.2337
 7977SOL     OW35389   0.256   2.918  12.970 -0.5465  0.0176 -0.5723
 7977SOL    HW135390   0.216   2.905  12.884  0.3347  1.0165 -1.1302
 7977SOL    HW235391   0.245   3.010  12.995 -1.1292 -0.5284  1.1497
 7978SOL     OW35392   3.831   1.887   4.167  0.2624 -0.1060  0.2649
 7978SOL    HW135393   3.849   1.973   4.128 -0.8058 -0.4645 -1.0281
 7978SOL    HW235394   3.828   1.923   4.255 -1.6772 -0.7973  0.4852
 7979SOL     OW35395   2.148   1.275   7.979 -0.2219  0.8150 -0.0646
 7979SOL    HW135396   2.177   1.336   8.046  0.5225 -0.3909  0.7129
 7979SOL    HW235397   2.096   1.342   7.936 -0.5785 -0.6945 -2.0117
 7980SOL     OW35398   4.470   4.709   2.932  0.0835 -0.0699  0.3388
 7980SOL    HW135399   4.517   0.026   3.007  0.7661 -2.0778  0.9350
 7980SOL    HW235400   4.380   0.008   2.956 -0.3927  1.1126 -2.4579
 7981SOL     OW35401   1.008   3.590   6.694  0.4385 -0.1219 -0.5489
 7981SOL    HW135402   1.062   3.647   6.640  3.5431 -2.5015  0.0132
 7981SOL    HW235403   0.991   3.649   6.767 -1.0616 -1.2936  0.0492
 7982SOL     OW35404   1.277   3.853   5.725 -0.3688 -0.4273  0.4348
 7982SOL    HW135405   1.280   3.938   5.680  0.4371 -1.0966 -0.7901
 7982SOL    HW235406   1.294   3.880   5.815  0.8867 -0.4870  0.2126
 7983SOL     OW35407   1.392   0.372   9.349  0.7610 -0.4069  0.0841
 7983SOL    HW135408   1.473   0.331   9.318 -1.4318 -3.0573 -2.0996
 7983SOL    HW235409   1.362   0.414   9.269  1.0664 -1.3879 -0.5515
 7984SOL     OW35410   3.658   2.369  16.521 -0.9257 -0.2020  0.9413
 7984SOL    HW135411   3.751   2.363  16.499 -1.4592  0.4772 -1.4942
 7984SOL    HW235412   3.630   2.440  16.463  0.9557 -2.4241 -2.6390
 7985SOL     OW35413   4.511   2.592  17.556  0.2326  0.1614  0.1783
 7985SOL    HW135414   4.504   2.584  17.651  2.8176  0.5087  0.3923
 7985SOL    HW235415   4.599   2.560  17.537  0.1890  0.9405 -1.3057
 7986SOL     OW35416   3.594   3.111   2.843 -0.0752 -0.0113 -0.3616
 7986SOL    HW135417   3.548   3.167   2.905 -0.4411  0.9366 -1.4795
 7986SOL    HW235418   3.685   3.119   2.872 -0.8642 -0.7132  2.2981
 7987SOL     OW35419   3.380   1.948  10.875 -0.2132 -0.4450 -0.5213
 7987SOL    HW135420   3.318   2.019  10.886  2.1989  1.6095 -0.2070
 7987SOL    HW235421   3.383   1.895  10.954 -2.3185  1.0201  0.5177
 7988SOL     OW35422   0.427   3.163   6.719 -0.3884  0.2995  0.3148
 7988SOL    HW135423   0.369   3.136   6.789 -0.4970 -0.1342  0.0624
 7988SOL    HW235424   0.453   3.078   6.682 -0.8878  0.4893 -0.4772
 7989SOL     OW35425   0.642   4.646   7.864 -0.0101  0.2354 -0.0155
 7989SOL    HW135426   0.552   4.619   7.882 -1.0965  1.7301 -3.2418
 7989SOL    HW235427   0.692   4.607   7.936 -0.9525  2.1338  1.6813
 7990SOL     OW35428   4.676   0.284   6.023 -0.0305 -0.0283 -0.3036
 7990SOL    HW135429   4.642   0.254   6.108 -0.0990 -0.8628 -0.6256
 7990SOL    HW235430   0.036   0.325   6.050 -0.2697  1.6643 -2.1748
 7991SOL     OW35431   1.686   3.993   3.432  0.2931 -0.2679 -0.1193
 7991SOL    HW135432   1.696   3.968   3.524  1.7308  0.0316 -0.1854
 7991SOL    HW235433   1.712   4.085   3.439 -1.8645  0.2789  0.5788
 7992SOL     OW35434   3.181   4.599   6.981  0.0174  0.6334 -0.2537
 7992SOL    HW135435   3.123   4.626   7.052  0.1882 -3.9770  1.6805
 7992SOL    HW235436   3.267   4.596   7.022 -0.6325  0.8751  1.1288
 7993SOL     OW35437   0.233   2.570   8.279  0.3353 -0.2497 -0.2411
 7993SOL    HW135438   0.326   2.591   8.278  0.3119 -0.1686 -0.7168
 7993SOL    HW235439   0.229   2.474   8.270 -0.6567 -0.6043  3.6248
 7994SOL     OW35440   4.317   3.320   3.284 -0.1665  0.8277  0.0711
 7994SOL    HW135441   4.281   3.389   3.339 -1.7322 -0.8667  1.1695
 7994SOL    HW235442   4.269   3.331   3.201 -0.5410 -0.0039  0.1720
 7995SOL     OW35443   4.534   2.491   3.519  0.2921 -0.1427 -0.5100
 7995SOL    HW135444   4.480   2.528   3.450  1.1597  0.4396 -0.8860
 7995SOL    HW235445   4.613   2.546   3.522  1.0312 -1.2717  0.9418
 7996SOL     OW35446   2.828   1.639  16.689 -0.7864 -0.0334  0.1111
 7996SOL    HW135447   2.733   1.631  16.678 -0.9666  0.3703  1.4021
 7996SOL    HW235448   2.849   1.675  16.603 -0.9541  1.5338  0.7240
 7997SOL     OW35449   1.106   3.101   2.090 -0.1780  0.1193 -0.2521
 7997SOL    HW135450   1.135   3.012   2.067  1.6344  0.1446  1.9843
 7997SOL    HW235451   1.172   3.136   2.149 -0.3611  1.1835 -0.6801
 7998SOL     OW35452   0.783   1.378  15.390 -0.6631 -0.2694 -0.2273
 7998SOL    HW135453   0.743   1.458  15.425  1.0739 -0.0600  1.2682
 7998SOL    HW235454   0.868   1.390  15.433 -0.7357  1.9286 -0.6938
 7999SOL     OW35455   4.234   3.643  13.012  0.0946  0.3016 -0.2729
 7999SOL    HW135456   4.328   3.634  13.020 -0.1993 -0.7048  2.0386
 7999SOL    HW235457   4.208   3.567  12.959  0.4016  0.2903 -0.4041
 8000SOL     OW35458   1.218   2.753   8.789 -0.4145 -0.0646 -0.9019
 8000SOL    HW135459   1.154   2.682   8.782 -1.6341  0.9465 -0.2135
 8000SOL    HW235460   1.199   2.795   8.705  0.9289 -0.8724 -1.5965
 8001SOL     OW35461   2.932   2.183  14.959  0.1912  0.2299  0.6591
 8001SOL    HW135462   2.880   2.171  15.039 -0.6655 -0.4015  0.0174
 8001SOL    HW235463   2.906   2.102  14.914  0.7367 -0.1893  1.0926
 8002SOL     OW35464   1.399   2.395   5.042 -0.1365  0.2613  0.0716
 8002SOL    HW135465   1.400   2.300   5.028 -0.4196  0.3986 -0.8674
 8002SOL    HW235466   1.391   2.435   4.955  1.6409 -0.9968 -0.6694
 8003SOL     OW35467   4.644   4.073   8.099  0.1868 -0.4961 -0.5217
 8003SOL    HW135468   4.657   4.126   8.178 -1.3551  0.4934 -0.9366
 8003SOL    HW235469   4.588   4.130   8.047  1.2777  1.0927  0.0540
 8004SOL     OW35470   3.747   2.115   3.553  0.2206  0.4778  0.3448
 8004SOL    HW135471   3.691   2.141   3.627 -1.0423  0.8133 -0.7216
 8004SOL    HW235472   3.737   2.020   3.556  0.5989  0.4000 -0.8552
 8005SOL     OW35473   2.498   1.386   4.303  0.1630  0.2059  0.0904
 8005SOL    HW135474   2.419   1.380   4.250  0.6858  0.4766 -0.7184
 8005SOL    HW235475   2.473   1.338   4.382  1.0405  0.3028  0.4289
 8006SOL     OW35476   0.742   2.876   3.786 -0.1997  0.2600  0.2866
 8006SOL    HW135477   0.659   2.832   3.809 -0.5725  1.2149  0.7826
 8006SOL    HW235478   0.749   2.863   3.691  0.1160 -0.2721  0.3843
 8007SOL     OW35479   4.236   2.096  12.167  0.1700  0.0408 -0.3371
 8007SOL    HW135480   4.196   2.182  12.158 -0.3958 -0.2636 -0.6734
 8007SOL    HW235481   4.162   2.042  12.194  1.2608 -0.7936  0.9552
 8008SOL     OW35482   2.636   3.042   0.100  0.7094 -0.9725 -0.4110
 8008SOL    HW135483   2.691   3.120   0.094 -0.5522 -0.1864 -1.5503
 8008SOL    HW235484   2.577   3.072   0.169  2.1489 -0.3389  0.5424
 8009SOL     OW35485   4.577   4.426   7.165  0.4328 -0.3527 -0.5241
 8009SOL    HW135486   4.486   4.456   7.156  0.3433  0.5475  3.4079
 8009SOL    HW235487   4.604   4.432   7.074 -2.0941  0.3747 -1.2313
 8010SOL     OW35488   0.779   4.642  17.134 -0.1585  0.0817 -1.1068
 8010SOL    HW135489   0.775   0.015  17.118  2.0677  0.1509 -1.1972
 8010SOL    HW235490   0.687   4.622  17.152  0.2458 -0.5079  0.3120
 8011SOL     OW35491   0.355   0.554  10.914 -0.1350 -0.1524 -0.1528
 8011SOL    HW135492   0.360   0.467  10.953  1.4006  0.0963  0.2285
 8011SOL    HW235493   0.346   0.612  10.989 -1.6352 -1.5100  0.6986
 8012SOL     OW35494   3.617   1.619  13.237 -0.0542  0.1026 -0.1563
 8012SOL    HW135495   3.689   1.608  13.175  1.5514 -1.7858  2.0142
 8012SOL    HW235496   3.626   1.711  13.264 -1.2576 -0.3714  1.8557
 8013SOL     OW35497   4.117   2.167   2.942 -0.0114  0.0008  0.4940
 8013SOL    HW135498   4.168   2.086   2.943 -1.0923 -0.6584  2.7226
 8013SOL    HW235499   4.064   2.153   2.863  1.8058  0.3325 -0.7739
 8014SOL     OW35500   1.146   2.788   5.038 -0.4009  0.0782 -0.4513
 8014SOL    HW135501   1.228   2.813   4.995 -1.2718  0.1246 -2.1078
 8014SOL    HW235502   1.140   2.848   5.112 -0.0074  0.2311 -0.5438
 8015SOL     OW35503   1.778   0.002   7.321 -0.1096  0.1376  0.1331
 8015SOL    HW135504   1.748   0.066   7.385  0.7441 -0.3926  1.0732
 8015SOL    HW235505   1.717   0.024   7.251  1.5546  0.2594 -1.2901
 8016SOL     OW35506   3.610   2.440   4.635  0.1551 -0.1660 -0.0522
 8016SOL    HW135507   3.518   2.466   4.633  0.4502  0.7235 -1.4571
 8016SOL    HW235508   3.650   2.526   4.647 -0.8869  0.0307  1.9407
 8017SOL     OW35509   2.990   4.538   3.801 -0.2484 -0.9278 -0.5918
 8017SOL    HW135510   2.901   4.504   3.790 -0.3923 -0.5488 -0.5802
 8017SOL    HW235511   3.034   4.455   3.783  2.3549  0.2099  0.5522
 8018SOL     OW35512   2.912   4.237   4.092 -0.0901 -0.6584 -0.3883
 8018SOL    HW135513   2.875   4.152   4.070 -0.2786 -1.1598  1.8421
 8018SOL    HW235514   2.997   4.226   4.049 -0.1204 -0.6190 -0.4583
 8019SOL     OW35515   2.247   2.677   4.126 -0.5620  0.4026 -0.2057
 8019SOL    HW135516   2.214   2.615   4.191  1.4798 -0.4537  0.0010
 8019SOL    HW235517   2.290   2.620   4.063  1.3088 -1.3590  2.6599
 8020SOL     OW35518   0.530   2.291   2.686  0.4166  0.1821 -0.2807
 8020SOL    HW135519   0.447   2.337   2.671 -0.7339 -1.9257 -0.3179
 8020SOL    HW235520   0.547   2.250   2.601  1.5909 -0.5684  0.3239
 8021SOL     OW35521   2.230   0.113   1.846  0.2761  0.0574  0.0928
 8021SOL    HW135522   2.196   0.202   1.860  1.7750  0.4436  1.2450
 8021SOL    HW235523   2.227   0.101   1.751  0.1141 -0.5557  0.1801
 8022SOL     OW35524   4.455   0.851   3.213  0.3374  0.0272  0.1503
 8022SOL    HW135525   4.510   0.798   3.156 -1.2072 -1.8153  0.3491
 8022SOL    HW235526   4.428   0.783   3.275 -0.2186 -0.0563 -0.1827
 8023SOL     OW35527   2.560   1.388   0.054 -0.9808 -0.3616  0.3205
 8023SOL    HW135528   2.504   1.454   0.095 -1.5781  0.4736 -1.8460
 8023SOL    HW235529   2.643   1.412   0.093 -0.3235 -1.2206 -0.5413
 8024SOL     OW35530   1.467   1.539   3.285  0.7075  0.1926  0.1516
 8024SOL    HW135531   1.539   1.482   3.257  0.5485 -0.8818  1.9281
 8024SOL    HW235532   1.395   1.483   3.311  1.1055 -0.7068 -0.6898
 8025SOL     OW35533   3.207   3.000   8.336 -0.2016  0.3128  0.2082
 8025SOL    HW135534   3.284   3.055   8.336 -0.4445  0.6523 -0.3205
 8025SOL    HW235535   3.164   3.020   8.419 -0.0614 -0.1469  0.3907
 8026SOL     OW35536   4.377   0.812   2.682 -0.3916  0.3557 -0.2699
 8026SOL    HW135537   4.347   0.747   2.619  0.5499 -0.2174 -0.1384
 8026SOL    HW235538   4.384   0.885   2.621  2.9266 -1.6221 -2.2734
 8027SOL     OW35539   2.950   1.095   5.004 -0.6650 -0.6937  0.1509
 8027SOL    HW135540   2.939   1.179   4.959  0.2925 -0.2710  0.6973
 8027SOL    HW235541   2.947   1.121   5.096  0.9841  0.8394 -0.2437
 8028SOL     OW35542   3.335   2.512   3.839  1.1459  0.1152  0.0011
 8028SOL    HW135543   3.403   2.489   3.776 -0.3563 -0.4440 -1.4310
 8028SOL    HW235544   3.269   2.443   3.832  1.2953  0.1682 -1.9216
 8029SOL     OW35545   3.616   2.362   4.323 -0.3693 -0.2955 -0.2616
 8029SOL    HW135546   3.649   2.341   4.410  1.2431 -1.4360 -1.1499
 8029SOL    HW235547   3.537   2.403   4.357 -0.2458 -0.8239  0.6729
 8030SOL     OW35548   1.364   0.472   8.929  0.6306 -0.4625 -0.3879
 8030SOL    HW135549   1.310   0.405   8.887  0.5507 -0.7327  0.1521
 8030SOL    HW235550   1.447   0.427   8.915  1.0478  0.8840 -2.3261
 8031SOL     OW35551   2.139   0.974   3.900  0.6138 -0.0899  0.1994
 8031SOL    HW135552   2.234   0.960   3.901  0.6053 -0.0875  1.0280
 8031SOL    HW235553   2.116   0.976   3.807 -0.4207  0.8050  0.4668
 8032SOL     OW35554   2.960   1.435   3.809 -0.0492  0.4967 -0.6008
 8032SOL    HW135555   2.905   1.420   3.732 -0.2811  0.7349 -0.4817
 8032SOL    HW235556   2.908   1.503   3.853  0.7990  1.1121 -0.5660
 8033SOL     OW35557   4.173   2.959   4.090 -0.2090 -0.0486  0.4348
 8033SOL    HW135558   4.133   2.923   4.170  0.3406  0.3139  0.8690
 8033SOL    HW235559   4.191   3.050   4.116  1.2563 -0.6444  1.4938
 8034SOL     OW35560   1.330   3.002   1.608 -0.5748 -0.2305 -0.1691
 8034SOL    HW135561   1.408   3.053   1.628 -0.9414  0.6797 -1.0505
 8034SOL    HW235562   1.330   3.002   1.512  1.2369  0.2968 -0.1592
 8035SOL     OW35563   0.607   3.139   7.416 -0.1426  0.0675 -0.6559
 8035SOL    HW135564   0.698   3.120   7.440 -0.2438  0.8353  0.3059
 8035SOL    HW235565   0.611   3.160   7.323  2.2119 -0.6462 -0.7182
 8036SOL     OW35566   2.755   2.430   5.561 -0.2268  0.5554  0.2773
 8036SOL    HW135567   2.812   2.354   5.550 -2.8298 -1.1465 -1.3506
 8036SOL    HW235568   2.795   2.506   5.518  2.4930 -1.5851 -0.9644
 8037SOL     OW35569   1.117   3.399   6.230  0.3895 -0.3124  0.0629
 8037SOL    HW135570   1.142   3.394   6.138  0.2465  1.7177 -0.0687
 8037SOL    HW235571   1.167   3.473   6.264  0.0571 -1.2769  2.6445
 8038SOL     OW35572   1.310   3.778  14.993  0.2219  0.1863  0.4672
 8038SOL    HW135573   1.323   3.852  14.933  1.0581 -0.2955  0.0423
 8038SOL    HW235574   1.300   3.819  15.079  0.2076 -0.5982  0.8411
 8039SOL     OW35575   4.192   2.638   3.943  0.1258 -0.0204  0.1682
 8039SOL    HW135576   4.235   2.564   3.901 -1.9654 -1.5920  0.7882
 8039SOL    HW235577   4.125   2.592   3.994 -1.1072  0.2833 -1.1671
 8040SOL     OW35578   4.242   0.847   0.712  0.2136 -0.1649  0.8810
 8040SOL    HW135579   4.254   0.813   0.624 -3.4700 -0.0973  0.3550
 8040SOL    HW235580   4.267   0.939   0.702 -1.4173  0.0525 -1.0563
 8041SOL     OW35581   4.622   4.009   3.049 -0.1385 -0.0687 -0.4944
 8041SOL    HW135582   4.599   4.097   3.078 -1.8923 -0.7786  0.2768
 8041SOL    HW235583   4.717   4.012   3.040 -0.3962  1.4224 -2.9171
 8042SOL     OW35584   4.516   1.582  14.973 -0.1900 -0.4127 -0.1889
 8042SOL    HW135585   4.609   1.580  14.948 -0.6119 -0.4894 -1.7327
 8042SOL    HW235586   4.488   1.670  14.950 -2.4642 -1.6655 -2.2334
 8043SOL     OW35587   1.376   3.698   2.850 -0.4165  0.0167  0.7506
 8043SOL    HW135588   1.412   3.610   2.862  2.4650  0.8436 -2.1367
 8043SOL    HW235589   1.445   3.758   2.825 -0.1307 -1.3013 -1.5547
 8044SOL     OW35590   1.113   3.183  10.451  0.3230 -0.5316 -0.2165
 8044SOL    HW135591   1.176   3.251  10.426  2.0845 -1.2709  2.2044
 8044SOL    HW235592   1.137   3.106  10.398 -1.3922  0.1916 -2.0453
 8045SOL     OW35593   3.691   1.815   8.962 -0.3858  0.4846 -0.5457
 8045SOL    HW135594   3.713   1.790   9.051  0.8572 -0.7376 -1.1913
 8045SOL    HW235595   3.737   1.746   8.914  2.8302  1.7093  0.7968
 8046SOL     OW35596   3.612   4.355   7.994  0.2683  0.4812  0.2399
 8046SOL    HW135597   3.567   4.413   8.055  1.5920  0.8123  0.8976
 8046SOL    HW235598   3.663   4.415   7.939  0.7377 -2.9356 -3.0597
 8047SOL     OW35599   1.257   1.917  16.791 -0.8588 -0.3977  0.2778
 8047SOL    HW135600   1.288   1.897  16.702 -0.2700  1.1787  0.1452
 8047SOL    HW235601   1.195   1.980  16.756  2.7659  3.4237  0.8308
 8048SOL     OW35602   2.689   0.721   5.178 -0.2468 -1.1622  0.1399
 8048SOL    HW135603   2.741   0.694   5.103  1.0707  1.8886 -0.0192
 8048SOL    HW235604   2.670   0.634   5.215  0.5774 -0.1351  2.9340
 8049SOL     OW35605   1.318   0.851   1.181 -0.4446  0.0537 -0.6052
 8049SOL    HW135606   1.321   0.755   1.187 -2.3236  0.0575  0.4127
 8049SOL    HW235607   1.254   0.875   1.114 -2.8890 -0.6507  1.4752
 8050SOL     OW35608   1.530   4.067   4.278 -0.1818  0.0592  0.1261
 8050SOL    HW135609   1.452   4.041   4.229 -0.0324 -0.1653  0.0054
 8050SOL    HW235610   1.596   4.000   4.261 -1.1811 -1.2187  1.2306
 8051SOL     OW35611   0.195   2.514   8.807 -0.2660 -0.2638 -0.1402
 8051SOL    HW135612   0.281   2.484   8.776 -0.5691 -1.1223 -0.1442
 8051SOL    HW235613   0.200   2.466   8.889  1.1165 -1.6458 -1.0193
 8052SOL     OW35614   0.492   2.582   8.187 -0.6152  0.1930  0.1169
 8052SOL    HW135615   0.467   2.557   8.098  2.5683  1.2705 -1.0860
 8052SOL    HW235616   0.506   2.498   8.229 -1.2170 -1.0930 -2.2738
 8053SOL     OW35617   1.102   0.080   3.650  0.3640 -0.3009  0.3943
 8053SOL    HW135618   1.181   0.087   3.704 -0.3699 -0.0426  1.4261
 8053SOL    HW235619   1.081   0.172   3.636  1.9064  0.1340  0.9525
 8054SOL     OW35620   2.284   3.716   0.977 -0.4654 -0.0324  0.6548
 8054SOL    HW135621   2.328   3.643   1.021  2.3645  1.4026  0.2227
 8054SOL    HW235622   2.196   3.699   1.012 -0.6082  0.1435  0.3800
 8055SOL     OW35623   1.295   1.341   3.985 -0.5902 -0.1524 -0.2927
 8055SOL    HW135624   1.333   1.277   3.924 -1.4262 -0.7768 -0.1529
 8055SOL    HW235625   1.265   1.405   3.921  0.0041  1.7901  1.3763
 8056SOL     OW35626   1.020   0.779   3.668 -0.1555 -0.2596 -0.3367
 8056SOL    HW135627   1.035   0.740   3.582 -2.8674 -0.2249 -0.8010
 8056SOL    HW235628   0.929   0.807   3.666  0.3910  1.5945  0.1683
 8057SOL     OW35629   0.102   3.330   6.910  0.2338  0.1794  0.0979
 8057SOL    HW135630   0.107   3.423   6.885 -2.1751  1.0179  2.7992
 8057SOL    HW235631   0.045   3.293   6.843 -0.2856  2.3359 -0.6670
 8058SOL     OW35632   2.450   2.727   0.790 -0.2645  0.6060  0.1342
 8058SOL    HW135633   2.471   2.698   0.879  2.7912 -0.7402 -1.0312
 8058SOL    HW235634   2.537   2.726   0.750  1.1456 -1.0037  3.2114
 8059SOL     OW35635   0.153   4.072   2.075  0.5047  0.4729 -0.5769
 8059SOL    HW135636   0.239   4.039   2.102  0.2232  0.1177 -0.1024
 8059SOL    HW235637   0.157   4.153   2.125  0.1678 -0.0368  0.2776
 8060SOL     OW35638   1.531   1.014   8.928  0.3878  0.4922 -0.3460
 8060SOL    HW135639   1.577   1.070   8.866 -0.7373  1.0845 -0.6383
 8060SOL    HW235640   1.608   0.964   8.958  0.0783  0.3233  0.1748
 8061SOL     OW35641   4.374   2.063   7.548  0.7361  0.1970  0.0864
 8061SOL    HW135642   4.321   2.070   7.628 -0.7379 -0.0935 -0.8638
 8061SOL    HW235643   4.458   2.099   7.577  0.4495 -0.3178  1.5962
 8062SOL     OW35644   1.814   2.934   8.801 -0.3966  0.2045  0.2355
 8062SOL    HW135645   1.721   2.929   8.826 -0.2878 -1.4785  0.2790
 8062SOL    HW235646   1.843   3.012   8.850  1.1474  0.8519 -1.7215
 8063SOL     OW35647   2.534   2.112   3.419 -0.1086  0.1972 -0.3128
 8063SOL    HW135648   2.469   2.123   3.350  2.0307  0.6377 -2.2607
 8063SOL    HW235649   2.517   2.198   3.457  0.2493  0.3215 -0.4264
 8064SOL     OW35650   0.550   0.828   8.784 -0.6330 -0.7058  0.6637
 8064SOL    HW135651   0.637   0.858   8.810 -0.6775  0.1592 -0.1490
 8064SOL    HW235652   0.577   0.802   8.696 -0.8857 -0.6194  0.5597
 8065SOL     OW35653   2.725   4.693  15.839  0.5586 -0.2132 -0.5824
 8065SOL    HW135654   2.720   4.597  15.843 -1.7136 -0.0587 -0.0409
 8065SOL    HW235655   2.701   4.706  15.747 -2.5994 -2.3467 -0.0420
 8066SOL     OW35656   0.513   2.361   4.843  0.4855 -0.3252  0.6755
 8066SOL    HW135657   0.603   2.362   4.809 -1.3811  0.6834 -4.2416
 8066SOL    HW235658   0.477   2.448   4.825 -2.6506 -1.4502  1.5153
 8067SOL     OW35659   1.983   1.137   6.132  0.0749 -0.0753  0.0319
 8067SOL    HW135660   2.038   1.159   6.057  1.5006 -2.6935  0.3048
 8067SOL    HW235661   1.920   1.075   6.094 -1.3210  1.6202 -0.4243
 8068SOL     OW35662   0.077   1.906   2.424  0.4870 -1.9060  0.1463
 8068SOL    HW135663   0.085   1.813   2.444  2.9228 -1.0410  3.1928
 8068SOL    HW235664   0.087   1.911   2.329 -1.4898 -0.0833  0.0287
 8069SOL     OW35665   4.673   4.539  14.702 -0.1069  0.2271  0.3705
 8069SOL    HW135666   4.623   4.620  14.714  0.5849  0.4919  1.4749
 8069SOL    HW235667   4.675   4.498  14.788 -3.5428 -1.0408 -0.1451
 8070SOL     OW35668   3.394   1.244   2.160  0.4227  1.2158  0.1192
 8070SOL    HW135669   3.413   1.231   2.253  1.2883 -1.0995 -0.3746
 8070SOL    HW235670   3.336   1.320   2.155  0.0188  1.0637  2.2610
 8071SOL     OW35671   4.685   3.771   8.537  0.0086  0.3612  0.2998
 8071SOL    HW135672   0.007   3.722   8.606  0.6702 -1.2251 -1.2508
 8071SOL    HW235673   4.615   3.707   8.525 -1.0776  1.5698  0.2099
 8072SOL     OW35674   3.878   3.871  15.401  0.2585 -0.6224  0.0432
 8072SOL    HW135675   3.886   3.789  15.351 -0.7891 -3.9119  5.2605
 8072SOL    HW235676   3.789   3.859  15.432 -0.1222  2.1443 -0.0166
 8073SOL     OW35677   4.312   1.057   7.395  0.0291 -0.0456  0.4756
 8073SOL    HW135678   4.332   1.146   7.364 -0.5491 -0.2475 -0.4807
 8073SOL    HW235679   4.327   1.064   7.489  1.4996 -2.5247  0.4161
 8074SOL     OW35680   2.317   1.367   4.877  0.1412  0.2984  0.0519
 8074SOL    HW135681   2.405   1.401   4.889  0.5027 -1.3169  2.0641
 8074SOL    HW235682   2.261   1.441   4.898 -1.2079 -0.7735  0.2395
 8075SOL     OW35683   4.511   4.355   4.758  0.3489 -0.2691  0.0535
 8075SOL    HW135684   4.444   4.389   4.699 -1.2571 -1.4740  1.2086
 8075SOL    HW235685   4.482   4.266   4.778  0.0142  0.2857  2.0427
 8076SOL     OW35686   4.045   2.920  15.034 -0.5662  0.0328 -0.5360
 8076SOL    HW135687   3.995   2.842  15.059 -1.7294  0.3801 -1.7793
 8076SOL    HW235688   4.097   2.921  15.114 -1.2801  0.5668 -0.0817
 8077SOL     OW35689   0.565   0.586   1.364  0.6537 -0.0218  0.2494
 8077SOL    HW135690   0.653   0.615   1.388 -0.2724  2.5882  0.5696
 8077SOL    HW235691   0.505   0.618   1.431  0.7476 -1.6446  1.0864
 8078SOL     OW35692   1.143   3.411  12.177 -0.0872  0.1873  0.2303
 8078SOL    HW135693   1.196   3.487  12.154  1.0004 -0.6921 -0.2167
 8078SOL    HW235694   1.192   3.340  12.134 -1.0946 -2.4500  3.4232
 8079SOL     OW35695   2.012   1.300   3.337 -0.4351  0.0873 -0.2636
 8079SOL    HW135696   1.981   1.210   3.329  0.2635 -0.4456  2.9491
 8079SOL    HW235697   1.970   1.349   3.266 -0.1616  0.4721 -0.1632
 8080SOL     OW35698   3.638   1.496  15.263 -0.2070  0.9810  0.0662
 8080SOL    HW135699   3.573   1.552  15.305  0.4033  0.5166  1.6019
 8080SOL    HW235700   3.594   1.460  15.185  0.1014  2.2336 -0.6795
 8081SOL     OW35701   1.565   1.398   6.047  0.0854  0.2279  0.4477
 8081SOL    HW135702   1.578   1.401   6.142 -0.3028  1.1391  0.4681
 8081SOL    HW235703   1.474   1.427   6.046 -0.3655 -0.9984  2.8831
 8082SOL     OW35704   0.854   4.530   2.601 -0.0754  0.0722  0.2019
 8082SOL    HW135705   0.844   4.438   2.623  2.0171 -0.0257  0.8204
 8082SOL    HW235706   0.941   4.549   2.639  0.8763 -2.5590 -0.7110
 8083SOL     OW35707   3.205   2.129   5.216 -0.0769  0.2381  0.1104
 8083SOL    HW135708   3.276   2.101   5.158  0.1301  0.7118  0.1292
 8083SOL    HW235709   3.171   2.192   5.153 -0.6989  0.0442  0.2588
 8084SOL     OW35710   3.222   0.357   5.341  0.7781 -0.1017  0.0595
 8084SOL    HW135711   3.218   0.283   5.281  1.6971 -1.3736  1.5591
 8084SOL    HW235712   3.169   0.421   5.294 -0.4430  0.1171  1.7338
 8085SOL     OW35713   2.094   0.802   7.998 -0.2095  0.6424 -1.0710
 8085SOL    HW135714   2.154   0.877   8.005 -0.1767  0.4174  1.0161
 8085SOL    HW235715   2.015   0.856   8.001 -0.1797  0.6639 -0.6006
 8086SOL     OW35716   1.585   0.637  10.674  0.0090 -0.3648  0.8306
 8086SOL    HW135717   1.604   0.728  10.695 -0.2188 -0.1214 -0.0311
 8086SOL    HW235718   1.494   0.637  10.644  0.1867  1.4844  0.3616
 8087SOL     OW35719   0.467   4.282   8.401 -0.1325  0.0858 -0.3255
 8087SOL    HW135720   0.550   4.328   8.414 -0.4330 -0.1375  2.2711
 8087SOL    HW235721   0.481   4.212   8.465 -1.5637 -0.2466 -0.3552
 8088SOL     OW35722   3.528   2.958   9.191  0.0042 -0.7674 -0.5498
 8088SOL    HW135723   3.515   2.863   9.187 -0.9027 -0.7563  1.6054
 8088SOL    HW235724   3.460   2.991   9.132  1.1564  0.0988 -1.3996
 8089SOL     OW35725   2.002   0.079   2.261 -0.2873 -0.0257  0.1450
 8089SOL    HW135726   1.910   0.084   2.237  0.0484 -1.6167 -1.4699
 8089SOL    HW235727   2.044   0.122   2.186  0.5735  1.8028  1.6639
 8090SOL     OW35728   3.993   4.395   8.654  0.0280  0.1166  0.3485
 8090SOL    HW135729   4.084   4.368   8.663 -0.2437 -1.3403 -1.1426
 8090SOL    HW235730   3.959   4.375   8.741 -0.1253 -0.4234  0.1671
 8091SOL     OW35731   0.482   3.137   7.995  0.1403  0.6086  0.0359
 8091SOL    HW135732   0.547   3.158   8.063 -0.5048 -1.6299  1.3276
 8091SOL    HW235733   0.474   3.213   7.938  1.0636 -0.5792 -1.6520
 8092SOL     OW35734   2.298   2.266   6.911 -0.2037 -0.2316  0.5131
 8092SOL    HW135735   2.263   2.355   6.919 -1.1073 -0.6033  0.6448
 8092SOL    HW235736   2.213   2.224   6.897 -0.9185  1.8139 -1.3027
 8093SOL     OW35737   2.931   3.176   8.987  0.0246 -0.1823 -0.3945
 8093SOL    HW135738   2.880   3.233   8.929 -0.2287 -0.5998 -0.5825
 8093SOL    HW235739   3.014   3.221   8.971 -0.6703  1.0884 -0.3965
 8094SOL     OW35740   2.835   0.465  15.964  0.1742 -0.2871  0.0975
 8094SOL    HW135741   2.768   0.486  15.899 -0.4771 -2.7352 -0.0299
 8094SOL    HW235742   2.810   0.373  15.972  0.1178 -0.3467 -0.7552
 8095SOL     OW35743   0.395   1.466   3.075 -0.1822  0.3792  0.5352
 8095SOL    HW135744   0.350   1.530   3.131 -0.6263  0.0085  0.6019
 8095SOL    HW235745   0.437   1.517   3.006  0.9410 -1.6963 -0.2916
 8096SOL     OW35746   0.621   1.775   7.084 -0.1595  0.3698 -0.2313
 8096SOL    HW135747   0.616   1.689   7.126  0.0682  0.7412  0.5695
 8096SOL    HW235748   0.537   1.805   7.118 -0.3943  0.5489 -0.9897
 8097SOL     OW35749   2.336   2.611   9.902 -0.0881  0.3107 -0.7158
 8097SOL    HW135750   2.258   2.609   9.957 -1.1322  2.5468 -2.1189
 8097SOL    HW235751   2.368   2.521   9.905  0.6855  0.6066 -0.1821
 8098SOL     OW35752   3.529   4.453  10.470  0.1036  0.1294 -0.3364
 8098SOL    HW135753   3.541   4.382  10.407  1.4481 -0.9741  1.1710
 8098SOL    HW235754   3.497   4.414  10.551  0.2685 -1.2932 -0.9565
 8099SOL     OW35755   4.082   0.767  14.291 -0.2415 -0.2503 -0.5272
 8099SOL    HW135756   4.012   0.781  14.354  0.9213 -0.3312  0.7607
 8099SOL    HW235757   4.120   0.854  14.283  0.9040 -0.9186 -2.5667
 8100SOL     OW35758   2.754   1.352   8.019 -0.0700  0.0406  0.3255
 8100SOL    HW135759   2.803   1.433   8.004  0.9601 -0.2992  1.8032
 8100SOL    HW235760   2.708   1.345   7.936 -0.9106  1.5988  0.6526
 8101SOL     OW35761   0.227   2.419   3.320  0.3513  0.0540 -0.3618
 8101SOL    HW135762   0.161   2.398   3.254 -1.2160  1.0193  0.8977
 8101SOL    HW235763   0.242   2.507   3.284  0.5386  0.5963  1.0637
 8102SOL     OW35764   2.626   1.727  12.019 -1.5763 -0.4853  0.1211
 8102SOL    HW135765   2.585   1.645  12.048  1.7618 -2.1536  0.1334
 8102SOL    HW235766   2.562   1.794  12.043  1.6607  2.4434  0.4448
 8103SOL     OW35767   0.698   0.197   7.214 -0.1318  0.1139  0.2002
 8103SOL    HW135768   0.672   0.216   7.304  2.2509 -0.0068  0.9286
 8103SOL    HW235769   0.676   0.105   7.201 -0.4316  0.3850 -1.2220
 8104SOL     OW35770   2.501   2.288   8.362  0.3302 -0.1270  0.0034
 8104SOL    HW135771   2.460   2.275   8.448  0.1846  1.8921  0.2253
 8104SOL    HW235772   2.499   2.383   8.351  1.9943 -0.0577  0.2735
 8105SOL     OW35773   1.272   3.642   6.759 -0.6118 -0.5328  0.1760
 8105SOL    HW135774   1.233   3.709   6.703  1.7481  0.7455  0.0546
 8105SOL    HW235775   1.342   3.696   6.796 -0.0659 -0.4192 -1.0164
 8106SOL     OW35776   4.406   0.262   6.744 -0.1727 -0.3995 -0.3083
 8106SOL    HW135777   4.322   0.306   6.731  0.2725  0.1710 -1.2699
 8106SOL    HW235778   4.397   0.245   6.838  1.3214  2.7971  0.4279
 8107SOL     OW35779   3.779   3.643   7.702 -0.1171  0.7227 -0.1452
 8107SOL    HW135780   3.871   3.630   7.679 -1.1509 -1.9594 -2.7695
 8107SOL    HW235781   3.800   3.702   7.774 -0.1618  1.8208 -1.0308
 8108SOL     OW35782   4.048   1.227  10.027 -0.0749 -0.2274 -0.0093
 8108SOL    HW135783   4.069   1.282  10.103  2.4700 -1.0951 -0.0750
 8108SOL    HW235784   4.043   1.294   9.960 -0.7485 -0.3440 -0.0792
 8109SOL     OW35785   0.117   3.605   2.416 -0.0437 -0.5035  0.0951
 8109SOL    HW135786   0.182   3.602   2.486  0.5385  1.7837 -0.3567
 8109SOL    HW235787   0.084   3.694   2.428  0.3488 -0.1915 -1.1889
 8110SOL     OW35788   2.564   4.143   3.051  1.1933 -0.0988 -0.1530
 8110SOL    HW135789   2.592   4.154   2.960  0.4497 -0.1249 -0.3800
 8110SOL    HW235790   2.631   4.092   3.097  2.8150  2.1476  0.0070
 8111SOL     OW35791   1.660   4.485  15.805 -0.4779 -0.3828  0.1000
 8111SOL    HW135792   1.746   4.452  15.831 -0.1538  0.6917  0.3930
 8111SOL    HW235793   1.642   4.423  15.734 -1.7336  0.0383  0.0529
 8112SOL     OW35794   2.267   2.227   4.034  0.2973 -1.0792  0.0599
 8112SOL    HW135795   2.184   2.269   4.058  1.1059 -0.5356  1.9405
 8112SOL    HW235796   2.313   2.297   3.987  1.9544 -0.8213  2.0894
 8113SOL     OW35797   4.440   3.095   5.521  0.5259 -0.7881  0.1240
 8113SOL    HW135798   4.434   3.026   5.587  1.1032 -0.2719  0.7237
 8113SOL    HW235799   4.515   3.144   5.556  0.6571 -0.2992 -0.8553
 8114SOL     OW35800   1.370   0.487   4.766  0.4241  0.7400 -0.0998
 8114SOL    HW135801   1.386   0.394   4.751  0.7089  0.8920 -0.7679
 8114SOL    HW235802   1.322   0.478   4.848 -2.3834  2.0560 -1.5940
 8115SOL     OW35803   2.831   1.608   7.453  0.2533 -0.1373  0.2380
 8115SOL    HW135804   2.794   1.522   7.474  0.4663 -0.7028 -1.6707
 8115SOL    HW235805   2.926   1.605   7.456  0.3441  3.1046 -0.2848
 8116SOL     OW35806   2.639   1.207  10.714 -0.7383  0.3574 -0.0041
 8116SOL    HW135807   2.553   1.216  10.675 -0.5720  1.9240  0.0039
 8116SOL    HW235808   2.635   1.121  10.758  1.3287  0.4502  0.3889
 8117SOL     OW35809   4.146   2.673   2.577  0.2609  0.0890  0.4346
 8117SOL    HW135810   4.128   2.584   2.606 -2.6134  0.4719 -0.1456
 8117SOL    HW235811   4.237   2.678   2.606  0.9036 -4.1428 -0.8739
 8118SOL     OW35812   3.527   2.503   1.818 -0.2076 -0.0797 -0.3484
 8118SOL    HW135813   3.544   2.457   1.900  2.2820  0.0788 -0.7814
 8118SOL    HW235814   3.551   2.596   1.821 -3.2981  0.7788 -1.9846
 8119SOL     OW35815   2.090   1.419   6.239  0.5469  0.1815 -0.0660
 8119SOL    HW135816   2.171   1.407   6.290 -0.6605 -1.5126  1.4627
 8119SOL    HW235817   2.070   1.329   6.213  1.2215 -1.2692  4.4042
 8120SOL     OW35818   3.919   2.978   6.415  0.4138  0.9598  0.6348
 8120SOL    HW135819   3.969   2.989   6.496 -0.2126 -1.5048  1.3618
 8120SOL    HW235820   3.868   2.901   6.440 -0.6888  2.4436  2.9004
 8121SOL     OW35821   0.268   3.446  14.288  0.7292  0.3680 -0.0147
 8121SOL    HW135822   0.293   3.372  14.232  0.7945  1.1999 -1.0965
 8121SOL    HW235823   0.352   3.466  14.330  2.6578  1.4150 -4.3258
 8122SOL     OW35824   3.261   4.202   4.428  0.0257  0.7222  0.3511
 8122SOL    HW135825   3.277   4.196   4.522 -1.9130  0.0717  0.6392
 8122SOL    HW235826   3.169   4.178   4.431  0.3952 -0.3209  3.7100
 8123SOL     OW35827   0.897   1.341   0.431 -0.0246  0.4381  0.0202
 8123SOL    HW135828   0.938   1.289   0.501 -1.3620 -3.0196 -1.7420
 8123SOL    HW235829   0.969   1.343   0.368 -0.5881  3.4217 -0.5047
 8124SOL     OW35830   0.622   2.687   4.705  0.5379  0.0958  0.5060
 8124SOL    HW135831   0.637   2.663   4.797 -1.3545 -0.6310  0.6347
 8124SOL    HW235832   0.546   2.742   4.725 -1.5274 -3.0259  1.1944
 8125SOL     OW35833   1.530   3.393   9.933  0.2944 -0.1038  0.0026
 8125SOL    HW135834   1.494   3.350  10.010  0.6163  1.0365  0.7987
 8125SOL    HW235835   1.473   3.352   9.868 -0.0143 -1.0492  0.8721
 8126SOL     OW35836   2.019   1.695   4.299  0.6996 -0.7010 -0.5742
 8126SOL    HW135837   1.988   1.771   4.249  0.6403 -1.3015 -1.4546
 8126SOL    HW235838   1.939   1.646   4.283 -1.1517  2.3508 -0.8032
 8127SOL     OW35839   2.794   1.992   2.492  0.6252 -0.1912 -0.1871
 8127SOL    HW135840   2.829   2.069   2.447 -0.5507  0.1515 -0.5339
 8127SOL    HW235841   2.856   1.922   2.474  1.9742  0.1452  3.1922
 8128SOL     OW35842   3.778   3.542   9.578  0.4538 -0.3979 -0.1787
 8128SOL    HW135843   3.775   3.499   9.492  0.9690 -2.5266  0.8684
 8128SOL    HW235844   3.762   3.470   9.639 -0.6271 -0.4431 -0.5159
 8129SOL     OW35845   2.816   2.724  11.277 -0.7060  0.0998  0.2822
 8129SOL    HW135846   2.762   2.649  11.300  0.3824 -1.4118 -2.0427
 8129SOL    HW235847   2.775   2.794  11.327  0.8554  1.5700 -0.4720
 8130SOL     OW35848   2.970   2.405  16.235  0.4703  0.3451 -0.0822
 8130SOL    HW135849   2.916   2.422  16.312  1.6240 -0.9882  1.0153
 8130SOL    HW235850   2.929   2.335  16.183 -0.4521  2.3423 -2.0181
 8131SOL     OW35851   0.284   2.835   6.683 -0.2958 -0.2927  0.5301
 8131SOL    HW135852   0.261   2.749   6.647 -0.0785 -0.1719  0.1019
 8131SOL    HW235853   0.250   2.893   6.614 -1.8115 -1.8764 -0.0589
 8132SOL     OW35854   0.728   2.282   3.487 -0.1092  0.3454  0.5122
 8132SOL    HW135855   0.820   2.255   3.487  0.1688  1.2891 -0.6651
 8132SOL    HW235856   0.672   2.210   3.458 -0.8151  0.5888  1.2845
 8133SOL     OW35857   3.797   2.984   8.612 -0.0350  0.0506  0.0388
 8133SOL    HW135858   3.892   2.976   8.606  0.2789  1.4623  2.9094
 8133SOL    HW235859   3.787   2.976   8.707 -0.5210 -1.4183 -0.1388
 8134SOL     OW35860   1.534   4.493   4.277  0.1187  0.3228  0.0548
 8134SOL    HW135861   1.623   4.518   4.251 -0.3204  1.6696 -0.1756
 8134SOL    HW235862   1.535   4.424   4.343 -0.9236 -0.6862 -0.9797
 8135SOL     OW35863   2.250   3.805  12.322 -0.2222 -0.4269  0.0469
 8135SOL    HW135864   2.185   3.738  12.343  0.5016 -1.5362 -1.2445
 8135SOL    HW235865   2.263   3.798  12.228  0.3160  2.5274 -0.0932
 8136SOL     OW35866   1.752   1.934  16.869  0.0907  0.2327  0.8205
 8136SOL    HW135867   1.791   1.951  16.955 -0.7565  3.1176  0.6431
 8136SOL    HW235868   1.660   1.935  16.897 -0.2303 -1.3646 -0.2177
 8137SOL     OW35869   4.605   2.855   8.183 -0.2099 -0.2760 -0.3959
 8137SOL    HW135870   4.604   2.891   8.271  0.8789  1.2010 -0.9793
 8137SOL    HW235871   4.695   2.826   8.166 -0.4181 -0.9202 -0.3958
 8138SOL     OW35872   2.474   2.931   9.688 -0.3598  0.3218 -0.0697
 8138SOL    HW135873   2.504   2.982   9.613  0.9681  0.5936  0.6392
 8138SOL    HW235874   2.503   2.842   9.668 -0.0777  0.1856  0.9240
 8139SOL     OW35875   3.467   1.936   1.983  0.0315 -0.4071 -0.1646
 8139SOL    HW135876   3.527   1.970   2.049  1.7843  0.1747 -2.0418
 8139SOL    HW235877   3.536   1.891   1.935  0.1851 -0.9023  0.5213
 8140SOL     OW35878   2.546   2.255  14.301 -0.2812  0.0146  0.0838
 8140SOL    HW135879   2.528   2.297  14.385 -0.5469  0.2500 -0.0910
 8140SOL    HW235880   2.587   2.322  14.246  1.4559 -0.1558  1.1771
 8141SOL     OW35881   3.753   0.672   8.052  0.0588 -0.3569 -0.3323
 8141SOL    HW135882   3.829   0.730   8.061  0.1655 -0.2458 -1.9301
 8141SOL    HW235883   3.691   0.740   8.025  0.3291 -0.5155 -1.3398
 8142SOL     OW35884   3.676   3.341   9.754 -0.3227 -0.4760  0.0667
 8142SOL    HW135885   3.702   3.327   9.845 -1.1431 -0.7834  0.2563
 8142SOL    HW235886   3.599   3.285   9.744  0.0199 -1.1419  1.1707
 8143SOL     OW35887   4.675   0.136  16.628 -0.5350  0.0544 -0.0543
 8143SOL    HW135888   4.697   0.229  16.629  1.4095 -0.4217  1.5934
 8143SOL    HW235889   4.613   0.139  16.555  1.9159 -0.2305 -2.1522
 8144SOL     OW35890   1.417   0.766  10.944 -0.2420  0.4908 -0.4093
 8144SOL    HW135891   1.477   0.732  11.010  0.4333  1.8742 -0.3230
 8144SOL    HW235892   1.466   0.833  10.897  0.6833 -2.2454 -3.3748
 8145SOL     OW35893   0.270   0.696   7.956 -0.4365  0.5597  0.1769
 8145SOL    HW135894   0.287   0.776   8.007  2.3737 -0.3364  0.6220
 8145SOL    HW235895   0.278   0.626   8.022 -0.0054  1.4598  1.0815
 8146SOL     OW35896   0.214   1.849   6.414 -0.4708 -0.2258  0.4868
 8146SOL    HW135897   0.236   1.939   6.389  1.6617 -0.9867 -0.3243
 8146SOL    HW235898   0.119   1.841   6.405 -0.5504  1.2916 -0.0335
 8147SOL     OW35899   3.701   2.738  13.734  0.1139  0.1254 -0.1991
 8147SOL    HW135900   3.614   2.716  13.766  0.6524 -1.7011  0.0299
 8147SOL    HW235901   3.691   2.832  13.718 -0.6092  0.1900  0.6608
 8148SOL     OW35902   0.642   2.249   8.663 -0.7207 -0.2346 -0.1611
 8148SOL    HW135903   0.658   2.174   8.721  2.0400  1.0297  0.7007
 8148SOL    HW235904   0.724   2.298   8.675  0.0257 -0.6933 -3.2556
 8149SOL     OW35905   4.096   0.177   2.379 -0.2037  0.1352  0.3124
 8149SOL    HW135906   4.174   0.123   2.388 -0.8557 -1.1413 -1.8108
 8149SOL    HW235907   4.110   0.220   2.295  2.4736  0.1263  0.7463
 8150SOL     OW35908   2.708   2.058  17.381  0.5587 -0.4673 -0.2748
 8150SOL    HW135909   2.777   2.054  17.316  0.4344  1.0717 -0.4955
 8150SOL    HW235910   2.749   2.026  17.462 -0.9227 -1.1777  0.1973
 8151SOL     OW35911   0.065   3.803   4.466 -0.2510 -0.5306 -0.4307
 8151SOL    HW135912   0.080   3.785   4.559 -1.6371  0.5239 -0.0093
 8151SOL    HW235913   0.131   3.871   4.452  0.7168 -1.2674  0.5144
 8152SOL     OW35914   4.647   3.763   2.764  0.0522 -0.4790  0.1045
 8152SOL    HW135915   0.005   3.719   2.736  0.9692  1.0433  0.3307
 8152SOL    HW235916   4.644   3.841   2.708 -1.3542  0.3342  1.3046
 8153SOL     OW35917   3.004   0.536  14.640 -0.2763  0.4045  0.0110
 8153SOL    HW135918   3.091   0.535  14.601  0.3574  1.3054  1.4295
 8153SOL    HW235919   2.946   0.566  14.570  2.9807  1.6568 -2.1287
 8154SOL     OW35920   0.178   1.628   6.876 -0.1324  0.4364  0.3984
 8154SOL    HW135921   0.217   1.609   6.962 -1.1498 -2.2302  0.2914
 8154SOL    HW235922   0.186   1.721   6.857 -0.5636  0.6660  1.3041
 8155SOL     OW35923   2.028   3.218   0.323 -0.2514  0.1217 -0.5366
 8155SOL    HW135924   2.113   3.219   0.369 -0.4973  1.1652 -0.1160
 8155SOL    HW235925   2.034   3.129   0.287  1.4563  0.4062 -0.9657
 8156SOL     OW35926   4.009   4.569   4.263  0.7331 -0.1053  0.4720
 8156SOL    HW135927   3.940   4.539   4.322  0.7675  1.0459  1.0909
 8156SOL    HW235928   3.973   4.650   4.226 -2.0470 -1.1709  0.8504
 8157SOL     OW35929   2.151   2.502   7.078  0.6887  0.8160  0.1165
 8157SOL    HW135930   2.126   2.547   7.159  1.0521  0.9082  0.1786
 8157SOL    HW235931   2.075   2.446   7.065  0.8012  0.8428 -0.6808
 8158SOL     OW35932   4.554   4.074  13.823 -0.2363 -0.1767  1.1102
 8158SOL    HW135933   4.463   4.096  13.842 -1.0878 -2.4849 -0.2172
 8158SOL    HW235934   4.589   4.161  13.805 -1.4697  0.3057  1.0254
 8159SOL     OW35935   0.126   2.022   3.728  0.7016 -0.5494  0.2417
 8159SOL    HW135936   0.079   2.099   3.697  1.2925  0.2925  1.4061
 8159SOL    HW235937   0.053   1.960   3.728 -0.9131  1.3766  2.8094
 8160SOL     OW35938   0.284   2.388  15.837 -0.2099  0.2704  0.1981
 8160SOL    HW135939   0.241   2.303  15.841 -0.1846  0.2233 -0.6807
 8160SOL    HW235940   0.218   2.444  15.878  0.4932  1.7731 -0.7521
 8161SOL     OW35941   2.245   4.365   7.408  0.2277 -0.2561 -0.6036
 8161SOL    HW135942   2.250   4.310   7.486  0.2642 -0.9797 -1.1217
 8161SOL    HW235943   2.150   4.377   7.404  0.0995  0.5364  4.4527
 8162SOL     OW35944   4.352   1.057   2.577 -0.0893 -0.1743  0.2081
 8162SOL    HW135945   4.266   1.096   2.567  0.6190  1.3421 -0.0296
 8162SOL    HW235946   4.391   1.110   2.647 -0.0258  0.3962 -0.2592
 8163SOL     OW35947   2.202   2.430   5.834  0.1695  0.0736  0.1608
 8163SOL    HW135948   2.251   2.500   5.791  0.2923 -0.4656 -0.5756
 8163SOL    HW235949   2.222   2.368   5.764 -0.7190  1.1645 -1.0823
 8164SOL     OW35950   2.329   0.526  15.536  0.7120 -0.1502  0.1827
 8164SOL    HW135951   2.317   0.498  15.445 -1.2179 -0.8035  0.6247
 8164SOL    HW235952   2.424   0.519  15.544  0.6772 -1.4406 -0.5237
 8165SOL     OW35953   2.315   0.636  11.060  0.5271 -0.5660 -0.3674
 8165SOL    HW135954   2.292   0.678  10.976 -0.9083 -0.6861 -0.0392
 8165SOL    HW235955   2.323   0.706  11.124  0.7159 -1.0749  0.1589
 8166SOL     OW35956   1.887   3.401   4.984 -0.5525 -0.5730 -0.4721
 8166SOL    HW135957   1.861   3.351   4.907 -0.5305 -0.7419 -0.3717
 8166SOL    HW235958   1.870   3.341   5.057  0.3419 -0.1587  0.0748
 8167SOL     OW35959   1.168   3.287   4.092  0.2095 -0.2395 -0.1691
 8167SOL    HW135960   1.196   3.196   4.107 -2.9270 -1.2869 -0.5820
 8167SOL    HW235961   1.084   3.288   4.137  0.7761  0.7268  0.8475
 8168SOL     OW35962   0.020   4.584   0.207 -0.3275 -0.1972  0.1899
 8168SOL    HW135963   4.702   4.569   0.293  0.5310  0.5222  0.7100
 8168SOL    HW235964   4.673   4.644   0.179  2.2956  1.8003 -1.9217
 8169SOL     OW35965   1.794   1.753   7.480  0.0910  0.1928  0.0221
 8169SOL    HW135966   1.700   1.765   7.465 -0.8715 -4.9428  1.8495
 8169SOL    HW235967   1.817   1.685   7.416 -0.3148  0.7961 -0.7660
 8170SOL     OW35968   3.896   4.323  12.852  0.8463  0.3177  0.1497
 8170SOL    HW135969   3.872   4.288  12.938  2.4635 -0.7219  0.1846
 8170SOL    HW235970   3.840   4.278  12.789  1.4259 -0.1849 -0.0066
 8171SOL     OW35971   3.992   1.172   6.939 -0.0573  0.1311  0.7483
 8171SOL    HW135972   4.000   1.169   7.035  1.3425 -0.0065  0.6209
 8171SOL    HW235973   4.077   1.200   6.905 -0.9213  1.0301 -0.6332
 8172SOL     OW35974   0.975   1.252  12.307 -0.2184  0.3322  1.0011
 8172SOL    HW135975   1.032   1.254  12.384 -1.0690  0.9530  1.6128
 8172SOL    HW235976   1.044   1.249  12.241 -0.1569  1.9278  0.9993
 8173SOL     OW35977   3.601   2.581  10.879 -0.2408 -0.4694 -0.0520
 8173SOL    HW135978   3.643   2.652  10.927 -2.0652  0.9805 -0.6339
 8173SOL    HW235979   3.606   2.619  10.791  2.2961 -2.9850 -1.0192
 8174SOL     OW35980   0.273   4.127   9.412 -0.0735 -0.3389  0.2812
 8174SOL    HW135981   0.347   4.153   9.357  2.1454  0.0789  3.4497
 8174SOL    HW235982   0.307   4.147   9.500  1.6205  0.4272 -0.5466
 8175SOL     OW35983   2.919   3.037  10.786 -0.1469  0.0578  0.0841
 8175SOL    HW135984   2.844   3.096  10.782  1.3180  1.6459 -3.7741
 8175SOL    HW235985   2.866   2.969  10.827  0.5311 -2.6362 -3.5930
 8176SOL     OW35986   0.112   2.085   6.073  0.6242  0.0303  0.2589
 8176SOL    HW135987   0.100   2.146   6.146 -0.9053  1.4883 -1.2291
 8176SOL    HW235988   0.068   2.013   6.119 -3.5553 -0.3689 -4.4351
 8177SOL     OW35989   3.483   1.717   4.570  0.2008 -0.0475  0.1957
 8177SOL    HW135990   3.567   1.672   4.575  0.3225  0.1449 -0.1739
 8177SOL    HW235991   3.425   1.655   4.525 -0.7713  0.4457  0.7588
 8178SOL     OW35992   4.003   1.552   9.206 -0.2608  0.1197  0.1211
 8178SOL    HW135993   4.049   1.515   9.281  3.0787  1.5685 -1.2189
 8178SOL    HW235994   3.916   1.566   9.245 -0.1474  1.8417 -0.2476
 8179SOL     OW35995   1.724   3.383   5.655 -0.1954 -0.3475  0.0230
 8179SOL    HW135996   1.763   3.319   5.713  0.0756  0.8365  1.1439
 8179SOL    HW235997   1.768   3.463   5.683  1.9695 -1.6244  0.2045
 8180SOL     OW35998   3.208   4.551   6.611  0.1168  0.1053  0.1777
 8180SOL    HW135999   3.140   4.613   6.637 -1.2421 -1.6893  0.9115
 8180SOL    HW236000   3.157   4.488   6.560  1.0792  0.3922 -1.1323
 8181SOL     OW36001   1.994   1.905   7.888 -0.3023  0.2171 -0.1611
 8181SOL    HW136002   2.023   1.845   7.820  0.6628 -0.3656  0.7652
 8181SOL    HW236003   2.083   1.922   7.919 -0.6546 -0.0733  1.0320
 8182SOL     OW36004   3.635   2.195   7.555 -0.2961  0.3678 -0.3719
 8182SOL    HW136005   3.720   2.215   7.595 -0.1284  0.0988 -0.5944
 8182SOL    HW236006   3.569   2.201   7.624  3.1851  1.4911  2.9048
 8183SOL     OW36007   0.603   4.624   9.912  0.6202  0.2830 -1.1298
 8183SOL    HW136008   0.524   4.658   9.870  1.5956  1.7410 -1.7952
 8183SOL    HW236009   0.665   4.671   9.856 -0.0443 -0.1293 -2.2013
 8184SOL     OW36010   1.683   2.445  11.737  0.0515  0.4225 -0.0414
 8184SOL    HW136011   1.620   2.513  11.760 -0.1518  0.3100 -0.2620
 8184SOL    HW236012   1.661   2.441  11.644 -4.0726 -1.2712  1.0270
 8185SOL     OW36013   2.269   3.367   1.876 -0.0467  0.5496  0.2982
 8185SOL    HW136014   2.207   3.424   1.829 -0.6675 -0.4902 -0.1352
 8185SOL    HW236015   2.217   3.372   1.956 -0.9340  1.1746 -0.3205
 8186SOL     OW36016   1.700   4.030  12.373  0.4922 -0.1062  0.4263
 8186SOL    HW136017   1.624   4.040  12.316 -0.4952  1.3573  2.0314
 8186SOL    HW236018   1.657   4.042  12.457  1.1339  2.0746  0.4411
 8187SOL     OW36019   3.066   0.823   5.309 -0.0665 -0.7533  0.4342
 8187SOL    HW136020   3.035   0.745   5.354  1.7119 -0.5481  2.0184
 8187SOL    HW236021   2.985   0.855   5.269 -0.4114 -0.4610  1.3679
 8188SOL     OW36022   1.171   3.089   2.558 -0.5987  0.0080 -0.3262
 8188SOL    HW136023   1.101   3.150   2.538 -0.0237  0.4728 -0.9001
 8188SOL    HW236024   1.206   3.071   2.471 -1.0789 -0.4600 -0.4201
 8189SOL     OW36025   0.701   0.458   7.077 -0.1693  0.2376 -0.2619
 8189SOL    HW136026   0.755   0.464   6.998 -2.0066 -1.1864 -1.6035
 8189SOL    HW236027   0.729   0.378   7.120 -1.0033 -0.8263 -1.7195
 8190SOL     OW36028   0.756   3.326   7.946 -0.8091  0.1873  0.0209
 8190SOL    HW136029   0.818   3.396   7.964  0.4221 -0.6612 -0.9153
 8190SOL    HW236030   0.816   3.252   7.944  1.1500  1.7858 -0.0104
 8191SOL     OW36031   3.032   0.614   7.481 -0.2737 -0.4884 -0.1364
 8191SOL    HW136032   3.080   0.549   7.532 -1.4890 -0.3579  1.1633
 8191SOL    HW236033   2.974   0.553   7.436 -2.8448  0.1684  2.2950
 8192SOL     OW36034   2.585   4.124   7.711 -0.1734  0.5157  0.3963
 8192SOL    HW136035   2.574   4.143   7.804 -0.3122  1.8081  0.1074
 8192SOL    HW236036   2.680   4.116   7.704 -0.1665  0.7622  0.2325
 8193SOL     OW36037   4.401   4.182   7.119  0.1595  0.0230  0.3726
 8193SOL    HW136038   4.401   4.265   7.166 -4.3010 -0.3159  1.0142
 8193SOL    HW236039   4.394   4.212   7.029  2.1690 -0.0615  0.2070
 8194SOL     OW36040   3.672   0.310   4.154 -0.1165  0.1702 -0.4545
 8194SOL    HW136041   3.579   0.298   4.135  0.0331 -1.5453 -0.0907
 8194SOL    HW236042   3.692   0.370   4.083  0.8714  1.4869  0.9302
 8195SOL     OW36043   0.626   0.029  16.668 -0.6077  0.3481  0.2242
 8195SOL    HW136044   0.611   4.717  16.579  3.0195  0.9050 -0.6127
 8195SOL    HW236045   0.606   4.675  16.722  0.5806 -0.4320 -0.4235
 8196SOL     OW36046   2.323   0.525  15.954  0.1989 -0.4736  0.0589
 8196SOL    HW136047   2.309   0.476  16.035 -0.4098 -0.6424 -0.1499
 8196SOL    HW236048   2.291   0.605  15.996 -1.2074 -0.9615 -0.0908
 8197SOL     OW36049   0.064   3.944   7.264  0.3471  0.6279 -0.7217
 8197SOL    HW136050   0.027   4.011   7.207  0.3720 -0.0017 -1.4823
 8197SOL    HW236051   0.101   3.995   7.336  2.7085 -0.3671 -1.2415
 8198SOL     OW36052   0.496   0.692   5.285 -0.3138 -0.5883 -0.2112
 8198SOL    HW136053   0.514   0.700   5.379  0.2922  1.4030 -0.4893
 8198SOL    HW236054   0.577   0.735   5.259 -0.2597 -0.4182  0.2298
 8199SOL     OW36055   1.993   2.041   0.108  0.5435 -0.2642 -0.2133
 8199SOL    HW136056   2.052   1.966   0.116  0.7049  0.1904  2.8531
 8199SOL    HW236057   1.923   2.009   0.164  0.2365  1.1443  0.2136
 8200SOL     OW36058   4.702   4.479   9.832  0.6338  0.0498  0.5790
 8200SOL    HW136059   0.071   4.455   9.851  0.4157 -1.8901 -0.8027
 8200SOL    HW236060   4.686   4.566   9.868 -0.3935  0.0671  0.0929
 8201SOL     OW36061   1.460   3.287  10.154 -0.1582  0.3638 -0.6998
 8201SOL    HW136062   1.412   3.206  10.171  0.4672  0.3934  1.1625
 8201SOL    HW236063   1.537   3.272  10.208  0.6916  1.8181 -1.5120
 8202SOL     OW36064   3.812   1.908   8.563 -0.5664 -0.2116  0.2911
 8202SOL    HW136065   3.750   1.951   8.504 -1.1154 -0.6759  0.5405
 8202SOL    HW236066   3.824   1.981   8.624  1.1970  1.1224 -1.6401
 8203SOL     OW36067   0.821   3.021   5.607  0.3811  0.4787 -0.3426
 8203SOL    HW136068   0.758   2.954   5.581 -1.2718  0.6832  3.1121
 8203SOL    HW236069   0.896   2.962   5.612 -0.8127 -0.8829  1.2657
 8204SOL     OW36070   0.585   4.231   7.338 -0.8304  0.3491  0.1944
 8204SOL    HW136071   0.556   4.247   7.248 -0.6444 -2.1387 -0.3060
 8204SOL    HW236072   0.575   4.319   7.373 -1.1822 -0.0204  1.0117
 8205SOL     OW36073   3.991   1.793   9.072 -0.4588 -0.0956  0.1862
 8205SOL    HW136074   4.014   1.709   9.113 -4.4260 -1.4918 -0.4440
 8205SOL    HW236075   4.050   1.790   8.997 -0.4816  0.1310  0.1588
 8206SOL     OW36076   0.861   3.720  16.474 -0.2392  0.3609  0.2504
 8206SOL    HW136077   0.781   3.707  16.424 -0.9086  0.8824  1.2135
 8206SOL    HW236078   0.900   3.799  16.436 -0.1310 -0.8718 -2.2450
 8207SOL     OW36079   2.887   2.060   2.004  0.4414  0.2188  0.0354
 8207SOL    HW136080   2.895   1.988   2.066 -0.7156 -0.8992 -1.1153
 8207SOL    HW236081   2.939   2.033   1.929  0.1136  0.7728 -0.3939
 8208SOL     OW36082   1.465   3.202   7.641 -0.2203 -0.4447  0.2969
 8208SOL    HW136083   1.399   3.158   7.588  0.1385 -1.9402  1.1192
 8208SOL    HW236084   1.405   3.269   7.674  1.2442  0.9233  0.2106
 8209SOL     OW36085   2.078   0.258   7.923 -0.1786 -0.0254 -0.3452
 8209SOL    HW136086   2.094   0.204   7.845  0.1791  0.2440 -0.4585
 8209SOL    HW236087   2.158   0.229   7.968 -0.8476 -0.6065  0.4670
 8210SOL     OW36088   3.708   1.429   3.045  0.1326  0.4742  0.8038
 8210SOL    HW136089   3.719   1.461   2.956  0.4940  1.1752  1.1077
 8210SOL    HW236090   3.678   1.509   3.088 -0.5184 -0.3234  1.8312
 8211SOL     OW36091   4.683   0.326   7.621 -0.2083  0.2919  0.1441
 8211SOL    HW136092   4.638   0.392   7.568 -0.4054  1.2255  1.5006
 8211SOL    HW236093   0.003   0.277   7.550 -0.9658  0.5292 -0.4753
 8212SOL     OW36094   2.023   1.830   3.640  0.2026  0.0338 -0.3565
 8212SOL    HW136095   1.932   1.858   3.646 -0.0826 -1.1654  0.6986
 8212SOL    HW236096   2.010   1.736   3.630  1.8935 -0.0242 -2.0748
 8213SOL     OW36097   4.123   2.806   3.527 -0.1104  0.3147 -0.3738
 8213SOL    HW136098   4.040   2.787   3.482 -1.5587  2.1796  1.4549
 8213SOL    HW236099   4.152   2.720   3.558 -2.3643 -0.6024 -0.8116
 8214SOL     OW36100   0.275   0.527  15.435  0.4358 -0.7114 -0.5398
 8214SOL    HW136101   0.254   0.433  15.431 -1.5158 -0.2681 -0.6577
 8214SOL    HW236102   0.318   0.546  15.351 -0.7694 -0.4043 -1.0784
 8215SOL     OW36103   2.174   0.007  14.187  0.7199  0.8775 -0.4152
 8215SOL    HW136104   2.090   0.026  14.144  1.0958 -0.4255 -1.7326
 8215SOL    HW236105   2.169   0.070  14.259  0.2813  0.9995 -0.5506
 8216SOL     OW36106   4.058   4.302   4.095 -0.1385  0.6219  0.1869
 8216SOL    HW136107   4.119   4.372   4.072 -0.3038  0.0478 -2.0176
 8216SOL    HW236108   4.067   4.246   4.018 -0.5352  0.8512 -0.0262
 8217SOL     OW36109   3.615   1.489   4.669  0.4969 -0.0930 -0.3259
 8217SOL    HW136110   3.536   1.437   4.681 -0.2016  0.6893 -1.5668
 8217SOL    HW236111   3.657   1.436   4.601  0.0469 -0.5543 -0.2462
 8218SOL     OW36112   0.344   0.047  11.098 -0.0355 -0.0901  0.0976
 8218SOL    HW136113   0.300   0.023  11.016 -0.4615 -0.9628  0.5887
 8218SOL    HW236114   0.353   4.690  11.151 -2.3435 -0.0853  0.5157
 8219SOL     OW36115   3.517   2.492   7.523  0.2767 -0.2168  0.4189
 8219SOL    HW136116   3.555   2.421   7.574  1.3049  0.6684  0.9000
 8219SOL    HW236117   3.551   2.568   7.571 -1.5323 -0.6660  2.4385
 8220SOL     OW36118   3.821   4.136   2.452  0.0795 -0.4892  0.3683
 8220SOL    HW136119   3.803   4.099   2.539  2.0139 -0.5756  0.7315
 8220SOL    HW236120   3.915   4.155   2.457 -0.0215  0.0265  0.3063
 8221SOL     OW36121   1.159   0.140   5.026 -0.3058  0.0348  0.4579
 8221SOL    HW136122   1.076   0.106   5.060 -0.8660  0.1324 -0.8362
 8221SOL    HW236123   1.213   0.083   5.081  0.6933  0.1774 -0.3954
 8222SOL     OW36124   4.186   3.072  16.048 -0.0518  0.0438 -0.3214
 8222SOL    HW136125   4.223   3.093  15.962  0.5957  4.5510  1.0506
 8222SOL    HW236126   4.118   3.011  16.021 -0.4745 -0.1129  1.0836
 8223SOL     OW36127   3.736   3.195   7.873 -0.4790  0.7173 -0.3002
 8223SOL    HW136128   3.734   3.210   7.779 -3.2543 -0.4500 -0.4287
 8223SOL    HW236129   3.698   3.279   7.898 -0.7726  0.3108  0.6141
 8224SOL     OW36130   3.059   0.015   1.922 -0.2054 -0.2533  0.2150
 8224SOL    HW136131   3.134   4.692   1.961  0.3994  0.1659 -0.4577
 8224SOL    HW236132   3.031   0.065   1.999 -2.4220  2.3733 -2.3004
 8225SOL     OW36133   1.923   3.725   3.468 -0.1966  0.2735  0.7789
 8225SOL    HW136134   1.934   3.770   3.384  0.4469 -1.6834 -0.1738
 8225SOL    HW236135   1.870   3.784   3.522 -0.6322 -0.6160  1.3155
 8226SOL     OW36136   2.497   4.475   2.980  0.2536 -0.2355  0.1590
 8226SOL    HW136137   2.481   4.553   2.928  0.6900 -0.6450 -0.5780
 8226SOL    HW236138   2.574   4.441   2.935 -0.9165 -2.3461 -0.2806
 8227SOL     OW36139   3.989   0.806  13.546  0.2178  0.0762  0.0184
 8227SOL    HW136140   3.930   0.785  13.618 -0.8799 -0.2352 -0.9711
 8227SOL    HW236141   4.052   0.867  13.584 -0.5240  0.6991  0.2478
 8228SOL     OW36142   3.047   0.752   3.558  0.1769  0.9872 -0.3076
 8228SOL    HW136143   2.993   0.680   3.591 -0.2951  2.5634  2.2966
 8228SOL    HW236144   3.020   0.825   3.613  0.3400  1.4323 -0.8165
 8229SOL     OW36145   3.323   1.085  11.462  0.4115  0.0466 -0.1860
 8229SOL    HW136146   3.396   1.098  11.523  0.6616 -2.1205 -0.0336
 8229SOL    HW236147   3.293   1.175  11.472  0.3430 -0.1007  1.0073
 8230SOL     OW36148   0.198   4.407  14.280 -0.8179  0.2197  0.3623
 8230SOL    HW136149   0.199   4.458  14.361  0.7362 -2.2309  1.8870
 8230SOL    HW236150   0.210   4.475  14.213  0.9602  0.7577  1.2053
 8231SOL     OW36151   1.262   0.343   1.579 -0.2282 -0.4118 -0.8520
 8231SOL    HW136152   1.268   0.319   1.486  0.0864 -0.6012 -0.7839
 8231SOL    HW236153   1.335   0.403   1.596 -0.2054 -0.3848 -1.0450
 8232SOL     OW36154   2.048   0.383   0.969 -0.1127  0.4898  0.4350
 8232SOL    HW136155   2.053   0.464   0.918 -1.9347 -0.9841 -2.1101
 8232SOL    HW236156   2.052   0.318   0.899 -0.6984 -1.4650  2.1919
 8233SOL     OW36157   2.844   1.985   4.315  0.2528  0.2981 -0.0937
 8233SOL    HW136158   2.874   1.910   4.366 -2.8253 -1.5812 -1.0644
 8233SOL    HW236159   2.874   2.043   4.385  0.8600  0.0060 -0.1119
 8234SOL     OW36160   1.118   1.049   8.035 -0.3431  0.7609  0.8432
 8234SOL    HW136161   1.106   1.059   8.129  0.1499  3.0517  0.6668
 8234SOL    HW236162   1.183   1.118   8.017  0.2626  0.2901  1.2190
 8235SOL     OW36163   2.472   0.723   8.550  0.4473 -0.5480  0.2256
 8235SOL    HW136164   2.401   0.779   8.580  1.9180  1.5678 -0.3023
 8235SOL    HW236165   2.541   0.788   8.539 -0.4366  0.3488  0.0914
 8236SOL     OW36166   3.246   2.170   8.236 -0.3232 -0.0974 -0.1701
 8236SOL    HW136167   3.225   2.151   8.145 -1.3757  0.5018 -0.0540
 8236SOL    HW236168   3.157   2.181   8.269  0.3422  0.8622  1.3143
 8237SOL     OW36169   0.304   0.030  16.759 -0.5440 -0.2152 -0.6206
 8237SOL    HW136170   0.385   0.019  16.709  0.7064 -0.2115  1.4111
 8237SOL    HW236171   0.252   4.679  16.724  1.2041 -1.8087  0.1276
 8238SOL     OW36172   1.302   1.279   2.741  0.5275  0.3710  0.1460
 8238SOL    HW136173   1.247   1.221   2.689 -0.9992  1.1190  0.9368
 8238SOL    HW236174   1.384   1.232   2.729 -0.4692 -0.6843 -2.4248
 8239SOL     OW36175   0.849   1.119   5.275 -0.3458 -0.6828 -0.0637
 8239SOL    HW136176   0.813   1.064   5.206 -1.8208  1.5204 -1.0286
 8239SOL    HW236177   0.818   1.061   5.345 -0.0907 -0.2147  0.4423
 8240SOL     OW36178   2.895   3.640  13.556 -0.0848 -0.3328 -0.7039
 8240SOL    HW136179   2.840   3.567  13.584 -0.0475  0.4632  1.4952
 8240SOL    HW236180   2.848   3.677  13.481  0.6745  1.7769 -0.1590
 8241SOL     OW36181   4.231   3.374  14.185  0.7340  0.2374  0.1016
 8241SOL    HW136182   4.192   3.399  14.268 -0.0633 -0.9684  0.0970
 8241SOL    HW236183   4.211   3.280  14.190  2.9593 -0.2704 -0.5451
 8242SOL     OW36184   3.418   0.482  14.834  0.0652 -0.6749  0.0437
 8242SOL    HW136185   3.485   0.537  14.875 -1.1679 -1.0617  2.5635
 8242SOL    HW236186   3.447   0.396  14.865  1.5512 -0.4856 -0.8171
 8243SOL     OW36187   4.559   1.104   7.186 -0.0494 -0.3449 -0.6212
 8243SOL    HW136188   4.485   1.162   7.202  1.0323  1.4591 -2.1345
 8243SOL    HW236189   4.591   1.088   7.275 -1.3378  1.9448  0.2425
 8244SOL     OW36190   0.316   3.804   1.930 -0.5366  0.8740 -0.9721
 8244SOL    HW136191   0.284   3.750   2.002  1.9066 -1.8744 -1.9843
 8244SOL    HW236192   0.230   3.841   1.908 -1.3194 -0.4955 -0.2276
 8245SOL     OW36193   4.660   3.574  12.506  0.2473 -0.0824 -0.1077
 8245SOL    HW136194   4.633   3.665  12.515 -1.7408 -1.0127  3.2884
 8245SOL    HW236195   4.591   3.540  12.448 -1.2976 -0.1617  1.7703
 8246SOL     OW36196   1.483   1.105   7.280  0.3275  0.2514  0.7037
 8246SOL    HW136197   1.391   1.113   7.306 -0.6035 -0.8598 -2.1981
 8246SOL    HW236198   1.473   1.097   7.185  0.6370 -0.4587  0.7282
 8247SOL     OW36199   4.495   2.417   2.441  0.6969  0.0709 -0.4264
 8247SOL    HW136200   4.463   2.327   2.432  1.8847 -0.4258  0.4505
 8247SOL    HW236201   4.409   2.458   2.453  0.9377  0.1902  0.9476
 8248SOL     OW36202   3.715   2.879   2.611  0.4733 -0.2067 -0.4565
 8248SOL    HW136203   3.626   2.889   2.577 -1.7058 -0.4112  5.1423
 8248SOL    HW236204   3.697   2.804   2.668  1.3225 -1.2067 -1.5172
 8249SOL     OW36205   1.137   3.336  13.690 -0.2880  0.4586 -0.0174
 8249SOL    HW136206   1.167   3.309  13.603 -0.6880 -1.4669  0.4447
 8249SOL    HW236207   1.153   3.262  13.748  2.7549  0.2189 -1.1730
 8250SOL     OW36208   2.329   2.273   4.920  0.2193 -0.4494  0.3513
 8250SOL    HW136209   2.305   2.209   4.852  0.9657 -0.6270  0.2641
 8250SOL    HW236210   2.378   2.338   4.871 -1.6520  0.8349  0.1797
 8251SOL     OW36211   2.762   2.036   6.710 -0.2272  0.0030  0.3053
 8251SOL    HW136212   2.769   1.950   6.752 -2.7965  0.1097  0.9655
 8251SOL    HW236213   2.682   2.064   6.754 -1.6329 -2.0469 -0.9012
 8252SOL     OW36214   3.235   2.075   0.574  0.7389  0.0847  0.8754
 8252SOL    HW136215   3.142   2.061   0.595  0.8523 -1.6957  0.1398
 8252SOL    HW236216   3.247   1.996   0.521  0.4911  0.0049  0.9380
 8253SOL     OW36217   3.891   2.019  16.610  0.1651  0.6610  0.5477
 8253SOL    HW136218   3.899   1.967  16.690  2.7416 -2.0833 -1.5157
 8253SOL    HW236219   3.982   2.042  16.593  0.6019  0.7881  2.9916
 8254SOL     OW36220   1.253   2.069   0.074 -0.0772  0.2771  0.0810
 8254SOL    HW136221   1.187   2.106   0.017  1.4679  2.1025 -0.5296
 8254SOL    HW236222   1.219   1.981   0.090 -0.3230  0.1659 -1.0724
 8255SOL     OW36223   1.172   0.978  10.591 -0.9073  0.6711 -0.0856
 8255SOL    HW136224   1.152   1.036  10.518 -1.6923  0.5246  0.0142
 8255SOL    HW236225   1.092   0.994  10.641 -0.2734  0.1069  1.1226
 8256SOL     OW36226   0.873   3.781   0.337 -0.5265  0.2037 -0.1055
 8256SOL    HW136227   0.801   3.842   0.354 -0.3342 -0.1906  2.1433
 8256SOL    HW236228   0.917   3.830   0.268  0.3017  0.6735  0.7571
 8257SOL     OW36229   3.219   2.151   9.795  0.5396 -0.5099  0.1513
 8257SOL    HW136230   3.276   2.089   9.840  0.5867 -1.6214 -1.4433
 8257SOL    HW236231   3.247   2.232   9.838  1.3454 -0.9101  0.3847
 8258SOL     OW36232   0.212   4.196  13.735 -0.3648  0.3061  0.3671
 8258SOL    HW136233   0.185   4.156  13.653 -1.3348 -1.7522  1.7065
 8258SOL    HW236234   0.126   4.234  13.754 -1.9549 -2.2089 -1.7520
 8259SOL     OW36235   1.673   1.754   0.070 -0.3147  0.2978 -0.1630
 8259SOL    HW136236   1.688   1.835   0.119 -1.6375  0.6177 -0.3008
 8259SOL    HW236237   1.640   1.787  17.675  0.7999  1.8385  0.0026
 8260SOL     OW36238   1.696   0.652  15.427  0.8194 -0.1275  0.2598
 8260SOL    HW136239   1.639   0.699  15.487 -0.1839 -0.7317 -0.2167
 8260SOL    HW236240   1.705   0.573  15.479  1.7890 -1.7925 -2.4224
 8261SOL     OW36241   3.025   4.110  10.483 -0.2802 -0.0724 -0.0446
 8261SOL    HW136242   3.099   4.080  10.431 -0.3790 -1.0198  0.3564
 8261SOL    HW236243   3.076   4.168  10.540  0.1277 -3.7464  3.3962
 8262SOL     OW36244   1.577   2.040   7.619  0.1266  0.4110  0.2742
 8262SOL    HW136245   1.514   1.969   7.626  0.9059 -0.3494 -0.4229
 8262SOL    HW236246   1.590   2.039   7.524 -0.1932  1.8418  0.2169
 8263SOL     OW36247   2.516   3.940  16.737 -0.7958  0.3809  0.1423
 8263SOL    HW136248   2.473   3.989  16.807 -1.0846  1.1224 -0.5418
 8263SOL    HW236249   2.513   3.854  16.779  1.4706  0.3770  0.2745
 8264SOL     OW36250   1.001   2.962   3.881  0.3815 -0.5225 -0.2231
 8264SOL    HW136251   1.023   2.934   3.970 -0.6776 -0.8004 -0.0519
 8264SOL    HW236252   0.909   2.938   3.880  0.2948 -0.2519  1.5490
 8265SOL     OW36253   2.638   0.239  11.588 -0.3696  0.0889  0.3017
 8265SOL    HW136254   2.592   0.290  11.520 -1.9570  0.7942  1.9051
 8265SOL    HW236255   2.725   0.279  11.579 -0.8327  1.0261 -0.0238
 8266SOL     OW36256   3.705   0.562   5.777  0.1398  0.5563  0.2226
 8266SOL    HW136257   3.610   0.563   5.779  0.0946 -2.5942 -0.9687
 8266SOL    HW236258   3.739   0.531   5.693  1.5080  2.7467 -0.0253
 8267SOL     OW36259   2.486   4.216   6.758  0.3233  0.0460 -0.2275
 8267SOL    HW136260   2.559   4.271   6.785 -1.1585  1.5617  0.7075
 8267SOL    HW236261   2.493   4.226   6.663  0.1562  0.4312 -0.2003
 8268SOL     OW36262   0.543   0.534   3.972  0.3086 -0.5401 -0.5181
 8268SOL    HW136263   0.623   0.490   3.944  0.0809 -2.4415  1.7696
 8268SOL    HW236264   0.529   0.598   3.903  1.3410 -0.5474 -0.7271
 8269SOL     OW36265   0.512   2.546   6.338  0.4139 -0.2326 -0.1462
 8269SOL    HW136266   0.507   2.482   6.267 -0.3597  0.2950 -0.5738
 8269SOL    HW236267   0.447   2.513   6.400  0.2990  0.3886  0.0729
 8270SOL     OW36268   3.694   0.202  14.450  0.1500 -0.0653 -0.1355
 8270SOL    HW136269   3.642   0.121  14.446  0.4331 -0.1707 -1.7110
 8270SOL    HW236270   3.634   0.276  14.452 -1.9224 -1.7888  0.9939
 8271SOL     OW36271   0.417   0.729   3.792  0.1896  0.2721  0.2563
 8271SOL    HW136272   0.393   0.780   3.870 -2.0645  0.0635 -0.2992
 8271SOL    HW236273   0.430   0.797   3.726  1.0513 -0.7664 -0.6473
 8272SOL     OW36274   3.632   3.212  12.939  0.5742  0.3085  0.7872
 8272SOL    HW136275   3.721   3.240  12.958  0.9268  1.3152 -2.2778
 8272SOL    HW236276   3.646   3.122  12.911 -0.0715  0.3907  0.2045
 8273SOL     OW36277   1.651   1.147   6.245  0.3615  0.5237  0.6287
 8273SOL    HW136278   1.740   1.115   6.232  0.6741  1.7806 -0.2427
 8273SOL    HW236279   1.667   1.237   6.274 -1.1502  0.3678  2.0109
 8274SOL     OW36280   2.703   4.392   2.814  0.0592  0.1810  0.1284
 8274SOL    HW136281   2.656   4.313   2.785 -0.2859  0.7244 -0.7809
 8274SOL    HW236282   2.768   4.359   2.875  0.0171 -0.4592 -0.1710
 8275SOL     OW36283   0.352   3.969   2.224 -0.0405 -0.0427 -0.0220
 8275SOL    HW136284   0.310   3.883   2.219 -1.8261  0.9474 -1.8632
 8275SOL    HW236285   0.334   3.982   2.317 -1.2366  3.5890 -0.7422
 8276SOL     OW36286   3.152   2.604  11.919  0.3574 -0.9014 -0.0986
 8276SOL    HW136287   3.150   2.627  11.826  0.7463  0.5394  0.2541
 8276SOL    HW236288   3.090   2.530  11.921 -0.9455  0.1534 -1.0902
 8277SOL     OW36289   0.425   0.193   4.675  0.4359  0.3076  0.8381
 8277SOL    HW136290   0.433   0.271   4.620 -2.5703  1.7805  2.4736
 8277SOL    HW236291   0.408   0.232   4.761 -0.5228  0.0769  0.7615
 8278SOL     OW36292   3.576   2.690   6.103 -0.4292  0.3711  0.0872
 8278SOL    HW136293   3.606   2.779   6.122 -1.1308  0.1080  2.5050
 8278SOL    HW236294   3.491   2.688   6.148 -1.1494  1.7738 -1.2197
 8279SOL     OW36295   4.316   0.879   7.201  0.5751  0.3678  0.4359
 8279SOL    HW136296   4.407   0.847   7.203  0.5931  0.0071 -4.9640
 8279SOL    HW236297   4.319   0.935   7.278 -0.0260 -0.3041  0.9461
 8280SOL     OW36298   4.656   0.472   7.923  0.5789 -0.1215 -0.5185
 8280SOL    HW136299   4.655   0.376   7.927  3.3641 -0.0793  2.3023
 8280SOL    HW236300   4.585   0.499   7.866  0.6552  2.2243  0.5034
 8281SOL     OW36301   4.512   2.431  15.297 -0.1656  0.4040  0.3346
 8281SOL    HW136302   4.421   2.437  15.268 -0.2235  0.8934  0.6210
 8281SOL    HW236303   4.550   2.513  15.264  0.1558  0.1992  0.1973
 8282SOL     OW36304   1.096   1.221  17.124  0.1471 -0.0844  0.0274
 8282SOL    HW136305   1.181   1.265  17.127 -0.2786  0.7359  0.1169
 8282SOL    HW236306   1.117   1.130  17.101  1.0582 -0.1801  1.2160
 8283SOL     OW36307   2.913   3.045   7.848 -0.0177  0.1522  0.3186
 8283SOL    HW136308   2.953   3.027   7.933  1.2067 -1.7560 -0.6668
 8283SOL    HW236309   2.941   3.135   7.834 -1.5167  0.5856  0.0548
 8284SOL     OW36310   1.811   2.513   8.747  0.3856  0.2627 -0.0101
 8284SOL    HW136311   1.885   2.498   8.805 -0.0897 -1.7834  0.0865
 8284SOL    HW236312   1.745   2.547   8.807 -0.6321 -0.8619 -0.4835
 8285SOL     OW36313   3.533   3.638   8.514 -0.0509 -0.6671  0.1102
 8285SOL    HW136314   3.587   3.559   8.505  0.6468 -0.1344 -0.3683
 8285SOL    HW236315   3.486   3.616   8.594 -1.0131 -0.1871 -0.3274
 8286SOL     OW36316   1.616   2.117  16.636 -0.3054  0.1705 -0.3400
 8286SOL    HW136317   1.570   2.201  16.628  0.2075  0.5234  0.4848
 8286SOL    HW236318   1.633   2.106  16.729 -1.1315  1.1801 -0.0709
 8287SOL     OW36319   1.139   0.403   1.116 -0.2524 -0.6756 -0.3633
 8287SOL    HW136320   1.055   0.358   1.129 -1.9424  2.6025  0.1261
 8287SOL    HW236321   1.137   0.407   1.020  0.4356 -0.0265 -0.3469
 8288SOL     OW36322   4.610   1.736  15.372  0.1015 -0.0615  0.4277
 8288SOL    HW136323   4.518   1.751  15.393  0.6045  0.9792  1.8835
 8288SOL    HW236324   4.611   1.647  15.337  1.0044  0.0953  0.0429
 8289SOL     OW36325   3.800   3.802  13.928 -0.4395 -0.2047 -0.0610
 8289SOL    HW136326   3.723   3.766  13.971 -0.0118 -0.6493  0.3360
 8289SOL    HW236327   3.837   3.721  13.891 -0.1696  1.1908 -2.8822
 8290SOL     OW36328   1.127   1.074   1.483  0.0826 -0.9773 -0.6230
 8290SOL    HW136329   1.083   0.993   1.457  2.4314 -2.1571 -0.8481
 8290SOL    HW236330   1.210   1.059   1.439  0.0238  0.2827 -1.1830
 8291SOL     OW36331   0.342   1.593   8.148  0.0717  0.0340  0.0521
 8291SOL    HW136332   0.366   1.538   8.074  2.5253 -1.8184  2.1850
 8291SOL    HW236333   0.272   1.537   8.181  0.4483 -0.6056 -0.2350
 8292SOL     OW36334   1.756   2.755  11.082 -0.4724 -0.1366  0.0056
 8292SOL    HW136335   1.708   2.798  11.153 -0.8309 -2.0490  0.9145
 8292SOL    HW236336   1.838   2.760  11.130 -0.6680 -1.3368  0.4857
 8293SOL     OW36337   3.514   1.828   6.547 -0.0963  0.2486 -0.1174
 8293SOL    HW136338   3.519   1.878   6.466  0.5384  3.7126  2.0592
 8293SOL    HW236339   3.607   1.815   6.566  0.0227  0.8075 -0.3463
 8294SOL     OW36340   1.139   1.787   8.757 -0.2578 -0.0245  0.0759
 8294SOL    HW136341   1.184   1.761   8.676 -2.0400  0.9967 -1.2453
 8294SOL    HW236342   1.214   1.821   8.806  0.8888 -2.1615 -0.1639
 8295SOL     OW36343   4.163   1.284   4.053  0.7464  0.1040  0.2830
 8295SOL    HW136344   4.179   1.377   4.071  2.0775 -0.3032  1.2322
 8295SOL    HW236345   4.149   1.302   3.961 -0.5227  0.4946  0.5541
 8296SOL     OW36346   0.548   3.273   6.190  0.1520  0.2873  0.2586
 8296SOL    HW136347   0.581   3.321   6.114  0.1598 -0.2865 -0.1029
 8296SOL    HW236348   0.510   3.346   6.239  1.1682  0.5968  0.5850
 8297SOL     OW36349   3.301   0.734   3.468 -0.0535 -0.3760 -0.0221
 8297SOL    HW136350   3.352   0.657   3.442  0.0921 -0.0255 -0.7507
 8297SOL    HW236351   3.223   0.702   3.514 -0.5314 -0.0326 -0.5931
 8298SOL     OW36352   0.236   0.783   2.435  0.4811 -0.1979  0.4018
 8298SOL    HW136353   0.161   0.815   2.384  0.5024 -1.0298 -0.1650
 8298SOL    HW236354   0.302   0.846   2.408  0.9563 -0.5080  0.8566
 8299SOL     OW36355   2.203   1.570   3.977  0.2929 -0.6555 -0.4881
 8299SOL    HW136356   2.191   1.528   3.892 -1.2922 -1.6821  0.2591
 8299SOL    HW236357   2.180   1.661   3.957  0.8281 -0.8837 -2.1642
 8300SOL     OW36358   1.723   2.586   6.117 -0.5095  0.5331 -0.1036
 8300SOL    HW136359   1.737   2.522   6.187  0.9652 -0.5298 -1.3533
 8300SOL    HW236360   1.815   2.613   6.110 -0.1497 -0.0252  2.4727
 8301SOL     OW36361   2.484   0.308  15.115  0.3729  0.0077 -0.7995
 8301SOL    HW136362   2.531   0.266  15.043 -0.9398 -1.2742 -0.9210
 8301SOL    HW236363   2.426   0.240  15.151 -0.3481  1.0169 -0.0661
 8302SOL     OW36364   0.606   3.954   6.868 -0.0811  0.3755 -0.0288
 8302SOL    HW136365   0.594   3.863   6.895 -0.2729 -0.2154 -2.1518
 8302SOL    HW236366   0.530   3.997   6.908 -1.8696 -2.5254 -0.3682
 8303SOL     OW36367   2.970   3.252  15.257 -0.1503 -0.3822 -0.1230
 8303SOL    HW136368   2.958   3.267  15.163  1.9315  0.4582 -0.2662
 8303SOL    HW236369   3.031   3.324  15.272 -0.0243 -0.8738  1.7038
 8304SOL     OW36370   2.365   3.441  15.249 -0.3040  0.1826  0.2191
 8304SOL    HW136371   2.274   3.463  15.228 -0.0827  0.5627 -0.3513
 8304SOL    HW236372   2.346   3.356  15.288  1.0744 -1.2545 -2.2511
 8305SOL     OW36373   1.236   2.844   2.099 -0.1113 -0.0961 -0.1592
 8305SOL    HW136374   1.266   2.754   2.111 -1.4897 -0.3612  1.2431
 8305SOL    HW236375   1.275   2.862   2.013 -1.3301 -0.6102 -0.8129
 8306SOL     OW36376   1.687   1.849  11.951 -0.5855 -0.3099 -0.0296
 8306SOL    HW136377   1.675   1.940  11.976  0.7890 -0.3032  0.6404
 8306SOL    HW236378   1.769   1.849  11.901 -1.0227 -0.8031 -0.7557
 8307SOL     OW36379   0.354   0.319  11.078 -0.1796  0.5969 -0.4081
 8307SOL    HW136380   0.347   0.229  11.111 -2.4227  0.7701 -0.4099
 8307SOL    HW236381   0.313   0.362  11.153  0.2990 -1.9181  1.2970
 8308SOL     OW36382   1.867   1.447  13.755 -0.0327 -0.0883  0.3060
 8308SOL    HW136383   1.775   1.461  13.730  0.1272  0.4002  0.0103
 8308SOL    HW236384   1.857   1.391  13.833  1.0005  2.9688  2.6187
 8309SOL     OW36385   1.244   2.962   6.188  0.0806 -0.4539 -0.1929
 8309SOL    HW136386   1.261   3.018   6.264  2.5233 -1.2975 -0.1090
 8309SOL    HW236387   1.279   2.876   6.212 -1.8725 -1.5050 -1.0800
 8310SOL     OW36388   1.016   2.807   5.429 -0.1691  0.3584 -0.0297
 8310SOL    HW136389   1.089   2.751   5.454 -1.5062 -1.0884  0.6587
 8310SOL    HW236390   1.059   2.890   5.407 -1.7478  1.1743 -0.0266
 8311SOL     OW36391   1.994   1.730   7.687  0.0256 -0.0569  0.1045
 8311SOL    HW136392   1.926   1.748   7.622 -0.1777  0.0656  0.3501
 8311SOL    HW236393   2.075   1.725   7.636 -0.1254 -0.4479 -0.0948
 8312SOL     OW36394   1.631   1.224  13.388 -0.0542 -0.3814  0.3779
 8312SOL    HW136395   1.538   1.244  13.399 -0.3924 -1.6000 -0.2150
 8312SOL    HW236396   1.642   1.246  13.296  2.9659  3.3805  1.6700
 8313SOL     OW36397   0.895   0.985   2.131 -0.2917  0.4169  0.4141
 8313SOL    HW136398   0.885   0.951   2.042  0.4216 -2.2707  1.3526
 8313SOL    HW236399   0.824   0.938   2.175  1.2819 -2.6965 -0.3903
 8314SOL     OW36400   4.267   1.548   7.718  0.0398  0.2260 -0.5264
 8314SOL    HW136401   4.196   1.569   7.778  0.0093  0.5078 -0.6618
 8314SOL    HW236402   4.231   1.470   7.674 -1.9329  0.4727  0.6602
 8315SOL     OW36403   0.824   4.134   7.334 -0.3522 -0.2955 -0.3335
 8315SOL    HW136404   0.738   4.171   7.352 -0.5176 -1.2307  0.7949
 8315SOL    HW236405   0.808   4.041   7.348 -0.2719 -0.3141 -0.3676
 8316SOL     OW36406   3.492   0.229   1.506  0.1883  0.2018 -0.1718
 8316SOL    HW136407   3.581   0.204   1.482  1.2806  3.9502 -0.0418
 8316SOL    HW236408   3.509   0.303   1.564 -0.5326 -0.7814  1.2893
 8317SOL     OW36409   2.916   2.243   3.654  0.0467 -0.5732  0.1650
 8317SOL    HW136410   2.825   2.263   3.634 -0.1499 -1.9187 -0.3126
 8317SOL    HW236411   2.944   2.217   3.566 -1.5820 -0.2451 -0.4489
 8318SOL     OW36412   0.084   2.653  12.134 -0.5040 -0.3808  0.5856
 8318SOL    HW136413   0.043   2.739  12.134 -0.2003 -0.2348  0.8462
 8318SOL    HW236414   0.018   2.594  12.172 -2.7065  0.1508 -2.4696
 8319SOL     OW36415   1.903   1.777  16.493 -0.1366  0.2923  0.1981
 8319SOL    HW136416   1.955   1.719  16.438 -1.4070  0.5262 -1.2723
 8319SOL    HW236417   1.940   1.865  16.483  2.2166 -0.8682 -1.0827
 8320SOL     OW36418   2.098   4.160  16.092  0.7691 -0.6468 -0.5092
 8320SOL    HW136419   2.147   4.241  16.109 -1.8937  0.6572  0.9382
 8320SOL    HW236420   2.078   4.184  16.001 -3.6168 -1.2982  0.2941
 8321SOL     OW36421   4.372   3.372   8.944 -0.0303  0.8677  0.1643
 8321SOL    HW136422   4.375   3.281   8.915 -2.5766  1.2659 -1.3066
 8321SOL    HW236423   4.314   3.414   8.880 -0.0676  0.7230  0.1034
 8322SOL     OW36424   2.000   3.783   0.221  0.3792  0.0764  0.0097
 8322SOL    HW136425   2.038   3.702   0.189  0.5251 -0.0317  0.4668
 8322SOL    HW236426   2.063   3.850   0.194  2.3946 -0.5544  3.1826
 8323SOL     OW36427   2.419   2.162   9.244 -0.4332  0.1597 -0.3366
 8323SOL    HW136428   2.384   2.166   9.155 -0.6632  3.2523 -0.1085
 8323SOL    HW236429   2.513   2.154   9.230 -0.4564  0.5307 -0.6873
 8324SOL     OW36430   0.227   3.913   5.879 -0.1457 -0.5442 -0.2896
 8324SOL    HW136431   0.209   3.830   5.923 -0.8673 -0.8713 -1.1819
 8324SOL    HW236432   0.231   3.881   5.789  0.3734 -0.6200 -0.2364
 8325SOL     OW36433   3.774   1.156   5.229  0.1659  0.8015 -0.5514
 8325SOL    HW136434   3.730   1.175   5.312  1.9584  2.3700  0.0119
 8325SOL    HW236435   3.830   1.081   5.250 -2.2734 -0.2706  2.1395
 8326SOL     OW36436   4.507   1.620   8.814  0.1559  0.5370 -0.2684
 8326SOL    HW136437   4.565   1.684   8.854 -0.6769 -0.4342  2.4401
 8326SOL    HW236438   4.521   1.546   8.872 -1.7476 -0.0887 -0.6187
 8327SOL     OW36439   1.913   2.896  10.708  0.5173 -0.4080  0.0551
 8327SOL    HW136440   1.898   2.921  10.799 -1.9881 -0.8849 -0.2223
 8327SOL    HW236441   2.009   2.892  10.710  0.4769 -1.4881 -0.1269
 8328SOL     OW36442   2.701   3.417  16.147 -0.4158 -0.6630  0.1170
 8328SOL    HW136443   2.767   3.396  16.212  0.4177  1.5752 -0.0302
 8328SOL    HW236444   2.714   3.510  16.129 -0.4106 -0.3562  1.6902
 8329SOL     OW36445   0.488   4.206  17.683 -0.1646  0.2943  0.4053
 8329SOL    HW136446   0.457   4.287   0.035 -3.8017 -0.9281  0.0759
 8329SOL    HW236447   0.512   4.234  17.595 -0.8873 -0.5869 -0.0655
 8330SOL     OW36448   4.283   1.935   3.257  0.3804  0.5292 -0.5488
 8330SOL    HW136449   4.211   1.927   3.193 -1.3423 -0.8919  1.5887
 8330SOL    HW236450   4.341   1.989   3.202  1.7476  1.0361  1.4141
 8331SOL     OW36451   4.648   0.855   9.221 -0.2277 -0.2879 -0.3100
 8331SOL    HW136452   4.707   0.910   9.273 -0.7305  0.7920 -0.8890
 8331SOL    HW236453   4.578   0.856   9.286  0.6976  1.0277  0.6804
 8332SOL     OW36454   0.380   3.591   7.289  0.2434  0.2286  1.4064
 8332SOL    HW136455   0.317   3.523   7.312  1.8551 -1.2867  1.2512
 8332SOL    HW236456   0.410   3.576   7.200  0.4178  0.2501  1.4624
 8333SOL     OW36457   0.372   1.118   3.371 -0.5084 -0.3407 -0.0879
 8333SOL    HW136458   0.390   1.048   3.308 -3.7416 -0.9361 -0.3476
 8333SOL    HW236459   0.431   1.188   3.345  0.3804 -1.0816 -0.1031
 8334SOL     OW36460   1.737   2.391  17.347  0.1777 -0.1673  1.1039
 8334SOL    HW136461   1.770   2.457  17.408 -0.9918  1.2723  0.1822
 8334SOL    HW236462   1.776   2.413  17.263 -1.5729 -1.7612 -0.1343
 8335SOL     OW36463   0.633   3.003  14.606 -0.2776 -0.4137  0.0242
 8335SOL    HW136464   0.597   2.999  14.694 -3.3542  1.7873 -1.1332
 8335SOL    HW236465   0.619   3.095  14.584  0.6116 -0.5095 -0.9493
 8336SOL     OW36466   4.162   4.656   6.600  0.0461  0.1125  0.4942
 8336SOL    HW136467   4.116   4.596   6.659  0.6911 -0.1101  0.7643
 8336SOL    HW236468   4.241   4.669   6.652  0.3517 -0.6175  0.2159
 8337SOL     OW36469   1.973   3.820   2.567 -0.3555  0.2382 -0.0277
 8337SOL    HW136470   2.053   3.785   2.528  0.9456  2.8032  0.3661
 8337SOL    HW236471   1.915   3.755   2.527  3.0339 -2.2604 -0.9051
 8338SOL     OW36472   0.715   2.116   8.909 -0.2757 -0.4673 -0.2386
 8338SOL    HW136473   0.799   2.079   8.884 -0.1854 -0.4482  0.0425
 8338SOL    HW236474   0.658   2.042   8.888 -0.8101 -0.4135  1.0514
 8339SOL     OW36475   0.981   4.202   0.132 -0.6391  0.0636 -0.1063
 8339SOL    HW136476   0.955   4.217   0.223 -0.1422  0.0181  0.0435
 8339SOL    HW236477   0.934   4.274   0.090 -0.5622 -0.2213 -0.6738
 8340SOL     OW36478   0.286   2.176   4.862  0.2863  0.0363 -0.3233
 8340SOL    HW136479   0.371   2.207   4.829  1.0242 -0.2063  1.3310
 8340SOL    HW236480   0.321   2.154   4.949  1.2674 -0.3712 -0.8149
 8341SOL     OW36481   2.988   2.529   6.834  0.4326 -0.4167  0.1106
 8341SOL    HW136482   2.920   2.463   6.821 -0.6850  0.9889 -1.0682
 8341SOL    HW236483   2.946   2.609   6.803  1.1905 -0.3166 -0.6570
 8342SOL     OW36484   3.209   0.566  15.013  0.2464 -0.5146  0.0601
 8342SOL    HW136485   3.252   0.645  15.045  2.1445 -1.4127 -0.2937
 8342SOL    HW236486   3.269   0.532  14.947 -0.9306  0.4610 -1.5355
 8343SOL     OW36487   2.702   4.043  10.513  0.2208  0.3046  0.6034
 8343SOL    HW136488   2.788   4.002  10.506 -0.2064 -0.5927  0.6754
 8343SOL    HW236489   2.718   4.097  10.590 -0.5256  0.0204  0.9544
 8344SOL     OW36490   1.787   4.168   2.368  0.0879 -0.0371  0.7919
 8344SOL    HW136491   1.796   4.095   2.306 -2.0662  0.6722 -0.3604
 8344SOL    HW236492   1.877   4.200   2.378  0.4070 -0.7270  0.1656
 8345SOL     OW36493   0.627   4.401   6.211 -0.5511  0.5906  0.4117
 8345SOL    HW136494   0.696   4.426   6.272 -0.4205  2.1488 -0.3873
 8345SOL    HW236495   0.544   4.422   6.252  0.1882  1.6402  1.3546
 8346SOL     OW36496   4.066   0.434   2.282 -0.0168 -0.0073 -0.0923
 8346SOL    HW136497   4.144   0.415   2.231  0.8575 -0.4755  1.3995
 8346SOL    HW236498   4.075   0.529   2.275 -0.4105 -0.0092 -0.6014
 8347SOL     OW36499   1.342   4.459   5.182  0.3892 -0.0915 -0.3976
 8347SOL    HW136500   1.335   4.381   5.238 -0.0398 -0.7826 -1.4179
 8347SOL    HW236501   1.262   4.446   5.132  0.2990 -0.1545 -0.2378
 8348SOL     OW36502   1.588   3.111   1.624  0.4581  0.0255 -0.7939
 8348SOL    HW136503   1.652   3.068   1.567 -1.3730 -0.3066 -2.5862
 8348SOL    HW236504   1.590   3.199   1.586 -2.2970 -0.9069 -3.0365
 8349SOL     OW36505   3.692   2.703   7.556 -0.3386 -0.1396  0.0657
 8349SOL    HW136506   3.698   2.755   7.476  0.6299 -1.0550 -0.4627
 8349SOL    HW236507   3.766   2.644   7.540  0.2415  0.9224 -1.1711
 8350SOL     OW36508   4.201   4.121   3.433  0.1996 -0.1611 -0.1146
 8350SOL    HW136509   4.252   4.189   3.476  0.1291  1.7379 -3.0309
 8350SOL    HW236510   4.201   4.048   3.496  0.4216 -0.8844 -0.9437
 8351SOL     OW36511   0.624   2.306   7.726  0.1019  0.3157 -0.0578
 8351SOL    HW136512   0.681   2.298   7.802 -0.3120 -1.1467  0.0951
 8351SOL    HW236513   0.538   2.324   7.765  0.4393  1.8959 -0.0436
 8352SOL     OW36514   0.039   0.409  16.668 -0.0463 -0.3389  0.1865
 8352SOL    HW136515   0.086   0.444  16.592  1.0556 -0.4141  0.8318
 8352SOL    HW236516   0.118   0.380  16.715  1.1902 -0.2770 -1.8474
 8353SOL     OW36517   4.184   4.441   0.754  0.0051 -0.6199 -0.4132
 8353SOL    HW136518   4.168   4.528   0.791  2.2545 -0.3288 -0.0812
 8353SOL    HW236519   4.277   4.445   0.729  0.4819 -1.6464  1.2166
 8354SOL     OW36520   2.569   2.664   7.898  0.7302 -0.3431 -0.1898
 8354SOL    HW136521   2.627   2.735   7.871  1.3709 -0.9917 -0.5349
 8354SOL    HW236522   2.515   2.706   7.964 -0.0351  2.2968 -2.5035
 8355SOL     OW36523   0.969   3.527   0.232  0.2428 -0.9803 -0.4753
 8355SOL    HW136524   0.964   3.602   0.292 -1.3553 -0.0524 -1.7521
 8355SOL    HW236525   0.964   3.455   0.294  0.1643 -0.7967 -0.2653
 8356SOL     OW36526   4.400   0.789   6.443 -0.8094 -0.0198  0.4847
 8356SOL    HW136527   4.395   0.700   6.475 -0.9631  0.5754  2.0962
 8356SOL    HW236528   4.316   0.793   6.397 -1.0932  1.3570  1.1322
 8357SOL     OW36529   1.589   0.888   5.757 -0.0342 -0.4621  0.3656
 8357SOL    HW136530   1.600   0.799   5.721 -2.8972 -0.7515  0.1357
 8357SOL    HW236531   1.684   0.892   5.764 -0.2087  1.0412  1.6249
 8358SOL     OW36532   1.680   0.107   4.181 -0.3324  0.0086 -0.3043
 8358SOL    HW136533   1.737   0.183   4.171 -0.2487  0.0143  0.2267
 8358SOL    HW236534   1.721   0.069   4.258 -3.5539  1.0229  1.9101
 8359SOL     OW36535   1.979   0.554  10.440 -0.2429  0.1988  0.6410
 8359SOL    HW136536   1.940   0.467  10.446 -1.8652  0.8943  0.0554
 8359SOL    HW236537   2.021   0.549  10.354  0.7880  2.5492  1.0126
 8360SOL     OW36538   4.491   3.143  16.223  0.4199  0.2854 -0.0990
 8360SOL    HW136539   4.418   3.085  16.245 -1.0603  2.4341  0.6313
 8360SOL    HW236540   4.452   3.230  16.236 -0.4947  0.0652 -1.3713
 8361SOL     OW36541   4.394   3.000   9.317 -0.3468 -0.2667  0.1078
 8361SOL    HW136542   4.420   2.909   9.331 -0.7927 -0.4492 -0.2373
 8361SOL    HW236543   4.445   3.025   9.240 -1.7244  1.0688 -0.3748
 8362SOL     OW36544   0.794   1.156   3.233  0.1535  0.3712 -0.0979
 8362SOL    HW136545   0.787   1.246   3.264  0.1392  0.3115  0.0729
 8362SOL    HW236546   0.771   1.163   3.140 -1.4155 -0.7317  0.1893
 8363SOL     OW36547   0.777   1.205   4.515 -0.3474  0.1457 -0.2713
 8363SOL    HW136548   0.767   1.258   4.436  0.2319  1.6929  0.6844
 8363SOL    HW236549   0.717   1.249   4.576 -0.2545  0.2548 -0.2595
 8364SOL     OW36550   0.617   2.966  17.296  0.2129 -0.2200  0.1093
 8364SOL    HW136551   0.629   3.047  17.345  4.4305 -0.9033  0.1847
 8364SOL    HW236552   0.667   2.908  17.353 -1.3780 -2.0864 -0.3771
 8365SOL     OW36553   4.237   1.545   4.617  0.2040 -0.2453  0.1241
 8365SOL    HW136554   4.203   1.483   4.681 -0.4616  1.4210  1.3964
 8365SOL    HW236555   4.198   1.512   4.537 -1.1777 -1.7098  1.4075
 8366SOL     OW36556   2.334   1.863   4.542  0.2502  0.4452  0.0809
 8366SOL    HW136557   2.308   1.804   4.612  0.7279  0.7046  0.4724
 8366SOL    HW236558   2.391   1.811   4.486  1.7633 -1.2543  3.2421
 8367SOL     OW36559   1.857   4.140   1.369  0.0336 -0.0546  0.5150
 8367SOL    HW136560   1.924   4.072   1.366 -1.6839 -1.7516  0.7845
 8367SOL    HW236561   1.809   4.125   1.451 -1.5307  1.1285 -0.1823
 8368SOL     OW36562   1.263   3.047  10.675  0.0969 -0.1295 -0.0602
 8368SOL    HW136563   1.238   3.137  10.650  2.7336 -0.0838 -2.5550
 8368SOL    HW236564   1.269   3.048  10.770 -1.2443 -0.1494  0.0269
 8369SOL     OW36565   3.373   4.043   3.997 -0.2828 -0.3974  0.0733
 8369SOL    HW136566   3.416   4.082   3.921  0.7335  1.4271  1.5887
 8369SOL    HW236567   3.345   4.121   4.047  1.1853  0.0035  0.2505
 8370SOL     OW36568   0.410   4.307   1.208 -0.6383  0.1442 -0.1108
 8370SOL    HW136569   0.444   4.340   1.124  0.2563  1.1219  0.6244
 8370SOL    HW236570   0.477   4.246   1.238 -1.6420 -0.5581  0.6920
 8371SOL     OW36571   0.555   0.304  15.486 -0.7171  0.3927  0.3237
 8371SOL    HW136572   0.541   0.388  15.443  0.7664 -0.7030 -2.3195
 8371SOL    HW236573   0.610   0.325  15.561  0.4175  0.5497 -0.5527
 8372SOL     OW36574   0.857   3.249   2.133 -0.3167  0.3125  0.2857
 8372SOL    HW136575   0.906   3.185   2.081 -0.9494  0.3393 -0.3393
 8372SOL    HW236576   0.870   3.326   2.078  0.6771  0.1666  0.3227
 8373SOL     OW36577   2.971   1.859   4.595 -0.1180 -1.0892 -0.0498
 8373SOL    HW136578   2.926   1.874   4.678 -0.4190  0.0010 -0.4110
 8373SOL    HW236579   3.061   1.839   4.619  0.5691 -0.1868 -1.8843
 8374SOL     OW36580   0.426   2.579   0.355  0.1086 -0.0297 -0.2821
 8374SOL    HW136581   0.486   2.536   0.295 -2.5055 -1.3050 -2.0233
 8374SOL    HW236582   0.487   2.594   0.427 -0.1952  2.4767 -0.5421
 8375SOL     OW36583   2.446   4.555   4.370  0.6884  0.0638 -0.8796
 8375SOL    HW136584   2.362   4.543   4.414  0.4230 -0.1604 -1.4451
 8375SOL    HW236585   2.460   4.462   4.351  0.1823 -0.3177  0.6348
 8376SOL     OW36586   0.596   3.434   8.141 -0.3535  0.3499  0.1573
 8376SOL    HW136587   0.664   3.452   8.206  0.2447 -0.0573 -0.3526
 8376SOL    HW236588   0.647   3.370   8.091 -1.0652  0.1303 -0.2907
 8377SOL     OW36589   1.385   4.471   3.990  0.7752 -0.0009 -0.1850
 8377SOL    HW136590   1.389   4.507   3.901  1.2989  2.2477  0.7241
 8377SOL    HW236591   1.451   4.521   4.039  1.3371 -0.5608 -0.3676
 8378SOL     OW36592   3.348   2.684   8.360 -0.3786  0.5564  0.1179
 8378SOL    HW136593   3.416   2.724   8.305  0.0829 -0.0788  0.2187
 8378SOL    HW236594   3.399   2.678   8.441 -0.1092  1.0247 -0.0145
 8379SOL     OW36595   1.692   1.560  10.788 -0.5471 -0.1480  0.3496
 8379SOL    HW136596   1.622   1.612  10.748 -1.2042 -1.9685 -0.8846
 8379SOL    HW236597   1.738   1.523  10.713  0.4897 -2.4349  2.1326
 8380SOL     OW36598   1.511   3.804   7.323  0.5980  0.3789 -0.5347
 8380SOL    HW136599   1.449   3.755   7.376  1.6822  0.8520  1.1625
 8380SOL    HW236600   1.597   3.784   7.361  0.0444  0.2224  0.6404
 8381SOL     OW36601   3.219   3.122  14.647 -0.3958  0.0790 -0.5982
 8381SOL    HW136602   3.219   3.135  14.552 -1.8233  1.0232 -0.4512
 8381SOL    HW236603   3.255   3.207  14.670 -1.8065  0.7754 -0.9846
 8382SOL     OW36604   3.460   1.565   2.901  0.0738  0.4804 -0.2080
 8382SOL    HW136605   3.552   1.584   2.880  1.0813 -2.3734  1.5393
 8382SOL    HW236606   3.451   1.619   2.980  0.6906  0.5938 -0.2162
 8383SOL     OW36607   1.777   3.012   5.246  0.3439 -1.0042  0.2392
 8383SOL    HW136608   1.828   3.034   5.323  0.5277  0.6883 -0.3692
 8383SOL    HW236609   1.844   2.996   5.180 -1.7956 -3.5620 -1.3380
 8384SOL     OW36610   2.243   3.303   5.906 -0.5682 -0.3315 -0.0880
 8384SOL    HW136611   2.208   3.363   5.972 -0.9002 -0.3031 -0.2893
 8384SOL    HW236612   2.253   3.355   5.826 -1.6378 -0.8493 -0.5685
 8385SOL     OW36613   2.612   0.323   5.071 -0.1818 -0.0317 -0.2043
 8385SOL    HW136614   2.592   0.257   5.138  0.6411 -0.6842 -0.5965
 8385SOL    HW236615   2.659   0.267   5.009  1.7159  2.1366 -0.6795
 8386SOL     OW36616   3.929   4.094  12.242  0.4937 -0.1742 -0.2105
 8386SOL    HW136617   3.997   4.133  12.187  1.1787 -0.3090  0.5436
 8386SOL    HW236618   3.852   4.097  12.185 -0.4866 -0.7066  1.0743
 8387SOL     OW36619   1.879   3.034  16.493 -0.4959  0.1560  0.5377
 8387SOL    HW136620   1.820   3.092  16.444 -0.0508 -0.2332 -0.4727
 8387SOL    HW236621   1.945   3.019  16.425 -0.9661  2.1498 -0.3787
 8388SOL     OW36622   1.322   3.402   4.307 -0.1457  0.0803  0.0160
 8388SOL    HW136623   1.238   3.441   4.330 -1.8986 -0.2264 -5.6667
 8388SOL    HW236624   1.299   3.352   4.229  0.0380  0.2928 -0.1764
 8389SOL     OW36625   1.645   1.543   4.978 -0.5220 -0.0782  0.1689
 8389SOL    HW136626   1.660   1.501   4.893  0.6637  1.1009 -0.1952
 8389SOL    HW236627   1.658   1.465   5.032  1.3857  0.1948  0.0862
 8390SOL     OW36628   0.574   2.658  17.641  0.1093  0.3965 -0.3387
 8390SOL    HW136629   0.508   2.706   0.002  0.4187  1.3583 -0.8633
 8390SOL    HW236630   0.591   2.581   0.008 -1.8550 -0.0986 -0.4275
 8391SOL     OW36631   2.931   2.481  14.477  0.6503 -0.4141 -0.3035
 8391SOL    HW136632   2.890   2.567  14.486  1.4656  0.0016 -0.5941
 8391SOL    HW236633   2.993   2.513  14.411  0.2654  0.3425 -0.2940
 8392SOL     OW36634   2.873   3.342  11.582 -0.1055 -0.1792  0.5227
 8392SOL    HW136635   2.816   3.392  11.524  0.6850 -1.1720 -1.1277
 8392SOL    HW236636   2.835   3.254  11.581 -0.8996  0.1568  1.8368
 8393SOL     OW36637   0.556   1.671   1.175  0.0007 -0.0157  0.1027
 8393SOL    HW136638   0.625   1.604   1.176 -0.4662 -0.5009 -0.4473
 8393SOL    HW236639   0.554   1.707   1.087  0.6203  0.4802  0.2927
 8394SOL     OW36640   4.233   3.050   3.573  1.0280  0.3309 -0.2013
 8394SOL    HW136641   4.170   3.098   3.519  0.1117 -0.1273  0.4625
 8394SOL    HW236642   4.187   2.967   3.590  1.4373  0.5651  2.0222
 8395SOL     OW36643   0.246   0.301   2.661 -0.1903 -0.4047 -0.2020
 8395SOL    HW136644   0.235   0.380   2.608 -0.9820 -0.4331 -0.0866
 8395SOL    HW236645   0.336   0.284   2.635 -0.2131 -0.1647 -0.4260
 8396SOL     OW36646   0.329   2.692  12.306  0.0255 -0.2443  0.2851
 8396SOL    HW136647   0.277   2.725  12.381 -0.3502  0.8005 -0.4297
 8396SOL    HW236648   0.414   2.719  12.342  0.9454 -0.9050 -1.4475
 8397SOL     OW36649   0.377   2.038  11.602  0.2665  0.1438  0.0640
 8397SOL    HW136650   0.341   2.090  11.531  0.1524  0.6934  0.5212
 8397SOL    HW236651   0.466   2.027  11.568  0.9266 -0.7171  2.0052
 8398SOL     OW36652   2.450   1.181   2.713  0.5454 -0.0550  0.2246
 8398SOL    HW136653   2.397   1.227   2.778 -0.0260 -1.1048  0.5075
 8398SOL    HW236654   2.386   1.113   2.688  1.4304 -0.8293  0.0715
 8399SOL     OW36655   3.984   0.451  17.129 -0.4558  0.1790  0.2847
 8399SOL    HW136656   4.020   0.438  17.217 -0.7985 -4.0202 -0.1682
 8399SOL    HW236657   4.045   0.412  17.066  0.2578  2.0939 -0.2239
 8400SOL     OW36658   3.529   4.170   7.129 -0.0304 -0.2310  0.4587
 8400SOL    HW136659   3.566   4.249   7.167 -0.7408 -0.0673  0.8050
 8400SOL    HW236660   3.473   4.208   7.061  1.3533 -1.7867 -1.5762
 8401SOL     OW36661   2.934   3.124   9.302 -0.5892  0.0588  0.1304
 8401SOL    HW136662   2.994   3.088   9.237 -2.6114  0.2985 -1.8454
 8401SOL    HW236663   2.858   3.156   9.254  0.0438  0.5587 -0.5472
 8402SOL     OW36664   4.432   2.294   6.509  0.1001 -0.5143 -0.4433
 8402SOL    HW136665   4.381   2.232   6.561  1.0912 -0.3566  0.7098
 8402SOL    HW236666   4.360   2.355   6.490 -0.9078 -1.2700  0.9446
 8403SOL     OW36667   1.697   1.881  13.530 -0.2366  0.4799  0.4744
 8403SOL    HW136668   1.670   1.954  13.586  0.3183  0.3215  0.9450
 8403SOL    HW236669   1.615   1.836  13.510  1.0129 -0.7587 -1.8902
 8404SOL     OW36670   2.472   4.318  16.350  0.3368 -0.0588 -0.1581
 8404SOL    HW136671   2.461   4.279  16.437 -1.9641 -0.1938 -0.5218
 8404SOL    HW236672   2.559   4.283  16.332  0.2700 -0.9069  1.1531
 8405SOL     OW36673   3.561   1.198  11.567 -0.1347 -0.1883  0.4607
 8405SOL    HW136674   3.644   1.220  11.609  1.4124  1.7339 -3.6295
 8405SOL    HW236675   3.590   1.146  11.492 -1.6273  0.1780 -0.3726
 8406SOL     OW36676   1.068   3.124   8.315  0.4340  0.1278  0.0268
 8406SOL    HW136677   1.024   3.164   8.390  2.0737  1.3038  0.3708
 8406SOL    HW236678   1.124   3.063   8.363 -0.2763  0.3280  1.1218
 8407SOL     OW36679   4.581   3.460  16.118 -0.4095 -0.2322  0.4674
 8407SOL    HW136680   4.601   3.398  16.048  0.2531 -0.1903  0.6250
 8407SOL    HW236681   4.525   3.512  16.060 -0.3837 -1.6291 -0.8038
 8408SOL     OW36682   4.464   2.584   7.862 -0.4361 -0.3733 -0.0283
 8408SOL    HW136683   4.412   2.649   7.815 -0.3475 -0.2453  0.0515
 8408SOL    HW236684   4.461   2.607   7.955 -2.1286 -2.0017  0.3328
 8409SOL     OW36685   2.382   4.299  10.838  0.1108  0.0007  0.0664
 8409SOL    HW136686   2.469   4.293  10.877  0.1233 -2.0686 -0.2332
 8409SOL    HW236687   2.333   4.227  10.880  0.4640  0.7380  1.7395
 8410SOL     OW36688   1.630   0.939   1.958 -0.0977 -0.1139  0.8974
 8410SOL    HW136689   1.657   1.031   1.958 -0.9630  0.1510  1.6475
 8410SOL    HW236690   1.567   0.943   2.030 -1.2113  3.4644 -0.2775
 8411SOL     OW36691   3.418   4.632   9.225 -0.4850  0.1130 -0.0669
 8411SOL    HW136692   3.404   4.711   9.277  1.1820 -0.8791  1.8585
 8411SOL    HW236693   3.426   4.570   9.297  0.8726 -0.1759 -0.4685
 8412SOL     OW36694   2.759   4.394   3.769 -0.1402  0.3686 -0.2055
 8412SOL    HW136695   2.683   4.415   3.823  0.0913 -2.6032  1.2852
 8412SOL    HW236696   2.761   4.303   3.799 -0.4441  0.6163  0.5812
 8413SOL     OW36697   3.736   2.420   2.285 -0.3959  0.5138  0.0735
 8413SOL    HW136698   3.687   2.395   2.207 -0.8832  0.9424  0.2470
 8413SOL    HW236699   3.800   2.348   2.284  0.3711  1.1602  1.8244
 8414SOL     OW36700   1.283   0.238   3.361 -0.6305  0.1618  0.1217
 8414SOL    HW136701   1.260   0.164   3.305  1.1139 -1.9553  2.2124
 8414SOL    HW236702   1.251   0.308   3.304  0.0316  1.8229  1.8154
 8415SOL     OW36703   4.152   3.649   5.620 -0.1754 -0.2851 -0.4285
 8415SOL    HW136704   4.194   3.667   5.536  1.8382  1.1383  0.8814
 8415SOL    HW236705   4.190   3.713   5.679  1.3624 -0.2793 -1.4408
 8416SOL     OW36706   3.344   0.680   7.984  0.7594 -0.0733 -0.1932
 8416SOL    HW136707   3.372   0.666   8.074 -0.9316 -0.9051  0.2068
 8416SOL    HW236708   3.259   0.720   8.003  0.0878 -2.1556  1.0834
 8417SOL     OW36709   2.421   3.524   5.161 -0.0510  0.4327 -0.8027
 8417SOL    HW136710   2.334   3.548   5.193  0.2555  1.5177 -0.7769
 8417SOL    HW236711   2.454   3.604   5.120  0.5547  0.3065 -0.5644
 8418SOL     OW36712   3.939   1.127   7.738 -0.1792  0.4675  0.1677
 8418SOL    HW136713   3.993   1.048   7.747 -1.9434 -0.6052  1.4157
 8418SOL    HW236714   3.914   1.143   7.829  0.4692 -0.6972  0.5453
 8419SOL     OW36715   4.378   1.904   8.596  0.1770 -0.8737 -0.3615
 8419SOL    HW136716   4.319   1.945   8.660  1.2252 -1.8856  1.2673
 8419SOL    HW236717   4.330   1.824   8.576  0.4251 -1.2138  0.3902
 8420SOL     OW36718   0.970   0.713  11.606  0.3421 -0.0350  0.0412
 8420SOL    HW136719   0.952   0.677  11.692  2.0187  1.2340  0.9330
 8420SOL    HW236720   1.065   0.697  11.599  0.5195  1.5439 -1.1476
 8421SOL     OW36721   3.864   3.446   6.356 -0.2295 -0.0947 -0.1802
 8421SOL    HW136722   3.920   3.373   6.385  0.5973  1.6230  2.4577
 8421SOL    HW236723   3.917   3.521   6.382 -0.6945 -0.0540  0.6302
 8422SOL     OW36724   4.649   1.006  16.173  0.2255  0.3802  0.0330
 8422SOL    HW136725   4.694   1.089  16.190  2.5398 -0.3708 -2.4120
 8422SOL    HW236726   4.562   1.026  16.209  0.2748 -0.1898  0.4612
 8423SOL     OW36727   4.470   1.194  14.440  0.1164 -0.0580  0.1221
 8423SOL    HW136728   4.508   1.109  14.419  0.2860 -0.0015  0.2034
 8423SOL    HW236729   4.381   1.168  14.465 -0.1729 -1.9616 -2.9460
 8424SOL     OW36730   2.028   2.278   1.940 -0.0750  0.1042  0.3709
 8424SOL    HW136731   2.100   2.273   2.003 -1.2594 -0.8480  1.6640
 8424SOL    HW236732   1.960   2.281   2.008 -0.6650 -0.0356 -0.2158
 8425SOL     OW36733   1.034   0.080   8.459 -0.3521 -0.3792 -0.0381
 8425SOL    HW136734   1.115   0.029   8.468 -0.9659 -1.3581 -0.0569
 8425SOL    HW236735   1.053   0.160   8.507 -0.5994  0.6345 -1.6174
 8426SOL     OW36736   0.043   4.060   1.055  0.6377 -0.3538  0.2032
 8426SOL    HW136737   4.692   4.110   1.015 -1.2330 -1.2290  2.5233
 8426SOL    HW236738   4.709   3.998   1.101 -0.9649 -0.1751 -1.4494
 8427SOL     OW36739   4.446   4.641   4.015  0.3915 -0.7031 -0.1246
 8427SOL    HW136740   4.351   4.636   4.007  0.5081  1.1992 -2.6063
 8427SOL    HW236741   4.446   4.561   4.067 -2.2418  0.1834  1.2599
 8428SOL     OW36742   0.980   2.072  14.627  0.5053 -0.4847  0.7623
 8428SOL    HW136743   0.937   2.003  14.576 -2.2027  1.0925  0.9027
 8428SOL    HW236744   1.026   2.127  14.564 -0.9599 -0.3802 -0.1957
 8429SOL     OW36745   1.469   1.209   4.872 -0.0042  0.5732  0.2180
 8429SOL    HW136746   1.475   1.303   4.888 -0.2011  0.2439  2.1531
 8429SOL    HW236747   1.386   1.198   4.825  0.2497 -0.2716 -0.0296
 8430SOL     OW36748   1.868   0.420   8.541 -1.2067  0.2481  0.7325
 8430SOL    HW136749   1.884   0.414   8.635 -1.6625  2.1783  0.9340
 8430SOL    HW236750   1.938   0.474   8.504 -2.2762  1.9609  1.1612
 8431SOL     OW36751   1.740   3.045   1.869  0.2045 -0.4977 -0.2174
 8431SOL    HW136752   1.750   3.027   1.775 -1.1447  0.3469 -0.5234
 8431SOL    HW236753   1.686   3.124   1.872  3.9534  2.0334  0.3152
 8432SOL     OW36754   1.943   1.482   9.849 -0.3860  1.1817  0.0356
 8432SOL    HW136755   1.964   1.566   9.808 -2.3696  1.4000 -0.5857
 8432SOL    HW236756   2.030   1.447   9.866 -1.7852 -2.7940 -0.9653
 8433SOL     OW36757   0.581   2.954  13.499 -0.1243  0.4325 -0.3010
 8433SOL    HW136758   0.574   2.942  13.404  1.4721  0.7574 -0.4626
 8433SOL    HW236759   0.673   2.971  13.518 -0.5618  3.9415 -1.2657
 8434SOL     OW36760   2.646   2.311   7.070 -0.1685  0.0050 -0.1343
 8434SOL    HW136761   2.741   2.305   7.059 -0.5727 -0.9769 -3.1722
 8434SOL    HW236762   2.632   2.404   7.085 -0.5418 -0.1878  0.6787
 8435SOL     OW36763   2.678   4.662   4.474 -0.4573 -0.1285  0.4494
 8435SOL    HW136764   2.586   4.645   4.457 -0.1700 -3.1168  1.8765
 8435SOL    HW236765   2.705   4.590   4.531  1.6882 -0.3398 -0.8038
 8436SOL     OW36766   2.560   0.474   7.156 -0.1531  0.2415 -0.0823
 8436SOL    HW136767   2.647   0.491   7.194  0.5393  0.9949 -1.9797
 8436SOL    HW236768   2.518   0.457   7.240 -1.9904 -1.8526 -1.4186
 8437SOL     OW36769   0.800   4.607  13.198 -0.3309  0.2591  0.1391
 8437SOL    HW136770   0.716   4.614  13.154 -1.7720 -1.8235  2.5585
 8437SOL    HW236771   0.832   4.519  13.178  1.4786  1.2211 -1.1879
 8438SOL     OW36772   0.751   1.583  13.167  0.1705  0.6595 -0.0592
 8438SOL    HW136773   0.725   1.561  13.256 -0.0984  0.9806 -0.0579
 8438SOL    HW236774   0.689   1.655  13.155 -0.0381  0.3762 -0.6840
 8439SOL     OW36775   2.998   3.226   0.316  0.0349 -0.2015 -0.0751
 8439SOL    HW136776   2.988   3.202   0.408 -0.1781  1.6628  0.3762
 8439SOL    HW236777   3.077   3.280   0.315  0.0993 -0.2976 -0.4406
 8440SOL     OW36778   1.881   2.459   6.326 -0.4419  0.3074 -0.6970
 8440SOL    HW136779   1.920   2.373   6.340 -2.0370 -0.7434 -2.7281
 8440SOL    HW236780   1.858   2.500   6.409 -1.3241  1.8628 -1.7122
 8441SOL     OW36781   0.826   0.150  12.203  0.2213 -0.0132 -0.5500
 8441SOL    HW136782   0.868   0.126  12.285 -0.2727  2.2453  0.3628
 8441SOL    HW236783   0.790   0.063  12.185  0.3950  0.0185 -1.0598
 8442SOL     OW36784   2.257   2.815   3.283  0.1580 -0.7779  0.2699
 8442SOL    HW136785   2.350   2.833   3.297 -0.6254  1.8719  2.0584
 8442SOL    HW236786   2.227   2.903   3.307  0.9096 -0.8061  1.2885
 8443SOL     OW36787   3.669   0.713   9.093 -0.3738  0.4843  0.7587
 8443SOL    HW136788   3.598   0.661   9.133  1.1024 -0.1293  2.5563
 8443SOL    HW236789   3.749   0.670   9.122 -1.4267 -1.6503  0.5135
 8444SOL     OW36790   3.845   0.741  15.776  0.5791 -0.3494  0.2941
 8444SOL    HW136791   3.858   0.656  15.818 -1.0693 -1.2794 -1.0885
 8444SOL    HW236792   3.934   0.769  15.754 -0.0628  0.1989 -1.6087
 8445SOL     OW36793   0.429   3.718  13.095 -0.3813  0.3211 -0.6102
 8445SOL    HW136794   0.413   3.710  13.190 -1.3103  0.0924 -0.7844
 8445SOL    HW236795   0.431   3.814  13.094 -0.1598  0.3021 -1.3746
 8446SOL     OW36796   0.429   3.501   0.337 -0.1058  0.0214  0.5337
 8446SOL    HW136797   0.437   3.430   0.401  0.0070 -0.8150 -0.4001
 8446SOL    HW236798   0.421   3.569   0.403 -1.1807  0.9117 -0.5189
 8447SOL     OW36799   1.676   0.501   1.970 -0.3131  0.1927  0.5561
 8447SOL    HW136800   1.595   0.549   1.985  0.1062  0.9058  0.5206
 8447SOL    HW236801   1.696   0.532   1.882 -1.2570  2.0709  1.0005
 8448SOL     OW36802   2.635   1.258   3.330 -0.0713  0.2048  0.2307
 8448SOL    HW136803   2.550   1.219   3.346  0.9097 -1.6055  1.0081
 8448SOL    HW236804   2.676   1.234   3.413  0.9540  0.6826 -0.1246
 8449SOL     OW36805   3.468   4.227   3.408  0.1044  0.4939 -0.1717
 8449SOL    HW136806   3.545   4.284   3.412  1.0764 -0.7747 -0.8625
 8449SOL    HW236807   3.462   4.217   3.313 -0.4649  0.5750 -0.1436
 8450SOL     OW36808   3.254   0.886  14.642 -0.4047  0.3196 -0.6309
 8450SOL    HW136809   3.162   0.865  14.661 -0.6993  2.4336  0.3258
 8450SOL    HW236810   3.286   0.797  14.628 -0.5136  0.1352  0.3025
 8451SOL     OW36811   2.091   2.116  15.123 -0.4455 -0.1717 -0.2491
 8451SOL    HW136812   2.109   2.145  15.212  0.2068  1.0348 -0.7741
 8451SOL    HW236813   2.002   2.150  15.113 -0.4594 -0.1956 -0.2059
 8452SOL     OW36814   3.604   3.373   5.391  0.1198 -0.1083 -0.3313
 8452SOL    HW136815   3.697   3.397   5.384 -0.1485  1.3000  1.1010
 8452SOL    HW236816   3.588   3.381   5.485  3.4521  0.8359  0.1829
 8453SOL     OW36817   2.735   1.607   8.216  0.1809 -0.0959 -0.2623
 8453SOL    HW136818   2.748   1.664   8.291  2.0442 -1.1398  0.1765
 8453SOL    HW236819   2.796   1.537   8.237  1.7635  0.9740 -1.2493
 8454SOL     OW36820   0.761   3.707   1.812 -0.7188  0.7809 -0.0341
 8454SOL    HW136821   0.850   3.735   1.791 -0.5855  0.6930  0.4074
 8454SOL    HW236822   0.705   3.785   1.806 -1.0462  0.5211 -0.4111
 8455SOL     OW36823   3.596   2.151   7.858 -0.4475  0.4692 -0.3118
 8455SOL    HW136824   3.535   2.080   7.874  0.2929 -0.0419  0.2519
 8455SOL    HW236825   3.627   2.170   7.947 -2.9957  0.9616  0.4660
 8456SOL     OW36826   0.570   3.085   8.788  0.2314 -0.6578 -0.2174
 8456SOL    HW136827   0.516   3.040   8.723  0.5879  2.5347 -2.6989
 8456SOL    HW236828   0.533   3.171   8.808 -2.5049 -1.7356 -0.6535
 8457SOL     OW36829   1.894   2.051  16.549  0.1378 -0.5185  0.7627
 8457SOL    HW136830   1.929   2.054  16.638 -0.6172  1.1926  1.0015
 8457SOL    HW236831   1.805   2.084  16.556 -0.2818 -1.4984  0.1463
 8458SOL     OW36832   0.890   4.398   0.687 -0.7734 -0.1249  0.5108
 8458SOL    HW136833   0.867   4.349   0.766 -3.8399  0.3935 -0.0390
 8458SOL    HW236834   0.907   4.331   0.621  0.2887 -1.3878  2.0629
 8459SOL     OW36835   3.637   3.848  12.357 -0.2399  0.3563  0.1453
 8459SOL    HW136836   3.575   3.783  12.389  1.2269 -0.6680  0.8854
 8459SOL    HW236837   3.589   3.880  12.280  0.2358 -1.4156 -0.8921
 8460SOL     OW36838   2.107   4.661   7.029 -0.2951  0.2153 -0.0740
 8460SOL    HW136839   2.200   4.647   7.013 -0.0258  2.0135 -0.0680
 8460SOL    HW236840   2.072   4.669   6.940 -1.3583  0.1611  0.3374
 8461SOL     OW36841   1.060   1.859   5.400  0.3752 -0.1155  0.3790
 8461SOL    HW136842   1.085   1.948   5.376  0.4131 -0.4493 -0.8022
 8461SOL    HW236843   1.047   1.820   5.314  1.8864  1.3282 -0.4974
 8462SOL     OW36844   2.538   3.231  12.654 -0.2764 -0.0796 -0.3601
 8462SOL    HW136845   2.568   3.295  12.589  0.2712 -2.3265 -2.2981
 8462SOL    HW236846   2.444   3.228  12.634  0.2622  0.7909 -3.0692
 8463SOL     OW36847   0.301   2.434   0.084 -0.0944  0.2008 -0.8538
 8463SOL    HW136848   0.393   2.417   0.103 -0.3121  0.4986  0.4329
 8463SOL    HW236849   0.300   2.439  17.677  0.3003 -0.1316 -0.8750
 8464SOL     OW36850   3.976   0.466   5.391  0.1865 -1.1410  0.0810
 8464SOL    HW136851   4.004   0.465   5.299  0.0414 -1.4745  0.0387
 8464SOL    HW236852   3.902   0.525   5.383  1.1848  0.1230  0.2907
 8465SOL     OW36853   0.512   3.342   7.830  0.1837 -0.6804 -0.3111
 8465SOL    HW136854   0.515   3.323   7.736  1.2268 -2.6075  0.1050
 8465SOL    HW236855   0.602   3.343   7.861  0.1547 -3.6888 -0.1518
 8466SOL     OW36856   1.867   0.331   1.719  0.3358 -0.2531 -0.6773
 8466SOL    HW136857   1.776   0.358   1.731 -0.0620 -2.1415  0.6875
 8466SOL    HW236858   1.885   0.358   1.629 -0.9820  2.8350  0.0026
 8467SOL     OW36859   3.551   3.380   0.061 -0.3757  0.5070 -0.3158
 8467SOL    HW136860   3.631   3.336   0.034 -0.4532 -0.5352  1.1465
 8467SOL    HW236861   3.565   3.457   0.006 -2.0000 -0.6150 -2.3087
 8468SOL     OW36862   1.745   3.958   3.978  0.7801  0.6535  0.2473
 8468SOL    HW136863   1.703   4.041   4.001 -1.4282 -0.6225  0.7517
 8468SOL    HW236864   1.664   3.908   3.989  0.4257  1.4996  1.4932
 8469SOL     OW36865   0.621   1.600   4.289  0.1760 -0.1008  0.1206
 8469SOL    HW136866   0.626   1.530   4.224  0.1881 -1.0644  1.1609
 8469SOL    HW236867   0.710   1.634   4.276 -0.0560  0.1831 -0.7061
 8470SOL     OW36868   2.491   0.545   6.644  0.5883  0.2637 -0.6818
 8470SOL    HW136869   2.447   0.560   6.561 -0.1268  0.2033 -0.3150
 8470SOL    HW236870   2.458   0.462   6.679  3.3336 -0.4057  0.4077
 8471SOL     OW36871   1.450   1.405   7.209 -0.3569  0.2915  0.3632
 8471SOL    HW136872   1.420   1.316   7.228 -0.3827 -0.2324 -2.1332
 8471SOL    HW236873   1.440   1.432   7.300  0.3701 -0.5693  0.7004
 8472SOL     OW36874   2.284   2.438   2.629 -0.0949 -0.6615  0.3690
 8472SOL    HW136875   2.191   2.453   2.616  0.2661 -0.0659 -1.5074
 8472SOL    HW236876   2.304   2.348   2.603 -0.2212 -0.8071  0.7796
 8473SOL     OW36877   3.384   2.011   5.057 -0.0658 -0.1536 -0.0056
 8473SOL    HW136878   3.391   1.931   5.110 -2.7691 -0.2189  0.2253
 8473SOL    HW236879   3.464   2.056   5.085  0.0389 -0.1267 -0.3548
 8474SOL     OW36880   2.269   2.049  14.266 -0.5208 -0.0589 -0.3461
 8474SOL    HW136881   2.244   2.130  14.221 -1.0152 -0.4915 -0.8459
 8474SOL    HW236882   2.359   2.073  14.286  0.5748 -2.8144 -2.1334
 8475SOL     OW36883   1.807   3.515   2.721 -0.4670  0.1388  0.0056
 8475SOL    HW136884   1.786   3.445   2.782  0.6882  0.3132  0.6077
 8475SOL    HW236885   1.761   3.592   2.755  0.1065  0.6967 -0.4662
 8476SOL     OW36886   0.930   2.188  12.855  0.3500  0.0360 -0.2083
 8476SOL    HW136887   0.837   2.173  12.871  0.5380 -1.1260 -0.1539
 8476SOL    HW236888   0.960   2.104  12.820  1.2234 -1.1400  3.3827
 8477SOL     OW36889   3.064   1.329   5.814  0.6078 -0.2981 -0.3137
 8477SOL    HW136890   3.160   1.324   5.808  0.4128 -3.7708 -0.8177
 8477SOL    HW236891   3.051   1.423   5.800 -0.9562 -0.0289  3.1624
 8478SOL     OW36892   1.262   2.934   3.450 -0.1999  0.1593 -0.5104
 8478SOL    HW136893   1.210   2.910   3.526 -0.5620 -3.2210 -1.8241
 8478SOL    HW236894   1.230   2.889   3.372 -0.7932  1.1198 -0.8261
 8479SOL     OW36895   3.236   0.302  12.651  0.8639 -0.2459  0.0681
 8479SOL    HW136896   3.250   0.224  12.598 -1.1489  0.6707 -1.8130
 8479SOL    HW236897   3.141   0.316  12.650  1.1537  1.6230 -1.5427
 8480SOL     OW36898   0.179   4.194  11.417  0.0616  0.5475 -0.0907
 8480SOL    HW136899   0.129   4.241  11.350 -1.7163 -1.8245 -0.4699
 8480SOL    HW236900   0.174   4.100  11.397 -1.3813  0.4935  0.4852
 8481SOL     OW36901   3.104   4.689   8.958 -0.0282 -0.2158 -0.1027
 8481SOL    HW136902   3.098   4.720   9.048 -2.4059 -0.4975 -0.1882
 8481SOL    HW236903   3.019   4.718   8.925  0.3793  2.5093  1.2482
 8482SOL     OW36904   0.163   0.906   3.863 -0.1196  0.6461  0.5304
 8482SOL    HW136905   0.155   0.812   3.882  1.6858  0.5214  0.6774
 8482SOL    HW236906   0.138   0.938   3.949 -0.6027  1.3026  0.1418
 8483SOL     OW36907   0.781   3.735   2.655  0.2121 -0.2036  0.2400
 8483SOL    HW136908   0.839   3.810   2.643  0.1067 -0.1835 -0.1384
 8483SOL    HW236909   0.715   3.766   2.594  1.1610  0.3945 -0.4770
 8484SOL     OW36910   4.561   1.775  14.346 -0.2480  0.7356  0.1905
 8484SOL    HW136911   4.611   1.803  14.422  0.9189  3.4020 -1.5954
 8484SOL    HW236912   4.627   1.722  14.301 -1.6055  0.5214 -1.5981
 8485SOL     OW36913   4.255   3.563   2.791  0.1780 -0.4246 -0.6009
 8485SOL    HW136914   4.277   3.654   2.773  1.1410 -0.4207  0.6219
 8485SOL    HW236915   4.175   3.554   2.740 -0.9260 -0.2858  1.1058
 8486SOL     OW36916   0.170   3.945  15.741  0.1213 -0.2029  0.3215
 8486SOL    HW136917   0.086   3.937  15.786 -0.3326  2.0016 -0.0867
 8486SOL    HW236918   0.211   3.870  15.782 -0.5874  1.1195  3.4406
 8487SOL     OW36919   0.237   2.713   9.526 -0.1656  0.3127 -0.2988
 8487SOL    HW136920   0.174   2.646   9.503 -0.8691  0.8870 -0.0405
 8487SOL    HW236921   0.215   2.776   9.456 -0.0152  0.4426 -0.2318
 8488SOL     OW36922   2.078   2.003   4.141  0.6175  0.1883  0.1469
 8488SOL    HW136923   2.006   2.067   4.141  1.0703  0.6926  0.5493
 8488SOL    HW236924   2.094   1.991   4.235  0.0069  0.6512  0.3153
 8489SOL     OW36925   4.606   0.428   0.860 -0.3005 -0.3905 -0.2925
 8489SOL    HW136926   4.561   0.510   0.837  1.0920  0.6026  0.5168
 8489SOL    HW236927   4.535   0.367   0.840 -2.1146  1.7583 -0.3543
 8490SOL     OW36928   2.498   2.038   4.680 -0.2351  0.0506  0.0992
 8490SOL    HW136929   2.545   1.961   4.649  1.8362  0.9096  1.0734
 8490SOL    HW236930   2.414   2.010   4.645  0.3491  1.2936 -2.2693
 8491SOL     OW36931   0.378   3.332   8.292  0.0926  0.3537 -0.2290
 8491SOL    HW136932   0.448   3.330   8.227  0.3735 -0.8114  0.1079
 8491SOL    HW236933   0.429   3.375   8.360 -0.9975 -0.0087  0.8093
 8492SOL     OW36934   3.902   2.658   8.090  0.7403 -0.6127 -0.5195
 8492SOL    HW136935   3.997   2.665   8.098  0.9756 -0.2497 -3.6495
 8492SOL    HW236936   3.882   2.579   8.139 -1.4216 -0.0142 -0.4328
 8493SOL     OW36937   2.194   0.015  10.437 -0.0547  0.1036 -0.1171
 8493SOL    HW136938   2.169   0.069  10.363  0.1280  1.3414  0.7309
 8493SOL    HW236939   2.282   4.720  10.402  0.2152 -2.2477  1.6330
 8494SOL     OW36940   2.203   4.542   3.565 -0.2661 -0.0458  0.1546
 8494SOL    HW136941   2.280   4.513   3.516  0.0749 -0.2539  0.8147
 8494SOL    HW236942   2.159   4.584   3.491 -2.9170 -1.2635  1.0289
 8495SOL     OW36943   2.761   1.717   8.841 -0.4187  0.0672 -0.4603
 8495SOL    HW136944   2.819   1.643   8.860 -0.7409 -0.0491  0.0791
 8495SOL    HW236945   2.772   1.764   8.924 -0.9491 -0.2506 -0.2090
 8496SOL     OW36946   1.675   0.663  12.267 -0.5296 -0.4687 -0.3734
 8496SOL    HW136947   1.712   0.751  12.265  0.2310 -0.7423  1.4479
 8496SOL    HW236948   1.719   0.611  12.200  0.9248  1.8786 -1.2624
 8497SOL     OW36949   1.214   3.315   3.394 -0.1206 -0.5757  0.4501
 8497SOL    HW136950   1.273   3.388   3.412 -0.4334  0.3577 -2.3170
 8497SOL    HW236951   1.239   3.303   3.303  3.2781  1.3334  1.1496
 8498SOL     OW36952   0.455   0.530   3.106 -0.2749  0.0570  0.0003
 8498SOL    HW136953   0.421   0.561   3.022 -1.1495 -0.0174  0.3260
 8498SOL    HW236954   0.419   0.595   3.167 -1.2288 -0.5659  0.1066
 8499SOL     OW36955   2.160   1.855  11.815  0.4731 -0.0667  0.6215
 8499SOL    HW136956   2.118   1.772  11.795  0.1429 -0.0511  1.2662
 8499SOL    HW236957   2.104   1.882  11.888  0.1962 -0.7600  0.6655
 8500SOL     OW36958   0.078   4.458  11.260  0.2239  0.2251 -0.4150
 8500SOL    HW136959   0.137   4.447  11.185  0.4987 -0.8597 -0.0498
 8500SOL    HW236960   0.138   4.481  11.331  0.1058  0.5354 -0.4193
 8501SOL     OW36961   2.334   0.035   8.581 -0.5231 -0.1161  0.1341
 8501SOL    HW136962   2.300   0.023   8.670  0.7162 -2.2672  0.3298
 8501SOL    HW236963   2.367   4.669   8.560 -3.1192 -0.6739 -1.6337
 8502SOL     OW36964   3.522   4.354   4.397  0.1017  0.5242 -0.1279
 8502SOL    HW136965   3.454   4.287   4.397  1.8417 -1.2719  3.6296
 8502SOL    HW236966   3.600   4.300   4.381 -0.5752 -0.5027  0.0701
 8503SOL     OW36967   3.378   2.987  12.863  0.0962  0.3512  0.5140
 8503SOL    HW136968   3.311   2.933  12.906 -0.1000  0.8390  0.8131
 8503SOL    HW236969   3.449   2.924  12.847 -1.0765 -0.3116 -2.0644
 8504SOL     OW36970   2.595   1.916   1.838  0.5987 -0.4977  0.3411
 8504SOL    HW136971   2.641   1.997   1.816 -0.6320 -0.3616 -1.7121
 8504SOL    HW236972   2.599   1.863   1.759 -0.1115  0.6179 -0.4348
 8505SOL     OW36973   4.232   4.265   8.662 -0.2530 -0.4879  0.4226
 8505SOL    HW136974   4.213   4.203   8.732  3.8704 -0.9660  1.0979
 8505SOL    HW236975   4.316   4.236   8.627  0.2610  2.7135 -0.9242
 8506SOL     OW36976   0.565   3.662   7.926  0.1233 -0.2763 -0.4543
 8506SOL    HW136977   0.561   3.599   7.998  1.6439 -0.3742 -0.4578
 8506SOL    HW236978   0.539   3.611   7.850  0.7940 -0.9106 -0.2531
 8507SOL     OW36979   0.635   4.084  16.158  0.6040 -0.7626 -0.6137
 8507SOL    HW136980   0.550   4.125  16.141 -0.3011 -3.2161 -2.0915
 8507SOL    HW236981   0.666   4.055  16.072 -0.9287 -0.8461 -1.1332
 8508SOL     OW36982   3.182   3.372   2.543 -0.5712  0.2221 -0.0339
 8508SOL    HW136983   3.214   3.386   2.632 -0.5519  0.7168 -0.1159
 8508SOL    HW236984   3.112   3.309   2.556 -1.0635  0.7155 -0.2755
 8509SOL     OW36985   2.600   2.238   2.785  0.7822  0.2852 -0.9790
 8509SOL    HW136986   2.517   2.199   2.757 -0.6728  1.5640  1.5524
 8509SOL    HW236987   2.661   2.167   2.764  0.6490 -0.9049  2.6193
 8510SOL     OW36988   3.209   2.241  14.855  0.1291 -0.1654  0.3638
 8510SOL    HW136989   3.118   2.252  14.883  0.8132  1.7192  1.8759
 8510SOL    HW236990   3.259   2.235  14.936  1.5789 -0.8569 -0.5852
 8511SOL     OW36991   3.517   2.951  17.328 -0.0552 -0.2077  0.0938
 8511SOL    HW136992   3.567   3.031  17.316  0.6925 -1.0371 -2.2582
 8511SOL    HW236993   3.443   2.974  17.272  0.2676 -0.2283 -0.3375
 8512SOL     OW36994   2.316   3.977   3.104  0.4987 -0.1879  0.2450
 8512SOL    HW136995   2.295   3.925   3.182  0.1139 -1.3060 -0.6086
 8512SOL    HW236996   2.407   4.007   3.112  1.3158 -2.8112  0.7090
 8513SOL     OW36997   3.727   3.954   5.918 -0.2197 -0.1987 -0.2165
 8513SOL    HW136998   3.759   3.997   5.996  2.0067 -3.7918  0.8652
 8513SOL    HW236999   3.738   3.867   5.956 -0.0285  1.2349  2.9727
 8514SOL     OW37000   4.213   2.710   6.591 -0.2931  0.1299 -0.4114
 8514SOL    HW137001   4.283   2.771   6.614 -0.5296 -0.5142  2.0159
 8514SOL    HW237002   4.159   2.708   6.670  1.0594  0.6585  0.5166
 8515SOL     OW37003   3.249   3.649   2.291  1.0516  0.2637 -0.0284
 8515SOL    HW137004   3.203   3.730   2.267 -1.2324 -1.0051  0.0821
 8515SOL    HW237005   3.332   3.676   2.329 -0.0808  2.0042  1.1752
 8516SOL     OW37006   4.474   0.083  15.895 -0.5970 -0.3705  0.7279
 8516SOL    HW137007   4.407   0.020  15.869 -1.3324  0.5026  0.5351
 8516SOL    HW237008   4.428   0.165  15.882  1.6359  0.8569  0.4946
 8517SOL     OW37009   0.301   0.663   2.907  0.6448 -0.1074 -0.2706
 8517SOL    HW137010   0.225   0.677   2.851  0.9067 -1.3031 -0.9310
 8517SOL    HW237011   0.352   0.742   2.893  2.5049 -1.8094 -3.0675
 8518SOL     OW37012   2.505   1.538   2.821  0.4064  0.6701 -0.1389
 8518SOL    HW137013   2.593   1.574   2.815 -0.5494  3.0046 -0.1924
 8518SOL    HW237014   2.463   1.592   2.888 -0.5077  1.7043 -1.5508
 8519SOL     OW37015   2.980   2.332   5.962 -0.4695 -0.3436  0.3129
 8519SOL    HW137016   2.976   2.323   6.057 -1.9317  1.1312  0.3908
 8519SOL    HW237017   2.990   2.244   5.925 -0.3732 -0.7186  1.2467
 8520SOL     OW37018   0.096   4.602   8.525  0.4377 -0.2891  0.5155
 8520SOL    HW137019   0.136   4.628   8.442  0.5681  0.5184  0.8278
 8520SOL    HW237020   0.180   4.602   8.572  2.5477  0.8756 -3.2822
 8521SOL     OW37021   2.808   3.087   6.971  0.2220  0.2789 -0.2434
 8521SOL    HW137022   2.865   3.104   6.895  0.9457  2.1306  0.7105
 8521SOL    HW237023   2.812   2.993   6.984  3.6987  0.6387  1.1284
 8522SOL     OW37024   2.071   0.846   2.293 -0.5544  0.8537 -0.0029
 8522SOL    HW137025   2.053   0.869   2.202 -1.8283 -2.1216 -0.4761
 8522SOL    HW237026   2.147   0.902   2.313  1.7167 -2.0594 -0.5525
 8523SOL     OW37027   3.404   3.913   3.020  0.2310  0.3123  0.0699
 8523SOL    HW137028   3.337   3.873   3.075 -0.0394  1.1963  0.3740
 8523SOL    HW237029   3.485   3.878   3.057  1.2870  2.6464 -0.0495
 8524SOL     OW37030   1.702   0.591   8.847  0.6271  0.0979  0.3924
 8524SOL    HW137031   1.792   0.559   8.853  0.7637  0.7741  2.2247
 8524SOL    HW237032   1.652   0.511   8.860  2.2433 -1.0959 -0.7254
 8525SOL     OW37033   3.087   4.303  15.069 -0.3008 -1.0292  0.6213
 8525SOL    HW137034   3.172   4.274  15.036 -0.4506 -1.3347  0.5057
 8525SOL    HW237035   3.019   4.283  15.005  0.0808 -0.0552 -0.0715
 8526SOL     OW37036   2.052   0.990   7.628 -0.0901 -0.0642 -0.0655
 8526SOL    HW137037   2.000   1.018   7.552  1.3541  2.5091 -0.0925
 8526SOL    HW237038   2.037   0.896   7.627 -0.7352  0.0499 -1.2989
 8527SOL     OW37039   0.753   0.601   0.482 -0.4251 -0.2987 -0.4557
 8527SOL    HW137040   0.697   0.678   0.494  0.7790 -0.0638  3.7996
 8527SOL    HW237041   0.761   0.599   0.387  2.2265 -0.8009 -0.2242
 8528SOL     OW37042   3.829   1.659   5.209  0.1533 -0.1043 -0.0902
 8528SOL    HW137043   3.860   1.645   5.298 -2.9661  1.3897  1.2405
 8528SOL    HW237044   3.867   1.583   5.166 -1.1886  0.3115 -1.9940
 8529SOL     OW37045   4.202   1.554  16.040 -0.1708  0.2370  0.5697
 8529SOL    HW137046   4.254   1.503  15.978 -0.6582 -0.8597  1.0623
 8529SOL    HW237047   4.184   1.630  15.985  0.7845  0.6776  0.8615
 8530SOL     OW37048   3.076   2.072  13.158  0.0711 -0.1921 -0.1076
 8530SOL    HW137049   3.102   1.981  13.169 -1.0254 -0.3545  1.1117
 8530SOL    HW237050   2.981   2.063  13.162 -0.1877  2.1963 -0.5578
 8531SOL     OW37051   3.599   1.024  17.475  0.0637  0.6387 -0.0254
 8531SOL    HW137052   3.600   1.078  17.555  0.6297 -0.8103  0.9415
 8531SOL    HW237053   3.674   0.966  17.481 -0.2240  0.4500  1.7239
 8532SOL     OW37054   3.740   1.237   9.057 -0.0359 -0.1250  0.1722
 8532SOL    HW137055   3.767   1.183   9.131 -1.2124 -2.0406 -0.8087
 8532SOL    HW237056   3.824   1.282   9.048 -0.5137  0.8546  0.6216
 8533SOL     OW37057   2.211   0.457   2.353 -0.2999  0.7838 -0.5354
 8533SOL    HW137058   2.202   0.421   2.265 -1.3188 -1.0005  0.2981
 8533SOL    HW237059   2.306   0.459   2.350 -0.2780  0.9624  0.2589
 8534SOL     OW37060   4.471   0.613   2.322  0.0915 -0.7074  0.3005
 8534SOL    HW137061   4.559   0.587   2.295  0.4476  0.3317  0.4645
 8534SOL    HW237062   4.456   0.692   2.270  1.2199 -1.8910 -1.8358
 8535SOL     OW37063   2.596   3.594   4.846 -0.9546 -0.6271 -0.5285
 8535SOL    HW137064   2.598   3.614   4.940 -0.5372 -0.6508 -0.5322
 8535SOL    HW237065   2.501   3.585   4.843 -0.9702 -0.4693 -0.5257
 8536SOL     OW37066   0.034   3.232   5.458 -0.2247  0.0123 -0.2693
 8536SOL    HW137067   0.010   3.197   5.544 -0.1152 -1.7970 -0.9872
 8536SOL    HW237068   0.095   3.172   5.414  0.8686  1.4580 -0.7308
 8537SOL     OW37069   1.270   2.946   3.095  0.7335 -0.6776  0.6193
 8537SOL    HW137070   1.214   2.940   3.018 -1.2855 -1.7818  2.1779
 8537SOL    HW237071   1.215   2.912   3.165  0.0851 -1.7058 -0.4008
 8538SOL     OW37072   2.396   1.408   7.384 -0.0507 -0.1085  0.1223
 8538SOL    HW137073   2.403   1.321   7.423 -2.3012 -0.6035 -0.5890
 8538SOL    HW237074   2.315   1.433   7.427 -0.4926 -1.1253 -0.1070
 8539SOL     OW37075   1.172   2.501   0.898 -0.9669 -0.0394  0.2028
 8539SOL    HW137076   1.202   2.500   0.989  3.4903  0.8238 -1.2769
 8539SOL    HW237077   1.246   2.553   0.866 -0.5493 -0.6043  0.2603
 8540SOL     OW37078   3.475   4.443   6.563 -0.0041 -0.0756  0.3770
 8540SOL    HW137079   3.387   4.466   6.591  0.0421  0.2370  0.2577
 8540SOL    HW237080   3.491   4.491   6.482 -1.4951  0.0289  0.1548
 8541SOL     OW37081   0.493   1.109   8.534 -0.1367  0.2697  0.0806
 8541SOL    HW137082   0.406   1.140   8.560  0.3181  0.6453  1.1583
 8541SOL    HW237083   0.547   1.163   8.592 -0.1251  0.7119 -0.3450
 8542SOL     OW37084   4.388   0.701  15.593  0.5164  0.4492  0.3987
 8542SOL    HW137085   4.403   0.739  15.507 -0.0313  0.1543  0.1734
 8542SOL    HW237086   4.371   0.611  15.565 -0.0689  0.3950  0.9224
 8543SOL     OW37087   0.672   4.656   1.343 -0.6057  0.1781  0.4338
 8543SOL    HW137088   0.751   4.703   1.370  0.5376 -1.3527 -0.2473
 8543SOL    HW237089   0.692   4.644   1.250  2.3276 -0.6135  1.1605
 8544SOL     OW37090   0.062   2.997  12.008 -0.0189  0.2511  0.2621
 8544SOL    HW137091   0.024   2.962  12.088  2.0805 -0.9815  0.7092
 8544SOL    HW237092   4.719   2.996  11.938  0.6871 -0.7436 -0.3742
 8545SOL     OW37093   2.002   1.752  16.108 -0.2991  0.1268  0.1814
 8545SOL    HW137094   2.049   1.694  16.169 -0.9758  0.1070  0.6811
 8545SOL    HW237095   1.911   1.732  16.130  0.1908  0.7725  2.8928
 8546SOL     OW37096   0.811   3.900   1.506  0.1575 -0.0126 -1.0487
 8546SOL    HW137097   0.868   3.891   1.583 -0.0424 -2.2371 -1.1683
 8546SOL    HW237098   0.756   3.823   1.521  0.1707  0.0495 -0.6802
 8547SOL     OW37099   0.082   0.618   0.672  0.5451 -0.7720 -0.2548
 8547SOL    HW137100   0.008   0.672   0.644  1.6930  1.1032  0.3692
 8547SOL    HW237101   0.125   0.670   0.740  0.3786  0.0727 -0.8036
 8548SOL     OW37102   1.669   2.127   4.474 -0.1479 -0.4823  0.1677
 8548SOL    HW137103   1.651   2.086   4.559  1.8364  1.0339  1.3366
 8548SOL    HW237104   1.585   2.122   4.428 -0.6079 -0.0648  0.9595
 8549SOL     OW37105   2.929   3.995   1.672 -0.0385  0.0657  0.1201
 8549SOL    HW137106   2.963   3.931   1.735  1.8206  0.5506 -0.3984
 8549SOL    HW237107   2.836   4.011   1.689  0.4895  2.1484  1.1075
 8550SOL     OW37108   2.982   0.418   1.668  0.7327  0.1161 -0.1893
 8550SOL    HW137109   3.060   0.471   1.653 -0.5316  1.9046 -0.3408
 8550SOL    HW237110   2.924   0.490   1.690  1.1486  0.8589 -1.5151
 8551SOL     OW37111   3.310   2.893   7.669 -0.2239 -0.8582  0.0864
 8551SOL    HW137112   3.227   2.866   7.708 -1.3946 -0.1163 -1.9228
 8551SOL    HW237113   3.372   2.868   7.738 -0.6184  0.7674  1.0448
 8552SOL     OW37114   1.517   0.516  10.269  0.0192  0.4311  0.2738
 8552SOL    HW137115   1.434   0.524  10.317  0.5630  0.0902  1.2594
 8552SOL    HW237116   1.585   0.531  10.335 -0.2389  1.9013  0.2045
 8553SOL     OW37117   1.083   1.040   9.346 -0.3543  0.1063 -0.2858
 8553SOL    HW137118   1.001   1.085   9.325 -0.7056 -1.2246 -1.7541
 8553SOL    HW237119   1.148   1.111   9.352 -0.4786  0.1367  0.8883
 8554SOL     OW37120   0.253   0.671   4.648 -0.2765 -0.4642  0.2837
 8554SOL    HW137121   0.170   0.687   4.604  0.1035  1.3279  0.2297
 8554SOL    HW237122   0.286   0.756   4.678 -2.4760  1.4287 -2.5979
 8555SOL     OW37123   3.002   4.369  11.573  0.2896  0.3012 -0.5738
 8555SOL    HW137124   3.066   4.394  11.506 -0.4824  0.3973 -1.2851
 8555SOL    HW237125   2.918   4.388  11.531 -1.8552 -0.9734  3.1337
 8556SOL     OW37126   1.481   3.748   4.605 -0.4625 -0.4524 -0.0656
 8556SOL    HW137127   1.471   3.746   4.510  3.1293  0.6681 -0.4776
 8556SOL    HW237128   1.427   3.671   4.625 -0.6942 -0.3940 -0.4640
 8557SOL     OW37129   1.026   2.417  10.713  0.4438  0.7409 -0.7003
 8557SOL    HW137130   0.959   2.480  10.688 -1.1991 -1.8953 -2.8704
 8557SOL    HW237131   1.098   2.426  10.651  1.2533 -2.0037 -0.1320
 8558SOL     OW37132   2.810   4.379  13.886 -0.7412 -0.0480 -0.3201
 8558SOL    HW137133   2.803   4.450  13.950  1.5255 -0.4163  0.3188
 8558SOL    HW237134   2.748   4.318  13.927 -0.2970  0.0672  0.5149
 8559SOL     OW37135   4.356   4.588   6.789 -0.2259  0.3360 -0.0482
 8559SOL    HW137136   4.390   4.635   6.865 -1.0201  2.2592 -0.8841
 8559SOL    HW237137   4.343   4.498   6.818  0.4706 -0.7924 -3.2443
 8560SOL     OW37138   1.867   1.912  17.130  0.5958  0.6010  0.3388
 8560SOL    HW137139   1.931   1.925  17.201  1.0145 -0.3330  0.1329
 8560SOL    HW237140   1.790   1.934  17.182  0.4880  0.5491  0.1996
 8561SOL     OW37141   3.951   0.254   3.096  0.1865  0.4167  0.5518
 8561SOL    HW137142   4.038   0.223   3.070 -0.5811 -2.2157  1.2032
 8561SOL    HW237143   3.934   0.318   3.026  3.1261 -1.2323 -1.6517
 8562SOL     OW37144   2.213   1.445   3.232  0.1968  0.4090  0.1492
 8562SOL    HW137145   2.296   1.414   3.196  0.0929 -1.4388  1.5061
 8562SOL    HW237146   2.185   1.382   3.298  2.3729 -0.7569 -0.0489
 8563SOL     OW37147   4.362   0.017   8.008 -0.3820  0.8043  0.5506
 8563SOL    HW137148   4.309   0.096   7.995 -0.1324  0.5917 -1.6364
 8563SOL    HW237149   4.310   4.671   7.964  0.2524 -1.3479  3.0486
 8564SOL     OW37150   4.137   0.714   4.092  0.5228 -0.1753  0.3907
 8564SOL    HW137151   4.098   0.678   4.012 -1.8186  1.9384  0.5806
 8564SOL    HW237152   4.056   0.733   4.140  0.0321  0.7777 -0.8306
 8565SOL     OW37153   4.220   0.848   9.124  0.0841  0.5854 -0.4758
 8565SOL    HW137154   4.224   0.940   9.149 -0.9802  0.5629 -0.2147
 8565SOL    HW237155   4.148   0.851   9.061  0.1769  1.2712 -0.5435
 8566SOL     OW37156   1.907   3.219   3.344  0.7006 -0.1096  0.3311
 8566SOL    HW137157   1.820   3.179   3.342  1.4811 -1.7424 -0.9864
 8566SOL    HW237158   1.916   3.265   3.428  3.4108  1.7852 -1.0008
 8567SOL     OW37159   2.255   3.408  14.408  0.0419 -0.1371 -0.2939
 8567SOL    HW137160   2.224   3.381  14.494  2.4875 -2.5621 -0.1699
 8567SOL    HW237161   2.178   3.454  14.375  1.1980  2.3730  0.5142
 8568SOL     OW37162   0.975   4.448   7.334 -0.6217 -0.0276  0.5912
 8568SOL    HW137163   0.958   4.445   7.428 -0.8463 -2.3092  0.4812
 8568SOL    HW237164   1.070   4.458   7.329 -0.5849 -0.4037  0.4824
 8569SOL     OW37165   2.336   0.162   4.194 -0.7068 -0.6309 -0.6124
 8569SOL    HW137166   2.281   0.095   4.235 -1.4744  0.8718  0.8171
 8569SOL    HW237167   2.363   0.207   4.275  2.0659 -2.6329 -0.4328
 8570SOL     OW37168   2.768   1.251   4.245  0.4745 -0.0433  0.1077
 8570SOL    HW137169   2.693   1.311   4.252  1.0619  0.8043 -0.8508
 8570SOL    HW237170   2.731   1.167   4.219  1.0974  0.2229 -1.6141
 8571SOL     OW37171   4.455   2.122   3.116  0.0534  0.1442 -0.0743
 8571SOL    HW137172   4.433   2.215   3.121  0.0957  0.2111 -1.1686
 8571SOL    HW237173   4.546   2.120   3.145 -0.5858  0.8623  1.9566
 8572SOL     OW37174   3.134   0.384   7.965 -0.8019 -0.2686  0.0290
 8572SOL    HW137175   3.195   0.379   8.038  1.0239  1.2961 -1.3905
 8572SOL    HW237176   3.054   0.348   8.003 -1.4956  0.2400 -0.9294
 8573SOL     OW37177   4.506   0.577  15.960  0.2451 -0.4029  0.0041
 8573SOL    HW137178   4.504   0.562  16.054  0.9962  0.3268  0.1363
 8573SOL    HW237179   4.422   0.622  15.949 -0.1764 -0.8990  1.2501
 8574SOL     OW37180   2.180   2.886   8.688 -0.6260  0.0190 -0.1017
 8574SOL    HW137181   2.134   2.946   8.746 -0.5707  0.5304 -0.5840
 8574SOL    HW237182   2.100   2.856   8.645 -0.2154  0.5324 -1.2284
 8575SOL     OW37183   2.980   4.356   5.441  0.1705  0.5376  0.3781
 8575SOL    HW137184   2.892   4.385   5.466 -1.3332 -2.2741 -1.7782
 8575SOL    HW237185   2.978   4.261   5.431  1.4855  0.6057 -0.5280
 8576SOL     OW37186   1.570   0.237   7.411  1.1008 -0.4264  0.1998
 8576SOL    HW137187   1.508   0.170   7.382 -0.0756 -0.2896  2.4140
 8576SOL    HW237188   1.565   0.233   7.506 -0.5688 -0.6668  0.1028
 8577SOL     OW37189   1.154   0.568   6.779 -0.6535  0.0918  0.1830
 8577SOL    HW137190   1.144   0.655   6.742  2.2246 -0.2341 -1.3870
 8577SOL    HW237191   1.175   0.600   6.866 -0.2439 -0.9196  0.4565
 8578SOL     OW37192   1.179   1.774  12.667  0.4632 -0.5682 -0.0177
 8578SOL    HW137193   1.161   1.683  12.643  0.8008 -0.5047 -0.4973
 8578SOL    HW237194   1.153   1.775  12.760  0.7532 -0.5350  0.0642
 8579SOL     OW37195   1.761   3.556   4.218 -0.6263 -0.0641  0.0224
 8579SOL    HW137196   1.730   3.473   4.255  0.9538 -1.2698 -1.3518
 8579SOL    HW237197   1.842   3.522   4.182  0.6087  1.2192  1.5635
 8580SOL     OW37198   3.378   4.697   5.400  0.1730  0.2002  0.2749
 8580SOL    HW137199   3.421   4.612   5.391 -2.0530 -0.7523 -1.2353
 8580SOL    HW237200   3.450   0.037   5.414  0.4535 -0.1923  0.5445
 8581SOL     OW37201   0.731   3.621   7.055  0.4558  0.0522 -0.1516
 8581SOL    HW137202   0.667   3.690   7.037 -0.2674 -0.4941  0.3045
 8581SOL    HW237203   0.816   3.663   7.069  0.6451 -0.7768  1.2304
 8582SOL     OW37204   0.891   0.481   7.471 -0.3108 -0.1892 -0.4243
 8582SOL    HW137205   0.963   0.477   7.534  0.2158  2.6687 -0.8772
 8582SOL    HW237206   0.826   0.421   7.507  0.9707 -0.9037  0.6967
 8583SOL     OW37207   0.288   0.923   8.777  0.0306  0.4152  0.0313
 8583SOL    HW137208   0.377   0.886   8.773  0.2820  1.2275 -2.0762
 8583SOL    HW237209   0.242   0.841   8.791  2.5998 -1.1625 -0.6964
 8584SOL     OW37210   0.684   0.196   9.311  0.6068 -0.2284  0.1662
 8584SOL    HW137211   0.776   0.217   9.330  0.9410  1.2136 -3.0294
 8584SOL    HW237212   0.645   0.283   9.306 -1.1601 -0.9892  0.8194
 8585SOL     OW37213   0.866   0.710   6.623  0.4385 -0.1015  0.6658
 8585SOL    HW137214   0.910   0.642   6.573  0.6128 -0.0607  0.7644
 8585SOL    HW237215   0.934   0.776   6.636 -0.4646  1.3318 -1.8795
 8586SOL     OW37216   1.233   2.631   4.064 -0.2284 -0.2385  0.2750
 8586SOL    HW137217   1.224   2.687   3.987  2.0629 -1.3398 -0.8124
 8586SOL    HW237218   1.212   2.691   4.135  0.6568 -0.1321  0.4571
 8587SOL     OW37219   2.643   4.593   8.667  0.0709  0.1072 -0.4912
 8587SOL    HW137220   2.571   4.543   8.628 -0.6382  0.2929  0.5940
 8587SOL    HW237221   2.599   4.649   8.731 -0.2062  0.6113 -1.1243
 8588SOL     OW37222   3.326   2.800  11.850  0.0100  0.3213 -0.4408
 8588SOL    HW137223   3.257   2.756  11.900  1.4562  0.0391  1.3285
 8588SOL    HW237224   3.404   2.757  11.885  0.1643  0.0338 -1.1462
 8589SOL     OW37225   1.155   3.925  15.483  0.0102 -0.0564  0.4845
 8589SOL    HW137226   1.103   3.980  15.542  0.1549 -0.1032  0.6556
 8589SOL    HW237227   1.135   3.848  15.536  1.5657  1.0424  2.6533
 8590SOL     OW37228   4.698   0.213  11.722 -0.1984 -0.6980  0.1894
 8590SOL    HW137229   4.656   0.226  11.636 -0.3183  0.2661  0.3977
 8590SOL    HW237230   4.640   0.143  11.752 -0.8478 -1.2502 -2.3413
 8591SOL     OW37231   2.823   3.550   0.037  0.5171  0.3259  0.0469
 8591SOL    HW137232   2.819   3.645   0.026  0.0933  0.2613 -0.3720
 8591SOL    HW237233   2.910   3.524   0.007  0.5509  1.4638 -0.8507
 8592SOL     OW37234   4.043   0.455   2.598  0.3206  0.3743  0.1242
 8592SOL    HW137235   4.115   0.516   2.584 -0.0506  0.6393 -0.6507
 8592SOL    HW237236   3.970   0.505   2.562  0.8790  0.6254 -0.6658
 8593SOL     OW37237   0.694   2.502  12.457 -0.2203 -0.3204 -0.1390
 8593SOL    HW137238   0.670   2.503  12.364 -3.6150 -1.3814  0.7347
 8593SOL    HW237239   0.763   2.568  12.456  0.3280 -0.8997 -0.8321
 8594SOL     OW37240   0.453   3.624  12.556 -0.0508  0.4862 -0.5018
 8594SOL    HW137241   0.478   3.606  12.646 -0.5420  0.0226 -0.4530
 8594SOL    HW237242   0.367   3.581  12.561  0.5844 -0.7791 -0.2915
 8595SOL     OW37243   1.322   2.478   3.336  0.4237  0.0273 -0.2116
 8595SOL    HW137244   1.276   2.417   3.393 -0.7333 -1.2310 -2.4957
 8595SOL    HW237245   1.371   2.520   3.406  1.0608 -0.1985 -0.5232
 8596SOL     OW37246   2.472   4.275   3.988 -0.2642  0.4510  0.3836
 8596SOL    HW137247   2.418   4.329   3.931  0.9491  1.3067  0.0198
 8596SOL    HW237248   2.523   4.227   3.922 -0.7615 -1.0480  1.1042
 8597SOL     OW37249   3.283   3.017   4.880  0.0859  0.2704 -0.2944
 8597SOL    HW137250   3.227   3.011   4.958 -1.5327 -1.2520 -1.5575
 8597SOL    HW237251   3.217   3.020   4.810 -1.5454 -1.2032  1.1928
 8598SOL     OW37252   3.663   2.935   2.198  0.3340 -0.3391  0.1654
 8598SOL    HW137253   3.683   2.842   2.207  0.3239 -0.2474  1.2153
 8598SOL    HW237254   3.697   2.961   2.113 -1.3495  0.1040 -0.3684
 8599SOL     OW37255   1.293   1.420   1.437  0.5510 -0.3264  0.2074
 8599SOL    HW137256   1.366   1.413   1.375 -0.3877 -0.0155 -0.9238
 8599SOL    HW237257   1.232   1.369   1.384  0.3124 -0.1598  0.3222
 8600SOL     OW37258   4.034   1.277  12.604  0.0291 -0.5831 -0.2933
 8600SOL    HW137259   3.971   1.273  12.675 -0.1116  3.9612 -0.1282
 8600SOL    HW237260   4.103   1.326  12.650 -2.3077  1.6614  0.7931
 8601SOL     OW37261   4.571   3.171  15.485  0.1200  0.0185  0.7629
 8601SOL    HW137262   4.539   3.113  15.554  2.0736  0.4842  2.0621
 8601SOL    HW237263   4.554   3.117  15.407  2.6324  0.1947  0.0976
 8602SOL     OW37264   0.043   4.457   2.028  0.1153  0.0222 -0.4906
 8602SOL    HW137265   4.705   4.412   1.968  0.3587 -0.7034 -0.1974
 8602SOL    HW237266   4.697   4.505   2.075  1.0639 -0.2417  1.1433
 8603SOL     OW37267   4.196   2.941   2.773  0.0677  0.3007 -0.1533
 8603SOL    HW137268   4.135   2.916   2.704 -1.3034  0.2285  1.0903
 8603SOL    HW237269   4.219   3.029   2.741 -0.5440  0.7844  0.7367
 8604SOL     OW37270   3.353   0.585   3.029 -0.1268  0.8122 -0.2988
 8604SOL    HW137271   3.405   0.657   3.065  0.0759  1.4827 -1.9531
 8604SOL    HW237272   3.291   0.575   3.101 -0.6482  0.1121 -0.8438
 8605SOL     OW37273   2.536   4.227   6.503 -0.5954  0.1648  0.2089
 8605SOL    HW137274   2.625   4.220   6.470 -0.2011  2.0470  0.8808
 8605SOL    HW237275   2.490   4.183   6.431 -0.2912  0.5397 -0.2113
 8606SOL     OW37276   0.928   1.147  11.872 -0.1064 -0.0117 -0.0434
 8606SOL    HW137277   0.921   1.133  11.967  1.1861  1.4949  0.2841
 8606SOL    HW237278   0.872   1.223  11.861  0.6134  0.4203 -0.7406
 8607SOL     OW37279   1.394   2.715   8.974  0.2227 -0.4320  0.6402
 8607SOL    HW137280   1.364   2.648   9.035 -1.2878  0.4399  0.8752
 8607SOL    HW237281   1.326   2.711   8.906 -1.2964 -0.3251  2.1729
 8608SOL     OW37282   2.236   2.512   2.942 -0.1175  0.0955  0.0947
 8608SOL    HW137283   2.240   2.430   2.990  1.4077  0.9304  1.4130
 8608SOL    HW237284   2.317   2.512   2.891 -1.4292 -2.3783 -1.9815
 8609SOL     OW37285   3.131   2.178   6.758 -0.0989  0.0071 -0.3912
 8609SOL    HW137286   3.124   2.150   6.850  0.4350  3.7009  0.8055
 8609SOL    HW237287   3.168   2.099   6.719  0.6075  0.5753 -0.8583
 8610SOL     OW37288   1.194   0.535  13.718  0.1959 -0.3267 -0.1168
 8610SOL    HW137289   1.213   0.543  13.811  2.9166  0.0019 -0.6864
 8610SOL    HW237290   1.286   0.541  13.690 -0.4174 -0.7597 -2.2265
 8611SOL     OW37291   3.147   4.159  11.657 -0.7717  0.0099  0.2665
 8611SOL    HW137292   3.213   4.165  11.588 -0.6495 -1.4404  0.2597
 8611SOL    HW237293   3.095   4.237  11.637  0.2703  0.1982 -1.6864
 8612SOL     OW37294   2.118   1.296   2.524  0.1266  0.9618  0.4106
 8612SOL    HW137295   2.204   1.271   2.490 -1.9323 -1.4056 -3.0341
 8612SOL    HW237296   2.084   1.220   2.571 -1.0819  1.1516 -0.1556
 8613SOL     OW37297   4.222   0.499   5.800  0.1417  0.3510 -0.5410
 8613SOL    HW137298   4.277   0.437   5.848 -0.7188  0.2827  0.3478
 8613SOL    HW237299   4.164   0.530   5.870  0.1859  0.9609 -0.7724
 8614SOL     OW37300   1.813   4.517   8.264  0.0351 -0.5577 -0.0260
 8614SOL    HW137301   1.841   4.579   8.196  0.5701 -2.0615 -1.1738
 8614SOL    HW237302   1.718   4.528   8.262  0.0591 -0.2013  0.8154
 8615SOL     OW37303   2.409   2.585   6.612 -0.0709  0.0548 -0.6389
 8615SOL    HW137304   2.365   2.583   6.697  2.8840 -0.8596  0.8692
 8615SOL    HW237305   2.328   2.606   6.565 -1.8901 -2.3790  1.4219
 8616SOL     OW37306   1.170   1.093   9.056 -0.0074 -0.2110  0.0571
 8616SOL    HW137307   1.218   1.166   9.018 -1.7941  1.3877  0.9231
 8616SOL    HW237308   1.125   1.129   9.132 -0.2801  0.2668 -0.3348
 8617SOL     OW37309   1.230   0.654  11.717  0.3533 -0.0192  0.5564
 8617SOL    HW137310   1.268   0.729  11.671 -0.0360  0.0875  0.4110
 8617SOL    HW237311   1.232   0.676  11.810 -2.0752  0.7026  0.4199
 8618SOL     OW37312   2.769   4.501  12.671  0.5130  0.8368 -0.0780
 8618SOL    HW137313   2.782   4.407  12.659 -0.2652  0.9359 -1.7085
 8618SOL    HW237314   2.685   4.494  12.717  1.1307  3.0544  1.3798
 8619SOL     OW37315   3.510   0.615   3.724  0.4984  0.1893  0.3645
 8619SOL    HW137316   3.568   0.545   3.753  1.5248  0.4509 -1.0090
 8619SOL    HW237317   3.454   0.576   3.656  0.9467  0.4934 -0.1837
 8620SOL     OW37318   1.894   3.638   4.596  0.1925  0.9995  0.6090
 8620SOL    HW137319   1.852   3.559   4.562 -1.2310  2.0172 -0.0016
 8620SOL    HW237320   1.830   3.706   4.574 -0.7502 -0.0846  0.0610
 8621SOL     OW37321   1.761   4.041  13.409  0.7276  0.8814  0.0593
 8621SOL    HW137322   1.736   4.018  13.320 -1.5319 -0.3179  1.0097
 8621SOL    HW237323   1.744   3.954  13.444 -0.9773  0.4464 -1.8397
 8622SOL     OW37324   0.352   1.748   5.852 -0.6589  0.1066  0.2785
 8622SOL    HW137325   0.301   1.757   5.933 -0.6196 -0.5325  0.3741
 8622SOL    HW237326   0.413   1.677   5.872 -0.0784  1.2431  2.5372
 8623SOL     OW37327   3.549   2.240  15.496  0.7529 -0.5148 -0.8814
 8623SOL    HW137328   3.641   2.228  15.522  0.6020 -1.3380 -0.7404
 8623SOL    HW237329   3.530   2.191  15.416 -1.4639 -1.1572  0.0560
 8624SOL     OW37330   0.128   0.974   3.218 -0.4570  0.0756 -0.1085
 8624SOL    HW137331   0.187   1.049   3.209 -0.5147 -0.0271 -1.3289
 8624SOL    HW237332   0.045   1.008   3.185 -0.0071 -0.5706 -1.9228
 8625SOL     OW37333   0.361   4.608   9.784  0.0131 -0.0468 -0.1792
 8625SOL    HW137334   0.288   4.658   9.748 -0.5342  0.4889  1.7017
 8625SOL    HW237335   0.348   4.517   9.757  2.2274  0.0416 -1.5697
 8626SOL     OW37336   4.309   2.318   6.133 -0.5722  0.6135  0.6806
 8626SOL    HW137337   4.339   2.406   6.114  1.4292  0.1188  1.6087
 8626SOL    HW237338   4.232   2.309   6.076  1.1528 -2.7331 -1.1245
 8627SOL     OW37339   0.948   0.513   7.993  0.8494  0.3197 -0.2074
 8627SOL    HW137340   0.973   0.605   8.004  1.4878  0.3147 -1.5923
 8627SOL    HW237341   0.853   0.515   7.983  0.7609 -2.1375  0.3137
 8628SOL     OW37342   3.732   1.335   4.460  0.1859 -0.3133 -0.4652
 8628SOL    HW137343   3.811   1.287   4.485 -0.2970 -0.4757  0.7396
 8628SOL    HW237344   3.684   1.265   4.415 -3.0310  1.3386  0.4301
 8629SOL     OW37345   1.977   3.829   7.090 -0.1366  0.6396  0.3402
 8629SOL    HW137346   1.955   3.901   7.149 -0.8197  0.3684  0.4087
 8629SOL    HW237347   1.930   3.872   7.019  0.5135 -1.4042 -1.3189
 8630SOL     OW37348   3.583   3.467   4.163 -0.1745  0.4348 -0.2303
 8630SOL    HW137349   3.622   3.544   4.205  1.6178 -2.2444  2.9445
 8630SOL    HW237350   3.639   3.458   4.086 -0.2528 -2.4241  0.0520
 8631SOL     OW37351   4.456   1.179   2.867  0.5042  0.3561 -0.1455
 8631SOL    HW137352   4.424   1.168   2.956  2.8830 -1.4656  0.4888
 8631SOL    HW237353   4.453   1.274   2.854  0.5260  0.6495  1.9348
 8632SOL     OW37354   4.382   0.356   8.061  0.4105  0.4212  0.0930
 8632SOL    HW137355   4.402   0.422   8.126  1.2683  2.0683 -1.8454
 8632SOL    HW237356   4.320   0.302   8.110 -0.4422  3.2061  2.0628
 8633SOL     OW37357   2.101   3.857   4.829  0.4215  0.0966 -0.3636
 8633SOL    HW137358   2.069   3.804   4.902 -1.2276  0.9233 -0.4963
 8633SOL    HW237359   2.018   3.862   4.782 -1.0804  0.7579  2.3314
 8634SOL     OW37360   2.670   2.660   6.506 -0.1552 -0.6346  0.2499
 8634SOL    HW137361   2.603   2.633   6.568 -1.1116  0.4462 -0.3297
 8634SOL    HW237362   2.626   2.738   6.473 -2.1328 -0.6596  2.8306
 8635SOL     OW37363   0.679   1.256   9.098  0.6455 -0.1076 -0.7310
 8635SOL    HW137364   0.708   1.239   9.008  1.0041 -1.5670 -0.3499
 8635SOL    HW237365   0.604   1.197   9.095  0.8916 -0.4234 -0.8000
 8636SOL     OW37366   2.700   0.859   5.524 -0.0228 -0.0796 -0.5660
 8636SOL    HW137367   2.761   0.878   5.453  1.0182 -0.7081  0.1707
 8636SOL    HW237368   2.716   0.767   5.546 -0.8816 -0.1951 -0.4085
 8637SOL     OW37369   4.647   4.425  12.242 -0.1858  0.1731  0.0455
 8637SOL    HW137370   4.585   4.448  12.173 -0.2935 -1.8146 -0.5274
 8637SOL    HW237371   4.587   4.408  12.314  0.5557  1.9824  1.0815
 8638SOL     OW37372   3.718   1.266   6.922  0.0282 -0.0769  0.2977
 8638SOL    HW137373   3.670   1.190   6.891  2.8392 -1.6532 -0.2085
 8638SOL    HW237374   3.808   1.239   6.940  0.2587 -0.1144 -0.9084
 8639SOL     OW37375   0.940   1.168   3.756 -0.1983 -0.1835 -0.1095
 8639SOL    HW137376   1.005   1.100   3.738 -1.9434 -1.9475  0.2655
 8639SOL    HW237377   0.975   1.252   3.724 -1.5294  0.8230  1.0462
 8640SOL     OW37378   3.209   3.227  14.386  0.6480  0.3358 -0.3337
 8640SOL    HW137379   3.150   3.157  14.356 -2.1261  2.1953  0.7205
 8640SOL    HW237380   3.151   3.297  14.353 -0.7537 -0.4855  0.3921
 8641SOL     OW37381   0.259   1.541   3.471 -0.1970  0.0770  0.4610
 8641SOL    HW137382   0.237   1.449   3.461 -0.7541  0.1587  0.9586
 8641SOL    HW237383   0.182   1.569   3.520 -0.5477 -0.0824 -0.0012
 8642SOL     OW37384   3.949   1.588  12.539  0.0763 -0.1533 -0.7020
 8642SOL    HW137385   3.944   1.544  12.624 -1.2960  1.2380 -0.0800
 8642SOL    HW237386   3.963   1.682  12.549 -0.2052 -0.2061  0.2070
 8643SOL     OW37387   2.288   4.042  10.919  0.2090  0.2423  0.1983
 8643SOL    HW137388   2.215   4.042  10.982  0.4197 -1.0916  0.4423
 8643SOL    HW237389   2.327   3.959  10.948  0.5572 -0.5207 -2.4630
 8644SOL     OW37390   3.955   3.713   0.869  0.1871 -0.1044  0.1846
 8644SOL    HW137391   4.036   3.746   0.909  0.0786  1.0906 -0.5594
 8644SOL    HW237392   3.921   3.692   0.956 -0.2277  0.6179  0.1994
 8645SOL     OW37393   4.681   1.621   5.249  0.0551  0.1984 -0.0283
 8645SOL    HW137394   0.002   1.702   5.277  0.7222  0.1154 -0.7849
 8645SOL    HW237395   4.590   1.650   5.244 -0.4919 -1.4165  0.8433
 8646SOL     OW37396   0.375   1.148  11.678  0.2722  0.0330 -0.1656
 8646SOL    HW137397   0.285   1.173  11.657  0.6455  1.4920  0.0234
 8646SOL    HW237398   0.404   1.113  11.594  0.4388 -2.8282  1.0637
 8647SOL     OW37399   4.012   1.032   3.732 -0.0746  0.2206  0.7330
 8647SOL    HW137400   3.976   1.009   3.647 -2.8174  1.4469  1.5760
 8647SOL    HW237401   3.962   0.970   3.785  0.6012 -0.9778 -0.0352
 8648SOL     OW37402   3.990   1.439   3.052 -0.2348 -0.0275 -0.6058
 8648SOL    HW137403   3.897   1.428   3.033 -0.2945 -0.8316  0.1068
 8648SOL    HW237404   4.019   1.347   3.049  0.2976  0.2348 -3.2817
 8649SOL     OW37405   1.610   0.927  10.766 -0.8204 -0.2723  0.0422
 8649SOL    HW137406   1.602   0.994  10.698  0.9283 -0.7238 -0.5919
 8649SOL    HW237407   1.684   0.958  10.818  1.5276  0.1864 -3.5624
 8650SOL     OW37408   1.671   3.093   2.319 -0.3124 -0.2726 -0.3709
 8650SOL    HW137409   1.590   3.043   2.317 -0.6267  0.2437 -0.6630
 8650SOL    HW237410   1.719   3.044   2.253  1.1005  1.0738 -0.3537
 8651SOL     OW37411   4.154   4.292  13.167 -0.0187  0.3644 -0.2651
 8651SOL    HW137412   4.132   4.229  13.236  2.1207 -1.8465 -1.6215
 8651SOL    HW237413   4.073   4.287  13.116  1.0555  1.3986 -2.0815
 8652SOL     OW37414   3.145   1.829   2.163  0.0661  0.3472 -0.2095
 8652SOL    HW137415   3.184   1.907   2.201  1.6286 -0.8836  0.7341
 8652SOL    HW237416   3.204   1.767   2.206  0.2658  1.0205  0.4695
 8653SOL     OW37417   0.138   2.739   0.177  0.1667 -0.4442  0.3060
 8653SOL    HW137418   0.047   2.765   0.190  0.6351  0.2837  2.1189
 8653SOL    HW237419   0.188   2.821   0.177 -1.5722  0.6042 -0.6492
 8654SOL     OW37420   4.067   2.280   8.994  0.3143 -0.5056  0.1323
 8654SOL    HW137421   4.133   2.213   9.011 -1.1393 -2.7923 -3.2427
 8654SOL    HW237422   4.091   2.336   9.068  0.2951 -1.4747  0.8780
 8655SOL     OW37423   0.951   3.488   8.006 -0.2270 -0.0108  0.4120
 8655SOL    HW137424   1.021   3.510   7.944  1.0935  0.2985  2.0194
 8655SOL    HW237425   1.003   3.450   8.077 -1.0908 -0.0336  1.0275
 8656SOL     OW37426   2.806   2.870   9.139  0.4753 -0.1053 -0.0362
 8656SOL    HW137427   2.748   2.946   9.131  1.3500  0.6102  0.3877
 8656SOL    HW237428   2.762   2.817   9.204  1.6327 -0.2095  0.6591
 8657SOL     OW37429   2.705   2.321  11.109  0.6331  0.0886  0.2332
 8657SOL    HW137430   2.702   2.226  11.122 -0.5231  0.1697  0.5215
 8657SOL    HW237431   2.671   2.346  11.195  2.0700 -1.0922  1.1423
 8658SOL     OW37432   1.048   1.371   7.325  0.7101  0.0056 -0.0919
 8658SOL    HW137433   1.005   1.411   7.249 -1.8870 -0.1444  1.3117
 8658SOL    HW237434   1.055   1.454   7.371  0.0402  1.1379 -2.0232
 8659SOL     OW37435   0.985   1.068  12.620 -0.6514  0.9075 -0.0393
 8659SOL    HW137436   1.024   1.149  12.590  0.4463  1.0169  1.6603
 8659SOL    HW237437   0.923   1.103  12.684 -1.8734 -2.5466  0.6904
 8660SOL     OW37438   2.803   4.673   1.837  0.3104  0.1971 -0.2858
 8660SOL    HW137439   2.789   0.044   1.854  0.6904 -0.1646  1.8898
 8660SOL    HW237440   2.896   4.680   1.857  0.1340 -0.0448  0.5948
 8661SOL     OW37441   1.552   0.845   1.716 -0.1194 -0.1266  0.1562
 8661SOL    HW137442   1.611   0.837   1.791  0.3468 -1.7626 -0.3770
 8661SOL    HW237443   1.541   0.939   1.700  0.5898 -0.1028 -0.1936
 8662SOL     OW37444   2.673   3.622   2.339  0.3885  0.3675 -0.3068
 8662SOL    HW137445   2.637   3.640   2.426  2.1331 -0.8621  0.6584
 8662SOL    HW237446   2.731   3.697   2.326  0.3875  0.5186  0.5839
 8663SOL     OW37447   3.338   0.377  15.374 -0.0538  0.5277 -0.1111
 8663SOL    HW137448   3.283   0.310  15.333 -0.2223  0.4020  0.3229
 8663SOL    HW237449   3.400   0.380  15.301  0.3140  1.1603  0.2305
 8664SOL     OW37450   2.464   3.990   3.556 -0.3805  0.8555  0.3247
 8664SOL    HW137451   2.370   3.994   3.539 -0.2830 -0.4136 -0.5112
 8664SOL    HW237452   2.505   4.058   3.503  2.9384 -1.2156  0.3054
 8665SOL     OW37453   4.160   2.471   7.898  0.3279  0.0980  0.3325
 8665SOL    HW137454   4.110   2.486   7.817 -3.1939 -2.3240  2.0572
 8665SOL    HW237455   4.228   2.414   7.864  0.3459 -0.9619  2.1845
 8666SOL     OW37456   0.484   1.419   8.531 -0.0294 -0.4970 -0.7568
 8666SOL    HW137457   0.447   1.492   8.481 -0.9106 -0.7721 -0.5066
 8666SOL    HW237458   0.454   1.433   8.621  1.0840 -1.1264 -0.2890
 8667SOL     OW37459   2.214   3.699   5.694 -0.0919 -0.0138  0.0660
 8667SOL    HW137460   2.280   3.630   5.686 -1.0508 -1.0317  0.9324
 8667SOL    HW237461   2.261   3.734   5.770  0.3897 -1.1331  0.2840
 8668SOL     OW37462   1.121   1.346   4.194  0.1776  0.2243  0.0760
 8668SOL    HW137463   1.188   1.337   4.126 -0.4302  2.2083 -0.7712
 8668SOL    HW237464   1.044   1.310   4.150 -0.0594  1.4311 -0.4983
 8669SOL     OW37465   2.322   0.363   9.182  0.6956  0.8909 -0.4367
 8669SOL    HW137466   2.238   0.359   9.228  0.4430 -0.4072 -1.0124
 8669SOL    HW237467   2.292   0.361   9.091 -0.1532 -0.6958 -0.1214
 8670SOL     OW37468   0.854   3.355   8.981 -0.5210 -0.3252  0.2670
 8670SOL    HW137469   0.824   3.318   9.064 -1.4525  0.4975  0.2828
 8670SOL    HW237470   0.907   3.428   9.013  0.2597 -1.1394  0.8538
 8671SOL     OW37471   4.548   3.977   6.573 -0.0080 -0.0733 -0.1758
 8671SOL    HW137472   4.473   3.970   6.514  2.6324  1.6025 -3.7746
 8671SOL    HW237473   4.516   3.942   6.656  1.0236 -0.4837  0.0591
 8672SOL     OW37474   1.547   4.511   8.230 -0.1738  0.0440  0.0627
 8672SOL    HW137475   1.490   4.455   8.282 -0.7372  0.9458  0.4273
 8672SOL    HW237476   1.481   4.573   8.199 -0.4940 -0.7891 -0.9103
 8673SOL     OW37477   0.091   3.790  14.580 -0.1076 -0.5012  0.3737
 8673SOL    HW137478   0.132   3.876  14.573  0.7598 -0.8428  1.2385
 8673SOL    HW237479   0.149   3.721  14.548 -0.8648 -0.7421 -0.4425
 8674SOL     OW37480   3.268   3.053   6.476 -0.5579  0.2630  0.2873
 8674SOL    HW137481   3.309   3.137   6.495  1.4099 -0.7798  0.7540
 8674SOL    HW237482   3.199   3.077   6.415 -0.7346  1.0215  0.7893
 8675SOL     OW37483   2.136   1.834  14.752  0.1362  0.1454 -0.5836
 8675SOL    HW137484   2.169   1.917  14.786  1.0182  0.6183 -2.5826
 8675SOL    HW237485   2.189   1.832  14.672  1.0978 -1.8713  0.1030
 8676SOL     OW37486   2.235   4.248   2.619  0.0311  0.2887 -0.3124
 8676SOL    HW137487   2.326   4.223   2.600 -0.3322 -1.3416  0.0808
 8676SOL    HW237488   2.244   4.298   2.700  0.9242 -0.8470  0.2855
 8677SOL     OW37489   0.825   2.475   3.661 -0.5426 -0.4905 -0.5965
 8677SOL    HW137490   0.758   2.468   3.729  0.7057 -0.2894  0.6502
 8677SOL    HW237491   0.781   2.426   3.591 -1.7533 -0.1681 -0.0685
 8678SOL     OW37492   2.239   0.746   5.828 -0.0011 -0.0968  0.0952
 8678SOL    HW137493   2.178   0.757   5.901  1.3561  1.8142  0.9119
 8678SOL    HW237494   2.319   0.773   5.874  0.3144  0.6434 -0.9094
 8679SOL     OW37495   3.959   3.052   3.222 -0.1537  0.2630  0.2719
 8679SOL    HW137496   3.904   2.997   3.166 -1.2706  0.5277  1.1001
 8679SOL    HW237497   4.030   3.080   3.164 -0.6070 -1.2474 -1.0089
 8680SOL     OW37498   0.440   2.207   6.579 -0.4312 -0.0812 -0.1390
 8680SOL    HW137499   0.430   2.262   6.657  1.0356  0.4772 -0.3360
 8680SOL    HW237500   0.519   2.162   6.610 -0.8284  0.4563  1.6585
 8681SOL     OW37501   0.086   0.108  11.957 -0.6935  0.0175 -0.2682
 8681SOL    HW137502   0.074   0.014  11.970  0.5123  0.2594  2.6096
 8681SOL    HW237503   0.026   0.134  12.027  0.7414  1.4829  0.3908
 8682SOL     OW37504   3.604   0.569   7.552 -0.3421 -0.2613  0.0902
 8682SOL    HW137505   3.549   0.552   7.629  1.5324 -0.5081  1.3826
 8682SOL    HW237506   3.667   0.635   7.581 -0.5566  0.2839 -0.6755
 8683SOL     OW37507   2.539   4.567  16.237 -0.2314 -0.5435 -0.6910
 8683SOL    HW137508   2.502   4.543  16.153  0.2895  1.3383 -1.4755
 8683SOL    HW237509   2.521   4.485  16.282  0.7451 -0.5286 -0.2728
 8684SOL     OW37510   4.525   3.048   8.368 -0.7089 -0.1984  0.0979
 8684SOL    HW137511   4.542   3.139   8.346  0.1643 -0.1754  0.8772
 8684SOL    HW237512   4.445   3.036   8.316 -0.9250 -3.3192  1.1261
 8685SOL     OW37513   3.224   0.099   5.201 -0.4049  0.1224  0.6723
 8685SOL    HW137514   3.297   0.051   5.163  0.1968  2.0609 -0.6243
 8685SOL    HW237515   3.225   0.071   5.293  1.7620 -1.1917  0.2489
 8686SOL     OW37516   4.491   3.125   4.603 -0.0365 -0.2471 -0.0451
 8686SOL    HW137517   4.508   3.206   4.652 -0.4067  0.3869 -0.9708
 8686SOL    HW237518   4.540   3.059   4.651  0.0958  0.5876  0.9944
 8687SOL     OW37519   0.050   2.785   2.557 -0.1669  0.2291 -0.5600
 8687SOL    HW137520   0.084   2.773   2.468 -0.5795  0.0731 -0.6981
 8687SOL    HW237521   0.014   2.873   2.553  0.9357  0.7015 -0.0718
 8688SOL     OW37522   0.790   3.966   5.359  0.1103  0.2728 -0.1254
 8688SOL    HW137523   0.882   3.990   5.367  0.1333 -0.4897  1.7504
 8688SOL    HW237524   0.746   4.017   5.427  0.6928 -0.5012  0.8378
 8689SOL     OW37525   1.583   2.002   9.597 -0.7228 -0.3829 -0.3207
 8689SOL    HW137526   1.653   1.986   9.662  0.0442  0.7463 -0.8784
 8689SOL    HW237527   1.527   2.061   9.647 -0.4928 -0.7605  0.3887
 8690SOL     OW37528   4.627   3.951  15.063  0.0423  0.7409 -0.0213
 8690SOL    HW137529   4.686   3.930  15.135  0.3355  0.0365 -0.4748
 8690SOL    HW237530   4.550   3.968  15.118  0.2640 -0.2224  0.5759
 8691SOL     OW37531   3.337   1.577   4.416  0.2742  0.0841  0.8076
 8691SOL    HW137532   3.333   1.482   4.402 -3.0054  0.5384 -1.3268
 8691SOL    HW237533   3.332   1.608   4.326 -0.4573 -1.6854  0.2330
 8692SOL     OW37534   4.185   1.647   1.836  0.0914  0.1756 -0.2852
 8692SOL    HW137535   4.123   1.574   1.828  1.4783 -0.9810 -0.4317
 8692SOL    HW237536   4.178   1.673   1.744 -1.6905  0.1665 -0.1608
 8693SOL     OW37537   0.694   2.904  16.445  0.4766  0.5724  0.0979
 8693SOL    HW137538   0.676   2.832  16.506  0.9017 -0.5611 -1.0946
 8693SOL    HW237539   0.608   2.930  16.410  0.7186  0.0853 -0.8612
 8694SOL     OW37540   2.299   3.294   8.703  0.3018 -0.0016 -0.0710
 8694SOL    HW137541   2.360   3.342   8.646  1.5142  0.6764  1.7743
 8694SOL    HW237542   2.290   3.214   8.652  2.2499 -1.8148  2.4594
 8695SOL     OW37543   4.298   3.624   3.056  0.4444 -0.1256 -0.4094
 8695SOL    HW137544   4.252   3.545   3.028 -0.2807  0.1868 -0.1104
 8695SOL    HW237545   4.299   3.679   2.978 -0.6147  0.7834  0.2151
 8696SOL     OW37546   1.961   0.396   4.512  0.0785  0.6902 -0.5894
 8696SOL    HW137547   1.992   0.317   4.558 -1.0283  0.3722 -0.4000
 8696SOL    HW237548   1.914   0.448   4.576 -1.7370  0.2639 -1.5790
 8697SOL     OW37549   3.914   4.631   8.544  0.5183 -0.8778 -0.5988
 8697SOL    HW137550   3.833   4.627   8.493  0.0223  1.4618 -0.0101
 8697SOL    HW237551   3.926   4.542   8.578  3.3656 -0.3268 -0.1438
 8698SOL     OW37552   3.803   4.528   7.836  0.4838  0.1559  0.4662
 8698SOL    HW137553   3.866   4.588   7.796 -0.4703 -0.0420 -1.3117
 8698SOL    HW237554   3.863   4.473   7.887  0.6657  0.8520  1.0028
 8699SOL     OW37555   0.209   3.344   7.877 -0.4588  0.1886  0.4052
 8699SOL    HW137556   0.296   3.332   7.839 -0.7342 -1.7485  0.3852
 8699SOL    HW237557   0.158   3.350   7.796 -0.5396 -0.4228  0.4065
 8700SOL     OW37558   2.625   4.573   5.252  0.3055  0.1140  0.1274
 8700SOL    HW137559   2.569   4.651   5.257 -0.6231 -0.4946 -0.8605
 8700SOL    HW237560   2.703   4.625   5.232  1.8446 -0.8555  3.6577
 8701SOL     OW37561   2.561   1.579   3.529 -0.6954 -0.0171  0.2543
 8701SOL    HW137562   2.574   1.672   3.507  1.3788 -0.6247 -1.0594
 8701SOL    HW237563   2.466   1.579   3.520 -0.4624 -2.5304 -2.4554
 8702SOL     OW37564   0.349   4.494   4.335 -0.4620 -0.0897 -0.3476
 8702SOL    HW137565   0.377   4.577   4.373  0.3087 -0.0521 -0.9856
 8702SOL    HW237566   0.300   4.526   4.259 -2.3243  0.3902  1.0598
 8703SOL     OW37567   2.414   1.890   6.866  0.4374  0.4106  0.2234
 8703SOL    HW137568   2.481   1.958   6.857  2.0743 -1.5842 -2.6740
 8703SOL    HW237569   2.339   1.939   6.898  0.1206 -0.3329  0.6183
 8704SOL     OW37570   1.903   1.407   2.000 -0.0273  0.4590  0.3852
 8704SOL    HW137571   1.874   1.420   2.090 -2.3042  2.4484 -0.6333
 8704SOL    HW237572   1.910   1.496   1.966 -1.4226  0.7441  0.8321
 8705SOL     OW37573   0.415   2.804  16.632 -0.3973  0.1562 -0.0215
 8705SOL    HW137574   0.413   2.796  16.728 -0.3121 -0.6670 -0.0923
 8705SOL    HW237575   0.360   2.879  16.612 -0.6106  0.4431  1.6230
 8706SOL     OW37576   1.847   2.062   7.688 -0.0610 -0.1129 -0.1758
 8706SOL    HW137577   1.902   1.991   7.722  0.4232 -0.0036 -0.7316
 8706SOL    HW237578   1.767   2.020   7.654 -0.5921  0.4397  0.3983
 8707SOL     OW37579   3.100   0.843   8.014 -0.8495  0.0341 -0.1194
 8707SOL    HW137580   3.049   0.852   8.094 -1.3249 -0.1620 -0.4000
 8707SOL    HW237581   3.036   0.807   7.953 -3.5892  0.0784  2.7399
 8708SOL     OW37582   2.532   3.135   4.191  0.1787  0.3403  1.1856
 8708SOL    HW137583   2.587   3.124   4.114  0.9124  1.6478  1.5304
 8708SOL    HW237584   2.476   3.057   4.191  2.7610 -1.5224 -2.5466
 8709SOL     OW37585   3.349   4.167  13.574  0.2787 -0.2853 -0.5714
 8709SOL    HW137586   3.318   4.224  13.644  0.5573 -0.4707 -0.2974
 8709SOL    HW237587   3.393   4.100  13.626 -1.0409  0.5999  1.6541
 8710SOL     OW37588   0.529   2.777   6.116  0.4623  0.1919  0.0975
 8710SOL    HW137589   0.565   2.791   6.203 -2.0077  0.2063  1.1288
 8710SOL    HW237590   0.587   2.706   6.088  2.8943  1.9161  0.8123
 8711SOL     OW37591   0.742   1.786   8.420  0.0037  0.0461  0.1411
 8711SOL    HW137592   0.746   1.773   8.515 -0.4540 -0.3019  0.1156
 8711SOL    HW237593   0.767   1.697   8.396  1.5314  0.5935 -0.2696
 8712SOL     OW37594   1.439   2.693  12.698 -0.3879 -0.8229 -0.1407
 8712SOL    HW137595   1.490   2.760  12.652 -0.6545 -0.9412 -0.6093
 8712SOL    HW237596   1.416   2.640  12.622  0.3229 -1.4778  0.0985
 8713SOL     OW37597   0.829   1.506   2.101 -0.1760 -0.2920  0.1179
 8713SOL    HW137598   0.852   1.413   2.108 -0.0659 -0.2882 -0.2029
 8713SOL    HW237599   0.830   1.522   2.007  2.0745  2.0300  0.5543
 8714SOL     OW37600   3.129   2.521   3.433 -0.8443  0.0178  1.1014
 8714SOL    HW137601   3.133   2.579   3.357  0.0853 -2.1520 -0.4893
 8714SOL    HW237602   3.184   2.453   3.395  2.2384  1.3094  3.2868
 8715SOL     OW37603   3.638   2.198   0.135 -0.1267  0.3838  0.1593
 8715SOL    HW137604   3.655   2.194   0.041  2.8963  0.9839  0.6766
 8715SOL    HW237605   3.551   2.159   0.139  0.6328 -0.9450  3.7605
 8716SOL     OW37606   4.578   2.172   3.523 -0.1623  0.4858 -0.2481
 8716SOL    HW137607   4.584   2.164   3.428  0.7684  2.9795 -0.3895
 8716SOL    HW237608   4.511   2.240   3.517  0.1799  0.7104 -1.4544
 8717SOL     OW37609   0.505   2.769   3.919  0.5907 -0.6853  0.4270
 8717SOL    HW137610   0.455   2.815   3.851 -1.5774  0.6397  2.9274
 8717SOL    HW237611   0.469   2.802   4.001 -3.3465 -4.3603  0.1912
 8718SOL     OW37612   1.925   4.251   8.087 -0.1597  0.3525 -0.5071
 8718SOL    HW137613   1.932   4.274   7.994  0.4278 -0.0094 -0.5492
 8718SOL    HW237614   1.912   4.339   8.121  0.6049 -0.3148  1.4966
 8719SOL     OW37615   2.610   1.713   7.354  0.0699 -0.3551 -0.4384
 8719SOL    HW137616   2.628   1.801   7.387 -3.1699  0.6543 -1.3238
 8719SOL    HW237617   2.692   1.676   7.387  0.5579 -0.0579 -1.3179
 8720SOL     OW37618   2.264   1.227   4.659 -0.5035  0.4760  0.7001
 8720SOL    HW137619   2.175   1.230   4.695  0.2735  0.2967  2.5991
 8720SOL    HW237620   2.308   1.259   4.737 -0.5017  0.1668  0.8254
 8721SOL     OW37621   1.434   0.895   3.450 -0.2550 -0.1776  0.2100
 8721SOL    HW137622   1.436   0.803   3.478 -0.0027 -1.0669 -2.6914
 8721SOL    HW237623   1.500   0.931   3.508  2.5380 -1.6233 -2.0285
 8722SOL     OW37624   4.005   2.327  16.736 -0.4044  0.4026 -0.5523
 8722SOL    HW137625   3.957   2.259  16.782  0.9376  0.8857  1.5460
 8722SOL    HW237626   3.957   2.312  16.655 -0.8848 -1.1841  0.0360
 8723SOL     OW37627   1.750   4.540   8.590  0.8983 -0.3358 -0.0745
 8723SOL    HW137628   1.831   4.578   8.624  1.0774 -0.8164  0.0295
 8723SOL    HW237629   1.790   4.473   8.535 -2.1296 -1.7497 -0.5743
 8724SOL     OW37630   4.080   4.461   6.781  0.7795 -0.6714  0.2600
 8724SOL    HW137631   4.033   4.418   6.852  1.0696  1.2822  1.6404
 8724SOL    HW237632   4.050   4.410   6.705 -0.3523 -0.4659  0.5669
 8725SOL     OW37633   4.603   4.077   4.516 -0.2179 -0.1375  0.1048
 8725SOL    HW137634   4.572   4.002   4.465 -2.0239  0.4043  0.3963
 8725SOL    HW237635   4.698   4.066   4.522  0.0965  1.8868 -1.1882
 8726SOL     OW37636   3.098   2.982  16.764 -0.3012  0.3945  0.4011
 8726SOL    HW137637   3.118   2.915  16.830 -0.8624  0.1744  0.3498
 8726SOL    HW237638   3.004   2.987  16.781 -0.1844 -0.6713  1.3595
 8727SOL     OW37639   0.491   1.035   9.101 -0.0526  0.3942  0.0820
 8727SOL    HW137640   0.433   1.005   9.171  0.0789  0.4069  0.1971
 8727SOL    HW237641   0.499   0.949   9.060 -1.3885  0.4263 -0.2512
 8728SOL     OW37642   1.814   2.743  11.881  0.1204  0.1385  0.2015
 8728SOL    HW137643   1.889   2.718  11.936 -1.2628 -2.3777  0.9863
 8728SOL    HW237644   1.749   2.692  11.930 -0.5673  1.2524  0.4524
 8729SOL     OW37645   1.448   4.394   1.967 -0.1473 -0.0534 -0.1806
 8729SOL    HW137646   1.476   4.357   2.051  1.5026  0.8664 -0.3343
 8729SOL    HW237647   1.467   4.488   1.962 -0.1717  0.0007  0.7183
 8730SOL     OW37648   0.549   3.454   1.900 -0.2075  0.1563 -0.0574
 8730SOL    HW137649   0.491   3.440   1.825 -0.0628  2.0497 -0.5271
 8730SOL    HW237650   0.621   3.505   1.862 -0.7051  0.1403 -1.0122
 8731SOL     OW37651   1.967   1.267   4.722  0.3517 -0.1578  0.4230
 8731SOL    HW137652   1.980   1.296   4.632  3.4765 -0.2993  0.8177
 8731SOL    HW237653   1.956   1.350   4.768  0.1402  2.4885 -4.4530
 8732SOL     OW37654   3.128   1.314   9.803  0.8597 -0.5413  0.0628
 8732SOL    HW137655   3.121   1.404   9.773 -0.1424 -0.0735  1.7432
 8732SOL    HW237656   3.043   1.297   9.844  0.3119 -1.1303 -1.3042
 8733SOL     OW37657   2.765   4.276  16.046 -0.0535 -0.9757 -0.2977
 8733SOL    HW137658   2.849   4.278  16.091  0.6997 -2.7748 -1.6688
 8733SOL    HW237659   2.706   4.257  16.120  1.9589 -1.8789  1.0739
 8734SOL     OW37660   1.645   4.217   4.057  0.0795 -0.3847  0.4385
 8734SOL    HW137661   1.632   4.303   4.018 -0.1511  0.6183  2.6850
 8734SOL    HW237662   1.643   4.238   4.151  0.8732 -1.7017  0.7600
 8735SOL     OW37663   3.381   3.366  17.384  0.1183 -0.0280  0.1600
 8735SOL    HW137664   3.375   3.421  17.462 -2.9110 -1.0800  0.6763
 8735SOL    HW237665   3.388   3.431  17.314 -2.1014 -0.6057 -0.6066
 8736SOL     OW37666   2.612   0.967   5.773  0.3203  0.7123  0.0388
 8736SOL    HW137667   2.705   0.982   5.788  0.7943 -0.4289 -1.6559
 8736SOL    HW237668   2.621   0.905   5.700  0.4982 -2.2772  2.5798
 8737SOL     OW37669   3.273   4.572   2.924  0.5191 -0.0943 -0.0120
 8737SOL    HW137670   3.242   4.644   2.869 -1.3691 -0.5823  0.4137
 8737SOL    HW237671   3.191   4.523   2.923  0.3924  0.1127  0.3474
 8738SOL     OW37672   4.286   3.424  16.234  0.2258 -0.1425 -0.3150
 8738SOL    HW137673   4.277   3.470  16.317  1.0609  0.8597 -0.7799
 8738SOL    HW237674   4.343   3.478  16.179 -0.6673  2.0688  0.9174
 8739SOL     OW37675   1.882   3.004  10.449  0.6366  0.0058 -0.4675
 8739SOL    HW137676   1.921   3.086  10.478 -0.0639  0.6977 -1.4939
 8739SOL    HW237677   1.890   2.947  10.526 -1.6383  0.3944  0.0416
 8740SOL     OW37678   2.500   3.749  12.408  0.9449 -0.3291  0.1998
 8740SOL    HW137679   2.408   3.771  12.390  1.5749  0.6900 -1.7893
 8740SOL    HW237680   2.529   3.742  12.318 -1.3109  0.3208 -0.5950
 8741SOL     OW37681   1.540   3.357   1.493  0.1500  0.4154 -0.1320
 8741SOL    HW137682   1.629   3.388   1.508 -0.2281  0.1848  2.5632
 8741SOL    HW237683   1.538   3.341   1.398 -2.2251  0.2772 -0.0701
 8742SOL     OW37684   0.188   1.216  16.218  0.3192  1.3227  0.8997
 8742SOL    HW137685   0.248   1.277  16.175  1.0151 -0.0069 -0.0149
 8742SOL    HW237686   0.110   1.265  16.241 -1.5284 -2.0152  1.7150
 8743SOL     OW37687   1.314   2.974   1.340 -0.8082 -0.2863 -0.3918
 8743SOL    HW137688   1.317   2.879   1.325 -0.5981 -0.5035  1.0240
 8743SOL    HW237689   1.315   3.008   1.250 -0.4727  0.1588 -0.2183
 8744SOL     OW37690   1.262   4.661   2.103  0.0124  0.9430 -0.4850
 8744SOL    HW137691   1.338   4.671   2.045  1.0975  0.3904  0.8433
 8744SOL    HW237692   1.213   0.009   2.059 -1.1512  0.8676  0.7181
 8745SOL     OW37693   4.656   0.067   2.445  0.4993 -0.3344  0.4905
 8745SOL    HW137694   4.655   4.703   2.487 -1.1664 -0.2223  0.6769
 8745SOL    HW237695   0.029   0.078   2.439  0.3478  0.7013 -0.0961
 8746SOL     OW37696   3.087   2.055   9.064  0.4523  0.0256  0.0264
 8746SOL    HW137697   3.100   2.021   9.153  0.2316  0.8740  0.3879
 8746SOL    HW237698   3.104   1.980   9.008 -1.0664 -0.4301  0.1756
 8747SOL     OW37699   2.154   4.612   1.943  0.1990 -0.2527 -0.0845
 8747SOL    HW137700   2.184   4.703   1.931  1.6642 -0.7473 -0.2147
 8747SOL    HW237701   2.221   4.578   1.883  1.2960  0.9891  0.4265
 8748SOL     OW37702   0.513   2.932   2.636  0.0497 -0.4929 -0.3988
 8748SOL    HW137703   0.472   2.846   2.644  0.3826 -0.6290 -0.1547
 8748SOL    HW237704   0.516   2.949   2.542 -0.5302 -0.4475 -0.4113
 8749SOL     OW37705   0.115   0.097   8.127  0.3670  0.8070  0.5693
 8749SOL    HW137706   0.025   0.067   8.118  0.5155  0.7476 -0.6913
 8749SOL    HW237707   0.108   0.183   8.169  0.5628  0.7399  0.7403
 8750SOL     OW37708   3.054   3.600   3.033 -0.7084  0.0595 -0.1895
 8750SOL    HW137709   3.135   3.550   3.041 -0.2930  0.7888  0.1796
 8750SOL    HW237710   2.985   3.534   3.032 -0.7119  0.0698 -0.7085
 8751SOL     OW37711   1.337   0.978   0.175  0.1689  0.4224  0.1740
 8751SOL    HW137712   1.317   0.911   0.241  2.1275  0.3785  0.7201
 8751SOL    HW237713   1.375   0.924   0.106  0.2409 -1.6041  1.7842
 8752SOL     OW37714   2.355   4.558   1.765  0.5368  0.0506  0.2346
 8752SOL    HW137715   2.380   4.633   1.711  0.9496  1.3534  2.2517
 8752SOL    HW237716   2.311   4.502   1.701  1.6301  1.1202 -1.4624
 8753SOL     OW37717   0.392   0.747   3.287  0.6525  0.1738  0.2028
 8753SOL    HW137718   0.310   0.762   3.334 -0.4400  0.1140 -1.6840
 8753SOL    HW237719   0.449   0.806   3.337 -0.6086  0.7453  0.9884
 8754SOL     OW37720   2.265   2.810   5.547  0.0361 -0.0494 -0.2079
 8754SOL    HW137721   2.341   2.813   5.490  0.5982 -1.1313  0.4873
 8754SOL    HW237722   2.220   2.732   5.514  3.4880 -1.6483 -1.1047
 8755SOL     OW37723   0.920   3.784   0.626 -0.2704 -0.0947 -0.1143
 8755SOL    HW137724   0.989   3.848   0.608 -1.6928  1.4901  0.0241
 8755SOL    HW237725   0.881   3.794   0.540 -1.9950  0.0424  0.6796
 8756SOL     OW37726   1.882   1.237   8.955 -0.4184  0.1063  0.2091
 8756SOL    HW137727   1.850   1.161   8.906  2.3956 -1.3188  0.6032
 8756SOL    HW237728   1.890   1.300   8.884 -0.6274  0.6926  0.7084
 8757SOL     OW37729   1.946   1.535   9.269  0.4272  0.4665  0.4780
 8757SOL    HW137730   1.905   1.597   9.328  3.1883 -1.3319  4.2682
 8757SOL    HW237731   2.039   1.556   9.275  0.6843 -0.8244  0.9876
 8758SOL     OW37732   3.365   0.323   2.963 -0.1978  0.2202 -0.3952
 8758SOL    HW137733   3.296   0.266   2.998 -1.1307  0.2721 -2.1621
 8758SOL    HW237734   3.335   0.411   2.986 -0.3072 -0.0760  0.6151
 8759SOL     OW37735   1.288   1.471   6.116 -0.1445 -0.4628  0.0306
 8759SOL    HW137736   1.265   1.444   6.204 -0.0213  0.3886  0.3262
 8759SOL    HW237737   1.223   1.427   6.061  2.1434 -1.4951 -1.8755
 8760SOL     OW37738   0.450   0.779  13.419 -0.0145  0.4388  0.0225
 8760SOL    HW137739   0.412   0.734  13.344  0.6964 -0.0746 -0.0328
 8760SOL    HW237740   0.538   0.743  13.415 -0.0970  0.0467  1.5848
 8761SOL     OW37741   3.570   0.372   3.166  0.2633  0.4689 -0.6872
 8761SOL    HW137742   3.635   0.426   3.121 -0.4529  1.9249 -0.0057
 8761SOL    HW237743   3.501   0.365   3.099 -0.8555  0.6430  0.4372
 8762SOL     OW37744   0.200   3.835   6.573  0.2854  0.0645  0.0465
 8762SOL    HW137745   0.245   3.871   6.497  0.5504  1.0495  0.6684
 8762SOL    HW237746   0.117   3.810   6.533  0.5837 -0.2476 -0.3798
 8763SOL     OW37747   4.335   1.973   3.952  0.2046 -0.1945 -0.0355
 8763SOL    HW137748   4.310   2.060   3.920 -0.0857  0.4232  1.8345
 8763SOL    HW237749   4.280   1.965   4.031  1.4200 -1.2153  0.7039
 8764SOL     OW37750   1.038   2.445  10.252  0.7198 -0.1121 -0.2952
 8764SOL    HW137751   1.093   2.421  10.177  0.9135 -0.8333  0.0813
 8764SOL    HW237752   1.035   2.537  10.226  3.2036 -0.0972 -0.5538
 8765SOL     OW37753   0.203   0.467   7.741  0.6250  0.4662 -0.1408
 8765SOL    HW137754   0.149   0.542   7.763  1.3202  1.0819 -0.5440
 8765SOL    HW237755   0.151   0.394   7.776 -1.4073  1.2012 -1.6832
 8766SOL     OW37756   0.911   3.103   2.936  0.0873  0.3472  0.1628
 8766SOL    HW137757   0.864   3.118   3.018  0.4840 -1.3939  0.7179
 8766SOL    HW237758   0.834   3.103   2.880 -0.0158 -1.9625  0.3144
 8767SOL     OW37759   1.315   4.712   7.214  0.0233 -0.4614  0.1055
 8767SOL    HW137760   1.325   0.011   7.307  0.9402 -2.4123  0.4450
 8767SOL    HW237761   1.407   4.712   7.187  0.7345  0.4540  2.5256
 8768SOL     OW37762   3.286   1.043  14.414 -0.3260 -0.1848  0.2304
 8768SOL    HW137763   3.233   1.119  14.437 -0.6076 -0.1742 -0.4577
 8768SOL    HW237764   3.250   0.979  14.476 -1.5234 -0.2368 -0.5210
 8769SOL     OW37765   2.780   4.180   0.836 -0.7862 -0.4947 -0.2365
 8769SOL    HW137766   2.798   4.091   0.865  1.4477  1.3235  3.9787
 8769SOL    HW237767   2.695   4.189   0.879  0.5492 -0.8367  2.4943
 8770SOL     OW37768   1.177   1.723   9.212  0.0674  0.1742 -0.4869
 8770SOL    HW137769   1.255   1.673   9.187 -0.3347 -1.4620  1.5111
 8770SOL    HW237770   1.174   1.799   9.155  2.5667  0.1399 -0.6760
 8771SOL     OW37771   3.526   2.320   6.337 -0.0711  0.0467  0.3472
 8771SOL    HW137772   3.436   2.330   6.369 -0.8546 -1.3543 -1.4093
 8771SOL    HW237773   3.583   2.380   6.386 -0.2647  1.2401 -0.8841
 8772SOL     OW37774   3.837   1.221  11.620  0.1987  0.3907 -0.7799
 8772SOL    HW137775   3.903   1.274  11.576  2.8827  0.0061  2.7659
 8772SOL    HW237776   3.869   1.210  11.710  1.3797 -1.6974 -1.4521
 8773SOL     OW37777   1.708   0.520   5.457  0.2599  0.1365  0.4890
 8773SOL    HW137778   1.710   0.424   5.452  0.6030  0.2275 -1.2682
 8773SOL    HW237779   1.763   0.542   5.382 -0.4522  0.0773 -0.0544
 8774SOL     OW37780   2.648   3.595   2.996  0.2589 -0.4143 -0.0505
 8774SOL    HW137781   2.697   3.626   2.920  0.7427 -0.9604  0.0415
 8774SOL    HW237782   2.699   3.520   3.025 -0.2218 -0.1444  1.5021
 8775SOL     OW37783   4.575   1.383  14.596  0.0915  0.5450  0.1692
 8775SOL    HW137784   4.635   1.416  14.529  0.7264  0.7504  0.8433
 8775SOL    HW237785   4.529   1.315  14.547  2.5298 -1.2136  0.3469
 8776SOL     OW37786   3.732   2.773   0.410  0.4160 -0.1539  0.3073
 8776SOL    HW137787   3.755   2.769   0.317  1.5911  1.2965  0.5393
 8776SOL    HW237788   3.795   2.839   0.439  0.8615  0.0897 -1.1932
 8777SOL     OW37789   2.921   3.795   1.965  0.7060 -0.0072  0.9461
 8777SOL    HW137790   2.859   3.722   1.973  0.7763  0.0874  2.2323
 8777SOL    HW237791   3.000   3.748   1.939 -0.1845 -1.4982  0.8707
 8778SOL     OW37792   2.365   0.691  16.640  0.3700  0.2431  0.3292
 8778SOL    HW137793   2.352   0.736  16.723  2.4027 -0.1467  0.8540
 8778SOL    HW237794   2.453   0.656  16.652 -0.2216 -0.8483  1.4101
 8779SOL     OW37795   1.069   2.260   8.209  0.0341 -0.6124 -0.0893
 8779SOL    HW137796   1.163   2.275   8.212  0.1990 -1.6930  0.0779
 8779SOL    HW237797   1.065   2.191   8.143  0.1991 -0.1880 -0.5439
 8780SOL     OW37798   4.545   4.411   9.038 -0.4687  0.1560  0.0551
 8780SOL    HW137799   4.559   4.323   9.002  1.6792  0.0179  1.2623
 8780SOL    HW237800   4.489   4.437   8.964  1.2350  1.5899 -0.7227
 8781SOL     OW37801   1.335   0.964  10.166  0.5142  0.6411 -0.2507
 8781SOL    HW137802   1.381   0.967  10.250  0.5259  0.3480 -0.2481
 8781SOL    HW237803   1.404   0.933  10.107  0.1800 -0.2359 -0.1710
 8782SOL     OW37804   3.256   1.503  11.009  0.6699  0.4245  0.2807
 8782SOL    HW137805   3.343   1.539  11.029  0.6212  0.6326  0.1162
 8782SOL    HW237806   3.234   1.574  10.949  1.4911 -0.4166 -0.9949
 8783SOL     OW37807   2.869   3.947   2.870 -0.0960 -0.3639  0.0117
 8783SOL    HW137808   2.878   3.851   2.875 -0.2892 -0.4057 -0.4807
 8783SOL    HW237809   2.889   3.956   2.777  1.4927  1.0497  0.4839
 8784SOL     OW37810   2.620   2.921   5.020 -0.3584 -0.5587  0.3318
 8784SOL    HW137811   2.571   2.936   5.101 -0.7390 -1.4064  0.2639
 8784SOL    HW237812   2.559   2.885   4.955 -0.1162  0.0291 -0.2209
 8785SOL     OW37813   1.648   3.344   5.962  0.0698  0.0453  0.4333
 8785SOL    HW137814   1.731   3.297   5.956 -0.3595 -0.3295 -2.6182
 8785SOL    HW237815   1.642   3.355   6.057 -0.9569 -1.7983  0.5771
 8786SOL     OW37816   3.141   2.706   4.430 -0.2657 -0.4001  0.2159
 8786SOL    HW137817   3.081   2.752   4.371  2.1310  1.5760 -0.6696
 8786SOL    HW237818   3.112   2.617   4.409 -1.1850  0.2159 -1.1609
 8787SOL     OW37819   0.125   3.355   5.808  0.1022  0.1809  0.4994
 8787SOL    HW137820   0.188   3.423   5.783  3.1310 -2.5297  0.9393
 8787SOL    HW237821   0.176   3.284   5.845  1.1882  0.7807  0.1476
 8788SOL     OW37822   1.098   3.465  10.621 -0.4402 -0.2868 -0.0986
 8788SOL    HW137823   1.080   3.557  10.640 -0.0136 -0.1934 -0.1420
 8788SOL    HW237824   1.152   3.457  10.543 -0.8679 -0.2656 -0.3973
 8789SOL     OW37825   1.138   1.447   1.959  0.0810 -0.3224 -0.0552
 8789SOL    HW137826   1.151   1.469   1.867 -0.3504 -1.0245 -0.2803
 8789SOL    HW237827   1.229   1.417   1.970  0.0115 -0.7751 -0.7348
 8790SOL     OW37828   3.082   0.315  14.977  0.3709 -0.2280  0.2829
 8790SOL    HW137829   3.003   0.325  14.924  0.9412 -0.6263 -0.6454
 8790SOL    HW237830   3.112   0.406  14.976  1.2438 -0.5084  0.9862
 8791SOL     OW37831   2.173   2.822  17.410 -0.2996 -0.3288  1.0125
 8791SOL    HW137832   2.129   2.781  17.484  1.1807 -3.3402  0.2246
 8791SOL    HW237833   2.139   2.779  17.330 -0.9781  0.6660  0.7690
 8792SOL     OW37834   2.415   1.170   4.459 -0.2633 -0.7385  0.3534
 8792SOL    HW137835   2.476   1.102   4.489  1.7720  0.1442 -1.7265
 8792SOL    HW237836   2.364   1.176   4.539  1.0125  1.2821  1.0152
 8793SOL     OW37837   3.090   1.764  11.164 -0.1882  0.2012  0.3835
 8793SOL    HW137838   3.044   1.749  11.082 -0.1430 -1.1804  0.6170
 8793SOL    HW237839   3.172   1.807  11.137 -1.0940  0.6338 -1.6720
 8794SOL     OW37840   3.216   0.023   0.143  0.2982  0.5444  0.1202
 8794SOL    HW137841   3.179   0.086   0.080 -0.6614 -2.1964 -2.0931
 8794SOL    HW237842   3.298   4.721   0.099 -0.4048 -1.0078 -0.3627
 8795SOL     OW37843   3.913   0.105   4.224 -0.5506 -0.4458  0.2489
 8795SOL    HW137844   3.824   0.140   4.223 -1.3435 -2.5534 -2.7334
 8795SOL    HW237845   3.964   0.176   4.186 -0.8222  0.3260  1.3143
 8796SOL     OW37846   1.965   4.062   6.702 -0.1314  0.2658 -1.2374
 8796SOL    HW137847   1.969   3.972   6.670 -0.2527 -0.2249  0.1193
 8796SOL    HW237848   1.922   4.049   6.787  0.3391  0.0189 -1.0363
 8797SOL     OW37849   4.360   2.597   5.029  0.2785 -0.2743 -0.0974
 8797SOL    HW137850   4.266   2.613   5.037  0.1602  0.2248 -2.4115
 8797SOL    HW237851   4.365   2.576   4.936  0.8505  0.1486 -0.1620
 8798SOL     OW37852   4.040   2.491   4.131  0.0705 -0.0603 -0.0355
 8798SOL    HW137853   4.006   2.404   4.109 -1.5332 -0.0729  2.5229
 8798SOL    HW237854   3.960   2.540   4.150 -1.3493 -0.9808 -3.5788
 8799SOL     OW37855   0.935   1.655  12.475  0.3129  0.1234  0.3042
 8799SOL    HW137856   0.880   1.638  12.551 -0.7217 -1.1515 -0.7428
 8799SOL    HW237857   1.007   1.597  12.502 -0.0969 -0.1759  0.7411
 8800SOL     OW37858   3.905   4.605  17.278 -0.0590  0.7173 -0.4176
 8800SOL    HW137859   3.816   4.587  17.249 -0.0659  0.0669 -0.0072
 8800SOL    HW237860   3.953   4.524  17.258 -1.7460 -0.3690 -0.1292
 8801SOL     OW37861   1.371   1.812   3.264  0.3300  0.3078  0.0575
 8801SOL    HW137862   1.452   1.819   3.214  1.8547 -2.3198  2.1169
 8801SOL    HW237863   1.350   1.719   3.262 -0.9335  0.5790  0.5957
 8802SOL     OW37864   4.329   1.602   3.040 -0.3110 -0.6142 -0.6381
 8802SOL    HW137865   4.353   1.683   2.995 -1.2033 -1.7059 -3.0397
 8802SOL    HW237866   4.238   1.617   3.067 -0.8655 -1.6132 -1.9856
 8803SOL     OW37867   2.204   0.280  13.429  0.5422  0.1519 -0.6916
 8803SOL    HW137868   2.261   0.328  13.489 -1.3725 -0.2146  1.4458
 8803SOL    HW237869   2.116   0.299  13.462  0.7221  1.2338 -0.8245
 8804SOL     OW37870   2.980   3.613   9.201 -0.1695  0.3957 -0.1723
 8804SOL    HW137871   3.008   3.551   9.268  0.5606  0.5687 -0.3208
 8804SOL    HW237872   2.894   3.644   9.231 -1.7312 -0.9196 -3.2587
 8805SOL     OW37873   0.397   1.134   4.084  0.0137  0.0032  0.5561
 8805SOL    HW137874   0.304   1.110   4.080 -0.5055  1.9185  1.1475
 8805SOL    HW237875   0.387   1.225   4.055 -1.4843 -0.3369  0.0294
 8806SOL     OW37876   0.009   0.114   7.077 -0.3913 -0.0813  0.1649
 8806SOL    HW137877   0.044   0.089   7.163  0.3506  1.0977  0.2099
 8806SOL    HW237878   0.090   0.114   7.025 -0.0650  0.2635  0.6663
 8807SOL     OW37879   1.445   0.465  11.629  0.0609  0.6855  0.2301
 8807SOL    HW137880   1.362   0.509  11.644 -0.9526 -1.2621  0.3467
 8807SOL    HW237881   1.480   0.521  11.559 -0.7287 -0.0085 -0.7280
 8808SOL     OW37882   2.211   3.891   6.963 -0.1324 -0.4522  0.2495
 8808SOL    HW137883   2.125   3.860   6.991 -0.1829  0.2336  0.8307
 8808SOL    HW237884   2.271   3.846   7.023  0.1123 -1.8809 -1.0317
 8809SOL     OW37885   0.152   3.713   6.058 -0.2489  0.0317  0.5712
 8809SOL    HW137886   0.201   3.631   6.055  0.2323  0.2766  1.6195
 8809SOL    HW237887   0.069   3.686   6.098 -1.6726 -0.6067 -2.7987
 8810SOL     OW37888   2.102   0.116   5.982  0.2651 -0.2075  0.5208
 8810SOL    HW137889   2.021   0.067   5.970 -2.0426  3.2005  2.3086
 8810SOL    HW237890   2.114   0.119   6.077  1.5465  2.6791  0.2598
 8811SOL     OW37891   0.879   2.477   6.578  0.7164 -0.4030 -0.0585
 8811SOL    HW137892   0.859   2.569   6.563 -2.5831 -0.8221  1.6156
 8811SOL    HW237893   0.859   2.463   6.670  0.1623 -0.9050 -0.2469
 8812SOL     OW37894   4.297   2.791   6.273  0.2319  0.2360  0.1131
 8812SOL    HW137895   4.212   2.781   6.317  0.9343  0.0377  1.4067
 8812SOL    HW237896   4.284   2.763   6.182 -0.2977 -1.0275  0.5762
 8813SOL     OW37897   3.305   0.056   2.542 -0.3349  0.2072  0.5427
 8813SOL    HW137898   3.337   0.005   2.468  3.0201  3.2207 -0.0808
 8813SOL    HW237899   3.310   0.141   2.499 -4.2361 -0.1331 -0.6188
 8814SOL     OW37900   4.405   1.453  15.558  0.0826 -0.9852  0.7872
 8814SOL    HW137901   4.405   1.494  15.471  2.1806 -0.8526  0.8393
 8814SOL    HW237902   4.493   1.414  15.561 -0.1344 -1.5805 -0.3980
 8815SOL     OW37903   1.839   3.002   6.332  0.0620 -0.4127  0.1819
 8815SOL    HW137904   1.769   2.941   6.352 -1.7881  2.1487  1.5764
 8815SOL    HW237905   1.900   2.944   6.287 -1.0026 -0.9373 -0.5631
 8816SOL     OW37906   1.755   0.332   9.813  0.0317  0.0744 -0.5688
 8816SOL    HW137907   1.744   0.335   9.908  0.2863  1.7012 -0.5836
 8816SOL    HW237908   1.729   0.244   9.786  0.3944 -1.0126  2.6405
 8817SOL     OW37909   1.772   4.647   4.898 -0.3096 -0.4902 -0.0044
 8817SOL    HW137910   1.719   4.578   4.858 -0.4282 -1.1135  1.2352
 8817SOL    HW237911   1.707   4.715   4.914 -0.4713 -0.9031  1.0882
 8818SOL     OW37912   2.708   1.981   8.444 -0.0052 -0.3035 -0.4371
 8818SOL    HW137913   2.637   2.008   8.501  0.4263 -0.4237  0.1643
 8818SOL    HW237914   2.737   1.903   8.493 -0.2649 -0.5024 -0.6003
 8819SOL     OW37915   4.486   0.538  16.478 -0.2165 -0.2438  0.2613
 8819SOL    HW137916   4.544   0.614  16.480  0.6944 -0.9229 -0.0972
 8819SOL    HW237917   4.491   0.508  16.569 -0.4146  1.2854  0.7829
 8820SOL     OW37918   2.796   3.922   0.919  0.1078 -0.1447  0.3240
 8820SOL    HW137919   2.721   3.885   0.873 -1.8110 -1.2507  4.3330
 8820SOL    HW237920   2.877   3.884   0.885 -0.6184 -1.7597  0.3727
 8821SOL     OW37921   0.395   2.616  15.986  0.2583 -0.2415  0.3229
 8821SOL    HW137922   0.435   2.627  15.900  1.6263 -2.8428  0.6077
 8821SOL    HW237923   0.377   2.522  15.991 -1.3061  0.0829  0.5376
 8822SOL     OW37924   2.479   1.764  10.329 -0.0463 -0.3076  0.5804
 8822SOL    HW137925   2.561   1.741  10.285 -0.5032 -0.6047 -0.1051
 8822SOL    HW237926   2.492   1.854  10.359 -1.2737 -0.4290  1.4718
 8823SOL     OW37927   0.563   1.976   0.366  0.4362  0.4682  0.1004
 8823SOL    HW137928   0.567   1.886   0.398  1.3199  0.4521 -0.0548
 8823SOL    HW237929   0.485   1.965   0.311  1.4683 -0.0988 -1.2718
 8824SOL     OW37930   2.182   4.680   5.759 -0.4111 -0.0649  0.0518
 8824SOL    HW137931   2.157   0.045   5.790 -0.5701  0.8678 -2.6820
 8824SOL    HW237932   2.104   4.661   5.706 -0.8937  0.1192  0.7052
 8825SOL     OW37933   2.609   3.234  14.757  0.0093  0.9370 -0.1799
 8825SOL    HW137934   2.543   3.300  14.778  1.3548  1.4421  2.5180
 8825SOL    HW237935   2.688   3.279  14.726 -1.2286  3.3994  0.2581
 8826SOL     OW37936   4.016   3.810   6.447  0.3439 -0.7791  0.2889
 8826SOL    HW137937   3.950   3.879   6.447  2.6229  1.3949  0.3224
 8826SOL    HW237938   3.993   3.760   6.525  0.4873 -0.5797  0.4592
 8827SOL     OW37939   0.663   4.418  10.104 -0.1474 -0.1687  0.1889
 8827SOL    HW137940   0.698   4.486  10.047 -3.0312  1.4020  0.2719
 8827SOL    HW237941   0.743   4.391  10.149  0.3755  1.6222  0.3194
 8828SOL     OW37942   1.274   0.276   1.326  0.0665  0.2947 -0.7025
 8828SOL    HW137943   1.311   0.189   1.309 -0.9688 -0.6653  1.8427
 8828SOL    HW237944   1.249   0.297   1.236  0.9382 -2.4712 -1.5845
 8829SOL     OW37945   3.468   0.503   2.533 -0.0712 -0.2580 -0.4555
 8829SOL    HW137946   3.387   0.462   2.565  0.1039 -0.2099  0.0451
 8829SOL    HW237947   3.500   0.542   2.615  0.3661 -0.5116 -0.5126
 8830SOL     OW37948   1.737   2.427   6.677 -0.4315 -0.5269  0.2813
 8830SOL    HW137949   1.803   2.496   6.668  0.0966 -1.1156 -0.3386
 8830SOL    HW237950   1.703   2.450   6.764 -0.0306  0.2975  0.2195
 8831SOL     OW37951   3.237   2.151   7.041 -0.0045  0.6209  0.1586
 8831SOL    HW137952   3.268   2.183   7.126 -0.2314  0.3571  0.3381
 8831SOL    HW237953   3.315   2.111   7.002 -0.6760 -1.4509  0.9558
 8832SOL     OW37954   3.976   0.849   9.352 -0.1164 -0.2045  0.1119
 8832SOL    HW137955   4.058   0.894   9.372  0.3560 -1.4848  0.9922
 8832SOL    HW237956   3.940   0.851   9.441  0.4142  1.4445  0.2970
 8833SOL     OW37957   3.535   2.829   8.207  0.1567  0.1459 -0.6512
 8833SOL    HW137958   3.626   2.853   8.228 -0.2110  1.1302 -0.2121
 8833SOL    HW237959   3.511   2.894   8.141 -0.5753  2.0354  1.4760
 8834SOL     OW37960   0.762   4.524   8.082  0.2426 -0.6933 -0.0125
 8834SOL    HW137961   0.775   4.429   8.084 -0.1500 -0.6876  2.4599
 8834SOL    HW237962   0.848   4.549   8.115 -0.3281  0.1294  0.8673
 8835SOL     OW37963   0.449   2.449  12.549 -0.0900  0.3374 -0.0514
 8835SOL    HW137964   0.470   2.429  12.641 -0.9984 -3.4354 -0.6669
 8835SOL    HW237965   0.539   2.474  12.526 -0.1827 -0.8917 -1.7536
 8836SOL     OW37966   3.730   2.124  13.219 -0.2697  0.7473  0.5939
 8836SOL    HW137967   3.812   2.174  13.215 -0.6079  1.2355 -0.2687
 8836SOL    HW237968   3.762   2.034  13.227  0.8560  0.8528 -2.5510
 8837SOL     OW37969   4.039   2.256   9.620  0.5048  0.5571  0.1052
 8837SOL    HW137970   4.112   2.272   9.680  0.6940  0.4426 -0.0964
 8837SOL    HW237971   4.074   2.287   9.537  1.3087  1.6119  0.8331
 8838SOL     OW37972   2.981   3.920   5.655 -0.2649  0.3206  0.0366
 8838SOL    HW137973   3.043   3.862   5.700 -1.6578 -1.9383 -0.9817
 8838SOL    HW237974   2.956   3.989   5.717 -0.3117  0.5774 -0.2711
 8839SOL     OW37975   0.725   4.409   7.027 -0.2765 -0.1238 -0.0937
 8839SOL    HW137976   0.745   4.353   6.952  3.2932 -0.7694  1.3149
 8839SOL    HW237977   0.807   4.447   7.060 -1.0312  0.2870  1.3205
 8840SOL     OW37978   3.383   0.257  17.609  0.2527 -0.0782 -0.9486
 8840SOL    HW137979   3.433   0.274  17.688 -0.0843  0.5240 -0.8602
 8840SOL    HW237980   3.299   0.248  17.654  1.6770 -0.1192  1.7118
 8841SOL     OW37981   0.383   1.309  13.521 -0.6937  0.3477  0.4647
 8841SOL    HW137982   0.414   1.220  13.534  0.3290  0.7384  0.7062
 8841SOL    HW237983   0.363   1.341  13.609  1.0904  0.8679  0.6755
 8842SOL     OW37984   3.792   3.026  16.071 -0.6661  0.0109  0.3928
 8842SOL    HW137985   3.709   3.065  16.043 -1.1316 -1.8691 -0.8701
 8842SOL    HW237986   3.840   3.059  15.995  2.5303 -1.1392  1.9205
 8843SOL     OW37987   1.538   2.921   8.897 -0.0680  0.1138 -0.3565
 8843SOL    HW137988   1.488   2.840   8.908 -0.1493  0.1779 -0.2536
 8843SOL    HW237989   1.539   2.955   8.986  0.8274 -0.1200 -0.2752
 8844SOL     OW37990   0.218   2.300  12.798  0.3497  0.0401  0.0634
 8844SOL    HW137991   0.197   2.215  12.759 -1.8389  1.1216 -1.1455
 8844SOL    HW237992   0.282   2.276  12.865 -1.3576  0.1331  1.7120
 8845SOL     OW37993   1.285   3.416  10.434 -0.3767  0.4894  0.4285
 8845SOL    HW137994   1.337   3.407  10.354 -1.0233  1.5950 -0.1151
 8845SOL    HW237995   1.349   3.447  10.498 -0.5225  0.5612  0.5384
 8846SOL     OW37996   1.022   4.585  11.923  0.1621  0.3342  0.4543
 8846SOL    HW137997   0.976   4.628  11.851  3.2051  0.8065 -1.1715
 8846SOL    HW237998   0.954   4.521  11.948 -0.3260  0.3043 -0.9589
 8847SOL     OW37999   3.535   1.465   8.345  0.0550 -0.2257  0.4711
 8847SOL    HW138000   3.607   1.410   8.314 -1.1381 -0.0811 -2.5084
 8847SOL    HW238001   3.462   1.422   8.301 -0.5624 -0.2830  1.5703
 8848SOL     OW38002   2.262   3.124   9.617  0.0315  0.4973 -0.3752
 8848SOL    HW138003   2.312   3.046   9.641  1.0064  1.1230 -0.3920
 8848SOL    HW238004   2.307   3.187   9.673 -0.6578  0.6952 -0.0497
 8849SOL     OW38005   1.209   2.287  13.045  0.5640  0.0521  0.3020
 8849SOL    HW138006   1.126   2.291  12.998  1.7462 -2.4145 -1.9912
 8849SOL    HW238007   1.251   2.203  13.025  1.5769  0.3501  1.1482
 8850SOL     OW38008   4.500   0.134  16.435 -0.4400  0.0628  0.8187
 8850SOL    HW138009   4.414   0.132  16.477 -0.3760 -0.2967  0.9321
 8850SOL    HW238010   4.488   0.081  16.356  0.7397  0.3917  0.4227
 8851SOL     OW38011   0.499   1.433   7.512  0.0213 -0.6257 -0.3537
 8851SOL    HW138012   0.416   1.421   7.557 -1.0054  1.9129 -1.5662
 8851SOL    HW238013   0.565   1.385   7.562  1.6838  1.3027 -0.6749
 8852SOL     OW38014   0.734   0.865   1.938 -0.5564  0.3303  0.3415
 8852SOL    HW138015   0.747   0.782   1.892 -0.6190 -0.1030  1.1109
 8852SOL    HW238016   0.648   0.846   1.976 -0.0341 -1.3631  0.6622
 8853SOL     OW38017   3.035   0.453   6.592 -0.2349 -0.3381  0.1431
 8853SOL    HW138018   2.999   0.538   6.567 -0.1049 -0.6848 -1.2004
 8853SOL    HW238019   3.114   0.482   6.637 -1.4014 -1.3316  2.8863
 8854SOL     OW38020   0.082   4.071   0.442  1.0279  0.1146 -0.4820
 8854SOL    HW138021   0.093   4.083   0.348 -1.6397 -0.9369 -0.9222
 8854SOL    HW238022   0.135   3.995   0.468  0.1509 -0.2404  0.2797
 8855SOL     OW38023   2.528   3.160   6.739  0.0085 -0.1069 -0.3382
 8855SOL    HW138024   2.486   3.230   6.789 -0.7903 -0.5039 -0.4616
 8855SOL    HW238025   2.564   3.211   6.666 -1.1977 -1.3925 -1.8257
 8856SOL     OW38026   2.903   0.870   4.638 -0.2664 -0.4629  0.2191
 8856SOL    HW138027   2.964   0.798   4.624  1.6236  0.8371  1.9102
 8856SOL    HW238028   2.913   0.910   4.552 -3.6740  0.0992  0.0618
 8857SOL     OW38029   0.667   1.708   7.509  0.2716  0.1191 -0.3669
 8857SOL    HW138030   0.583   1.752   7.521  0.6565  0.8528 -0.3679
 8857SOL    HW238031   0.640   1.616   7.515  0.4148  0.2467  2.4153
 8858SOL     OW38032   4.537   4.596   9.506 -0.2200  0.2393 -0.1821
 8858SOL    HW138033   4.612   4.572   9.561  0.1208  0.8548 -0.3714
 8858SOL    HW238034   4.570   4.587   9.416 -0.6182  1.9182 -0.5004
 8859SOL     OW38035   1.134   4.180   2.617  0.1522 -0.8568 -0.2067
 8859SOL    HW138036   1.122   4.274   2.634 -3.5488 -1.3919  0.2956
 8859SOL    HW238037   1.133   4.183   2.521  0.1111  1.2914 -0.1342
 8860SOL     OW38038   0.255   3.005   7.426 -0.0004 -0.0283  0.5437
 8860SOL    HW138039   0.185   3.038   7.482 -0.9283  0.0210 -0.6737
 8860SOL    HW238040   0.328   3.017   7.487  0.2771 -1.6903  0.5425
 8861SOL     OW38041   4.395   4.508   8.814 -0.0515  0.3800 -0.5981
 8861SOL    HW138042   4.395   4.604   8.822 -1.1398  0.4726 -1.6068
 8861SOL    HW238043   4.455   4.505   8.740  0.2432 -4.4402 -0.1130
 8862SOL     OW38044   4.696   3.229   3.470  0.2827  0.2325  0.0764
 8862SOL    HW138045   4.664   3.316   3.444 -0.9355 -0.8512 -1.9802
 8862SOL    HW238046   4.615   3.185   3.493 -0.3777  2.7198  2.6367
 8863SOL     OW38047   3.795   2.760   9.304  0.2721  0.1377  0.2133
 8863SOL    HW138048   3.722   2.711   9.341  0.3702  1.2673  1.9100
 8863SOL    HW238049   3.769   2.851   9.318 -0.3747 -0.3511  2.2984
 8864SOL     OW38050   2.994   0.459  16.275 -0.2006 -0.4090 -0.3133
 8864SOL    HW138051   2.974   0.472  16.182 -1.3368  4.0602  0.5600
 8864SOL    HW238052   2.954   0.372  16.281  1.4059 -1.1799 -0.7163
 8865SOL     OW38053   2.719   0.753  14.603  0.1441  0.4058  0.1734
 8865SOL    HW138054   2.686   0.806  14.677  0.2781  1.4349 -0.4984
 8865SOL    HW238055   2.645   0.749  14.543 -1.5631 -2.2495  2.4462
 8866SOL     OW38056   4.312   2.572   6.056  0.0366  0.3229  0.4090
 8866SOL    HW138057   4.217   2.579   6.047  0.1371  0.6637 -0.4001
 8866SOL    HW238058   4.341   2.564   5.965  0.5321 -1.4940  0.7327
 8867SOL     OW38059   3.758   0.747   7.725 -0.0137  0.5425 -0.2892
 8867SOL    HW138060   3.710   0.750   7.807  1.5812 -2.4049  0.7643
 8867SOL    HW238061   3.846   0.729   7.760  0.2831  1.8404 -0.3896
 8868SOL     OW38062   4.606   2.229   8.762  0.3990  0.1787 -0.0437
 8868SOL    HW138063   4.647   2.311   8.737  1.0195  0.2412  1.1836
 8868SOL    HW238064   4.512   2.248   8.761  0.4892  0.7186  1.1250
 8869SOL     OW38065   0.914   2.682   5.746  0.0393 -0.8261  0.4183
 8869SOL    HW138066   0.948   2.764   5.783 -3.2046  0.9406 -0.5524
 8869SOL    HW238067   0.828   2.718   5.724  0.5748 -0.5269 -1.1745
 8870SOL     OW38068   3.030   2.561   3.107  0.2487  0.3437 -0.3295
 8870SOL    HW138069   3.124   2.551   3.122  0.1135  0.3371  0.4972
 8870SOL    HW238070   3.023   2.656   3.093  0.6271  0.7924  2.6499
 8871SOL     OW38071   2.094   3.078   8.194 -0.1762 -0.1636 -0.0223
 8871SOL    HW138072   2.115   3.162   8.151 -2.8861 -0.0823 -1.2052
 8871SOL    HW238073   2.073   3.012   8.128 -0.9264  0.1529 -0.1102
 8872SOL     OW38074   0.581   2.268  16.899 -0.1082  0.2449  0.3949
 8872SOL    HW138075   0.608   2.300  16.812 -0.0443  0.7273  0.5885
 8872SOL    HW238076   0.504   2.324  16.906 -0.6924 -0.2999 -1.5499
 8873SOL     OW38077   3.514   2.419  17.628 -0.2535  0.1537 -0.1158
 8873SOL    HW138078   3.559   2.336  17.612 -1.4027  0.0849 -2.8393
 8873SOL    HW238079   3.453   2.380   0.002  2.8197 -2.3911  1.3436
 8874SOL     OW38080   1.926   4.172   4.294 -0.2963  0.1871  0.1726
 8874SOL    HW138081   1.999   4.233   4.285  1.1773 -1.8000 -1.0471
 8874SOL    HW238082   1.908   4.149   4.203 -0.2696 -1.9928  0.7266
 8875SOL     OW38083   2.245   4.688   3.123  0.1930  0.0460  0.0457
 8875SOL    HW138084   2.254   0.062   3.120  1.0486  0.0664  2.8132
 8875SOL    HW238085   2.185   4.676   3.197  1.0365 -2.7647  0.2759
 8876SOL     OW38086   4.579   0.477   5.821  0.1118  0.5900 -0.0641
 8876SOL    HW138087   4.555   0.423   5.745  1.8796 -0.5106  0.1828
 8876SOL    HW238088   4.623   0.414   5.878 -1.6742 -0.6652 -0.0544
 8877SOL     OW38089   1.574   1.172  10.096  0.1570 -0.3320 -0.2840
 8877SOL    HW138090   1.549   1.256  10.135 -3.4326 -1.2431 -0.6139
 8877SOL    HW238091   1.504   1.163  10.031  1.9864 -1.8217 -2.0367
 8878SOL     OW38092   0.351   0.180   2.356 -0.1412  0.1499  0.4822
 8878SOL    HW138093   0.392   0.094   2.368 -2.4524 -1.2271 -1.5821
 8878SOL    HW238094   0.388   0.211   2.273  0.9573 -0.3455  0.7844
 8879SOL     OW38095   1.370   2.147   4.931 -0.1402  0.7530 -0.0765
 8879SOL    HW138096   1.448   2.091   4.937 -0.4108  0.3683 -0.1901
 8879SOL    HW238097   1.305   2.079   4.914 -0.3330  0.9190  0.0029
 8880SOL     OW38098   2.996   0.615   7.829  0.2865  0.4394 -0.7557
 8880SOL    HW138099   3.084   0.584   7.850 -0.3702 -0.4531  0.7146
 8880SOL    HW238100   2.949   0.534   7.849 -1.5169  1.3004 -1.5102
 8881SOL     OW38101   3.165   3.670  12.006 -0.5896  0.2455 -0.2741
 8881SOL    HW138102   3.187   3.726  11.931  0.1407 -1.2712 -1.2012
 8881SOL    HW238103   3.118   3.597  11.964  2.1147 -1.0524 -1.0271
 8882SOL     OW38104   2.204   4.140   1.482 -0.1903  0.0156  0.6405
 8882SOL    HW138105   2.121   4.121   1.525  0.3482  0.1357  1.7330
 8882SOL    HW238106   2.173   4.181   1.401  1.3685  0.6503  0.3587
 8883SOL     OW38107   0.168   2.279   7.402 -0.3434  0.2643  0.2980
 8883SOL    HW138108   0.094   2.228   7.369 -1.1161  1.8133 -0.3397
 8883SOL    HW238109   0.206   2.214   7.461 -0.5700 -0.6979 -0.6028
 8884SOL     OW38110   2.862   4.395   7.624  0.1359  0.3343 -0.6045
 8884SOL    HW138111   2.835   4.418   7.713 -0.1409  1.1534 -0.9070
 8884SOL    HW238112   2.900   4.479   7.599 -0.2678  0.9861  0.9203
 8885SOL     OW38113   4.174   4.032   8.781 -0.5179 -0.6315  0.4208
 8885SOL    HW138114   4.247   3.972   8.793  0.6353  0.8909  1.0279
 8885SOL    HW238115   4.148   3.999   8.695 -0.8447 -0.8681  0.6121
 8886SOL     OW38116   3.773   3.399  16.190  0.4780  0.3662 -0.7600
 8886SOL    HW138117   3.703   3.351  16.146 -1.4201  1.4677  1.0722
 8886SOL    HW238118   3.725   3.472  16.229  2.5288  2.4653 -2.1309
 8887SOL     OW38119   4.045   3.356   9.526 -0.0936  0.1261  0.5446
 8887SOL    HW138120   4.133   3.318   9.529 -1.0135 -2.0290  0.2673
 8887SOL    HW238121   4.000   3.276   9.553  2.8803 -2.1878 -1.3243
 8888SOL     OW38122   1.769   1.677   7.052 -0.1446 -0.1451  0.4700
 8888SOL    HW138123   1.741   1.649   6.965 -1.5795  0.2592  0.8087
 8888SOL    HW238124   1.683   1.699   7.088 -0.0635  0.0017  0.5741
 8889SOL     OW38125   4.259   4.618   5.715  0.4663  0.0642  0.0048
 8889SOL    HW138126   4.347   4.581   5.721  0.4488  0.1543  0.8360
 8889SOL    HW238127   4.283   4.688   5.654 -1.5274 -2.0626 -3.2266
 8890SOL     OW38128   1.108   0.424  12.583  0.2601  0.0421  0.1111
 8890SOL    HW138129   1.168   0.354  12.560 -1.7373 -1.6062 -0.1055
 8890SOL    HW238130   1.164   0.495  12.552 -2.2228  0.9881 -2.2146
 8891SOL     OW38131   4.180   2.108  13.343 -0.3336  0.3132 -0.0269
 8891SOL    HW138132   4.103   2.149  13.306 -0.0037 -0.6792 -1.8061
 8891SOL    HW238133   4.155   2.101  13.435  0.7357  0.1891  0.2550
 8892SOL     OW38134   0.104   0.491  14.491  0.0716  0.5626  0.1233
 8892SOL    HW138135   0.067   0.489  14.403  1.0843 -0.4955 -0.2842
 8892SOL    HW238136   0.028   0.517  14.544  0.6766  4.4420 -0.9127
 8893SOL     OW38137   2.080   0.236   7.380 -0.4412  0.0523 -0.1325
 8893SOL    HW138138   2.021   0.254   7.306  0.4191 -0.4872 -0.9521
 8893SOL    HW238139   2.090   0.143   7.359  1.4543 -0.2435  2.1611
 8894SOL     OW38140   0.508   0.283   6.034  0.0862  0.0786  0.5468
 8894SOL    HW138141   0.537   0.374   6.026  0.1376 -0.1047 -1.3665
 8894SOL    HW238142   0.484   0.282   6.127 -1.8601  2.2477  0.0688
 8895SOL     OW38143   1.194   4.448   6.630  0.5833 -0.3373  0.0529
 8895SOL    HW138144   1.112   4.464   6.677  0.4764 -0.1106 -0.2118
 8895SOL    HW238145   1.211   4.356   6.650  1.5649 -0.4245 -1.2175
 8896SOL     OW38146   0.143   0.202   7.795  0.0644 -0.3111 -0.3768
 8896SOL    HW138147   0.059   0.221   7.754  0.2694 -0.8748 -1.0550
 8896SOL    HW238148   0.127   0.196   7.890 -0.5398  0.6544 -0.4185
 8897SOL     OW38149   1.332   3.615   7.497  0.1929  0.1578  0.5729
 8897SOL    HW138150   1.386   3.558   7.551  0.9212 -0.0338 -0.3635
 8897SOL    HW238151   1.251   3.567   7.477 -0.0652  0.6789  0.3464
 8898SOL     OW38152   2.896   4.249   6.193 -0.0376 -0.3451  0.1596
 8898SOL    HW138153   2.830   4.317   6.178  1.9311  1.6811  0.7400
 8898SOL    HW238154   2.976   4.278   6.150 -0.6022  1.1570  0.1259
 8899SOL     OW38155   4.418   2.332  17.443  1.1202  0.0351 -0.2762
 8899SOL    HW138156   4.444   2.263  17.504 -1.4945 -3.0666 -2.6799
 8899SOL    HW238157   4.454   2.409  17.487  0.3670  0.2304  0.0067
 8900SOL     OW38158   3.876   3.544   3.694  0.2103  0.0853 -0.3490
 8900SOL    HW138159   3.959   3.587   3.671  0.5075  0.9991  2.3357
 8900SOL    HW238160   3.913   3.457   3.709 -0.4910 -0.7452 -3.6028
 8901SOL     OW38161   0.095   3.287  13.150 -0.2359  0.3205 -0.1047
 8901SOL    HW138162   0.114   3.367  13.101 -2.4975  0.5121 -0.6420
 8901SOL    HW238163   0.179   3.243  13.141 -0.9258 -0.5570 -2.1554
 8902SOL     OW38164   3.008   2.688   9.207 -0.6197 -0.0588 -0.1285
 8902SOL    HW138165   3.038   2.728   9.289  1.3247 -2.4991  0.3619
 8902SOL    HW238166   2.937   2.748   9.183 -0.7589 -1.0682 -2.2320
 8903SOL     OW38167   0.667   0.584   8.048 -0.1663  0.5174 -0.0816
 8903SOL    HW138168   0.596   0.545   7.996  0.5428 -0.8305 -0.0328
 8903SOL    HW238169   0.644   0.676   8.057  0.0451  0.5196  0.4281
 8904SOL     OW38170   0.132   1.152   8.319  0.0397  0.2133 -0.5891
 8904SOL    HW138171   0.087   1.069   8.310 -2.3783  1.6616 -1.9714
 8904SOL    HW238172   0.150   1.146   8.413  0.3602  0.0439 -0.6588
 8905SOL     OW38173   0.328   0.239   3.306 -0.2454 -0.0727  0.1270
 8905SOL    HW138174   0.418   0.215   3.284  0.5090  2.6679  0.2272
 8905SOL    HW238175   0.276   0.195   3.238 -0.3269 -0.1357  0.2302
 8906SOL     OW38176   3.124   4.078   2.114 -0.0466  0.5155 -0.7711
 8906SOL    HW138177   3.219   4.092   2.108  0.2950 -1.5630 -0.4283
 8906SOL    HW238178   3.096   4.158   2.157  2.8189  0.8839  0.4357
 8907SOL     OW38179   1.475   1.278   3.495  0.0344 -0.5247 -0.1947
 8907SOL    HW138180   1.541   1.257   3.429  0.6811 -1.5243  0.7600
 8907SOL    HW238181   1.526   1.333   3.555 -0.9993 -1.6288  1.7120
 8908SOL     OW38182   0.255   0.529  14.154 -0.7602  0.4283  0.1255
 8908SOL    HW138183   0.217   0.442  14.153  1.3517 -0.5181  2.5388
 8908SOL    HW238184   0.279   0.543  14.062  1.3320  1.4750  0.8215
 8909SOL     OW38185   2.407   4.369   2.202  0.0821 -0.3353  0.1393
 8909SOL    HW138186   2.432   4.280   2.179  0.2516 -1.0508  3.2064
 8909SOL    HW238187   2.490   4.409   2.227  0.4799 -1.1515  0.1087
 8910SOL     OW38188   0.889   2.224  10.390  1.0965 -0.3690  0.4019
 8910SOL    HW138189   0.930   2.289  10.333  0.2790  0.7987  1.1533
 8910SOL    HW238190   0.810   2.267  10.424  1.6267  0.4680  0.5828
 8911SOL     OW38191   2.969   2.419  15.174 -0.1006 -0.0466  0.2595
 8911SOL    HW138192   3.048   2.472  15.162 -0.6626  1.3252  2.4697
 8911SOL    HW238193   2.926   2.424  15.089  2.1753 -0.4048 -0.9020
 8912SOL     OW38194   2.240   1.440   2.803 -0.1052 -0.1566  0.1137
 8912SOL    HW138195   2.323   1.479   2.828  1.2014 -3.5960  1.1618
 8912SOL    HW238196   2.222   1.480   2.717  1.2242  0.5404  0.1666
 8913SOL     OW38197   0.836   0.454   4.576 -0.6182 -0.3957 -0.3789
 8913SOL    HW138198   0.851   0.519   4.644 -0.3634  0.5345 -1.3285
 8913SOL    HW238199   0.882   0.376   4.610  0.3274 -0.0338 -0.8278
 8914SOL     OW38200   1.461   0.992   3.216  0.2275 -0.5804  0.6616
 8914SOL    HW138201   1.426   0.964   3.301 -0.0565 -1.3439  0.2890
 8914SOL    HW238202   1.551   1.014   3.243  0.6748 -0.4602 -0.9407
 8915SOL     OW38203   2.416   2.569   9.387 -0.3163  0.1232 -0.5868
 8915SOL    HW138204   2.389   2.485   9.422 -1.3705  0.9195  0.4948
 8915SOL    HW238205   2.415   2.617   9.470 -0.0123 -0.6957 -0.1164
 8916SOL     OW38206   1.598   1.495   7.923 -0.0359  0.1776 -0.0176
 8916SOL    HW138207   1.527   1.509   7.860 -0.8370  0.6193  0.9865
 8916SOL    HW238208   1.674   1.496   7.864  0.9455 -0.0336  1.2516
 8917SOL     OW38209   0.189   2.128   3.110  0.1190 -0.6641 -0.4234
 8917SOL    HW138210   0.237   2.075   3.174  0.2049  1.2080  1.0628
 8917SOL    HW238211   0.252   2.173   3.054 -1.8809  1.6672 -0.7846
 8918SOL     OW38212   2.863   3.455   5.936 -0.4332 -0.1227 -0.2752
 8918SOL    HW138213   2.819   3.428   5.856  0.8493 -1.8369 -0.4084
 8918SOL    HW238214   2.913   3.378   5.963 -0.2298  0.7762  1.9163
 8919SOL     OW38215   4.001   3.472  13.579 -0.1078  0.5066 -0.5420
 8919SOL    HW138216   4.078   3.528  13.583  0.1143  0.2720 -1.4858
 8919SOL    HW238217   4.038   3.416  13.646  1.6981  0.8576 -1.2625
 8920SOL     OW38218   2.547   0.018   3.357 -0.2175  0.0758  0.0061
 8920SOL    HW138219   2.510   0.093   3.404  1.2230 -0.0790  1.3945
 8920SOL    HW238220   2.506   0.023   3.271 -0.0006 -0.6273 -0.1398
 8921SOL     OW38221   3.625   2.716  17.218  0.2905  0.8882  0.3729
 8921SOL    HW138222   3.538   2.678  17.207  0.1536  0.8307  1.7408
 8921SOL    HW238223   3.617   2.800  17.262 -1.1228  0.5321  0.7932
 8922SOL     OW38224   0.985   0.427   5.420 -0.6365 -0.8821 -0.2807
 8922SOL    HW138225   0.936   0.448   5.341 -0.8010  3.6035  1.0294
 8922SOL    HW238226   0.977   0.332   5.424  2.7210 -1.1072  1.1702
 8923SOL     OW38227   4.149   1.419   7.173 -0.3318  0.1240  0.1327
 8923SOL    HW138228   4.158   1.453   7.084 -2.7153  1.1960  0.3066
 8923SOL    HW238229   4.135   1.326   7.154  1.5240 -0.2692  0.6866
 8924SOL     OW38230   0.299   2.399   5.302  0.1349  0.1144 -0.8267
 8924SOL    HW138231   0.388   2.432   5.293  0.1690 -0.4391 -2.5605
 8924SOL    HW238232   0.301   2.366   5.392 -0.0443 -0.3576 -0.9970
 8925SOL     OW38233   2.478   3.943   4.180  0.4401  0.0596  0.6383
 8925SOL    HW138234   2.394   3.904   4.155  0.2638  1.1497 -0.4798
 8925SOL    HW238235   2.529   3.947   4.099 -1.0998 -0.5986 -0.3827
 8926SOL     OW38236   2.651   1.809   2.984  0.0879  0.5536  0.2303
 8926SOL    HW138237   2.742   1.810   2.954 -0.1210  1.3405 -0.3735
 8926SOL    HW238238   2.650   1.811   3.080 -0.0065  0.4264  0.2319
 8927SOL     OW38239   3.132   2.791  15.451 -0.2403  0.2110  0.6367
 8927SOL    HW138240   3.096   2.880  15.446 -2.4918 -0.6919  1.0186
 8927SOL    HW238241   3.224   2.804  15.475 -0.0536 -0.6718  0.3975
 8928SOL     OW38242   3.140   2.074  10.164 -0.6950 -0.2514  0.3118
 8928SOL    HW138243   3.123   2.004  10.100  0.3754  1.9266 -2.3691
 8928SOL    HW238244   3.208   2.040  10.222 -1.2093  0.4518  1.3270
 8929SOL     OW38245   2.651   1.631  15.079  0.4378  0.2919 -0.2444
 8929SOL    HW138246   2.742   1.631  15.049  0.3966 -0.0071 -0.3741
 8929SOL    HW238247   2.620   1.564  15.018 -0.5782 -0.2309  0.8547
 8930SOL     OW38248   3.298   2.367  16.047 -0.2897  0.8389  0.1556
 8930SOL    HW138249   3.307   2.309  15.971 -0.0741  1.5419 -0.3533
 8930SOL    HW238250   3.323   2.450  16.007 -1.2356  0.8527 -0.4161
 8931SOL     OW38251   1.106   0.399   0.844  0.3645  0.2685 -0.1534
 8931SOL    HW138252   1.035   0.409   0.780  0.4160  0.1272 -0.2324
 8931SOL    HW238253   1.181   0.424   0.791  0.1083 -0.1199 -0.7019
 8932SOL     OW38254   0.751   1.015  17.423  0.3323 -0.4416 -0.7564
 8932SOL    HW138255   0.662   1.029  17.392  0.0244 -2.4747 -0.7581
 8932SOL    HW238256   0.774   1.105  17.397 -2.8921 -0.0181 -2.0408
 8933SOL     OW38257   1.753   3.397   8.446 -0.0514 -0.3186 -0.1446
 8933SOL    HW138258   1.801   3.393   8.363  1.5818 -0.2773  0.7990
 8933SOL    HW238259   1.761   3.308   8.480  0.6939  0.3197  1.3659
 8934SOL     OW38260   4.033   2.039   5.349 -0.3834  0.6087  0.6540
 8934SOL    HW138261   4.044   1.958   5.398 -2.1436 -0.1164 -0.1635
 8934SOL    HW238262   4.045   2.019   5.256  0.2226  0.7941  0.6964
 8935SOL     OW38263   0.719   4.389   8.455 -1.4574 -0.2693 -0.0771
 8935SOL    HW138264   0.796   4.338   8.477 -1.4327 -0.1717  0.0633
 8935SOL    HW238265   0.749   4.478   8.473 -0.5933 -0.3678 -1.0596
 8936SOL     OW38266   0.587   0.004   2.317  0.0821  0.2390 -0.2711
 8936SOL    HW138267   0.554   4.636   2.305 -0.2010  0.6795 -2.8662
 8936SOL    HW238268   0.675   4.701   2.345 -0.0398 -1.2354 -1.1557
 8937SOL     OW38269   4.536   0.068   0.338  0.3100  0.3157 -0.4980
 8937SOL    HW138270   4.496   0.135   0.394 -0.2347 -1.4720  1.2549
 8937SOL    HW238271   4.620   0.055   0.382 -0.0450  3.0365  1.0014
 8938SOL     OW38272   1.560   3.314   1.223 -0.0442  0.2571  0.2036
 8938SOL    HW138273   1.465   3.310   1.211  0.2270 -0.6187 -1.7757
 8938SOL    HW238274   1.576   3.387   1.164 -0.8064  0.2178 -0.0588
 8939SOL     OW38275   0.657   1.413   6.371 -0.1340  0.4754  0.8902
 8939SOL    HW138276   0.643   1.478   6.302  0.9107  0.6585  0.8428
 8939SOL    HW238277   0.745   1.379   6.354 -0.2127 -0.1058  1.6487
 8940SOL     OW38278   2.242   0.743   4.377  0.7294 -0.3197 -0.2550
 8940SOL    HW138279   2.265   0.752   4.470 -0.2460  0.6721 -0.1052
 8940SOL    HW238280   2.146   0.745   4.370  0.6571 -2.5523  0.1790
 8941SOL     OW38281   0.780   1.526   3.611 -0.3516 -0.3664 -0.3499
 8941SOL    HW138282   0.865   1.521   3.655 -0.5691 -1.0595 -0.0121
 8941SOL    HW238283   0.731   1.545   3.690 -0.2252  1.3767 -0.7055
 8942SOL     OW38284   1.616   1.186  10.640 -0.4341  0.0388  0.7164
 8942SOL    HW138285   1.692   1.169  10.583  1.5779  0.5533  3.2496
 8942SOL    HW238286   1.580   1.258  10.589  0.1419 -0.2563 -0.1162
 8943SOL     OW38287   4.634   4.496   6.890  0.0269  0.0714  0.0470
 8943SOL    HW138288   4.705   4.543   6.846 -0.5346  0.0507 -0.8950
 8943SOL    HW238289   4.637   4.410   6.849  1.3648  1.0078 -1.8263
 8944SOL     OW38290   2.165   3.242   1.204  0.2572 -0.8700 -0.4185
 8944SOL    HW138291   2.071   3.236   1.217 -0.0605  1.0872 -1.7883
 8944SOL    HW238292   2.165   3.229   1.109  0.1252  0.4803 -0.6131
 8945SOL     OW38293   2.077   1.881   1.957 -0.8598  0.2399 -0.7178
 8945SOL    HW138294   2.129   1.943   1.906 -0.4879  1.2744  0.9073
 8945SOL    HW238295   2.075   1.920   2.045 -3.7477  0.6826 -0.9964
 8946SOL     OW38296   1.238   1.466   7.954 -0.5061 -0.1524 -0.2072
 8946SOL    HW138297   1.165   1.502   7.905 -0.4523  0.6923  0.3456
 8946SOL    HW238298   1.293   1.542   7.971  0.2816 -0.4533 -1.3511
 8947SOL     OW38299   3.767   2.430   0.239 -0.8223 -0.9270  0.4349
 8947SOL    HW138300   3.760   2.370   0.313 -0.2531 -0.7424  0.6390
 8947SOL    HW238301   3.687   2.409   0.191 -1.0965  0.6501  0.2055
 8948SOL     OW38302   3.605   2.756   5.193  0.0075 -0.3090  0.3176
 8948SOL    HW138303   3.580   2.787   5.106  3.0462 -0.5920 -0.6594
 8948SOL    HW238304   3.537   2.800   5.244 -2.0330 -2.2750 -0.6632
 8949SOL     OW38305   3.965   0.043   5.586  0.2960  0.1471 -0.6825
 8949SOL    HW138306   3.951   4.696   5.520 -0.7335 -0.0335 -0.2762
 8949SOL    HW238307   3.991   4.715   5.664  1.1066  0.0733 -0.9972
 8950SOL     OW38308   0.768   0.875  10.734 -0.5619 -0.5134 -0.2242
 8950SOL    HW138309   0.707   0.806  10.761 -0.0690 -1.4014 -1.4329
 8950SOL    HW238310   0.705   0.947  10.741  1.6745  1.3980  0.3531
 8951SOL     OW38311   2.191   4.471  13.440 -0.0470 -0.1783 -0.5391
 8951SOL    HW138312   2.286   4.479  13.434  0.0689 -1.2006 -0.0987
 8951SOL    HW238313   2.169   4.558  13.473  3.1166  0.4042 -0.0320
 8952SOL     OW38314   1.026   3.211   7.791  0.0385 -0.0815 -0.3128
 8952SOL    HW138315   1.067   3.130   7.818  2.0156  1.5937  1.6293
 8952SOL    HW238316   0.935   3.180   7.787  1.0084 -2.9180 -0.0517
 8953SOL     OW38317   0.903   1.285   6.734  0.4446  0.4556  0.2229
 8953SOL    HW138318   0.878   1.280   6.826  1.5321  0.5553  0.5131
 8953SOL    HW238319   0.819   1.322   6.705 -0.9129 -1.4022  1.8400
 8954SOL     OW38320   4.345   4.316   6.864 -0.3623 -0.4048  0.1001
 8954SOL    HW138321   4.378   4.235   6.825  0.3968  0.8594 -1.8733
 8954SOL    HW238322   4.251   4.298   6.872 -0.4260 -0.0478  0.1644
 8955SOL     OW38323   3.020   2.872   7.273  0.0941  0.0656  0.2911
 8955SOL    HW138324   3.114   2.864   7.255 -0.2264  0.4988 -1.5693
 8955SOL    HW238325   2.989   2.953   7.233  0.2418  0.3477  0.7480
 8956SOL     OW38326   1.244   0.574   5.370  1.0000 -0.2514 -0.5311
 8956SOL    HW138327   1.316   0.530   5.414 -0.4927  0.0939  2.2225
 8956SOL    HW238328   1.167   0.526   5.400  0.2782  1.0074 -0.3599
 8957SOL     OW38329   3.175   1.659  11.769  0.3806  0.1209 -0.0401
 8957SOL    HW138330   3.136   1.572  11.769  1.6282 -0.4387  0.6334
 8957SOL    HW238331   3.106   1.705  11.722  0.5299  1.4119  0.9996
 8958SOL     OW38332   3.216   0.415   9.133  0.2775  0.1723 -0.3394
 8958SOL    HW138333   3.225   0.340   9.075  0.8262 -0.0933  0.0905
 8958SOL    HW238334   3.161   0.378   9.203  2.0628 -0.9549  0.4825
 8959SOL     OW38335   4.027   3.289   6.529  0.2301  0.0293  0.4509
 8959SOL    HW138336   3.993   3.226   6.593  1.2992 -1.4790 -0.4360
 8959SOL    HW238337   4.070   3.347   6.591  0.2806 -0.6817  1.0822
 8960SOL     OW38338   1.186   2.876  14.964  0.1857  0.5285  0.7619
 8960SOL    HW138339   1.223   2.817  14.898  0.1152  0.8306  0.4523
 8960SOL    HW238340   1.112   2.898  14.907  0.4197  0.3903  0.4047
 8961SOL     OW38341   1.353   2.202   6.398  0.1067 -0.4307  0.1659
 8961SOL    HW138342   1.422   2.229   6.458  0.3240  0.4073 -0.4771
 8961SOL    HW238343   1.406   2.207   6.318 -0.5301  0.7199 -0.1857
 8962SOL     OW38344   4.163   2.112   3.614 -0.2298  0.0199 -0.5547
 8962SOL    HW138345   4.187   2.174   3.545  2.0313  0.5084  0.6595
 8962SOL    HW238346   4.204   2.028   3.591 -1.3467 -0.6644 -0.0328
 8963SOL     OW38347   4.271   2.850   0.679  0.9952 -0.2390 -0.4277
 8963SOL    HW138348   4.219   2.844   0.759  1.3386 -2.7023 -0.4118
 8963SOL    HW238349   4.271   2.757   0.656 -0.0209  0.0038 -1.3881
 8964SOL     OW38350   3.079   2.172   8.007 -0.3663  0.2637  0.0823
 8964SOL    HW138351   3.062   2.265   8.024 -0.0438  0.5382 -1.0846
 8964SOL    HW238352   3.080   2.169   7.911 -1.5293 -2.5516  0.1720
 8965SOL     OW38353   2.600   0.490   0.689 -0.8176  0.1016 -0.1435
 8965SOL    HW138354   2.687   0.519   0.718 -1.2432 -1.0366  2.2532
 8965SOL    HW238355   2.612   0.504   0.594 -0.7491  0.8163 -0.0349
 8966SOL     OW38356   2.610   2.834  13.176  0.0447 -0.4045  0.6559
 8966SOL    HW138357   2.680   2.855  13.237  0.1476 -1.5664  0.9301
 8966SOL    HW238358   2.661   2.820  13.096  0.9008  1.8476  0.8149
 8967SOL     OW38359   3.880   3.115   9.567 -0.4639 -0.3172 -0.0516
 8967SOL    HW138360   3.824   3.118   9.490  0.9196  0.0325 -1.0634
 8967SOL    HW238361   3.823   3.157   9.631  0.8343 -2.2113  2.3402
 8968SOL     OW38362   3.266   3.055  10.538  0.1973 -0.1759 -0.0525
 8968SOL    HW138363   3.351   3.049  10.583 -0.2916  1.4188  1.0978
 8968SOL    HW238364   3.211   3.094  10.606 -0.0327  0.1027 -0.4005
 8969SOL     OW38365   1.832   4.296   8.422 -0.0788  0.1107 -0.4635
 8969SOL    HW138366   1.814   4.367   8.360 -0.0697  0.7230  0.2234
 8969SOL    HW238367   1.915   4.329   8.455  0.5787 -1.4365 -0.5910
 8970SOL     OW38368   4.353   0.085   8.816 -0.4704  0.0209 -0.5407
 8970SOL    HW138369   4.277   0.071   8.759 -0.0685  0.3457 -1.1620
 8970SOL    HW238370   4.312   0.120   8.895  2.4160  0.1168  0.9248
 8971SOL     OW38371   1.218   4.718  12.036 -0.1602  0.4639 -0.2126
 8971SOL    HW138372   1.134   4.686  12.002 -0.1435  0.4343 -0.2254
 8971SOL    HW238373   1.222   4.653  12.106 -0.9395 -0.7302 -1.2768
 8972SOL     OW38374   4.684   3.163  14.019  0.2886  0.0064 -0.5312
 8972SOL    HW138375   4.681   3.245  14.068 -0.8710 -0.5411  0.3195
 8972SOL    HW238376   4.627   3.100  14.064  0.3388  1.2474  1.2366
 8973SOL     OW38377   2.177   3.714   4.547  0.0812  0.0103  0.5870
 8973SOL    HW138378   2.109   3.689   4.611  2.5522 -0.9770  2.8304
 8973SOL    HW238379   2.124   3.689   4.471  0.1094 -0.0189  0.5769
 8974SOL     OW38380   2.265   1.739  13.111  0.2852  0.0308 -0.5368
 8974SOL    HW138381   2.272   1.703  13.199  0.4697  1.4675  0.0362
 8974SOL    HW238382   2.269   1.832  13.133  1.2722  0.2639 -1.7101
 8975SOL     OW38383   2.364   0.882   9.452  0.4465  0.3029  0.1241
 8975SOL    HW138384   2.350   0.931   9.533  0.3507 -0.5898  0.6352
 8975SOL    HW238385   2.354   0.951   9.386 -0.2979 -1.0184 -1.1371
 8976SOL     OW38386   2.214   1.870   9.625  0.3773  0.1975 -0.0138
 8976SOL    HW138387   2.276   1.916   9.681 -0.5081  0.5877  0.6538
 8976SOL    HW238388   2.273   1.834   9.559 -0.4620 -2.6398  0.7637
 8977SOL     OW38389   2.723   4.268   7.437 -0.0315  0.1684 -0.5303
 8977SOL    HW138390   2.783   4.218   7.382  1.3745  1.1678  0.1034
 8977SOL    HW238391   2.776   4.276   7.516 -2.3356  0.6090  0.9844
 8978SOL     OW38392   2.557   1.500   4.901  0.2950  0.4255  0.1334
 8978SOL    HW138393   2.601   1.580   4.930  1.5163  0.5206 -1.9482
 8978SOL    HW238394   2.626   1.457   4.850  0.7793  1.9600 -0.5005
 8979SOL     OW38395   1.503   1.793   6.747  0.7443 -0.2138  0.3369
 8979SOL    HW138396   1.424   1.834   6.781  2.0411 -0.1802  3.3871
 8979SOL    HW238397   1.544   1.854   6.686 -0.8687 -0.6578 -1.1851
 8980SOL     OW38398   0.373   1.256   8.995 -0.6795  0.1699  0.3059
 8980SOL    HW138399   0.286   1.224   8.972 -0.4574 -0.1864 -0.0259
 8980SOL    HW238400   0.416   1.184   9.040  2.2754  3.7226  3.1493
 8981SOL     OW38401   2.037   1.489   4.528 -0.5331 -0.5929 -0.3849
 8981SOL    HW138402   2.020   1.568   4.477  2.4389  0.2241 -0.1073
 8981SOL    HW238403   2.034   1.418   4.463 -1.4088  0.0724 -1.0631
 8982SOL     OW38404   1.064   1.908   3.622  1.0902  0.0769  0.4675
 8982SOL    HW138405   1.140   1.919   3.678  1.0643 -2.0846  0.9046
 8982SOL    HW238406   1.063   1.814   3.602 -3.4695  0.3459 -0.7129
 8983SOL     OW38407   1.320   1.998  12.835  0.0099 -0.8193 -0.0240
 8983SOL    HW138408   1.236   2.010  12.791  0.1578  0.1686 -0.0336
 8983SOL    HW238409   1.295   1.965  12.921  0.0076 -0.2293  0.1978
 8984SOL     OW38410   1.598   1.855   7.139  0.0855 -0.2353  0.7409
 8984SOL    HW138411   1.612   1.910   7.216  1.0470 -0.8179  0.9845
 8984SOL    HW238412   1.503   1.858   7.134  0.0260 -0.7885  1.6759
 8985SOL     OW38413   1.157   2.187  16.236 -0.4057  0.6672  0.2409
 8985SOL    HW138414   1.174   2.162  16.145  0.7757  0.8732  0.4074
 8985SOL    HW238415   1.061   2.188  16.227 -0.5389  1.9442  1.8134
 8986SOL     OW38416   3.950   1.575   6.501 -0.2297  0.0365  0.2090
 8986SOL    HW138417   4.008   1.532   6.564  0.9219  2.0455  0.5403
 8986SOL    HW238418   4.009   1.624   6.444 -2.2484 -1.4019 -3.1119
 8987SOL     OW38419   4.478   3.028  15.970 -0.1004 -0.7220  0.1055
 8987SOL    HW138420   4.510   3.091  16.034  2.6598 -2.5408  0.5611
 8987SOL    HW238421   4.434   2.957  16.018 -0.7746 -0.8690 -0.7325
 8988SOL     OW38422   3.026   2.111   7.635  0.9336 -0.3701 -0.3327
 8988SOL    HW138423   3.020   2.061   7.553  1.3731 -1.7345  0.4705
 8988SOL    HW238424   2.937   2.126   7.667  1.1282  0.1210 -0.0203
 8989SOL     OW38425   3.297   2.329   0.092  0.5097 -0.2530  0.0413
 8989SOL    HW138426   3.302   2.252   0.149  1.8459 -0.3009 -0.1198
 8989SOL    HW238427   3.210   2.307   0.060  0.5790 -1.0434  0.3867
 8990SOL     OW38428   2.339   0.951  10.884  0.1631 -0.1773 -0.3599
 8990SOL    HW138429   2.313   1.037  10.854 -0.9661 -0.8995 -1.4518
 8990SOL    HW238430   2.435   0.953  10.894  0.4894 -1.6131 -3.4091
 8991SOL     OW38431   4.246   0.394   2.833  0.3815  0.4161  0.4767
 8991SOL    HW138432   4.316   0.456   2.815  0.4412  0.2668  0.1856
 8991SOL    HW238433   4.252   0.341   2.753 -1.8329 -1.1460  1.3375
 8992SOL     OW38434   1.151   2.125  12.465  0.0380  0.6619  0.1215
 8992SOL    HW138435   1.092   2.078  12.523  0.5662  0.9011  0.8441
 8992SOL    HW238436   1.161   2.206  12.514  0.8721 -0.3424  1.5969
 8993SOL     OW38437   3.240   3.302   5.199 -0.3084 -0.2156  0.4891
 8993SOL    HW138438   3.203   3.228   5.152  1.7717  0.1352 -1.6906
 8993SOL    HW238439   3.155   3.344   5.209  1.6405  4.4438 -2.3962
 8994SOL     OW38440   1.465   2.161   5.901  0.1692 -0.3900  0.4448
 8994SOL    HW138441   1.553   2.142   5.869  0.1761 -1.1245  0.8992
 8994SOL    HW238442   1.431   2.218   5.832  0.9676  2.6854  2.6005
 8995SOL     OW38443   3.445   3.070   4.227 -0.0655 -0.0999 -0.1437
 8995SOL    HW138444   3.454   3.102   4.137 -1.1422  0.2218 -0.1349
 8995SOL    HW238445   3.471   3.147   4.278 -1.0924 -0.0985  0.3601
 8996SOL     OW38446   2.491   1.335   6.100  0.0035  1.0225  0.1774
 8996SOL    HW138447   2.517   1.408   6.043  0.1293  1.1070  0.3398
 8996SOL    HW238448   2.453   1.275   6.036  2.5865 -2.1481  1.5976
 8997SOL     OW38449   1.649   3.805   2.751 -0.6141 -0.1843 -0.0760
 8997SOL    HW138450   1.660   3.868   2.823 -1.0479 -0.9443  0.6649
 8997SOL    HW238451   1.632   3.864   2.678 -0.0020 -0.7214 -0.6451
 8998SOL     OW38452   2.705   0.319  14.170  0.4063  0.0313 -0.1448
 8998SOL    HW138453   2.708   0.391  14.107 -2.7774 -0.2155 -0.5926
 8998SOL    HW238454   2.785   0.321  14.223  0.7892  3.1394 -0.8451
 8999SOL     OW38455   1.325   1.073  12.644  0.2559 -0.4035  0.3783
 8999SOL    HW138456   1.252   1.013  12.663 -1.7430  1.1371 -2.3057
 8999SOL    HW238457   1.305   1.138  12.711  0.8516  1.5324 -1.3053
 9000SOL     OW38458   2.785   0.801   7.849  0.0276  0.5645 -0.5808
 9000SOL    HW138459   2.725   0.732   7.880  1.5299 -0.8996 -0.9554
 9000SOL    HW238460   2.860   0.745   7.831  1.5921  2.0364  1.4281
 9001SOL     OW38461   0.575   2.993   9.445  0.0651  0.2897 -0.3237
 9001SOL    HW138462   0.648   2.978   9.506  1.9540 -0.8720 -2.8547
 9001SOL    HW238463   0.625   3.030   9.372 -0.3245  0.5054 -0.4770
 9002SOL     OW38464   2.465   3.570  14.654 -0.0735 -0.1337 -0.6024
 9002SOL    HW138465   2.384   3.618  14.637 -0.3956 -0.0927  1.0759
 9002SOL    HW238466   2.429   3.492  14.695  0.6254 -1.3194 -2.2641
 9003SOL     OW38467   4.017   1.767   3.384 -0.0931 -0.0788 -0.2693
 9003SOL    HW138468   3.965   1.847   3.385 -0.2019 -0.1821  2.0182
 9003SOL    HW238469   4.099   1.796   3.424 -0.6429 -0.4699  1.1292
 9004SOL     OW38470   2.829   0.709   8.931  0.3369  0.2015 -0.3260
 9004SOL    HW138471   2.909   0.675   8.972 -0.0217 -0.0075  0.1928
 9004SOL    HW238472   2.784   0.625   8.932 -3.5614  2.2968 -0.4212
 9005SOL     OW38473   2.363   4.697  14.837  0.0688  0.5984  1.0259
 9005SOL    HW138474   2.457   4.710  14.854 -0.1687  2.1165  1.1648
 9005SOL    HW238475   2.328   0.043  14.895 -2.4364 -1.9410  2.4868
 9006SOL     OW38476   0.737   1.352  12.986  0.1543  0.2371  0.1595
 9006SOL    HW138477   0.761   1.423  13.046 -0.3604  0.6388 -0.1090
 9006SOL    HW238478   0.711   1.286  13.050  2.5797  0.3303  1.2345
 9007SOL     OW38479   0.398   1.949   6.666  1.0072 -0.1281 -0.0556
 9007SOL    HW138480   0.347   1.953   6.747  0.1442  1.6829 -0.7114
 9007SOL    HW238481   0.336   1.997   6.612 -1.5868 -0.8063  2.3493
 9008SOL     OW38482   2.299   1.927   0.405 -0.1544  0.2170 -0.4120
 9008SOL    HW138483   2.295   2.008   0.456 -0.4435 -0.1307  0.1141
 9008SOL    HW238484   2.393   1.927   0.385 -0.5332 -0.7744 -2.2233
 9009SOL     OW38485   3.865   1.228   7.425 -0.6744  0.5028 -0.0302
 9009SOL    HW138486   3.884   1.141   7.459  2.1034  2.2948  3.0669
 9009SOL    HW238487   3.849   1.275   7.507 -3.7686 -1.9709  0.7715
 9010SOL     OW38488   4.586   0.795   1.021 -0.2969  0.0638 -0.1288
 9010SOL    HW138489   4.600   0.710   1.062 -0.3935 -0.1434 -0.5249
 9010SOL    HW238490   4.532   0.776   0.945  0.1737 -1.9966  0.0508
 9011SOL     OW38491   3.261   3.612   0.913 -0.2385 -0.0510 -0.2202
 9011SOL    HW138492   3.335   3.571   0.867 -0.1315 -0.0751 -0.0289
 9011SOL    HW238493   3.255   3.698   0.873  1.3929 -1.4885 -3.5543
 9012SOL     OW38494   2.445   2.903   4.403  0.4752  0.0266 -0.6266
 9012SOL    HW138495   2.382   2.857   4.459 -1.3255  1.4727 -1.4536
 9012SOL    HW238496   2.379   2.970   4.384 -0.6780 -1.0883 -0.5807
 9013SOL     OW38497   3.568   1.884  15.544  0.6081  0.0779  0.3943
 9013SOL    HW138498   3.573   1.902  15.638  3.4108  0.2348  0.2172
 9013SOL    HW238499   3.646   1.929  15.512  1.3904 -1.2872  0.3635
 9014SOL     OW38500   4.060   2.694   9.298  0.0781  0.6993  0.2969
 9014SOL    HW138501   4.049   2.740   9.381  0.1201 -1.2936  1.4221
 9014SOL    HW238502   3.966   2.677   9.286  0.4500 -0.5165 -0.9522
 9015SOL     OW38503   3.478   0.628   4.093 -0.2437 -0.0081 -0.0631
 9015SOL    HW138504   3.409   0.585   4.044  0.0197  1.4341 -1.6923
 9015SOL    HW238505   3.447   0.602   4.180 -0.7177  0.2020 -0.1700
 9016SOL     OW38506   0.226   0.338  10.250 -0.3034 -0.6207 -0.3059
 9016SOL    HW138507   0.160   0.271  10.231  1.8558 -1.7220 -3.7298
 9016SOL    HW238508   0.300   0.281  10.270  0.9361  1.7891  2.0004
 9017SOL     OW38509   3.681   3.641   6.631  0.0271  0.0816  0.1777
 9017SOL    HW138510   3.773   3.618   6.641  0.2071  1.2374  1.2112
 9017SOL    HW238511   3.641   3.554   6.626  0.4672 -0.1617  0.9401
 9018SOL     OW38512   3.790   3.442  13.222 -0.3261  0.0129 -0.4713
 9018SOL    HW138513   3.882   3.418  13.233 -0.5893 -1.0729 -0.6460
 9018SOL    HW238514   3.750   3.357  13.203  0.1447 -0.4394  0.6133
 9019SOL     OW38515   1.435   3.208   6.939 -0.1096  0.3314 -0.1087
 9019SOL    HW138516   1.440   3.119   6.972 -1.3246 -0.5012 -2.1566
 9019SOL    HW238517   1.372   3.238   7.004  0.4805 -2.0193  1.5039
 9020SOL     OW38518   1.829   1.104  13.533  0.6466 -0.3309 -0.0555
 9020SOL    HW138519   1.900   1.096  13.468  1.5075 -0.5614  0.9122
 9020SOL    HW238520   1.766   1.146  13.474 -0.4969 -0.1852  1.2802
 9021SOL     OW38521   4.483   2.672   2.219 -0.7783 -0.1922  0.0482
 9021SOL    HW138522   4.461   2.688   2.127 -1.0692 -0.5198  0.0597
 9021SOL    HW238523   4.402   2.645   2.263  1.2727 -3.1269  2.0325
 9022SOL     OW38524   4.397   3.628   3.293  1.1832  0.1903  0.3500
 9022SOL    HW138525   4.347   3.631   3.211 -0.8325  0.7836  1.6034
 9022SOL    HW238526   4.457   3.703   3.287  0.0491  1.2159  1.6239
 9023SOL     OW38527   1.975   0.105  16.133  0.9437  0.2444 -0.6464
 9023SOL    HW138528   1.893   0.057  16.123  1.5754 -1.2258  1.2981
 9023SOL    HW238529   1.966   0.158  16.054  2.6348  1.5270  0.0118
 9024SOL     OW38530   0.946   2.687  12.555 -0.0194  0.2330 -0.0770
 9024SOL    HW138531   0.989   2.772  12.544 -0.2859  0.6246  1.8242
 9024SOL    HW238532   0.884   2.702  12.627  0.3877  1.7208 -0.0232
 9025SOL     OW38533   0.848   3.042   6.484 -0.2365  0.0439 -0.0503
 9025SOL    HW138534   0.821   3.016   6.396 -0.6306  1.8958 -0.4627
 9025SOL    HW238535   0.913   3.110   6.466  1.0354 -1.1124  0.1662
 9026SOL     OW38536   4.001   2.096   4.753  0.2092  0.9999 -0.1885
 9026SOL    HW138537   4.062   2.144   4.697  1.7294 -1.1531 -0.3661
 9026SOL    HW238538   3.917   2.138   4.731 -0.6611  0.2586  1.6730
 9027SOL     OW38539   0.861   1.161   9.279  0.2345 -0.1642 -0.4533
 9027SOL    HW138540   0.802   1.101   9.326 -0.6636 -0.0571 -1.4557
 9027SOL    HW238541   0.802   1.180   9.206 -3.0582 -0.6410  2.0477
 9028SOL     OW38542   3.650   0.772   9.389  0.0272 -0.2269 -0.3894
 9028SOL    HW138543   3.564   0.734   9.408 -0.9457  2.3061  0.2890
 9028SOL    HW238544   3.638   0.844   9.326  3.0975 -1.1009 -1.9595
 9029SOL     OW38545   0.987   4.053  12.002  0.2885 -0.1949 -0.1912
 9029SOL    HW138546   0.901   4.021  11.978 -0.6511  1.4625  0.9438
 9029SOL    HW238547   0.957   4.110  12.073 -3.0736 -0.4882 -1.3824
 9030SOL     OW38548   1.425   3.634   6.056  0.2544 -0.0340  0.4392
 9030SOL    HW138549   1.429   3.589   5.971 -1.6448 -0.4367  0.5568
 9030SOL    HW238550   1.517   3.651   6.074  0.2968  0.5412 -0.3182
 9031SOL     OW38551   2.521   3.130   7.654 -0.5505  0.2623  0.1371
 9031SOL    HW138552   2.587   3.170   7.597  1.3129 -0.9302  1.4752
 9031SOL    HW238553   2.561   3.045   7.668  1.3435  1.2133  0.4559
 9032SOL     OW38554   1.220   3.971   7.353  0.3311 -0.0227  0.1420
 9032SOL    HW138555   1.288   3.925   7.403 -2.2120 -3.0881  0.7902
 9032SOL    HW238556   1.183   4.039   7.410  0.9744  1.5678 -1.3431
 9033SOL     OW38557   4.476   0.207   9.695  0.0368 -0.5641  0.3255
 9033SOL    HW138558   4.564   0.175   9.718  0.2696  0.3531  0.6969
 9033SOL    HW238559   4.470   0.288   9.745  1.3435 -0.7897  0.8604
 9034SOL     OW38560   0.634   2.742  14.786  0.1243 -0.5143  0.4259
 9034SOL    HW138561   0.695   2.707  14.721  0.0251  1.4635 -0.7234
 9034SOL    HW238562   0.703   2.772  14.846  0.4106  1.0332 -0.6690
 9035SOL     OW38563   2.461   1.974   1.496  0.4315  0.0995  0.5940
 9035SOL    HW138564   2.387   1.940   1.445 -0.1503  0.8817  0.9124
 9035SOL    HW238565   2.491   2.046   1.441  0.6959 -0.5707 -0.1454
 9036SOL     OW38566   1.676   3.609   3.819  0.0555  0.1679 -0.2135
 9036SOL    HW138567   1.664   3.515   3.808  0.0119 -0.1814  3.0482
 9036SOL    HW238568   1.617   3.619   3.893  1.3322 -0.6127  0.9018
 9037SOL     OW38569   2.568   1.991   6.238 -0.0939  0.0443 -0.6073
 9037SOL    HW138570   2.644   1.955   6.282 -0.0874 -0.3624 -0.9499
 9037SOL    HW238571   2.551   2.062   6.299  0.6568  0.3781 -0.7849
 9038SOL     OW38572   3.643   1.130   6.124  0.2138 -0.0629  0.4943
 9038SOL    HW138573   3.650   1.046   6.078  0.7299 -0.3164  1.0288
 9038SOL    HW238574   3.577   1.120   6.192  0.6421  0.6668  1.0209
 9039SOL     OW38575   0.063   1.339   4.722  0.2177  0.1764 -0.1536
 9039SOL    HW138576   0.133   1.371   4.664 -0.3118  0.1861 -0.7859
 9039SOL    HW238577   4.721   1.316   4.655 -2.4258  0.6892  2.2137
 9040SOL     OW38578   1.001   0.324   3.565 -0.1734 -0.3189  0.3743
 9040SOL    HW138579   0.912   0.344   3.594  0.2051  0.9306  0.6495
 9040SOL    HW238580   1.032   0.409   3.535 -1.1487 -1.2508 -3.3823
 9041SOL     OW38581   3.488   2.455   1.031  0.0634 -0.5867  0.4170
 9041SOL    HW138582   3.583   2.443   1.028  0.2450  0.8706  0.0827
 9041SOL    HW238583   3.464   2.363   1.033 -1.1876 -0.2918 -1.0720
 9042SOL     OW38584   4.128   3.948   4.191  0.5942  0.4264 -0.5392
 9042SOL    HW138585   4.064   4.015   4.166  0.0734 -0.5653 -1.8359
 9042SOL    HW238586   4.092   3.873   4.145 -1.2496  2.4066 -2.3602
 9043SOL     OW38587   3.555   0.764   2.108 -0.5052  0.0261  0.5319
 9043SOL    HW138588   3.518   0.698   2.166 -1.2759 -0.9120 -1.0171
 9043SOL    HW238589   3.490   0.834   2.113 -0.4281  0.0873  0.6647
 9044SOL     OW38590   2.403   2.599   1.959  0.1923  0.1927 -0.2181
 9044SOL    HW138591   2.438   2.625   2.044  1.8210 -1.6432 -0.3345
 9044SOL    HW238592   2.390   2.680   1.910  0.0589 -0.6235 -1.5378
 9045SOL     OW38593   3.327   2.561   4.636 -0.1035 -0.2470  0.1752
 9045SOL    HW138594   3.237   2.590   4.650 -0.2339 -0.0791 -1.0371
 9045SOL    HW238595   3.378   2.641   4.648  1.4043 -0.6925 -3.3633
 9046SOL     OW38596   4.402   3.220   9.478 -0.2517  0.3668  0.4083
 9046SOL    HW138597   4.355   3.286   9.428  0.8359  0.7231 -0.1454
 9046SOL    HW238598   4.400   3.141   9.423  1.4554  1.2822 -1.0038
 9047SOL     OW38599   2.217   2.389  15.941 -0.9543  0.2202 -0.6142
 9047SOL    HW138600   2.268   2.311  15.962 -1.1841  0.2506  0.0751
 9047SOL    HW238601   2.227   2.385  15.846  1.5246 -0.1388 -0.3309
 9048SOL     OW38602   4.172   3.203   8.163  0.6228 -0.3006  0.1870
 9048SOL    HW138603   4.201   3.277   8.111 -1.8046 -0.5758 -1.6065
 9048SOL    HW238604   4.119   3.149   8.103 -1.6403 -0.0445  1.9504
 9049SOL     OW38605   3.583   2.833   0.637 -0.4426 -0.1055  0.0248
 9049SOL    HW138606   3.577   2.773   0.711  1.7702  1.2791  1.3351
 9049SOL    HW238607   3.646   2.791   0.579  1.0169  0.4214  1.2274
 9050SOL     OW38608   1.747   2.896   2.149 -0.3865  1.4030  0.2075
 9050SOL    HW138609   1.826   2.847   2.126  0.0074  2.4233 -0.6400
 9050SOL    HW238610   1.686   2.865   2.082 -0.5623 -0.0930  1.0780
 9051SOL     OW38611   2.408   0.713  12.301 -0.2913  0.1831  0.0406
 9051SOL    HW138612   2.451   0.746  12.223  0.9702 -2.3268 -0.3125
 9051SOL    HW238613   2.479   0.681  12.356  0.0518  0.2793 -0.3488
 9052SOL     OW38614   4.450   1.422   2.467 -0.1398  0.3583  0.1710
 9052SOL    HW138615   4.438   1.478   2.544  0.5481  1.3814 -0.4619
 9052SOL    HW238616   4.459   1.478   2.390 -2.8439  0.4334 -0.0831
 9053SOL     OW38617   1.741   3.980  16.267  0.2955 -0.2702 -0.0274
 9053SOL    HW138618   1.752   4.053  16.207 -3.8341  2.6819  2.8307
 9053SOL    HW238619   1.651   3.998  16.293  0.7487  0.8998  0.7226
 9054SOL     OW38620   4.712   1.918   9.818  0.1935 -0.1587 -0.0907
 9054SOL    HW138621   0.006   1.927   9.724  0.7478 -0.7799 -0.0591
 9054SOL    HW238622   0.078   1.942   9.849  0.2487 -0.2290 -0.1958
 9055SOL     OW38623   3.276   2.595   5.834 -0.2816  0.0107  0.1133
 9055SOL    HW138624   3.193   2.589   5.787  0.2652  1.9839 -1.1098
 9055SOL    HW238625   3.266   2.523   5.897 -0.4567  0.4254  0.5564
 9056SOL     OW38626   2.920   4.084   9.963 -0.2483 -0.1450 -0.0867
 9056SOL    HW138627   2.950   4.132  10.040 -2.3204  1.8410 -0.5170
 9056SOL    HW238628   3.005   4.046   9.940 -1.0649 -2.5193  0.8706
 9057SOL     OW38629   1.628   4.705   5.608  0.0691  0.1326  0.3152
 9057SOL    HW138630   1.660   4.678   5.522  0.5013 -0.3545  0.6273
 9057SOL    HW238631   1.673   4.651   5.673  0.1569  0.3176  0.4056
 9058SOL     OW38632   2.904   0.277   4.975  0.5100  0.2089  0.1796
 9058SOL    HW138633   2.976   0.216   4.986 -0.1795 -0.9167 -1.4629
 9058SOL    HW238634   2.849   0.218   4.923  1.2703  1.0629 -1.5842
 9059SOL     OW38635   3.710   4.301  13.813  0.2772 -0.3036 -0.4572
 9059SOL    HW138636   3.640   4.282  13.751 -0.7927  0.6342  0.4823
 9059SOL    HW238637   3.718   4.222  13.866  1.3485 -1.4738 -2.3736
 9060SOL     OW38638   2.085   2.090   1.747  0.0622  0.0657 -0.0064
 9060SOL    HW138639   2.062   2.167   1.799  0.1956 -0.2899  0.5892
 9060SOL    HW238640   2.179   2.103   1.738  0.0037  1.1799  1.0140
 9061SOL     OW38641   1.998   1.132   5.666 -0.3872  0.5321 -0.2294
 9061SOL    HW138642   2.084   1.161   5.696 -0.3731  0.5046 -0.2428
 9061SOL    HW238643   2.019   1.102   5.578  1.9849 -0.6645  0.7403
 9062SOL     OW38644   0.181   3.762  10.436  0.5793  0.1694 -0.0446
 9062SOL    HW138645   0.238   3.785  10.509  1.6785  0.6257 -1.0424
 9062SOL    HW238646   0.141   3.849  10.432  1.7870  0.7120 -0.3026
 9063SOL     OW38647   4.004   1.472   7.391 -0.1207 -0.6958  0.6033
 9063SOL    HW138648   4.054   1.480   7.310 -1.7501 -2.2890 -0.5444
 9063SOL    HW238649   3.943   1.405   7.362 -1.7815  1.4418 -0.7650
 9064SOL     OW38650   4.174   4.328   5.759 -0.1505  0.1767 -0.4424
 9064SOL    HW138651   4.151   4.365   5.674  0.1929 -1.5026 -1.2756
 9064SOL    HW238652   4.252   4.278   5.738 -0.8064 -0.2891 -1.8003
 9065SOL     OW38653   1.851   2.134   3.887  0.3028  0.0407  0.5537
 9065SOL    HW138654   1.817   2.046   3.904  2.5263 -1.1481 -1.1888
 9065SOL    HW238655   1.772   2.188   3.891 -0.5167 -1.0583 -0.6417
 9066SOL     OW38656   4.295   2.935  16.328 -0.5149 -0.3078 -0.2066
 9066SOL    HW138657   4.289   3.018  16.375 -0.7547 -0.1136 -0.5772
 9066SOL    HW238658   4.298   2.868  16.395 -0.0749  0.6841  0.7701
 9067SOL     OW38659   1.392   3.644   0.631  0.1131 -0.2387  0.1011
 9067SOL    HW138660   1.461   3.606   0.578  0.1372 -0.6597  0.4325
 9067SOL    HW238661   1.320   3.583   0.611  0.8647 -1.3828  0.8871
 9068SOL     OW38662   3.470   2.003   6.965 -0.1414 -0.2901  0.1804
 9068SOL    HW138663   3.473   1.943   7.039 -0.5564  1.3525  1.5290
 9068SOL    HW238664   3.521   2.077   6.996 -0.4324  0.3254 -0.8067
 9069SOL     OW38665   2.324   0.962  16.433 -0.2050 -0.2035  0.1347
 9069SOL    HW138666   2.376   0.923  16.503 -0.2583 -0.1284  0.2160
 9069SOL    HW238667   2.275   1.032  16.475 -0.3170 -0.3301  0.2121
 9070SOL     OW38668   2.528   3.944   6.431 -0.5234 -0.1843 -0.0581
 9070SOL    HW138669   2.577   3.873   6.472  0.9843 -1.1796 -3.6268
 9070SOL    HW238670   2.603   4.000   6.410  0.7739 -2.1542 -0.6415
 9071SOL     OW38671   3.321   3.913   8.019  0.4610 -0.0299  0.3219
 9071SOL    HW138672   3.266   3.854   8.071 -1.4062 -0.1310 -1.7730
 9071SOL    HW238673   3.324   3.981   8.087  1.4445  0.2649 -0.0172
 9072SOL     OW38674   4.313   0.179   6.990 -1.1058  0.0920  0.1140
 9072SOL    HW138675   4.241   0.116   6.999 -2.0129  0.7321 -2.6171
 9072SOL    HW238676   4.384   0.116   6.980  1.2175  2.9222 -1.1040
 9073SOL     OW38677   0.878   3.682  16.749 -0.0382 -0.2439  0.1974
 9073SOL    HW138678   0.871   3.677  16.654  1.1912 -0.0014  0.0942
 9073SOL    HW238679   0.886   3.778  16.746 -0.4582 -0.1688  1.5581
 9074SOL     OW38680   1.925   4.468  15.934  0.4456  0.3433  0.4573
 9074SOL    HW138681   1.873   4.497  16.009 -0.9610  2.1100 -1.1642
 9074SOL    HW238682   2.012   4.503  15.953  1.0546 -0.1902 -1.2949
 9075SOL     OW38683   0.314   2.800   7.757  0.5143  0.4461  0.6977
 9075SOL    HW138684   0.221   2.799   7.732  1.4108 -0.4999 -2.6815
 9075SOL    HW238685   0.343   2.710   7.748  2.5052  1.1200  0.3705
 9076SOL     OW38686   1.933   0.277   3.380 -0.1734  0.1458  0.6803
 9076SOL    HW138687   1.896   0.257   3.466  0.3387  1.3073  1.1647
 9076SOL    HW238688   1.859   0.305   3.327  0.9812  1.0186 -0.4483
 9077SOL     OW38689   2.929   2.765   6.465  0.6181  0.7507 -0.0161
 9077SOL    HW138690   2.847   2.718   6.450  0.8253  0.0081  1.1961
 9077SOL    HW238691   2.910   2.841   6.409 -3.1976 -0.2267 -0.0579
 9078SOL     OW38692   2.950   0.672  14.892 -0.5778 -0.0367  0.2697
 9078SOL    HW138693   3.015   0.636  14.953  0.1284 -0.4337 -0.7234
 9078SOL    HW238694   2.969   0.625  14.811 -1.7068 -0.2538  0.1216
 9079SOL     OW38695   1.642   0.488   1.686  0.2763  0.1092  0.3484
 9079SOL    HW138696   1.700   0.523   1.618  0.1531 -0.4368 -0.0388
 9079SOL    HW238697   1.558   0.519   1.652  0.5842 -0.9277 -1.3538
 9080SOL     OW38698   4.174   2.354   7.412 -0.5097 -0.2409  0.5108
 9080SOL    HW138699   4.251   2.347   7.467  0.1927  1.1107 -0.3032
 9080SOL    HW238700   4.195   2.422   7.348 -2.4417 -0.5892 -0.5084
 9081SOL     OW38701   2.598   3.572   5.763 -0.6094  0.2308 -0.2643
 9081SOL    HW138702   2.553   3.523   5.832  1.2356 -1.0845 -0.0131
 9081SOL    HW238703   2.668   3.613   5.814 -0.1861  0.1060 -0.7527
 9082SOL     OW38704   3.384   4.374  14.275 -0.0914  0.2128 -0.2782
 9082SOL    HW138705   3.417   4.319  14.203 -2.2511  1.1378 -1.9774
 9082SOL    HW238706   3.298   4.337  14.296 -0.1065 -0.3048 -1.2213
 9083SOL     OW38707   1.606   0.645   8.079  0.0218  0.4980  0.3735
 9083SOL    HW138708   1.675   0.605   8.026  0.9375  1.1276  1.0938
 9083SOL    HW238709   1.662   0.694   8.138 -0.5019 -0.1155  1.3794
 9084SOL     OW38710   1.031   4.462  10.585 -0.1104  0.1127 -0.1394
 9084SOL    HW138711   1.107   4.413  10.554 -0.2204 -0.0047 -0.2239
 9084SOL    HW238712   1.075   4.543  10.607 -1.5724  1.2353 -1.3483
 9085SOL     OW38713   3.896   3.258  13.008  0.6340 -0.0874  0.2108
 9085SOL    HW138714   3.962   3.316  12.970 -0.1519  0.7094  0.0619
 9085SOL    HW238715   3.923   3.230  13.096 -0.2161  0.1933  0.5537
 9086SOL     OW38716   2.175   1.072   9.903 -0.3601 -0.9546 -0.3180
 9086SOL    HW138717   2.080   1.075   9.888 -0.6218 -1.7578  1.2298
 9086SOL    HW238718   2.181   1.106   9.992  2.6848  0.2223 -0.9762
 9087SOL     OW38719   1.077   4.448   3.848  0.5822 -0.2092  0.1270
 9087SOL    HW138720   1.080   4.353   3.836  3.1996 -0.4498  2.6420
 9087SOL    HW238721   1.023   4.448   3.927  1.7693  1.7521  0.9229
 9088SOL     OW38722   2.382   0.005   6.449  0.3916  0.5656 -0.0293
 9088SOL    HW138723   2.398   0.054   6.530 -0.4514 -1.4658  1.3906
 9088SOL    HW238724   2.432   0.058   6.388 -1.2909  0.4918 -1.4780
 9089SOL     OW38725   0.447   0.976   3.592 -0.7892  0.4937 -1.1135
 9089SOL    HW138726   0.476   1.004   3.505 -0.5297  1.3466 -0.7588
 9089SOL    HW238727   0.354   0.998   3.591 -0.5308  1.4719 -3.3206
 9090SOL     OW38728   0.776   1.596  12.259 -0.2856 -0.2928 -0.3108
 9090SOL    HW138729   0.833   1.617  12.333 -2.2308  1.1086  0.7733
 9090SOL    HW238730   0.772   1.680  12.213 -0.0813 -0.7568 -1.1803
 9091SOL     OW38731   3.874   4.007   2.913 -0.3236 -0.3559  0.4547
 9091SOL    HW138732   3.847   4.045   2.997  1.0428  1.4152  0.1046
 9091SOL    HW238733   3.941   4.065   2.875 -1.7947  0.5267 -0.8267
 9092SOL     OW38734   3.473   0.558   0.411  0.3745 -0.0509  0.4232
 9092SOL    HW138735   3.441   0.472   0.439  1.1576 -1.1869 -2.1935
 9092SOL    HW238736   3.528   0.530   0.338 -0.7201  0.1824 -0.5057
 9093SOL     OW38737   1.801   2.781   3.854  0.3674 -0.4207  0.4622
 9093SOL    HW138738   1.774   2.726   3.781 -1.5014  1.7900 -0.4977
 9093SOL    HW238739   1.894   2.759   3.854  0.4505  0.0104 -2.6990
 9094SOL     OW38740   1.098   3.699   2.794 -0.2831 -0.1409 -0.0077
 9094SOL    HW138741   1.087   3.785   2.752  1.2102 -0.5489 -1.2149
 9094SOL    HW238742   1.192   3.702   2.810 -0.1326  0.3499 -0.9753
 9095SOL     OW38743   2.499   3.558   7.496  0.4587 -0.3862 -0.0491
 9095SOL    HW138744   2.530   3.639   7.457  0.5004 -0.1654  0.4452
 9095SOL    HW238745   2.414   3.585   7.528 -0.3257  0.2091 -2.6682
 9096SOL     OW38746   1.117   2.818  13.911 -0.1190 -0.3005 -0.2872
 9096SOL    HW138747   1.095   2.874  13.985  1.0506 -1.5380  1.0031
 9096SOL    HW238748   1.045   2.840  13.852 -1.7494  1.6271  2.4483
 9097SOL     OW38749   2.515   2.799   4.812  0.2225 -0.0134 -0.8783
 9097SOL    HW138750   2.585   2.803   4.747  0.3443 -2.5682 -0.8792
 9097SOL    HW238751   2.446   2.797   4.745  0.9019  0.9019 -1.6081
 9098SOL     OW38752   2.814   0.410  12.950 -0.2434 -0.0485  0.1987
 9098SOL    HW138753   2.808   0.395  12.856  1.4171 -1.5362  0.3455
 9098SOL    HW238754   2.890   0.467  12.951  0.2586 -0.7220  0.1812
 9099SOL     OW38755   4.365   2.253   2.150 -0.3466 -0.1998  0.2669
 9099SOL    HW138756   4.277   2.282   2.175 -0.6629 -0.8495 -0.0948
 9099SOL    HW238757   4.402   2.201   2.221 -0.5044 -2.9290 -1.6620
 9100SOL     OW38758   1.935   1.561   8.392  0.7768 -0.2525 -0.3764
 9100SOL    HW138759   2.011   1.569   8.450 -0.1394 -0.5083  0.8658
 9100SOL    HW238760   1.932   1.465   8.387 -1.6376 -0.2004 -0.3134
 9101SOL     OW38761   3.878   0.378   7.347  0.3521 -0.1510  0.2083
 9101SOL    HW138762   3.824   0.428   7.286 -0.7885 -1.5146  0.0952
 9101SOL    HW238763   3.922   0.335   7.274  0.9426 -2.1365  1.7240
 9102SOL     OW38764   3.596   0.915   7.560 -0.0531 -0.6933  0.2284
 9102SOL    HW138765   3.616   0.856   7.632 -2.8821 -0.3321  1.3237
 9102SOL    HW238766   3.683   0.926   7.521 -0.8361  1.8429 -0.8235
 9103SOL     OW38767   1.803   1.548   7.727 -0.3621 -0.2564 -0.3971
 9103SOL    HW138768   1.786   1.492   7.651  1.8168 -0.6213 -0.5940
 9103SOL    HW238769   1.869   1.608   7.693 -0.7531  0.1102 -0.5234
 9104SOL     OW38770   0.366   4.237   5.537  0.0369  0.7779 -0.3765
 9104SOL    HW138771   0.271   4.246   5.530 -0.1743 -0.5837  0.7241
 9104SOL    HW238772   0.367   4.190   5.620  0.3990  0.8571 -0.3369
 9105SOL     OW38773   0.797   0.651   1.456  0.6516  0.4568  0.0462
 9105SOL    HW138774   0.816   0.740   1.487  3.4117 -0.5009  1.0723
 9105SOL    HW238775   0.863   0.605   1.508 -0.3198  2.1965  2.8444
 9106SOL     OW38776   0.515   3.410   3.424 -0.0373  0.0524  0.3752
 9106SOL    HW138777   0.522   3.505   3.414 -2.1479  0.1362 -0.4380
 9106SOL    HW238778   0.557   3.380   3.343 -2.0263 -1.0027 -0.2805
 9107SOL     OW38779   0.990   1.545   4.501 -0.0622  0.6164  0.0034
 9107SOL    HW138780   1.082   1.546   4.529  0.6014  2.4129 -2.2944
 9107SOL    HW238781   0.939   1.513   4.575 -0.4582 -1.9579 -1.3812
 9108SOL     OW38782   2.691   2.698   4.618  0.2362 -0.3056  0.0810
 9108SOL    HW138783   2.643   2.696   4.535 -0.4690 -1.0710  0.5103
 9108SOL    HW238784   2.740   2.779   4.602 -1.5584  0.6460 -0.5549
 9109SOL     OW38785   1.541   2.348  11.491  0.4918  0.2543 -0.5516
 9109SOL    HW138786   1.548   2.440  11.463 -0.8816  0.2032 -1.0657
 9109SOL    HW238787   1.569   2.293  11.418 -2.0495 -2.0235  0.2073
 9110SOL     OW38788   0.443   4.133  14.568  0.2264  0.3401 -0.1466
 9110SOL    HW138789   0.441   4.186  14.648 -4.9226  2.8698 -1.9177
 9110SOL    HW238790   0.537   4.116  14.564  0.1991  0.1440  0.0328
 9111SOL     OW38791   0.032   4.107   7.717  0.0510  0.0230 -0.5062
 9111SOL    HW138792   0.018   4.179   7.779  1.6366 -0.3699  0.3180
 9111SOL    HW238793   0.082   4.042   7.768  0.3307 -1.0253 -2.1234
 9112SOL     OW38794   1.021   0.764  13.275 -0.2281  0.7674  0.0730
 9112SOL    HW138795   1.070   0.769  13.356  3.3855  0.4626 -2.0922
 9112SOL    HW238796   1.069   0.695  13.228 -0.5680 -0.0329  0.9133
 9113SOL     OW38797   2.784   1.644   7.776  0.3905  0.0349  0.0258
 9113SOL    HW138798   2.708   1.635   7.718 -1.1130  0.2879  1.9681
 9113SOL    HW238799   2.846   1.682   7.714 -0.0331  0.4055 -0.1702
 9114SOL     OW38800   0.018   1.955  12.944  0.4151 -0.4431 -0.4088
 9114SOL    HW138801   0.039   1.910  12.862  1.5336  2.5433 -1.7613
 9114SOL    HW238802   0.097   1.942  12.997 -0.8816 -2.6057  0.9662
 9115SOL     OW38803   1.523   0.594  16.679 -0.2055  0.4207 -0.2966
 9115SOL    HW138804   1.556   0.672  16.722 -0.6226  1.3069 -1.5832
 9115SOL    HW238805   1.603   0.542  16.689  0.6853  1.7525 -0.5198
 9116SOL     OW38806   4.332   2.410   7.174  0.0688  0.0272 -0.4218
 9116SOL    HW138807   4.316   2.436   7.084 -0.3846  1.6100  0.1145
 9116SOL    HW238808   4.266   2.341   7.187 -0.7169  0.5032 -1.8812
 9117SOL     OW38809   3.361   1.948   7.601  0.1708 -0.1802  0.1459
 9117SOL    HW138810   3.370   1.938   7.506 -0.7023 -1.4137  0.1891
 9117SOL    HW238811   3.335   2.040   7.603 -2.7799 -1.0355  0.7019
 9118SOL     OW38812   0.586   0.273   7.481 -0.8810  0.4403  0.2184
 9118SOL    HW138813   0.657   0.295   7.542  1.1144 -3.1471 -0.8031
 9118SOL    HW238814   0.545   0.199   7.526 -0.6123  1.1188  1.5945
 9119SOL     OW38815   0.106   3.900   8.278  0.0265  0.0309  0.2192
 9119SOL    HW138816   0.043   3.950   8.227 -0.3166 -1.3947 -0.7439
 9119SOL    HW238817   0.069   3.813   8.293  1.9287 -1.2474 -2.4821
 9120SOL     OW38818   2.044   0.254  13.124  0.2100  0.2250 -0.7589
 9120SOL    HW138819   2.034   0.275  13.217  0.8860  0.9588 -0.8555
 9120SOL    HW238820   1.976   0.188  13.109 -1.4380  1.1251  2.7330
 9121SOL     OW38821   4.175   3.078   3.068 -1.1153  0.6001 -0.7098
 9121SOL    HW138822   4.263   3.115   3.074 -0.3673 -1.4083  0.6903
 9121SOL    HW238823   4.189   2.991   3.031  1.0059  1.2514 -1.4658
 9122SOL     OW38824   0.596   1.828  13.131  0.1623 -0.1967  0.3090
 9122SOL    HW138825   0.628   1.837  13.221  0.8950 -0.1223  0.0393
 9122SOL    HW238826   0.611   1.918  13.102  1.9446 -0.7082 -0.3935
 9123SOL     OW38827   1.825   4.318   5.213  0.3577  0.1722 -0.4730
 9123SOL    HW138828   1.755   4.382   5.219 -0.1735 -0.4841  0.2772
 9123SOL    HW238829   1.780   4.244   5.171 -0.7571  0.8286 -0.4286
 9124SOL     OW38830   1.863   4.095   7.190 -0.0120  0.0579 -0.5332
 9124SOL    HW138831   1.856   4.188   7.167  1.1945 -0.0686 -1.3773
 9124SOL    HW238832   1.897   4.103   7.279 -1.6146  0.3633  0.0472
 9125SOL     OW38833   2.591   4.689  11.084 -0.0158 -0.0979  0.2083
 9125SOL    HW138834   2.594   4.613  11.026  1.0066  1.4181 -1.7336
 9125SOL    HW238835   2.593   0.033  11.014 -0.2247 -1.2832 -0.9131
 9126SOL     OW38836   3.275   0.798  10.031 -0.1048  0.0383 -0.5362
 9126SOL    HW138837   3.298   0.708  10.055 -2.9823 -0.5150  0.2096
 9126SOL    HW238838   3.306   0.849  10.105  1.1869 -0.5031 -0.7010
 9127SOL     OW38839   3.699   0.594   5.014  0.0644  0.0065 -0.2506
 9127SOL    HW138840   3.777   0.538   5.012 -0.2338 -0.2721 -3.2171
 9127SOL    HW238841   3.635   0.547   5.068  0.6890  0.1138  0.5873
 9128SOL     OW38842   3.687   4.182   6.423  0.6134 -0.6027  0.6070
 9128SOL    HW138843   3.608   4.145   6.461 -0.0647 -0.0620 -0.2994
 9128SOL    HW238844   3.743   4.106   6.409 -0.6109 -1.2771 -0.5910
 9129SOL     OW38845   1.945   3.364   1.090 -0.0920 -0.1476 -0.4703
 9129SOL    HW138846   1.990   3.387   1.008 -1.3944 -0.4028 -1.2574
 9129SOL    HW238847   1.868   3.313   1.064 -0.9494 -0.7195  3.2129
 9130SOL     OW38848   1.355   0.546   3.337 -0.7634 -0.1433 -0.2910
 9130SOL    HW138849   1.332   0.595   3.416 -0.1066  1.8939 -1.3688
 9130SOL    HW238850   1.285   0.484   3.315 -0.9245 -0.8567  2.2168
 9131SOL     OW38851   1.708   2.751   2.953 -0.6302  0.2271  0.0834
 9131SOL    HW138852   1.737   2.705   3.032  1.0566  1.7668  0.3442
 9131SOL    HW238853   1.772   2.822   2.949  1.4235 -1.6813 -0.6393
 9132SOL     OW38854   4.221   0.121   5.488 -0.3334  0.1521  0.3917
 9132SOL    HW138855   4.137   0.093   5.524 -0.5239  2.1279  1.5157
 9132SOL    HW238856   4.219   0.214   5.513 -0.2858  0.8767 -2.3054
 9133SOL     OW38857   1.826   2.753   9.063 -0.3776  0.0111 -0.3301
 9133SOL    HW138858   1.834   2.845   9.039  0.1575 -0.4579 -1.9350
 9133SOL    HW238859   1.874   2.705   8.996 -0.4542 -2.0563  1.0761
 9134SOL     OW38860   0.512   1.314   6.988 -0.3280 -0.1175 -0.3240
 9134SOL    HW138861   0.600   1.285   7.012 -0.1433  0.0360 -0.8092
 9134SOL    HW238862   0.505   1.263   6.907  0.3007 -0.6298 -0.0600
 9135SOL     OW38863   3.742   1.633  15.920  0.1084  0.2028 -0.1785
 9135SOL    HW138864   3.806   1.636  15.849  0.2107 -1.0534 -0.1371
 9135SOL    HW238865   3.785   1.695  15.979  0.5049 -1.0257  0.8181
 9136SOL     OW38866   3.020   2.853   3.067 -0.0119 -0.2126  0.1214
 9136SOL    HW138867   2.974   2.903   3.000 -0.0861 -0.3629  0.0606
 9136SOL    HW238868   3.102   2.902   3.060 -2.3390  3.4235 -1.6557
 9137SOL     OW38869   2.711   0.548   5.638  0.5436 -0.5771 -0.0873
 9137SOL    HW138870   2.617   0.535   5.628  0.5078 -0.7575  0.4561
 9137SOL    HW238871   2.725   0.467   5.687 -3.3335 -1.7697 -0.9952
 9138SOL     OW38872   4.621   0.338   9.914 -0.2716 -0.1979 -0.4179
 9138SOL    HW138873   4.568   0.412   9.883 -0.6194 -0.3444 -0.1664
 9138SOL    HW238874   4.704   0.368   9.875  0.8737 -0.7674  1.5738
 9139SOL     OW38875   3.617   2.084  10.399 -0.2186  0.5211  0.6785
 9139SOL    HW138876   3.680   2.021  10.433 -0.6700 -0.8745 -1.0747
 9139SOL    HW238877   3.570   2.105  10.479  0.0488  0.2793  0.8999
 9140SOL     OW38878   2.674   2.135   9.204 -0.0433  0.2203  0.4577
 9140SOL    HW138879   2.713   2.115   9.119 -2.5860  0.6484 -0.8105
 9140SOL    HW238880   2.754   2.163   9.249 -0.8825  2.0083  0.8364
 9141SOL     OW38881   3.347   0.147   7.570  0.1285 -0.0985 -0.0289
 9141SOL    HW138882   3.252   0.150   7.563  0.2071 -0.7916 -1.4136
 9141SOL    HW238883   3.363   0.228   7.619  3.1156 -1.9480  2.0222
 9142SOL     OW38884   1.566   4.293  11.274  0.0310  0.1380  0.3332
 9142SOL    HW138885   1.656   4.305  11.304  0.9919  0.2881 -2.5826
 9142SOL    HW238886   1.521   4.358  11.327  0.2801  1.2638 -0.8437
 9143SOL     OW38887   3.303   3.624   2.757 -0.1099  0.3363  0.0749
 9143SOL    HW138888   3.239   3.682   2.716 -0.7901  0.1449  0.8521
 9143SOL    HW238889   3.338   3.690   2.817 -0.1075 -0.6290  1.1246
 9144SOL     OW38890   4.007   1.870  10.066 -0.2212 -0.4169  0.2827
 9144SOL    HW138891   3.935   1.870  10.129 -1.0414  2.1606 -0.6393
 9144SOL    HW238892   3.974   1.866   9.976 -2.9298 -0.0494  1.2570
 9145SOL     OW38893   4.156   4.057   1.518 -0.2643 -0.9281  0.2281
 9145SOL    HW138894   4.226   4.103   1.472 -1.8106  1.3596  0.2122
 9145SOL    HW238895   4.075   4.108   1.514  1.6350  2.2816  2.9398
 9146SOL     OW38896   1.151   0.882   7.212  0.5881  0.3270  0.4429
 9146SOL    HW138897   1.102   0.806   7.244 -1.0645  0.9338 -0.6720
 9146SOL    HW238898   1.113   0.887   7.125 -0.1061  1.1936  0.8046
 9147SOL     OW38899   0.010   0.752  12.102  0.3144 -0.0254 -0.3973
 9147SOL    HW138900   0.056   0.796  12.174 -0.9536  0.7842 -0.0744
 9147SOL    HW238901   0.029   0.662  12.125 -1.1930 -0.4954 -0.9930
 9148SOL     OW38902   0.412   3.857   1.477  0.2008 -0.6882  0.4682
 9148SOL    HW138903   0.349   3.793   1.508  0.0388 -1.3812 -1.2808
 9148SOL    HW238904   0.413   3.923   1.546 -0.0795 -0.7458  0.5270
 9149SOL     OW38905   4.165   2.091  13.637  0.5000  0.3251  0.5035
 9149SOL    HW138906   4.232   2.027  13.612  0.5806  1.3137 -1.8772
 9149SOL    HW238907   4.081   2.049  13.624  0.1136  0.3604  2.8670
 9150SOL     OW38908   0.332   2.551   6.555 -0.5982 -0.4657  0.4694
 9150SOL    HW138909   0.261   2.580   6.496 -0.5987 -0.1937  0.6036
 9150SOL    HW238910   0.298   2.475   6.602 -1.4939 -1.2073 -1.3579
 9151SOL     OW38911   2.844   0.012   5.174 -0.6554 -0.4814 -0.4775
 9151SOL    HW138912   2.891   0.092   5.196  2.2894 -2.8169  1.7642
 9151SOL    HW238913   2.831   0.007   5.079  1.7277 -0.0355 -0.8236
 9152SOL     OW38914   4.217   3.546   8.718 -0.0863  0.1176 -0.1786
 9152SOL    HW138915   4.232   3.640   8.729  1.4145 -0.1505  0.0872
 9152SOL    HW238916   4.124   3.547   8.741  0.6738  2.0280  2.7375
 9153SOL     OW38917   0.737   4.284   2.229  0.7322  0.2189  0.0150
 9153SOL    HW138918   0.792   4.360   2.211  1.9700 -0.4029  1.2484
 9153SOL    HW238919   0.707   4.265   2.140 -1.3002  0.6446  0.5869
 9154SOL     OW38920   4.178   2.644  11.438 -0.3001  0.5211 -0.0598
 9154SOL    HW138921   4.132   2.572  11.395 -0.2712 -0.0314  0.8189
 9154SOL    HW238922   4.240   2.671  11.371  1.1442  1.8349  1.7922
 9155SOL     OW38923   3.908   2.977   0.469  0.3029 -0.4769 -0.4590
 9155SOL    HW138924   3.966   2.971   0.393  0.7253  2.0075 -0.3531
 9155SOL    HW238925   3.954   3.031   0.533  0.8083  0.5497 -1.6901
 9156SOL     OW38926   2.859   1.118   6.681 -1.0641  0.1141 -0.5356
 9156SOL    HW138927   2.812   1.197   6.706  0.0986  0.5531  0.2598
 9156SOL    HW238928   2.887   1.142   6.593 -1.9859  1.1124 -0.5474
 9157SOL     OW38929   4.086   1.394   4.794  0.1721 -0.0682 -0.3079
 9157SOL    HW138930   4.083   1.396   4.890  1.0503  1.5433 -0.3213
 9157SOL    HW238931   4.088   1.300   4.773 -1.6305  0.1674 -1.5315
 9158SOL     OW38932   0.896   2.394   1.987 -0.5267 -0.4479  0.0603
 9158SOL    HW138933   0.801   2.404   1.979 -0.0970  1.4726 -2.5210
 9158SOL    HW238934   0.928   2.420   1.901 -0.3600  1.0114  0.5519
 9159SOL     OW38935   4.587   2.248   5.450 -0.4942  0.2479  0.2691
 9159SOL    HW138936   4.491   2.245   5.453 -0.5049 -0.8980 -1.1161
 9159SOL    HW238937   4.614   2.219   5.362 -0.5651  1.4041 -0.1293
 9160SOL     OW38938   2.022   0.255   4.933 -0.2099 -1.2731  0.2327
 9160SOL    HW138939   2.080   0.303   4.874 -1.0662  1.7296  1.8340
 9160SOL    HW238940   2.000   0.324   4.994 -0.7833  0.2481 -1.7013
 9161SOL     OW38941   0.908   0.456   1.982 -0.3849  0.6260 -0.2820
 9161SOL    HW138942   0.835   0.467   2.043 -0.4674  2.3237 -0.6884
 9161SOL    HW238943   0.975   0.483   2.045  0.1975 -0.3252 -0.4956
 9162SOL     OW38944   1.419   4.493   5.883  0.0718  0.5054 -0.1668
 9162SOL    HW138945   1.508   4.515   5.856 -0.0945  1.1186 -0.2279
 9162SOL    HW238946   1.384   4.456   5.802 -2.0421  0.6813  0.6542
 9163SOL     OW38947   3.254   3.453   1.132 -0.8836 -0.7421  0.2527
 9163SOL    HW138948   3.266   3.517   1.062 -2.5640 -0.8819 -0.1849
 9163SOL    HW238949   3.257   3.368   1.088  1.3896  0.5151 -2.0148
 9164SOL     OW38950   0.892   1.129   6.152 -0.3381 -0.1312  0.8096
 9164SOL    HW138951   0.810   1.080   6.154 -0.0300 -0.6147  1.4739
 9164SOL    HW238952   0.938   1.094   6.076  1.4769  2.4314  0.7283
 9165SOL     OW38953   2.758   2.817   2.692 -0.0127  0.0592 -0.9287
 9165SOL    HW138954   2.793   2.728   2.690  0.6089  0.3043 -0.9578
 9165SOL    HW238955   2.724   2.818   2.602  0.0102 -1.0732 -0.9477
 9166SOL     OW38956   0.182   4.315  12.345 -0.0300 -0.0817 -0.5109
 9166SOL    HW138957   0.154   4.232  12.308  1.8638 -0.8690 -0.1915
 9166SOL    HW238958   0.106   4.367  12.319  0.1535  0.8641  0.8143
 9167SOL     OW38959   3.639   1.328   5.891 -0.2279  0.0281  0.7752
 9167SOL    HW138960   3.571   1.276   5.847 -0.9858  0.9394  0.8641
 9167SOL    HW238961   3.696   1.351   5.817 -2.7195 -2.8253 -2.0613
 9168SOL     OW38962   1.956   3.971  12.418 -0.0619 -0.4858  0.3954
 9168SOL    HW138963   2.019   4.016  12.361 -1.0794 -0.8605 -0.9993
 9168SOL    HW238964   1.876   4.017  12.392  0.7394 -0.5909 -2.2821
 9169SOL     OW38965   3.388   4.545   4.879  0.1450  0.1025  0.0738
 9169SOL    HW138966   3.314   4.513   4.827  0.6856  2.0108 -1.8823
 9169SOL    HW238967   3.463   4.494   4.848  0.7642  1.9186 -1.4278
 9170SOL     OW38968   2.000   4.175   1.679  0.2235  0.4243 -0.4298
 9170SOL    HW138969   1.962   4.217   1.756 -0.2842  0.2707 -0.5929
 9170SOL    HW238970   1.928   4.118   1.652 -1.0287  1.3088  1.0201
 9171SOL     OW38971   3.620   3.763  11.473  0.2553 -0.2191  0.1724
 9171SOL    HW138972   3.580   3.840  11.514  0.5390 -0.8780  1.6961
 9171SOL    HW238973   3.589   3.702  11.541  1.4371  0.7926  1.6186
 9172SOL     OW38974   0.986   2.750   4.303  0.3226  0.4792 -0.5009
 9172SOL    HW138975   0.912   2.777   4.249  2.4057 -0.9191 -4.0546
 9172SOL    HW238976   0.945   2.711   4.380  1.7751 -2.1920 -1.1023
 9173SOL     OW38977   4.137   1.619   1.564 -0.0708 -0.5478 -0.7164
 9173SOL    HW138978   4.062   1.571   1.597 -1.4428  2.1928  0.1432
 9173SOL    HW238979   4.111   1.623   1.472  0.6899  2.1934 -0.8210
 9174SOL     OW38980   3.340   2.552   3.190 -0.0553  0.5462  0.0410
 9174SOL    HW138981   3.367   2.537   3.100  2.8087 -1.7059  1.2742
 9174SOL    HW238982   3.402   2.508   3.249 -0.2855 -2.2639 -1.8230
 9175SOL     OW38983   2.787   2.855   3.546  0.1280 -0.1688 -0.2321
 9175SOL    HW138984   2.822   2.840   3.458  0.7045 -0.2755  0.0201
 9175SOL    HW238985   2.714   2.793   3.545  0.7269 -0.8560 -0.2442
 9176SOL     OW38986   4.354   0.316  16.968  0.0256  0.3105 -0.1910
 9176SOL    HW138987   4.403   0.315  17.051 -0.9952 -1.0212  0.3954
 9176SOL    HW238988   4.428   0.310  16.908 -0.3622  1.7875 -0.8176
 9177SOL     OW38989   2.587   2.209  12.446 -0.3230  0.4294 -0.2714
 9177SOL    HW138990   2.633   2.235  12.367 -1.0260  1.3294 -0.3868
 9177SOL    HW238991   2.560   2.128  12.403 -0.9064  0.1310  0.6394
 9178SOL     OW38992   1.344   0.995   5.735  0.0951 -0.3531 -0.2401
 9178SOL    HW138993   1.331   1.006   5.640  1.6461 -0.6476 -0.4854
 9178SOL    HW238994   1.438   0.981   5.741  0.1082 -0.0980  0.1329
 9179SOL     OW38995   4.555   3.761   7.742 -0.2679  0.6011 -0.2225
 9179SOL    HW138996   4.569   3.848   7.705 -1.9681  0.2311 -1.7527
 9179SOL    HW238997   4.512   3.708   7.675  2.1373 -2.6754  0.8387
 9180SOL     OW38998   3.126   4.335  12.122 -0.4543 -0.0721 -0.2102
 9180SOL    HW138999   3.076   4.393  12.180 -0.4263  0.3046 -0.5655
 9180SOL    HW239000   3.076   4.356  12.043 -0.8684 -0.3765 -0.0300
 9181SOL     OW39001   2.225   4.394   1.595  0.2809  0.1584 -0.0003
 9181SOL    HW139002   2.216   4.299   1.587  0.9565  0.1259 -0.4095
 9181SOL    HW239003   2.198   4.411   1.505  0.5570 -0.8062 -0.2564
 9182SOL     OW39004   2.209   2.847   9.484 -0.1988  0.8055 -0.1531
 9182SOL    HW139005   2.195   2.940   9.465  0.3848  1.2104  1.4500
 9182SOL    HW239006   2.274   2.822   9.418  1.1032 -1.8426  2.1224
 9183SOL     OW39007   2.914   1.554   2.667 -0.4644  0.1395 -0.1712
 9183SOL    HW139008   2.844   1.489   2.670  1.1736 -1.6778 -1.1154
 9183SOL    HW239009   2.896   1.592   2.581 -2.1795 -1.5171 -0.5490
 9184SOL     OW39010   2.597   0.785  15.948  0.5318 -0.3105  0.0118
 9184SOL    HW139011   2.555   0.809  15.865  2.5417 -0.4722 -1.0491
 9184SOL    HW239012   2.622   0.867  15.992  1.1055 -0.8898  0.7707
 9185SOL     OW39013   2.791   2.589   3.771 -0.1326 -0.9014  0.3029
 9185SOL    HW139014   2.832   2.596   3.685  0.8750  0.6337  0.9149
 9185SOL    HW239015   2.700   2.577   3.742 -0.7715  1.0662  1.5043
 9186SOL     OW39016   1.484   1.963  15.889 -0.3441  0.1933 -0.0667
 9186SOL    HW139017   1.535   1.883  15.878 -0.0830  0.8687 -3.5989
 9186SOL    HW239018   1.534   2.020  15.830 -0.5399  0.1090 -0.3130
 9187SOL     OW39019   0.956   3.966   2.654 -1.0130  0.0724  0.2645
 9187SOL    HW139020   1.034   4.009   2.689 -1.4362  0.7876  0.3454
 9187SOL    HW239021   0.940   4.025   2.580  1.8613 -0.3162 -0.6623
 9188SOL     OW39022   1.842   3.900   3.235 -0.1732 -0.2576 -0.0595
 9188SOL    HW139023   1.895   3.977   3.253  0.4322 -0.7322  0.1784
 9188SOL    HW239024   1.778   3.923   3.302 -0.4871 -1.8083  0.1630
 9189SOL     OW39025   3.656   1.250   5.458 -0.3831 -0.3334  0.1028
 9189SOL    HW139026   3.587   1.187   5.437 -1.2768  0.5073  0.5025
 9189SOL    HW239027   3.616   1.325   5.501 -0.3576 -0.7038  0.7810
 9190SOL     OW39028   4.037   2.680   8.965 -0.3279 -0.1736  0.0493
 9190SOL    HW139029   4.124   2.673   9.005  0.5878  2.0515 -1.5216
 9190SOL    HW239030   4.060   2.680   8.872  0.5922  1.0336  0.2739
 9191SOL     OW39031   4.658   1.784   7.182 -0.0650  0.0433  0.0552
 9191SOL    HW139032   4.685   1.699   7.215  0.9195  0.3457  0.0306
 9191SOL    HW239033   4.563   1.788   7.194 -0.1212  1.3270 -0.7369
 9192SOL     OW39034   1.884   2.280  16.963 -0.2954  0.0835  0.0494
 9192SOL    HW139035   1.930   2.265  17.046  0.1160 -0.6798 -0.3177
 9192SOL    HW239036   1.942   2.248  16.894 -1.2624  1.6299 -1.4848
 9193SOL     OW39037   1.207   0.460  11.418  0.4151  0.6194  0.0769
 9193SOL    HW139038   1.240   0.512  11.344  0.1520  1.3082  0.4403
 9193SOL    HW239039   1.200   0.370  11.385 -3.5788  1.0869 -0.4098
 9194SOL     OW39040   3.596   4.079   0.339 -0.0059  0.2488  0.3640
 9194SOL    HW139041   3.541   4.057   0.414 -1.0075 -0.3272 -0.5478
 9194SOL    HW239042   3.543   4.060   0.262  1.1224 -0.1421 -0.3215
 9195SOL     OW39043   4.616   3.832   3.264  0.3198 -0.7518 -0.1086
 9195SOL    HW139044   4.709   3.818   3.279  0.3903  0.3984  0.5080
 9195SOL    HW239045   4.628   3.882   3.183  2.2706 -1.3968 -0.2215
 9196SOL     OW39046   3.034   4.212  16.877  0.1229 -0.5963  0.4564
 9196SOL    HW139047   3.035   4.295  16.925  0.4719  0.5682 -1.5305
 9196SOL    HW239048   3.107   4.218  16.815 -0.1873  1.1965  0.2642
 9197SOL     OW39049   0.306   3.275   3.892 -0.0732 -0.4813 -0.6293
 9197SOL    HW139050   0.300   3.231   3.808  2.8774  1.0131 -1.6123
 9197SOL    HW239051   0.329   3.366   3.870  2.2186 -0.3991  2.0274
 9198SOL     OW39052   2.651   0.269   9.592  0.3099  0.2608 -0.0623
 9198SOL    HW139053   2.708   0.334   9.550  2.5592 -0.6730  1.5635
 9198SOL    HW239054   2.621   0.211   9.521  1.5341  0.1956 -0.5266
 9199SOL     OW39055   2.415   0.498   1.703 -0.1795  0.0491 -0.0251
 9199SOL    HW139056   2.475   0.425   1.719 -0.8136 -0.0020  2.0558
 9199SOL    HW239057   2.460   0.540   1.630  0.5130 -0.5651  0.0435
 9200SOL     OW39058   2.747   1.290   2.720 -0.2733 -0.0515 -0.3994
 9200SOL    HW139059   2.656   1.262   2.710 -0.1087 -0.8455  0.2432
 9200SOL    HW239060   2.795   1.210   2.696 -0.1299 -0.1827  0.3383
 9201SOL     OW39061   3.109   3.993   1.030  0.0030 -0.7537 -0.2272
 9201SOL    HW139062   3.089   3.989   0.937 -0.0590 -2.7485 -0.1204
 9201SOL    HW239063   3.086   3.904   1.055 -1.4130 -0.7093 -1.4298
 9202SOL     OW39064   4.259   3.164  16.483 -0.2282  0.0835 -0.8764
 9202SOL    HW139065   4.319   3.228  16.521  0.2253 -1.4595  1.0047
 9202SOL    HW239066   4.188   3.168  16.548  1.7095 -1.7509  1.3648
 9203SOL     OW39067   3.330   4.370  13.764  0.3492 -0.6974 -0.9359
 9203SOL    HW139068   3.341   4.462  13.743 -1.0727 -0.8138 -2.1554
 9203SOL    HW239069   3.236   4.374  13.783  0.2974 -1.8734 -0.9396
 9204SOL     OW39070   2.676   0.257   6.694 -0.1775  0.4464 -0.3492
 9204SOL    HW139071   2.587   0.233   6.671 -0.2713 -0.8347  1.3163
 9204SOL    HW239072   2.679   0.349   6.667  0.3121  0.1535 -1.2950
 9205SOL     OW39073   1.840   0.014   8.070 -0.0069  0.6069 -0.0692
 9205SOL    HW139074   1.827   0.108   8.075 -0.8328  0.4648  0.4586
 9205SOL    HW239075   1.757   4.696   8.042  0.1746 -1.0922  1.7680
 9206SOL     OW39076   0.841   3.824   0.905  0.0906  0.2157  0.1059
 9206SOL    HW139077   0.807   3.735   0.899  0.1511  0.2459 -0.7113
 9206SOL    HW239078   0.862   3.836   0.812 -0.8416  1.3556  0.0445
 9207SOL     OW39079   4.477   1.836   9.563 -0.5826 -0.1962  0.4539
 9207SOL    HW139080   4.516   1.749   9.564 -2.4445 -1.0286  0.7000
 9207SOL    HW239081   4.556   1.884   9.588 -1.0736  1.0762 -0.4385
 9208SOL     OW39082   1.209   4.688  15.260 -0.2672 -0.0424 -0.2746
 9208SOL    HW139083   1.203   4.657  15.350 -0.9203  0.7777 -0.0339
 9208SOL    HW239084   1.120   4.721  15.253 -0.7592 -0.9062  1.9539
 9209SOL     OW39085   0.357   1.937   3.570  0.3227 -0.0778  0.1456
 9209SOL    HW139086   0.313   1.950   3.486  1.7305 -1.9914 -0.8986
 9209SOL    HW239087   0.287   1.957   3.631  1.2187 -0.3074  1.2379
 9210SOL     OW39088   2.106   1.801   0.206 -0.1115  1.1085  0.1175
 9210SOL    HW139089   2.172   1.737   0.179 -0.0735  1.6157 -1.0118
 9210SOL    HW239090   2.126   1.808   0.299 -1.5823 -0.7180  0.5791
 9211SOL     OW39091   3.156   4.013  14.221  0.5704  0.5390  0.4705
 9211SOL    HW139092   3.209   4.034  14.144  0.7204 -1.3725  0.0585
 9211SOL    HW239093   3.065   4.022  14.193  1.0647  2.2479 -0.5906
 9212SOL     OW39094   3.803   3.053  15.114 -0.0477  0.0312  0.0651
 9212SOL    HW139095   3.837   3.072  15.027  1.9107  1.2141  1.1012
 9212SOL    HW239096   3.860   2.978  15.133  0.3733  0.1965 -0.5440
 9213SOL     OW39097   4.171   3.199   9.968  0.5467  0.2280 -0.1803
 9213SOL    HW139098   4.204   3.226   9.882  1.4878  0.3330  0.2151
 9213SOL    HW239099   4.244   3.141   9.988 -0.0465 -1.2080 -2.1231
 9214SOL     OW39100   0.437   0.541   6.086 -0.0987  0.6118  0.6482
 9214SOL    HW139101   0.450   0.589   6.168 -0.2104  0.4019  0.7902
 9214SOL    HW239102   0.367   0.596   6.051  0.8246 -0.7604 -3.2515
 9215SOL     OW39103   3.140   3.183  17.559 -0.2817  0.7473  0.1617
 9215SOL    HW139104   3.104   3.251  17.615  1.0958  1.6538 -0.0610
 9215SOL    HW239105   3.218   3.153  17.606  0.6229  0.8021 -1.2847
 9216SOL     OW39106   3.124   1.811   8.364  0.2865 -0.1597 -0.0993
 9216SOL    HW139107   3.149   1.747   8.297 -0.4410 -0.1631 -0.3699
 9216SOL    HW239108   3.101   1.739   8.423 -1.0804  0.5657  0.2505
 9217SOL     OW39109   2.804   0.723  12.941 -0.4632 -0.1965 -0.2366
 9217SOL    HW139110   2.824   0.775  13.019  2.3615  0.0171 -1.1033
 9217SOL    HW239111   2.885   0.673  12.940  0.2633  0.9717  0.2729
 9218SOL     OW39112   0.890   1.385   7.801 -1.1670  0.5211 -0.1092
 9218SOL    HW139113   0.923   1.460   7.751 -0.6553  1.4840  1.6450
 9218SOL    HW239114   0.855   1.423   7.882 -0.8550  1.2893 -0.3347
 9219SOL     OW39115   2.966   0.759   3.289 -0.3477  0.1450 -0.5961
 9219SOL    HW139116   3.029   0.712   3.235  0.8206 -0.2895  1.1212
 9219SOL    HW239117   2.997   0.739   3.378  1.8701 -0.6450 -1.5399
 9220SOL     OW39118   4.371   4.530   3.685  0.1632 -0.0529 -0.1291
 9220SOL    HW139119   4.342   4.537   3.594 -0.7895  0.2919  0.2029
 9220SOL    HW239120   4.451   4.580   3.701 -0.3305  0.3596  1.0507
 9221SOL     OW39121   0.945   0.814  12.564  0.5969 -0.0427  0.2232
 9221SOL    HW139122   0.983   0.901  12.579  1.4459 -0.1474 -1.3643
 9221SOL    HW239123   1.001   0.757  12.617  1.0375 -1.1739 -1.4801
 9222SOL     OW39124   1.191   4.312   8.827  0.2998 -0.8574  0.4952
 9222SOL    HW139125   1.284   4.291   8.812  0.6617  0.9931  0.1354
 9222SOL    HW239126   1.198   4.400   8.864 -2.0096 -1.1216  1.5736
 9223SOL     OW39127   3.629   3.446  15.411 -0.2834  0.5101  0.4315
 9223SOL    HW139128   3.697   3.484  15.465 -0.1903 -0.0256  0.6955
 9223SOL    HW239129   3.676   3.427  15.330  0.0101  1.3349  0.4127
 9224SOL     OW39130   0.303   2.166   4.085 -0.0070  0.4071  0.3411
 9224SOL    HW139131   0.289   2.259   4.100 -2.3284 -0.0044  0.6615
 9224SOL    HW239132   0.242   2.124   4.146  1.3299 -2.6629 -0.4431
 9225SOL     OW39133   2.891   0.062   1.449 -0.0960  0.4838 -0.3659
 9225SOL    HW139134   2.952   4.712   1.464 -2.1437 -1.9665 -3.7307
 9225SOL    HW239135   2.874   0.047   1.356  0.4559  0.2375 -0.4254
 9226SOL     OW39136   1.043   1.179  11.151 -0.5914  0.3178 -0.2920
 9226SOL    HW139137   1.001   1.199  11.068 -0.8767 -1.4335 -0.5661
 9226SOL    HW239138   1.125   1.227  11.139 -0.8264  0.2322 -2.1900
 9227SOL     OW39139   3.736   4.185  12.701 -0.1470  0.4586 -0.1229
 9227SOL    HW139140   3.650   4.145  12.685  0.1285 -0.6792  1.2966
 9227SOL    HW239141   3.799   4.116  12.680 -1.3307 -0.8772  0.7410
 9228SOL     OW39142   1.423   1.523  10.964  0.1909 -0.1052 -0.0647
 9228SOL    HW139143   1.352   1.496  10.905 -0.2810  0.7654  0.1068
 9228SOL    HW239144   1.379   1.591  11.014 -0.0060  0.4933 -1.0424
 9229SOL     OW39145   0.587   4.563  16.363 -0.0748 -0.2505 -0.4775
 9229SOL    HW139146   0.534   4.586  16.287 -1.2545 -2.0941 -0.1877
 9229SOL    HW239147   0.517   4.563  16.428  0.5222  0.6511  0.1668
 9230SOL     OW39148   2.965   2.179   4.759 -0.1343  0.0992  1.0212
 9230SOL    HW139149   3.017   2.105   4.791 -2.6356 -2.6503 -1.2392
 9230SOL    HW239150   2.894   2.169   4.822 -0.4382 -2.5986  0.2240
 9231SOL     OW39151   4.013   2.180   5.074  0.3290  0.3670 -0.1920
 9231SOL    HW139152   4.019   2.085   5.085  2.5090  0.6595  1.2767
 9231SOL    HW239153   4.074   2.219   5.137  0.0942 -1.1325  0.9709
 9232SOL     OW39154   4.333   2.748   9.041 -0.2086 -0.0516  0.0331
 9232SOL    HW139155   4.406   2.709   8.993 -0.9107  1.5307 -2.2937
 9232SOL    HW239156   4.368   2.837   9.050  1.5106 -0.4588 -2.8018
 9233SOL     OW39157   3.392   3.702  13.513 -0.0831  0.4344 -0.5127
 9233SOL    HW139158   3.430   3.626  13.469  0.4062  1.9632 -2.7017
 9233SOL    HW239159   3.457   3.724  13.580  0.4551 -1.5597 -0.3679
 9234SOL     OW39160   3.972   3.271   8.693 -0.9676 -0.2933 -0.2011
 9234SOL    HW139161   4.025   3.343   8.726 -0.1281 -0.4428 -1.2511
 9234SOL    HW239162   4.002   3.271   8.602  0.0609 -1.5450  0.1546
 9235SOL     OW39163   2.082   0.539   6.357  0.2357 -0.2986  0.0040
 9235SOL    HW139164   2.001   0.555   6.309  1.9960  2.0065 -2.1642
 9235SOL    HW239165   2.068   0.588   6.438 -1.1360 -1.9521  0.7566
 9236SOL     OW39166   3.385   1.782  15.140 -0.2581  0.1283  0.3879
 9236SOL    HW139167   3.383   1.710  15.077 -0.2168 -1.1202  1.8083
 9236SOL    HW239168   3.409   1.857  15.085 -1.1179  0.2188  0.1334
 9237SOL     OW39169   0.692   0.965  13.399 -0.2706 -0.0661 -0.0110
 9237SOL    HW139170   0.732   0.896  13.453  0.5088 -0.8720 -1.6163
 9237SOL    HW239171   0.696   0.929  13.311 -0.4806  1.5124 -0.6572
 9238SOL     OW39172   0.455   0.939   6.184 -0.1193 -0.1364  0.2266
 9238SOL    HW139173   0.423   1.028   6.169 -1.4458 -1.1081 -2.8175
 9238SOL    HW239174   0.376   0.893   6.157 -1.0292  1.0000  1.0004
 9239SOL     OW39175   4.573   3.577  11.056 -0.0162 -0.1390 -0.8195
 9239SOL    HW139176   4.607   3.660  11.022  1.6343 -0.1569  0.8409
 9239SOL    HW239177   4.514   3.606  11.126  1.9896  0.0925  0.7753
 9240SOL     OW39178   1.696   3.887  12.071  0.0372 -0.4404  0.0425
 9240SOL    HW139179   1.641   3.856  11.999 -1.8442 -2.4718  2.3610
 9240SOL    HW239180   1.627   3.925  12.125  0.1048  0.5954 -0.5960
 9241SOL     OW39181   2.540   0.598  12.956  0.4845  0.1273  0.3803
 9241SOL    HW139182   2.498   0.625  13.038 -1.3932 -2.2267  0.1805
 9241SOL    HW239183   2.632   0.611  12.977 -0.0298  4.0830  0.2439
 9242SOL     OW39184   2.033   2.101   1.061  0.4785 -0.1120 -1.1850
 9242SOL    HW139185   1.981   2.087   1.139  3.0860 -1.1626  0.3779
 9242SOL    HW239186   2.076   2.020   1.035 -1.1776 -1.2349 -0.3679
 9243SOL     OW39187   1.627   0.498   6.746 -0.0093 -0.0969 -0.1795
 9243SOL    HW139188   1.598   0.588   6.757 -2.5380 -0.6827 -2.1255
 9243SOL    HW239189   1.539   0.462   6.740  0.4032 -1.5321  2.5556
 9244SOL     OW39190   3.433   0.566   2.240  0.3548  0.0726 -0.3822
 9244SOL    HW139191   3.378   0.494   2.208  0.8312 -0.1509 -0.6932
 9244SOL    HW239192   3.439   0.537   2.331 -1.8043  0.6320 -0.0515
 9245SOL     OW39193   2.391   2.669  13.262 -0.5222  0.0237  0.1482
 9245SOL    HW139194   2.464   2.722  13.229 -0.3856  0.5872  1.3688
 9245SOL    HW239195   2.315   2.726  13.256  0.3566  1.2400  0.5599
 9246SOL     OW39196   0.353   2.410   7.123 -0.1046  0.1222  0.6864
 9246SOL    HW139197   0.416   2.351   7.164  0.6497  0.3735 -0.1162
 9246SOL    HW239198   0.412   2.485   7.113  0.3724 -0.5309 -1.2288
 9247SOL     OW39199   4.415   0.165   3.531  0.3149 -0.2460  0.8189
 9247SOL    HW139200   4.501   0.133   3.503 -0.4208 -1.9750  0.5667
 9247SOL    HW239201   4.441   0.252   3.562  0.8043  0.3288 -1.1996
 9248SOL     OW39202   4.112   1.180   8.546  0.1176  0.5661  0.4386
 9248SOL    HW139203   4.187   1.240   8.541  0.0539  0.4882 -1.7207
 9248SOL    HW239204   4.033   1.230   8.527 -0.5368 -0.9408 -0.8114
 9249SOL     OW39205   2.404   3.385   6.884 -0.5693  0.7038  0.3574
 9249SOL    HW139206   2.493   3.357   6.906 -0.5610  0.9187  0.5979
 9249SOL    HW239207   2.397   3.468   6.931  1.4714  1.8131 -1.2483
 9250SOL     OW39208   3.985   0.251   9.727  0.0137  0.2942 -0.5387
 9250SOL    HW139209   4.026   0.306   9.660 -1.4485  0.8989 -0.9457
 9250SOL    HW239210   3.989   0.160   9.699  0.6968  0.0509  0.3448
 9251SOL     OW39211   0.788   3.601   3.703 -0.1455 -0.1088  0.1590
 9251SOL    HW139212   0.883   3.607   3.697 -0.0270 -0.8073  1.3062
 9251SOL    HW239213   0.779   3.511   3.734 -0.0996 -1.1209 -2.7958
 9252SOL     OW39214   0.024   2.017  11.416  0.4757 -0.4165 -0.0487
 9252SOL    HW139215   0.024   1.922  11.428  2.2345 -0.2785  1.0729
 9252SOL    HW239216   0.117   2.036  11.402  0.0706 -0.1432 -2.4148
 9253SOL     OW39217   3.248   2.804   8.955 -0.4922 -0.0999  0.6529
 9253SOL    HW139218   3.159   2.834   8.933  0.0892 -0.0544 -1.6644
 9253SOL    HW239219   3.234   2.716   8.988 -0.3664 -0.4490 -0.2340
 9254SOL     OW39220   3.122   0.771  16.930 -0.1744  0.5696 -0.2088
 9254SOL    HW139221   3.188   0.837  16.907 -0.5425  0.2028 -2.2440
 9254SOL    HW239222   3.064   0.784  16.856 -0.5503 -1.5512 -0.2910
 9255SOL     OW39223   1.551   0.778   3.783  0.2772  0.5859 -0.0052
 9255SOL    HW139224   1.577   0.780   3.875  0.8573  0.7821 -0.1734
 9255SOL    HW239225   1.468   0.731   3.793 -0.3289  1.7504  0.4114
 9256SOL     OW39226   2.627   3.310   2.407 -0.5739 -0.3137 -0.0414
 9256SOL    HW139227   2.573   3.231   2.405 -1.0428  0.0309 -0.8342
 9256SOL    HW239228   2.565   3.371   2.368 -0.0076  1.3251  1.6381
 9257SOL     OW39229   1.158   1.788   8.087 -0.1965 -0.4009 -0.0493
 9257SOL    HW139230   1.065   1.773   8.104  0.0620 -2.0921 -0.1323
 9257SOL    HW239231   1.199   1.733   8.154  2.7227  0.6644 -0.9278
 9258SOL     OW39232   3.603   1.539  14.297  0.2924 -0.4280 -0.7355
 9258SOL    HW139233   3.690   1.499  14.293 -0.7245 -2.8275  1.5011
 9258SOL    HW239234   3.544   1.471  14.264  1.6346 -1.1622 -1.5920
 9259SOL     OW39235   1.589   3.216  10.552 -0.5346 -0.1162 -0.7501
 9259SOL    HW139236   1.579   3.123  10.572 -1.5151  0.6175  2.2046
 9259SOL    HW239237   1.612   3.218  10.459  0.7062 -2.3947 -0.4873
 9260SOL     OW39238   2.288   1.638   3.539  0.0648  0.1252  0.1717
 9260SOL    HW139239   2.313   1.702   3.606 -2.9669  3.7925 -2.1598
 9260SOL    HW239240   2.224   1.688   3.489 -0.4828 -2.5846 -1.8408
 9261SOL     OW39241   2.007   4.622   5.075  0.7291  0.3971  0.2165
 9261SOL    HW139242   2.018   4.528   5.061  3.1022  1.1279 -2.5852
 9261SOL    HW239243   1.934   4.638   5.015  1.8132  2.1675 -0.6241
 9262SOL     OW39244   0.512   4.172   4.725 -0.8025 -0.1710 -0.2783
 9262SOL    HW139245   0.473   4.240   4.669  2.0988  1.6781 -0.0577
 9262SOL    HW239246   0.495   4.206   4.813 -2.1618  0.9714 -0.9835
 9263SOL     OW39247   0.985   3.483   4.968 -0.2684 -0.2379  0.2938
 9263SOL    HW139248   1.043   3.408   4.959  0.8814  0.6860 -0.0017
 9263SOL    HW239249   1.026   3.510   5.050 -0.0776 -0.1125  0.1559
 9264SOL     OW39250   4.471   1.334  15.008 -0.6898  0.1314 -0.1212
 9264SOL    HW139251   4.548   1.310  14.957 -1.3265  1.6099 -1.7631
 9264SOL    HW239252   4.463   1.428  14.992 -0.0258 -0.0524 -1.5454
 9265SOL     OW39253   4.409   3.767  17.646  0.1326  0.0104  0.0796
 9265SOL    HW139254   4.318   3.794  17.652 -0.5649 -1.8753 -1.9719
 9265SOL    HW239255   4.455   3.819  17.580  2.8825 -0.2367  1.7827
 9266SOL     OW39256   1.662   0.053   8.417  0.0844 -0.0069 -0.1522
 9266SOL    HW139257   1.631   0.092   8.499 -3.9656 -3.1668 -0.1817
 9266SOL    HW239258   1.688   4.689   8.450  1.2264  0.2702 -0.3236
 9267SOL     OW39259   2.483   4.155   2.517 -0.4176  0.7484  0.0924
 9267SOL    HW139260   2.548   4.099   2.476 -1.9580 -0.7370 -0.3443
 9267SOL    HW239261   2.473   4.226   2.453 -0.0678 -1.5320 -2.4851
 9268SOL     OW39262   3.468   3.085   6.184  0.0593  0.5948  0.1031
 9268SOL    HW139263   3.529   3.128   6.244  0.6500  1.0197 -0.7975
 9268SOL    HW239264   3.528   3.014   6.158  0.4401  1.6264 -1.8550
 9269SOL     OW39265   3.648   2.306   9.830 -0.1518 -0.6351  0.1251
 9269SOL    HW139266   3.732   2.345   9.808 -0.1084  0.2484  1.9427
 9269SOL    HW239267   3.663   2.267   9.916  0.7408 -2.8540 -1.0132
 9270SOL     OW39268   0.949   3.324  16.509  0.0433  0.1835 -0.5509
 9270SOL    HW139269   0.928   3.340  16.601  1.5764 -0.6141 -0.0672
 9270SOL    HW239270   0.863   3.351  16.476 -1.2724 -1.6158  1.3740
 9271SOL     OW39271   2.020   1.004   3.104 -0.3990  0.1087  0.0196
 9271SOL    HW139272   2.065   1.068   3.048 -1.5049  0.1931 -0.7766
 9271SOL    HW239273   2.057   0.924   3.067  2.6946  0.7597  1.6688
 9272SOL     OW39274   4.322   0.406   2.225 -0.1295  0.4071 -0.5526
 9272SOL    HW139275   4.388   0.475   2.233 -1.2957  1.4633 -0.0958
 9272SOL    HW239276   4.374   0.326   2.227  2.7307  2.3073  0.4055
 9273SOL     OW39277   0.858   1.852  12.874  0.0199  0.4261 -0.3979
 9273SOL    HW139278   0.799   1.916  12.913  2.0733  1.9159  0.2725
 9273SOL    HW239279   0.924   1.845  12.943  0.2123 -0.4182 -0.6736
 9274SOL     OW39280   0.920   0.581   9.167 -0.5744 -0.0909 -0.2064
 9274SOL    HW139281   0.863   0.553   9.095  2.5202 -1.2937 -2.1986
 9274SOL    HW239282   0.877   0.666   9.178 -1.4338 -0.5315 -0.1127
 9275SOL     OW39283   4.673   3.156   2.295 -0.1162 -0.3248  0.0321
 9275SOL    HW139284   4.632   3.074   2.322 -2.0462  0.9507  0.9463
 9275SOL    HW239285   4.690   3.133   2.204  2.1987  0.5095  0.2435
 9276SOL     OW39286   2.872   0.078  13.448  0.4353 -0.0283  0.5655
 9276SOL    HW139287   2.797   0.020  13.435  0.2639  0.6177 -1.3484
 9276SOL    HW239288   2.921   0.023  13.509  3.2884  2.3243  0.4055
 9277SOL     OW39289   4.669   4.337   7.883 -0.2980 -0.6653  0.5481
 9277SOL    HW139290   4.640   4.370   7.968  0.1573  3.8206 -1.0588
 9277SOL    HW239291   4.626   4.392   7.818  1.9740  0.8831  0.3350
 9278SOL     OW39292   0.120   2.555   2.917  0.1430  0.2019 -0.6947
 9278SOL    HW139293   0.185   2.608   2.965  2.1769 -2.7556 -0.1775
 9278SOL    HW239294   0.066   2.513   2.984  1.8238 -1.3521 -0.2979
 9279SOL     OW39295   3.059   1.172   6.052 -0.0818  0.2776 -0.0479
 9279SOL    HW139296   3.051   1.230   5.976 -1.4818  0.6368  0.3823
 9279SOL    HW239297   2.965   1.156   6.062 -0.0394  0.4369  0.5593
 9280SOL     OW39298   0.102   1.619   2.873  0.1139  0.1598  0.3587
 9280SOL    HW139299   0.022   1.641   2.827 -1.0538 -1.4755  1.5839
 9280SOL    HW239300   0.111   1.699   2.924  3.0943  0.3113 -0.3935
 9281SOL     OW39301   3.723   4.292   0.721 -0.1605  0.5163 -0.6221
 9281SOL    HW139302   3.777   4.257   0.650 -0.2096 -1.8086  0.4925
 9281SOL    HW239303   3.649   4.321   0.668  1.6667  0.4911 -3.2176
 9282SOL     OW39304   4.301   3.783   1.514 -0.6049 -0.0240  0.4290
 9282SOL    HW139305   4.268   3.831   1.438  0.7143 -0.1983 -0.2474
 9282SOL    HW239306   4.234   3.716   1.528 -1.5299  0.9219  0.5642
 9283SOL     OW39307   0.667   0.020   6.229 -0.5092 -0.2658 -0.0363
 9283SOL    HW139308   0.635   0.073   6.303 -0.8084  0.8503 -0.9634
 9283SOL    HW239309   0.698   4.660   6.266  1.9980  0.2975 -0.9333
 9284SOL     OW39310   0.479   3.548   9.046  0.1572 -0.1421  0.0983
 9284SOL    HW139311   0.386   3.538   9.024 -0.1703 -1.8050  2.3120
 9284SOL    HW239312   0.490   3.638   9.015 -2.0470 -0.6116 -2.0757
 9285SOL     OW39313   3.526   4.193   7.792 -0.0728 -0.2079 -0.0732
 9285SOL    HW139314   3.524   4.247   7.713 -0.5692  1.4455  1.0768
 9285SOL    HW239315   3.530   4.255   7.865  0.4077  0.2099 -0.4592
 9286SOL     OW39316   2.600   4.263   4.956  0.4953 -0.0766  0.0862
 9286SOL    HW139317   2.523   4.268   4.899 -0.5990 -0.4213  1.5455
 9286SOL    HW239318   2.625   4.171   4.948 -1.8020 -0.5199 -1.7938
 9287SOL     OW39319   2.526   2.180   5.240 -0.2791 -0.3952  0.4265
 9287SOL    HW139320   2.598   2.211   5.185  0.3074  0.4540  1.6624
 9287SOL    HW239321   2.584   2.146   5.308  0.2092  0.4400  0.4319
 9288SOL     OW39322   4.056   1.504  15.248  0.4099  0.2031 -0.9287
 9288SOL    HW139323   4.072   1.514  15.154 -2.4693 -0.2642 -1.4571
 9288SOL    HW239324   3.997   1.576  15.268 -1.5899 -2.1939  1.8312
 9289SOL     OW39325   2.760   3.439  11.322 -0.5385 -0.3252 -0.0370
 9289SOL    HW139326   2.702   3.371  11.289  0.5961 -1.7037  0.8498
 9289SOL    HW239327   2.690   3.497  11.353  2.1904  3.3048 -0.6733
 9290SOL     OW39328   1.976   1.553   8.107 -0.0670  0.3957  0.3242
 9290SOL    HW139329   1.990   1.646   8.087 -0.5919  0.5617  0.7263
 9290SOL    HW239330   1.957   1.566   8.200  1.7646  1.4949  0.5579
 9291SOL     OW39331   3.113   1.011   4.803 -0.1550  1.1022 -0.2931
 9291SOL    HW139332   3.056   1.034   4.876  1.0361  0.1757  0.9380
 9291SOL    HW239333   3.052   0.992   4.731 -0.8760 -1.3189  0.9566
 9292SOL     OW39334   2.251   2.017  17.223 -0.8930  0.2530  0.3249
 9292SOL    HW139335   2.324   2.067  17.261  1.7124 -3.0345 -0.2740
 9292SOL    HW239336   2.205   1.988  17.302 -0.3886 -0.1196  0.4820
 9293SOL     OW39337   3.277   0.706   6.111 -0.0678  0.7098 -0.2332
 9293SOL    HW139338   3.288   0.797   6.137 -0.5289  0.5162  0.6389
 9293SOL    HW239339   3.368   0.681   6.129 -0.3561 -1.3143 -1.6095
 9294SOL     OW39340   1.016   2.265  11.378  0.7378 -0.0583 -0.2129
 9294SOL    HW139341   1.106   2.254  11.345 -0.1611  0.8461 -2.9199
 9294SOL    HW239342   0.967   2.235  11.302 -0.3400  0.7340  0.1746
 9295SOL     OW39343   4.499   0.019   5.557  0.8632  0.1054  0.2390
 9295SOL    HW139344   4.552   0.097   5.568  1.3127 -0.4140  1.6911
 9295SOL    HW239345   4.416   0.054   5.525  0.9866 -0.2260 -0.4675
 9296SOL     OW39346   2.856   3.968   2.604 -0.4621 -0.3912 -0.7243
 9296SOL    HW139347   2.860   3.907   2.530 -1.8316 -1.6667  0.2522
 9296SOL    HW239348   2.893   4.049   2.568  1.1461 -1.2903 -1.1148
 9297SOL     OW39349   2.550   4.552  17.418  0.3058  0.1995  0.2423
 9297SOL    HW139350   2.538   4.461  17.444  1.3247 -0.2590 -0.8711
 9297SOL    HW239351   2.546   4.600  17.500  1.1873  0.7328 -0.0206
 9298SOL     OW39352   3.924   2.049   5.812 -0.0759 -0.4622 -0.6203
 9298SOL    HW139353   3.907   1.979   5.876 -1.2023  0.8964  0.5603
 9298SOL    HW239354   3.840   2.037   5.768 -0.6328  2.3297 -0.3174
 9299SOL     OW39355   0.518   2.254   4.450 -0.0113  0.1465 -0.3209
 9299SOL    HW139356   0.512   2.310   4.372  1.9694  2.3345  1.0816
 9299SOL    HW239357   0.429   2.221   4.449  0.5725 -1.4743  2.2688
 9300SOL     OW39358   3.019   1.089  14.579  0.0707 -0.4202 -0.1498
 9300SOL    HW139359   3.033   1.002  14.615  3.2059 -0.3534 -1.1782
 9300SOL    HW239360   2.941   1.076  14.524 -0.1588  0.2642  0.0039
 9301SOL     OW39361   3.204   2.070   2.504  0.7461 -0.1423 -0.2125
 9301SOL    HW139362   3.147   2.148   2.500  1.3734  0.3056 -0.4627
 9301SOL    HW239363   3.244   2.056   2.418 -0.0258  0.3396 -0.6536
 9302SOL     OW39364   4.308   2.577   0.610  0.1104  0.2484  0.0099
 9302SOL    HW139365   4.281   2.497   0.655 -0.4461 -1.0911 -2.7005
 9302SOL    HW239366   4.281   2.553   0.521  2.0182  2.1601 -1.0859
 9303SOL     OW39367   0.072   1.609  14.877  0.2179 -0.4470 -0.0706
 9303SOL    HW139368   0.093   1.574  14.790  0.3098  1.3279 -0.7535
 9303SOL    HW239369   0.056   1.699  14.851 -1.2341 -1.0490 -1.2677
 9304SOL     OW39370   4.186   0.322   1.308 -0.3654  1.0614 -0.5913
 9304SOL    HW139371   4.118   0.375   1.349 -0.6858  0.5463 -0.4664
 9304SOL    HW239372   4.266   0.358   1.348 -0.9711 -0.9307  2.3741
 9305SOL     OW39373   3.430   3.119  10.314 -0.1953  0.7413 -0.0690
 9305SOL    HW139374   3.480   3.200  10.322  0.0687  0.4879  0.7728
 9305SOL    HW239375   3.388   3.108  10.399  1.9524  0.4245  0.9289
 9306SOL     OW39376   2.043   3.279   5.250  0.1731  0.1733  0.0590
 9306SOL    HW139377   1.974   3.259   5.314  1.6250 -2.5309  0.7813
 9306SOL    HW239378   2.070   3.190   5.225 -0.4329 -0.1094  0.4058
 9307SOL     OW39379   3.149   2.100  10.918 -0.1696  0.4117  0.1343
 9307SOL    HW139380   3.126   2.190  10.941 -1.2779 -0.0631  0.8719
 9307SOL    HW239381   3.063   2.077  10.882 -0.4739  1.7303  0.0239
 9308SOL     OW39382   2.827   1.213   3.944 -0.0161  0.5441 -0.6990
 9308SOL    HW139383   2.873   1.287   3.905  2.3148 -0.6067 -0.1129
 9308SOL    HW239384   2.743   1.207   3.898  1.1839 -1.4192 -2.6254
 9309SOL     OW39385   2.352   2.822  17.191  0.1641 -0.0693  0.1081
 9309SOL    HW139386   2.423   2.829  17.255 -1.2674  0.0326  1.7122
 9309SOL    HW239387   2.283   2.851  17.250  1.1550 -1.4552  1.9642
 9310SOL     OW39388   4.136   0.421   6.280  0.1965  0.0412 -0.0675
 9310SOL    HW139389   4.092   0.396   6.199 -0.5908 -0.6890  0.5789
 9310SOL    HW239390   4.123   0.343   6.335 -2.0509 -0.1228 -0.8420
 9311SOL     OW39391   1.647   4.260   2.620 -0.2111 -0.0061 -0.3745
 9311SOL    HW139392   1.670   4.187   2.562  2.3133 -1.4548  2.4271
 9311SOL    HW239393   1.737   4.293   2.627 -0.8169  1.1138  2.3647
 9312SOL     OW39394   2.748   2.111  15.207 -0.5934 -0.3434  0.1810
 9312SOL    HW139395   2.701   2.193  15.194 -1.7044 -0.8324  1.1074
 9312SOL    HW239396   2.703   2.093  15.289 -0.6710  0.0595  0.2288
 9313SOL     OW39397   2.796   1.041  14.454  0.1801  0.6149  0.2854
 9313SOL    HW139398   2.744   1.122  14.460  0.2796  0.7024 -0.0340
 9313SOL    HW239399   2.722   0.982  14.442  0.9175 -0.0893 -0.7802
 9314SOL     OW39400   4.250   2.895   9.543 -0.4908  0.3393  0.4919
 9314SOL    HW139401   4.281   2.924   9.629 -2.6497 -0.5005  1.5537
 9314SOL    HW239402   4.280   2.965   9.485 -0.4052  1.4261  1.8240
 9315SOL     OW39403   1.667   3.343  10.779 -0.1367  0.7009 -0.3439
 9315SOL    HW139404   1.640   3.298  10.699  2.2146 -0.5758 -0.4244
 9315SOL    HW239405   1.628   3.285  10.844 -0.3903 -0.0981 -1.2033
 9316SOL     OW39406   1.817   3.702   7.325  0.4480  0.3785 -0.7390
 9316SOL    HW139407   1.857   3.780   7.364  1.0688  0.4085 -1.4309
 9316SOL    HW239408   1.866   3.696   7.243  3.0763  0.9786  0.7864
 9317SOL     OW39409   1.435   0.063  13.309  0.2100  0.5193 -0.0002
 9317SOL    HW139410   1.474   4.716  13.255 -2.5701 -0.9071 -0.2155
 9317SOL    HW239411   1.399   0.026  13.390  0.0029 -0.5576 -0.5842
 9318SOL     OW39412   1.345   1.422   8.273 -0.8772 -0.2338  0.4272
 9318SOL    HW139413   1.375   1.485   8.207 -0.1588 -1.2926 -0.2426
 9318SOL    HW239414   1.429   1.378   8.289 -0.3424  0.0752 -1.5143
 9319SOL     OW39415   2.372   2.222   2.493  0.4029  0.3598 -0.4328
 9319SOL    HW139416   2.427   2.143   2.491 -1.3735 -0.8596 -0.7268
 9319SOL    HW239417   2.299   2.196   2.438  0.8462 -1.8495  0.0321
 9320SOL     OW39418   1.073   3.567  16.416 -0.0387  0.2623  0.1259
 9320SOL    HW139419   1.024   3.489  16.441  1.3896 -0.3397  1.0495
 9320SOL    HW239420   1.009   3.637  16.432  3.3297  2.4576  3.7474
 9321SOL     OW39421   3.226   1.570   9.055 -0.0378 -0.4444  0.0549
 9321SOL    HW139422   3.239   1.477   9.077  0.9726 -0.5970 -1.1849
 9321SOL    HW239423   3.310   1.611   9.035 -0.4784  0.2653 -0.3384
 9322SOL     OW39424   2.698   1.784   3.260  0.2407  0.0982  0.3439
 9322SOL    HW139425   2.656   1.794   3.346  0.1123 -0.2837  0.3235
 9322SOL    HW239426   2.785   1.820   3.278  0.0037  0.4745  0.7629
 9323SOL     OW39427   4.419   3.311   5.040 -0.0786 -0.3552  0.0113
 9323SOL    HW139428   4.497   3.357   5.009 -0.1202 -0.8027 -0.7562
 9323SOL    HW239429   4.435   3.323   5.134  0.2158 -2.0563  0.1704
 9324SOL     OW39430   2.146   2.838  14.182  0.2550 -0.7272  0.0423
 9324SOL    HW139431   2.074   2.849  14.244 -0.3497 -0.1674 -0.7755
 9324SOL    HW239432   2.222   2.823  14.239  1.6574 -1.4003 -2.0203
 9325SOL     OW39433   3.712   2.731   3.903 -0.2149 -0.1369  0.4222
 9325SOL    HW139434   3.728   2.742   3.809  2.7238 -0.4865  0.8667
 9325SOL    HW239435   3.789   2.759   3.952  0.3984 -3.9346  1.6573
 9326SOL     OW39436   1.990   1.302   8.437  0.0604 -0.1484 -0.0962
 9326SOL    HW139437   2.079   1.278   8.412 -0.1545  0.6668 -1.6467
 9326SOL    HW239438   1.953   1.216   8.417 -1.1086  0.5222 -0.7905
 9327SOL     OW39439   2.635   3.166   0.545 -0.2363  0.8335  0.1254
 9327SOL    HW139440   2.633   3.101   0.616 -1.2334  1.4940  0.6934
 9327SOL    HW239441   2.730   3.164   0.532 -0.2914 -0.0062 -0.2024
 9328SOL     OW39442   1.439   0.715   1.930  0.3629  0.1654  0.5463
 9328SOL    HW139443   1.356   0.755   1.955 -0.6294  0.1569 -2.7933
 9328SOL    HW239444   1.469   0.762   1.853 -0.6915  2.2682  1.4322
 9329SOL     OW39445   1.553   3.894   2.509 -0.2139  0.5074 -0.4832
 9329SOL    HW139446   1.523   3.804   2.525  0.3185  0.8182  2.1359
 9329SOL    HW239447   1.615   3.867   2.442 -1.0482 -0.1989 -0.9807
 9330SOL     OW39448   3.478   3.983  12.174 -0.2400  0.0346  0.2421
 9330SOL    HW139449   3.423   3.906  12.188  0.0923 -0.2777 -0.1810
 9330SOL    HW239450   3.422   4.052  12.210 -1.1202  0.7007 -2.4185
 9331SOL     OW39451   4.093   3.994   3.195 -0.3935  0.2659 -0.1923
 9331SOL    HW139452   4.166   3.992   3.133 -1.9483 -1.4864 -1.9927
 9331SOL    HW239453   4.146   4.022   3.269 -2.3893  1.6586  0.6829
 9332SOL     OW39454   3.621   0.953   8.736  0.0077  0.1073 -0.0408
 9332SOL    HW139455   3.654   0.931   8.823  0.1817 -0.2514 -0.1950
 9332SOL    HW239456   3.673   1.031   8.718 -2.5712  1.9150  0.4698
 9333SOL     OW39457   2.372   0.600   3.861 -0.5104  0.3278  0.0527
 9333SOL    HW139458   2.339   0.581   3.773  0.0855 -1.1795  0.1531
 9333SOL    HW239459   2.291   0.606   3.911 -1.0891  0.4243 -0.9136
 9334SOL     OW39460   0.141   4.584   7.786 -0.1525  0.3898 -0.6286
 9334SOL    HW139461   0.209   4.626   7.839 -0.4944 -0.4162  0.4331
 9334SOL    HW239462   0.158   4.492   7.804  1.0880  0.8068  0.3386
 9335SOL     OW39463   1.233   0.617   7.047  0.0549 -0.7469  0.0731
 9335SOL    HW139464   1.276   0.533   7.063  0.7534 -0.1512  1.2769
 9335SOL    HW239465   1.198   0.625   7.135 -0.4563  0.8944 -0.2671
 9336SOL     OW39466   3.604   3.561  13.798 -0.2923  0.4426  0.4953
 9336SOL    HW139467   3.552   3.566  13.878  0.7214  2.4999  1.0355
 9336SOL    HW239468   3.692   3.550  13.835 -0.1717 -0.5024 -0.0802
 9337SOL     OW39469   3.337   3.967  14.945  0.4251 -0.7914 -0.1728
 9337SOL    HW139470   3.352   4.060  14.960 -0.0710 -0.6446 -0.5851
 9337SOL    HW239471   3.273   3.941  15.011  0.6260 -2.8681 -0.7820
 9338SOL     OW39472   3.521   4.439  13.477  0.0917 -0.3045  0.9972
 9338SOL    HW139473   3.497   4.494  13.551 -1.2334  0.3728  0.0683
 9338SOL    HW239474   3.500   4.356  13.519 -2.2238  0.0892  0.6230
 9339SOL     OW39475   2.707   2.622   4.172  0.1758 -0.0407  0.1514
 9339SOL    HW139476   2.655   2.615   4.252 -0.8400 -1.3226 -0.6242
 9339SOL    HW239477   2.766   2.548   4.186 -1.1337 -0.9039  1.0754
 9340SOL     OW39478   3.765   4.154   6.096 -0.3656 -0.4116  0.3629
 9340SOL    HW139479   3.833   4.201   6.049  0.3332 -0.1335  1.6382
 9340SOL    HW239480   3.732   4.220   6.157 -0.9543 -0.6468  0.2969
 9341SOL     OW39481   1.764   2.589   1.886  0.1705  0.1893 -0.4181
 9341SOL    HW139482   1.767   2.588   1.981  1.9574 -0.6954 -0.4817
 9341SOL    HW239483   1.713   2.509   1.874 -1.1338  0.9126  0.3535
 9342SOL     OW39484   3.782   0.666   5.310  0.4838 -0.3710 -0.2491
 9342SOL    HW139485   3.779   0.736   5.375  0.2231 -0.7044  0.1044
 9342SOL    HW239486   3.825   0.699   5.232 -0.1844 -0.5727 -0.7007
 9343SOL     OW39487   0.838   0.021  16.821 -0.1513  0.1809 -0.2371
 9343SOL    HW139488   0.812   0.072  16.898 -0.7945  0.9446 -0.9504
 9343SOL    HW239489   0.759   0.024  16.766  0.8721  1.8075 -1.6252
 9344SOL     OW39490   3.200   1.014   5.587 -0.4546  0.3712  0.4313
 9344SOL    HW139491   3.105   1.016   5.580 -0.4444 -4.0759 -0.4454
 9344SOL    HW239492   3.208   0.920   5.599 -3.7098  0.0086 -0.2895
 9345SOL     OW39493   4.377   3.680   7.321  0.5014 -0.3636 -0.0475
 9345SOL    HW139494   4.471   3.691   7.302  0.6136  0.1219  0.8072
 9345SOL    HW239495   4.392   3.651   7.411 -0.1879  0.6974  0.4004
 9346SOL     OW39496   0.924   1.691  10.185 -0.5247 -0.0697  0.4111
 9346SOL    HW139497   0.837   1.652  10.181  0.2798 -1.7247 -0.8847
 9346SOL    HW239498   0.962   1.632  10.121 -3.3859 -2.2794  0.7658
 9347SOL     OW39499   4.147   3.382  12.946 -0.0297 -0.3355 -0.5490
 9347SOL    HW139500   4.228   3.339  12.972  0.9782  2.2191  0.6106
 9347SOL    HW239501   4.139   3.335  12.863 -0.0351 -0.9681 -0.1807
 9348SOL     OW39502   2.718   2.571   2.084 -0.1303 -1.0713 -0.4475
 9348SOL    HW139503   2.753   2.497   2.034  0.9022  0.7744 -2.4684
 9348SOL    HW239504   2.793   2.626   2.106 -2.2826  1.6181  0.0058
 9349SOL     OW39505   0.074   0.988   0.684  0.4040  0.6133 -0.0118
 9349SOL    HW139506   0.073   0.938   0.766 -0.3798  1.6667  0.6202
 9349SOL    HW239507   4.715   1.039   0.690 -0.3178 -0.6087  0.7443
 9350SOL     OW39508   1.771   2.320   8.443  0.6034 -0.2020  0.5074
 9350SOL    HW139509   1.827   2.245   8.464  0.6598 -1.1189 -2.9489
 9350SOL    HW239510   1.733   2.282   8.364 -1.8453  3.3011  0.0447
 9351SOL     OW39511   4.433   3.060   8.032  0.4377 -0.2946  0.3819
 9351SOL    HW139512   4.453   2.999   8.103  3.4566 -0.5829 -0.7377
 9351SOL    HW239513   4.494   3.132   8.048  1.6724 -1.2658  0.0554
 9352SOL     OW39514   1.939   2.937   2.967  0.3518  0.4379 -0.2986
 9352SOL    HW139515   2.012   2.876   2.974  1.2242  1.5955  0.6923
 9352SOL    HW239516   1.976   3.019   3.000  0.5230  1.1006 -2.1491
 9353SOL     OW39517   1.649   4.345   6.515  0.1337 -0.1013 -0.2525
 9353SOL    HW139518   1.737   4.309   6.505  0.4065  0.4035  0.3567
 9353SOL    HW239519   1.600   4.266   6.490  1.2143 -0.5637 -0.9083
 9354SOL     OW39520   0.427   0.664   6.724  0.3755 -0.1683 -0.1910
 9354SOL    HW139521   0.513   0.623   6.738  0.7312  1.0927  1.3802
 9354SOL    HW239522   0.453   0.720   6.650 -0.2952 -0.4915 -0.6697
 9355SOL     OW39523   1.377   1.007   5.085  0.2372  0.1972 -0.7235
 9355SOL    HW139524   1.335   1.016   5.000  0.6477  2.0801 -0.7153
 9355SOL    HW239525   1.402   0.915   5.074 -0.0642 -0.2302  2.1435
 9356SOL     OW39526   2.301   2.712   3.708  0.7765 -0.2691 -0.7242
 9356SOL    HW139527   2.362   2.774   3.748  0.8083 -0.2916 -0.7374
 9356SOL    HW239528   2.353   2.632   3.702  1.7981  0.5040 -2.3857
 9357SOL     OW39529   4.295   0.373  16.041 -0.2532  0.3893 -0.1229
 9357SOL    HW139530   4.256   0.445  15.991  1.7508  0.3889 -1.6703
 9357SOL    HW239531   4.346   0.430  16.098 -0.8310  1.4868 -0.6894
 9358SOL     OW39532   0.482   3.793   2.625  0.2776  0.1909  0.1289
 9358SOL    HW139533   0.462   3.873   2.576 -1.5636  0.7731  1.8109
 9358SOL    HW239534   0.496   3.735   2.551 -2.4332 -1.4910  0.9190
 9359SOL     OW39535   3.976   0.314   8.375 -0.1328  0.0856  0.1048
 9359SOL    HW139536   3.896   0.271   8.345  0.3040 -1.0324  0.5074
 9359SOL    HW239537   3.958   0.334   8.467 -0.7565 -2.2300  0.4874
 9360SOL     OW39538   2.796   3.389   5.678  0.0603 -0.1876 -0.1142
 9360SOL    HW139539   2.729   3.457   5.674 -0.5817 -0.8683 -0.9642
 9360SOL    HW239540   2.868   3.435   5.635  0.4734 -2.5431 -1.9464
 9361SOL     OW39541   0.429   0.289   0.663  0.2078  0.3149  0.4508
 9361SOL    HW139542   0.363   0.320   0.725  0.1438  2.5286 -0.7266
 9361SOL    HW239543   0.387   0.207   0.636  2.4153 -0.4045 -0.7238
 9362SOL     OW39544   4.697   2.452   8.657  0.1391  0.4483  0.2281
 9362SOL    HW139545   0.047   2.470   8.718  0.2160  0.7430  0.0534
 9362SOL    HW239546   4.714   2.525   8.597 -0.3652  0.3921  0.0146
 9363SOL     OW39547   0.307   0.567  10.402 -0.1504 -0.6065  0.1854
 9363SOL    HW139548   0.263   0.487  10.372 -0.9618 -0.0839 -0.0326
 9363SOL    HW239549   0.397   0.534  10.405 -0.5447 -1.7490 -0.3678
 9364SOL     OW39550   1.118   0.491   7.624  0.1452  0.1343  0.0410
 9364SOL    HW139551   1.084   0.468   7.711 -1.2691  0.0113 -0.5361
 9364SOL    HW239552   1.190   0.549   7.649  1.9928 -2.3300  0.3811
 9365SOL     OW39553   1.599   3.233   0.351  0.2672  0.0224 -0.1021
 9365SOL    HW139554   1.683   3.250   0.394 -0.2234  1.3899  0.2954
 9365SOL    HW239555   1.636   3.174   0.285 -1.6168 -0.6746 -0.5346
 9366SOL     OW39556   2.527   2.833   4.135 -0.5830  0.1396  1.3101
 9366SOL    HW139557   2.476   2.804   4.211  0.4942  1.9627  2.7239
 9366SOL    HW239558   2.598   2.770   4.138 -2.0627 -1.6909 -1.6324
 9367SOL     OW39559   1.502   0.801   7.891  0.4850 -0.5767 -0.0698
 9367SOL    HW139560   1.518   0.770   7.980  0.9320  1.3382  0.5116
 9367SOL    HW239561   1.582   0.775   7.846  0.7070  0.3244 -0.1774
 9368SOL     OW39562   2.479   0.988  16.686  0.0723  0.2663 -0.1094
 9368SOL    HW139563   2.427   0.941  16.752  0.2124  1.1980  0.6688
 9368SOL    HW239564   2.528   1.038  16.751 -2.2339  0.9301  1.1382
 9369SOL     OW39565   3.326   3.730   5.436  0.1631  0.5729  0.4055
 9369SOL    HW139566   3.343   3.639   5.412 -1.5569 -0.2122  2.1545
 9369SOL    HW239567   3.240   3.742   5.396  1.2907  0.6034 -2.0658
 9370SOL     OW39568   3.861   3.934   7.369  0.5635  0.9309  0.0517
 9370SOL    HW139569   3.831   3.890   7.290 -0.0150  1.8093 -0.2169
 9370SOL    HW239570   3.866   3.861   7.431  0.3463  1.9580  1.2928
 9371SOL     OW39571   2.139   2.210   7.437  0.1473 -0.0545  0.1561
 9371SOL    HW139572   2.186   2.278   7.388 -1.8874  1.5472  0.4538
 9371SOL    HW239573   2.148   2.131   7.383  0.9784 -1.6935  2.6995
 9372SOL     OW39574   2.962   2.462   8.358 -0.1966 -0.5026  0.2770
 9372SOL    HW139575   2.883   2.459   8.411 -0.7718 -1.8864 -0.6684
 9372SOL    HW239576   3.008   2.528   8.411 -1.9979  1.0987 -0.1206
 9373SOL     OW39577   3.783   1.292   8.790 -0.0088  0.5297  0.2520
 9373SOL    HW139578   3.764   1.269   8.881  0.4901 -1.6106 -0.1752
 9373SOL    HW239579   3.833   1.215   8.762  0.8298  1.9092 -2.0138
 9374SOL     OW39580   0.151   3.554   8.402  0.0187 -0.2382  0.1715
 9374SOL    HW139581   0.126   3.514   8.319 -1.4162  0.6695  0.1624
 9374SOL    HW239582   0.073   3.528   8.452  1.2322 -1.9893  1.1525
 9375SOL     OW39583   0.045   0.714   7.799  0.1511 -0.0094 -0.3904
 9375SOL    HW139584   0.122   0.711   7.856  0.7456  2.6470 -1.0322
 9375SOL    HW239585   4.707   0.744   7.868  0.3961  2.0003 -1.0557
 9376SOL     OW39586   0.012   0.293   9.541 -0.6483 -0.4921  0.4625
 9376SOL    HW139587   4.651   0.326   9.505 -1.1497  0.3244  2.3762
 9376SOL    HW239588   0.026   0.350   9.616  2.6244 -1.1175  0.3287
 9377SOL     OW39589   2.544   1.066   5.463  0.1250  0.3577 -0.3891
 9377SOL    HW139590   2.515   1.036   5.376  0.4169 -1.0740  0.0064
 9377SOL    HW239591   2.584   0.992   5.508 -0.5734 -0.7173 -1.5228
 9378SOL     OW39592   1.274   4.605   8.134  0.1854 -0.2214  0.0505
 9378SOL    HW139593   1.309   4.566   8.054 -0.7177 -1.1932  0.1263
 9378SOL    HW239594   1.279   4.699   8.115  2.3050 -0.3572 -0.0107
 9379SOL     OW39595   3.651   2.450   3.861 -0.2750  0.7628  0.1365
 9379SOL    HW139596   3.713   2.467   3.791  1.0058 -2.9107  0.3484
 9379SOL    HW239597   3.639   2.538   3.897 -2.2273  0.4909  0.1427
 9380SOL     OW39598   4.519   2.070   8.429 -0.4562  0.2231 -0.4254
 9380SOL    HW139599   4.455   2.031   8.489 -0.8734 -0.2645 -1.1936
 9380SOL    HW239600   4.458   2.116   8.372 -0.6633 -1.1924 -1.3637
 9381SOL     OW39601   1.570   2.477   5.237  0.3307  0.5012  0.2545
 9381SOL    HW139602   1.511   2.445   5.168  0.4466  1.7165 -0.4067
 9381SOL    HW239603   1.604   2.393   5.269 -2.3499 -0.9712 -0.7297
 9382SOL     OW39604   0.772   3.606  14.076 -0.3647  0.4349 -0.3640
 9382SOL    HW139605   0.864   3.578  14.075 -0.7252 -0.7156 -1.0602
 9382SOL    HW239606   0.779   3.700  14.059  0.6306  0.4356  0.0677
 9383SOL     OW39607   4.186   2.237   4.308 -0.6331  0.3719 -0.0693
 9383SOL    HW139608   4.199   2.206   4.397 -1.3247 -0.2137 -0.1682
 9383SOL    HW239609   4.214   2.328   4.317  0.9983 -0.0290 -1.1198
 9384SOL     OW39610   0.673   4.284   2.998 -0.0401  0.2010  0.0220
 9384SOL    HW139611   0.597   4.275   2.940 -0.8664 -1.6467  1.4288
 9384SOL    HW239612   0.691   4.193   3.021 -2.1936  0.0901  1.2206
 9385SOL     OW39613   4.421   3.382  15.649 -0.0146  0.0342 -0.1208
 9385SOL    HW139614   4.493   3.366  15.587 -0.7792 -0.5017 -0.8675
 9385SOL    HW239615   4.466   3.442  15.708 -2.2067 -0.3108  1.8552
 9386SOL     OW39616   0.413   2.650   7.424 -0.4100  0.1436 -0.5189
 9386SOL    HW139617   0.454   2.736   7.434  0.1548 -0.1445 -0.3532
 9386SOL    HW239618   0.380   2.664   7.335 -0.4717  1.8305 -0.2325
 9387SOL     OW39619   3.666   1.536   2.538  0.0312  0.1431  0.2662
 9387SOL    HW139620   3.583   1.489   2.527 -0.3998  0.6880  1.2055
 9387SOL    HW239621   3.638   1.610   2.484 -0.1897 -0.1807 -0.0619
 9388SOL     OW39622   4.494   1.228   5.684  0.4777 -0.4975 -0.0678
 9388SOL    HW139623   4.535   1.213   5.599 -0.2664 -1.5925 -0.2343
 9388SOL    HW239624   4.553   1.190   5.749 -0.4625 -0.7774  0.6213
 9389SOL     OW39625   1.308   2.802  11.376 -0.0613 -0.0261 -0.8643
 9389SOL    HW139626   1.236   2.830  11.432  0.0823  0.4341 -0.9077
 9389SOL    HW239627   1.292   2.709  11.362  1.3354 -0.4147  0.0863
 9390SOL     OW39628   2.873   1.910  10.973 -0.2892  0.4514  0.0025
 9390SOL    HW139629   2.924   1.829  10.972  1.5213  1.6556 -2.6148
 9390SOL    HW239630   2.808   1.893  11.041 -0.4390  0.5995 -0.1041
 9391SOL     OW39631   2.373   0.343   0.891 -0.1383 -0.2952  0.3775
 9391SOL    HW139632   2.366   0.376   0.802 -0.1704  1.3809  0.9957
 9391SOL    HW239633   2.460   0.374   0.917 -0.5335  2.6025 -1.8683
 9392SOL     OW39634   3.400   1.839   1.201 -0.0114  0.2192 -0.2768
 9392SOL    HW139635   3.481   1.887   1.185  1.0225 -1.1349  0.8758
 9392SOL    HW239636   3.365   1.843   1.112 -0.1597 -0.9408 -0.2723
 9393SOL     OW39637   3.727   2.008   4.518 -0.4916  0.0717  0.2348
 9393SOL    HW139638   3.722   2.102   4.534  1.4755  0.4592 -1.3611
 9393SOL    HW239639   3.818   1.990   4.543 -1.6204 -2.6087  2.4208
 9394SOL     OW39640   2.241   4.644   5.312 -0.2321  0.6615  0.5387
 9394SOL    HW139641   2.246   0.018   5.312  2.9575  0.5073 -0.6804
 9394SOL    HW239642   2.152   4.639   5.277 -0.6303  1.9955  1.3397
 9395SOL     OW39643   3.921   2.188   6.798 -0.8466 -0.0905 -0.1730
 9395SOL    HW139644   3.854   2.155   6.738 -0.9967 -1.4777  0.7418
 9395SOL    HW239645   3.935   2.278   6.768  0.8504 -1.2101 -2.6925
 9396SOL     OW39646   2.647   3.392   5.217  0.2632  0.1223 -0.4310
 9396SOL    HW139647   2.579   3.457   5.201 -1.2345 -1.4744 -0.5528
 9396SOL    HW239648   2.653   3.355   5.129  1.0096 -2.7292  0.7916
 9397SOL     OW39649   1.884   4.211   6.499  0.6376  0.7525  0.3255
 9397SOL    HW139650   1.908   4.155   6.573 -0.0571 -0.9320 -0.7284
 9397SOL    HW239651   1.913   4.162   6.422 -0.1991 -1.0034  1.1237
 9398SOL     OW39652   3.130   1.872   3.503  0.2163 -0.4502 -0.4225
 9398SOL    HW139653   3.171   1.909   3.582 -2.6106 -1.6206  1.5787
 9398SOL    HW239654   3.133   1.777   3.516 -1.6787 -0.4782 -0.1632
 9399SOL     OW39655   3.957   2.721   2.251  0.0667  0.1104 -0.1180
 9399SOL    HW139656   3.885   2.684   2.200 -0.3735  0.1542  0.4630
 9399SOL    HW239657   4.018   2.750   2.184  0.3839 -0.0451  0.1038
 9400SOL     OW39658   1.213   3.297   7.140 -0.4784  0.4808  0.3606
 9400SOL    HW139659   1.156   3.329   7.209 -4.1350 -2.1535 -1.4101
 9400SOL    HW239660   1.212   3.374   7.082 -3.1891 -0.2641 -0.5975
 9401SOL     OW39661   2.885   4.296   1.804  0.3777  0.0192 -0.0548
 9401SOL    HW139662   2.826   4.337   1.867 -1.0317 -3.0274  0.6101
 9401SOL    HW239663   2.891   4.209   1.843 -0.3487  0.6876  1.5306
 9402SOL     OW39664   4.543   3.596   8.372  0.5305 -0.3799  0.0689
 9402SOL    HW139665   4.459   3.550   8.371 -0.2877  1.0839  1.6542
 9402SOL    HW239666   4.572   3.593   8.281 -1.3548  1.3382 -0.5726
 9403SOL     OW39667   1.714   0.105  16.783 -0.5943 -0.1406 -0.2890
 9403SOL    HW139668   1.741   0.092  16.874 -0.9224 -0.7763 -0.2867
 9403SOL    HW239669   1.780   0.170  16.757  1.2554 -1.5246  0.9263
 9404SOL     OW39670   2.103   4.062   8.298  0.4044 -0.0982  0.6845
 9404SOL    HW139671   2.055   3.989   8.339  0.8727 -0.2662  0.9326
 9404SOL    HW239672   2.044   4.098   8.232  0.7859 -0.8329 -0.0607
 9405SOL     OW39673   2.799   4.215   0.571 -0.1111 -0.8332  0.0631
 9405SOL    HW139674   2.756   4.140   0.530  0.6207  0.3285 -2.8147
 9405SOL    HW239675   2.782   4.207   0.665  1.8351  1.5292  0.6305
 9406SOL     OW39676   1.757   0.453   9.572 -0.3902 -0.3131  0.0286
 9406SOL    HW139677   1.774   0.360   9.559  0.3884 -0.3675  1.4651
 9406SOL    HW239678   1.730   0.458   9.663 -0.8705  1.9077 -0.2317
 9407SOL     OW39679   2.093   3.671   5.459  0.0623  0.0580  0.2022
 9407SOL    HW139680   2.088   3.757   5.419 -4.1721 -1.1436 -1.8277
 9407SOL    HW239681   2.127   3.679   5.548  0.4235  0.1684  0.0536
 9408SOL     OW39682   2.200   1.945   5.914  0.0340 -0.0210 -0.1261
 9408SOL    HW139683   2.256   1.880   5.870 -1.9869 -1.2471 -0.9095
 9408SOL    HW239684   2.259   1.982   5.980 -2.0350  0.9298  1.1588
 9409SOL     OW39685   1.058   1.884   4.056  0.1259 -0.0301 -0.4210
 9409SOL    HW139686   1.132   1.825   4.067  0.4773  0.3098 -0.9455
 9409SOL    HW239687   1.035   1.901   4.147  0.7586  0.1357 -0.2938
 9410SOL     OW39688   2.982   4.061   7.011  0.0711  0.5054  0.2102
 9410SOL    HW139689   3.039   4.043   7.086  1.5873 -0.4014 -1.1573
 9410SOL    HW239690   2.895   4.057   7.051  0.1869 -0.6128  0.3388
 9411SOL     OW39691   4.303   3.360   7.963  0.6082  0.5720  0.8606
 9411SOL    HW139692   4.312   3.410   7.882  1.9696  1.5840  1.6327
 9411SOL    HW239693   4.343   3.416   8.029  2.5745 -1.0265  1.0256
 9412SOL     OW39694   4.255   3.111  14.977 -0.4249  0.2361  0.2109
 9412SOL    HW139695   4.165   3.084  14.996 -1.2118  3.3820  1.0212
 9412SOL    HW239696   4.261   3.195  15.023  2.6505 -0.5358  1.2229
 9413SOL     OW39697   1.944   1.910   5.803  0.9025  0.3498  0.0039
 9413SOL    HW139698   1.921   1.891   5.894 -0.3745  0.4240 -0.3048
 9413SOL    HW239699   2.031   1.944   5.823  0.9071 -0.0766  0.7399
 9414SOL     OW39700   1.229   0.180  13.893  0.7083  0.4713  0.0093
 9414SOL    HW139701   1.274   0.096  13.892  2.8827  1.6409  1.1453
 9414SOL    HW239702   1.179   0.167  13.813 -1.2839 -0.7465  1.4467
 9415SOL     OW39703   0.178   0.099   7.296  0.2879 -0.1890 -0.2151
 9415SOL    HW139704   0.251   0.052   7.255 -1.0565 -0.2682 -2.5113
 9415SOL    HW239705   0.218   0.132   7.377 -0.0089 -2.0340  0.6782
 9416SOL     OW39706   1.127   4.680   3.417  0.1561 -0.7374 -0.6029
 9416SOL    HW139707   1.115   4.716   3.504 -1.2309 -0.7519 -0.7986
 9416SOL    HW239708   1.074   0.020   3.367 -1.7415  0.1551  2.5581
 9417SOL     OW39709   1.241   2.918   9.788 -0.0849 -0.3384  0.1324
 9417SOL    HW139710   1.328   2.889   9.761 -0.1624 -1.1071  0.7275
 9417SOL    HW239711   1.241   2.884   9.877 -1.9116 -0.5848  0.0264
 9418SOL     OW39712   1.604   0.423   6.357  0.2703 -0.2562  0.1539
 9418SOL    HW139713   1.560   0.506   6.375  1.6248  0.4309  0.2583
 9418SOL    HW239714   1.525   0.370   6.342 -0.5625  0.7443  1.0034
 9419SOL     OW39715   0.399   1.018   2.248 -0.2697 -0.1760  0.2324
 9419SOL    HW139716   0.444   1.081   2.193  1.6078  0.3147  2.3288
 9419SOL    HW239717   0.308   1.047   2.236 -1.4052 -1.9993  4.1967
 9420SOL     OW39718   4.459   3.696  16.894 -0.1563  0.0907  0.0080
 9420SOL    HW139719   4.413   3.761  16.946  0.9354  0.8011  0.0696
 9420SOL    HW239720   4.414   3.618  16.927 -1.6654  2.1348  2.7150
 9421SOL     OW39721   2.432   3.445   3.288 -0.3401 -0.0030 -0.1017
 9421SOL    HW139722   2.416   3.459   3.195 -1.5385 -0.3334  0.0587
 9421SOL    HW239723   2.439   3.537   3.312 -0.4001  0.7449 -2.9765
 9422SOL     OW39724   0.247   2.871   6.233 -0.2595 -0.3949 -0.4036
 9422SOL    HW139725   0.228   2.817   6.156 -2.4549  0.1403 -0.2160
 9422SOL    HW239726   0.341   2.885   6.217 -0.4672  1.5691  0.2016
 9423SOL     OW39727   3.184   3.298   5.724  0.5947  0.2092  0.0578
 9423SOL    HW139728   3.168   3.361   5.796 -0.2199 -0.4759  0.4789
 9423SOL    HW239729   3.273   3.269   5.743  0.1927 -0.1707  1.3472
 9424SOL     OW39730   1.305   1.222  13.680  0.3565  0.1017 -1.0269
 9424SOL    HW139731   1.339   1.292  13.735  0.8414 -0.9404  0.0024
 9424SOL    HW239732   1.385   1.170  13.687 -0.3941 -0.9024  0.0304
 9425SOL     OW39733   2.470   0.173   3.590  0.1178  0.5495 -0.1557
 9425SOL    HW139734   2.528   0.247   3.607 -1.2605  1.4226  0.7838
 9425SOL    HW239735   2.446   0.125   3.669  0.3191  0.4129 -0.1761
 9426SOL     OW39736   0.889   4.456  12.201 -0.6445  0.2577  0.4203
 9426SOL    HW139737   0.891   4.404  12.121  2.6385 -1.7772  1.8096
 9426SOL    HW239738   0.806   4.503  12.209  0.2957  1.4024  3.4000
 9427SOL     OW39739   3.095   0.279  17.127 -0.0213 -0.0727 -0.2768
 9427SOL    HW139740   3.146   0.360  17.123 -1.0017  0.5844  0.5784
 9427SOL    HW239741   3.067   0.278  17.035  0.4624  2.0053 -0.4484
 9428SOL     OW39742   2.303   0.188  14.023  0.2287 -0.5557 -0.4159
 9428SOL    HW139743   2.313   0.269  14.073 -3.0492 -0.1910 -0.3710
 9428SOL    HW239744   2.279   0.121  14.087 -1.7368 -0.1684 -0.7445
 9429SOL     OW39745   2.833   1.345   4.516 -0.0941 -0.4816 -0.0065
 9429SOL    HW139746   2.905   1.407   4.501 -2.0939  1.7256 -0.6402
 9429SOL    HW239747   2.826   1.294   4.435 -1.9246 -0.0444 -0.1258
 9430SOL     OW39748   1.386   0.286   6.260 -0.1312 -0.1144 -0.0507
 9430SOL    HW139749   1.324   0.225   6.301 -0.2737 -0.3649 -0.6374
 9430SOL    HW239750   1.331   0.346   6.210 -1.0307 -2.1845 -1.5624
 9431SOL     OW39751   1.049   4.347   1.027 -0.3702 -0.1221 -0.2124
 9431SOL    HW139752   1.069   4.304   0.944  1.7550 -0.7143  0.6244
 9431SOL    HW239753   1.001   4.420   0.988  0.8172 -0.0251 -1.4807
 9432SOL     OW39754   4.092   1.697   8.091 -0.4950  0.4824  0.1854
 9432SOL    HW139755   4.038   1.707   8.013  0.4920  0.2410 -0.5257
 9432SOL    HW239756   4.034   1.705   8.167 -0.2781  0.2498  0.3771
 9433SOL     OW39757   1.563   1.460   5.321  0.3699 -0.2684 -0.3485
 9433SOL    HW139758   1.512   1.398   5.269  1.5646 -0.3204 -1.4746
 9433SOL    HW239759   1.653   1.428   5.313  0.2304 -1.1978  1.7620
 9434SOL     OW39760   3.022   1.526   8.870  0.8490 -0.4970  0.0486
 9434SOL    HW139761   2.988   1.440   8.894 -0.5320  0.4604  1.5541
 9434SOL    HW239762   3.091   1.543   8.934  1.3617 -1.8668 -0.1438
 9435SOL     OW39763   2.197   3.623   7.505  0.1045  0.4927 -0.2680
 9435SOL    HW139764   2.156   3.631   7.591 -1.1553 -1.2574 -0.7209
 9435SOL    HW239765   2.197   3.717   7.487 -2.2356  0.8239  1.5354
 9436SOL     OW39766   3.276   3.000  13.491 -0.2538 -0.0818  0.0922
 9436SOL    HW139767   3.367   3.023  13.476 -0.6485  0.4445 -1.5146
 9436SOL    HW239768   3.237   3.081  13.523  3.6234  0.7046  2.8000
 9437SOL     OW39769   4.179   1.154  14.452  0.2265 -0.6027  0.3986
 9437SOL    HW139770   4.123   1.175  14.377  1.0280 -0.9606 -0.2997
 9437SOL    HW239771   4.110   1.133  14.516  1.9576 -1.9930  1.7853
 9438SOL     OW39772   0.885   1.281   4.091  0.5800  0.2699 -0.5708
 9438SOL    HW139773   0.803   1.291   4.042 -0.9511  1.1452  2.0990
 9438SOL    HW239774   0.871   1.190   4.117  0.6653  0.6494  0.8145
 9439SOL     OW39775   0.994   1.512   7.045  0.1933 -0.0123  0.2003
 9439SOL    HW139776   0.964   1.595   7.007 -0.3583  0.2184  1.1480
 9439SOL    HW239777   1.087   1.528   7.062  0.2232 -0.2793  0.2871
 9440SOL     OW39778   3.530   2.757   7.055 -0.5562  0.1647 -0.0803
 9440SOL    HW139779   3.552   2.794   6.969 -0.4911 -0.8428 -0.5005
 9440SOL    HW239780   3.530   2.662   7.041  0.6655 -0.0904  1.7806
 9441SOL     OW39781   0.157   3.473   5.471  0.3602 -0.1289 -0.2985
 9441SOL    HW139782   0.074   3.520   5.458  0.0262 -0.2531  1.3529
 9441SOL    HW239783   0.132   3.381   5.478  0.6802 -0.2458 -0.6895
 9442SOL     OW39784   2.432   3.282   9.782 -0.3221 -0.4554  0.4445
 9442SOL    HW139785   2.397   3.370   9.799  0.4426  0.0794 -0.6942
 9442SOL    HW239786   2.414   3.240   9.866 -0.4893 -1.2092  0.0259
 9443SOL     OW39787   4.711   1.082   5.602  0.2116  0.4709  0.0309
 9443SOL    HW139788   0.056   1.095   5.669  1.0411  2.2922 -1.1330
 9443SOL    HW239789   4.681   0.994   5.624  1.0017  0.2951  0.4047
 9444SOL     OW39790   0.857   0.079   5.729  0.1659  0.0689 -0.2647
 9444SOL    HW139791   0.810   0.129   5.796  0.0147 -0.1097 -0.2388
 9444SOL    HW239792   0.786   0.051   5.672 -0.7215  0.5352  0.6074
 9445SOL     OW39793   3.679   1.078   1.030  0.6333 -0.0175 -0.5525
 9445SOL    HW139794   3.710   1.083   1.120 -0.7443  0.3657 -0.1035
 9445SOL    HW239795   3.584   1.090   1.039  0.2696 -0.4298 -3.7607
 9446SOL     OW39796   1.821   1.218  13.949  0.9264 -0.0397  0.8518
 9446SOL    HW139797   1.905   1.190  13.912 -1.0596 -1.6274 -2.4233
 9446SOL    HW239798   1.762   1.167  13.894  1.7300  0.5400 -0.5544
 9447SOL     OW39799   4.684   2.622   4.742 -0.8309 -0.4420  0.2799
 9447SOL    HW139800   4.654   2.537   4.775  0.9098 -0.9802  0.4889
 9447SOL    HW239801   0.047   2.584   4.718 -0.2043  1.2749 -0.2104
 9448SOL     OW39802   1.322   4.348  12.934  0.6245 -0.0195  0.1963
 9448SOL    HW139803   1.416   4.359  12.946  0.6713  0.0488 -0.2283
 9448SOL    HW239804   1.303   4.297  13.013  0.4551 -0.9418 -0.4445
 9449SOL     OW39805   3.289   1.630   6.346 -0.0886 -0.0106  0.5898
 9449SOL    HW139806   3.343   1.609   6.422 -0.4644 -0.0084  0.8579
 9449SOL    HW239807   3.230   1.555   6.347  1.2246 -1.0536 -0.5148
 9450SOL     OW39808   4.208   0.516  13.042  0.1286  0.2694 -0.5422
 9450SOL    HW139809   4.234   0.462  12.968  0.2838  3.7862 -3.0243
 9450SOL    HW239810   4.125   0.473  13.061  1.3702 -1.4937  0.8368
 9451SOL     OW39811   1.593   2.998   1.318  0.8104 -0.2538 -1.3359
 9451SOL    HW139812   1.600   2.903   1.320  1.7206 -0.2184 -2.9675
 9451SOL    HW239813   1.500   3.011   1.335  0.6296 -2.8515 -0.2990
 9452SOL     OW39814   3.478   4.704   7.398 -0.1730  0.2488  0.7981
 9452SOL    HW139815   3.538   0.038   7.348 -2.2906  1.4210 -0.4325
 9452SOL    HW239816   3.447   0.044   7.464 -0.8003  1.3352 -0.5172
 9453SOL     OW39817   0.112   1.100   2.235 -0.1490 -0.5620  0.0650
 9453SOL    HW139818   0.167   1.165   2.191 -0.0319  0.5870  1.8924
 9453SOL    HW239819   0.063   1.168   2.282 -1.3813  0.6030 -2.9193
 9454SOL     OW39820   1.106   0.923   6.244  0.0484 -0.3884  0.4304
 9454SOL    HW139821   1.042   0.905   6.175 -0.6932 -0.5187  1.1531
 9454SOL    HW239822   1.173   0.967   6.192 -2.8644  1.9439 -1.3314
 9455SOL     OW39823   2.013   4.409  12.741  0.0224 -0.8182 -0.4353
 9455SOL    HW139824   2.071   4.339  12.772 -0.6855 -0.9344  0.6078
 9455SOL    HW239825   2.078   4.468  12.701 -1.4061  1.2182  0.2426
 9456SOL     OW39826   3.979   2.507   3.204  0.4268  0.2544  0.1910
 9456SOL    HW139827   4.052   2.449   3.184 -1.0724 -1.0019 -1.6495
 9456SOL    HW239828   3.937   2.463   3.278 -0.2210  2.0583  0.9081
 9457SOL     OW39829   4.085   3.375   3.804 -0.1362  0.1139 -0.1216
 9457SOL    HW139830   4.100   3.281   3.787 -0.6706 -0.3265  1.8713
 9457SOL    HW239831   4.096   3.368   3.899  0.2539  3.3342  0.0693
 9458SOL     OW39832   3.408   1.167   1.103 -0.3484  0.0548 -0.6042
 9458SOL    HW139833   3.372   1.177   1.191 -0.7450 -0.0936 -0.7493
 9458SOL    HW239834   3.379   1.248   1.062 -0.8529  0.3468  0.3406
 9459SOL     OW39835   1.740   2.471   4.031 -0.0256 -0.0439 -0.4274
 9459SOL    HW139836   1.728   2.561   4.001 -0.1421 -0.7109 -2.3925
 9459SOL    HW239837   1.669   2.471   4.095  0.3594  1.0213 -0.0037
 9460SOL     OW39838   1.774   3.244  11.047  0.4495 -0.0379  0.0486
 9460SOL    HW139839   1.680   3.247  11.026  0.8519 -2.9261 -2.1502
 9460SOL    HW239840   1.774   3.163  11.098  2.1824  0.2937  0.5646
 9461SOL     OW39841   1.233   0.117   2.590 -0.4102  0.3645  0.6650
 9461SOL    HW139842   1.245   0.182   2.521 -3.5201  0.3058  0.0619
 9461SOL    HW239843   1.177   0.170   2.646  1.9307  0.5676  2.7724
 9462SOL     OW39844   2.765   2.218   8.122 -0.0400 -0.5046 -0.0738
 9462SOL    HW139845   2.723   2.296   8.085 -0.4146 -0.0858  1.2392
 9462SOL    HW239846   2.725   2.216   8.209 -0.4832  1.4870 -0.2193
 9463SOL     OW39847   0.147   0.772  17.386  0.0127  0.2741  0.2650
 9463SOL    HW139848   0.177   0.726  17.308 -0.3495  0.4163  0.0408
 9463SOL    HW239849   0.054   0.782  17.362 -0.3601 -2.8483  0.5092
 9464SOL     OW39850   3.174   0.296   1.488 -0.3451  0.3623  0.1060
 9464SOL    HW139851   3.151   0.283   1.580  0.2868 -1.9412 -0.0659
 9464SOL    HW239852   3.267   0.276   1.481  0.1096  3.0227 -1.5095
 9465SOL     OW39853   2.469   4.394   5.674  0.4966 -0.0648 -0.4079
 9465SOL    HW139854   2.412   4.329   5.633 -1.4890  1.3466  0.1684
 9465SOL    HW239855   2.540   4.383   5.611 -0.6647 -0.3117 -1.6636
 9466SOL     OW39856   2.186   3.751   1.877 -0.7322  0.0687  0.0235
 9466SOL    HW139857   2.265   3.697   1.870  0.4120  1.6271  0.8592
 9466SOL    HW239858   2.170   3.751   1.971 -1.4534 -0.5368 -0.1007
 9467SOL     OW39859   0.621   4.070  10.237  0.1021 -0.4766 -0.6497
 9467SOL    HW139860   0.715   4.061  10.248  0.4162  0.8570 -2.2782
 9467SOL    HW239861   0.600   4.036  10.324 -0.8038  1.4765 -0.1007
 9468SOL     OW39862   1.046   0.623   4.155 -0.1492  0.3540  0.3269
 9468SOL    HW139863   1.034   0.694   4.091  3.0397 -0.0385 -0.6815
 9468SOL    HW239864   0.976   0.630   4.220 -0.3314  2.9475 -0.1582
 9469SOL     OW39865   2.101   0.992  17.544  0.6138  0.4322  0.0196
 9469SOL    HW139866   2.056   1.076  17.538 -3.6382 -1.8121  0.6800
 9469SOL    HW239867   2.065   0.957  17.625 -1.5280  0.7734 -0.8014
 9470SOL     OW39868   2.515   2.850   3.268 -0.6496  0.1790  0.0748
 9470SOL    HW139869   2.577   2.814   3.205 -0.3930  0.4077  0.1959
 9470SOL    HW239870   2.489   2.919   3.207  2.0805 -0.1184 -1.4189
 9471SOL     OW39871   0.694   4.476   3.645 -0.5123  0.9050  0.1166
 9471SOL    HW139872   0.722   4.403   3.591 -0.0931  1.9942 -1.1481
 9471SOL    HW239873   0.771   4.521   3.680 -0.5553  0.3854  0.8725
 9472SOL     OW39874   3.838   1.222   7.967  0.0927  0.1818  0.5876
 9472SOL    HW139875   3.757   1.171   7.975 -0.4276  1.0908  1.1357
 9472SOL    HW239876   3.810   1.311   7.990  1.4055  1.3746 -2.4171
 9473SOL     OW39877   0.735   4.310  16.441  0.0475  1.2308 -0.1005
 9473SOL    HW139878   0.682   4.385  16.467 -1.2870 -0.0941  1.0050
 9473SOL    HW239879   0.822   4.349  16.450  0.2599  0.3384  1.7216
 9474SOL     OW39880   0.185   1.410   6.262  0.8562  0.1470  0.0328
 9474SOL    HW139881   0.259   1.372   6.309  1.3056  0.8918 -0.0652
 9474SOL    HW239882   0.197   1.504   6.277  1.4074  0.6383 -3.4775
 9475SOL     OW39883   3.582   3.787   7.959  0.1148 -0.2464  0.4670
 9475SOL    HW139884   3.502   3.838   7.967 -0.7980 -1.5891 -0.0501
 9475SOL    HW239885   3.634   3.835   7.895 -0.6987  0.2596  0.1882
 9476SOL     OW39886   4.360   1.428   4.307 -0.3231  0.1300 -0.0318
 9476SOL    HW139887   4.408   1.408   4.226  0.8554  1.0178  0.4455
 9476SOL    HW239888   4.422   1.494   4.339  0.5602 -0.2306 -0.9851
 9477SOL     OW39889   1.889   2.049   8.148  0.3922 -1.2260 -0.8217
 9477SOL    HW139890   1.886   1.998   8.067  1.1330 -2.8357  0.1771
 9477SOL    HW239891   1.910   2.137   8.116  0.3620 -0.4971  1.1791
 9478SOL     OW39892   0.336   0.166   1.962 -0.0392  0.1069  0.1099
 9478SOL    HW139893   0.383   0.217   2.028 -2.5182 -0.6477  2.4563
 9478SOL    HW239894   0.316   0.088   2.013 -1.0050 -1.0096 -1.9671
 9479SOL     OW39895   2.252   1.793  10.800  0.5885 -1.0444 -0.2721
 9479SOL    HW139896   2.213   1.747  10.726 -0.4504  0.6271 -0.7612
 9479SOL    HW239897   2.202   1.875  10.804  0.6605 -1.0815  1.5331
 9480SOL     OW39898   0.760   4.431   6.670 -0.0614  0.0907  0.0608
 9480SOL    HW139899   0.853   4.452   6.677  0.2326 -1.2676  0.2553
 9480SOL    HW239900   0.753   4.351   6.722 -3.8772  1.0170  0.9826
 9481SOL     OW39901   3.822   0.207   5.414 -0.2284 -0.1587  0.7425
 9481SOL    HW139902   3.848   0.296   5.438  1.5505 -0.6774  0.8020
 9481SOL    HW239903   3.876   0.153   5.472 -0.2024 -0.0375  0.8318
 9482SOL     OW39904   4.076   2.304  12.108 -0.1695 -0.4938  0.2758
 9482SOL    HW139905   3.994   2.323  12.154  0.0120 -1.7025  1.1219
 9482SOL    HW239906   4.050   2.320  12.018 -2.3578  2.6379  1.4944
 9483SOL     OW39907   1.253   1.430   3.430 -0.4222 -0.0191  0.0116
 9483SOL    HW139908   1.314   1.357   3.436 -0.8715 -0.4276 -0.3587
 9483SOL    HW239909   1.192   1.404   3.360  1.4224 -0.5474 -1.4030
 9484SOL     OW39910   2.375   4.430   8.864  0.3781 -0.1571  0.3119
 9484SOL    HW139911   2.407   4.519   8.845 -0.8335 -0.0332 -1.1163
 9484SOL    HW239912   2.369   4.387   8.779 -0.8052 -0.9061  0.7771
 9485SOL     OW39913   0.368   4.646   2.099 -0.2991 -0.2756 -0.0595
 9485SOL    HW139914   0.285   4.644   2.146 -1.3700  1.3331 -1.8832
 9485SOL    HW239915   0.391   4.553   2.098 -1.7383 -0.6077 -2.2656
 9486SOL     OW39916   2.167   4.000   4.343 -0.4983  0.5479 -0.8591
 9486SOL    HW139917   2.079   4.016   4.308 -0.7357  0.9589 -0.0771
 9486SOL    HW239918   2.207   3.942   4.279 -0.0639 -0.1291  0.0332
 9487SOL     OW39919   3.244   2.571   1.081 -0.7789 -0.2190 -0.0740
 9487SOL    HW139920   3.246   2.544   1.172  0.1996  1.2626  0.3464
 9487SOL    HW239921   3.336   2.553   1.061 -0.8207 -1.1490  0.5721
 9488SOL     OW39922   0.346   2.247   1.230 -0.2352 -0.1901 -0.2410
 9488SOL    HW139923   0.277   2.180   1.231 -2.9741  2.6506 -1.3378
 9488SOL    HW239924   0.394   2.226   1.311  1.8392  2.9693 -0.6571
 9489SOL     OW39925   2.999   3.742   8.064 -0.0109 -0.1744 -0.9789
 9489SOL    HW139926   3.078   3.693   8.041  0.8693  0.1995  1.3260
 9489SOL    HW239927   2.956   3.740   7.978  2.4464  0.1006 -2.2020
 9490SOL     OW39928   3.093   0.634   9.017  0.3675  0.7134 -0.3726
 9490SOL    HW139929   3.176   0.680   9.003 -0.5773  1.4982 -3.2691
 9490SOL    HW239930   3.117   0.568   9.082  0.6299  3.7644  2.6635
 9491SOL     OW39931   4.422   3.586   0.161  0.1901 -0.4219  0.0162
 9491SOL    HW139932   4.350   3.531   0.129  1.4856 -1.4504 -1.1538
 9491SOL    HW239933   4.407   3.660   0.103  1.0219 -1.1243 -1.1126
 9492SOL     OW39934   1.643   0.346   2.377  0.1153  0.0068 -0.0667
 9492SOL    HW139935   1.702   0.413   2.412  0.2541  0.1078 -0.4856
 9492SOL    HW239936   1.617   0.295   2.453 -0.1909 -2.7354 -2.0122
 9493SOL     OW39937   0.174   1.836   5.477 -0.4462  0.0982 -0.3053
 9493SOL    HW139938   0.158   1.761   5.534  0.9181 -1.0025 -1.3355
 9493SOL    HW239939   0.205   1.898   5.543 -0.1231 -0.5088  0.1190
 9494SOL     OW39940   3.365   3.856   7.504 -0.9033 -0.0503  0.2383
 9494SOL    HW139941   3.271   3.841   7.501 -0.8292 -0.5350  0.3586
 9494SOL    HW239942   3.376   3.879   7.596 -1.1591 -0.3959  0.3574
 9495SOL     OW39943   3.617   1.061   3.462 -0.1525  0.1500 -0.4954
 9495SOL    HW139944   3.586   1.135   3.410  1.8345  0.8409 -0.7011
 9495SOL    HW239945   3.595   1.086   3.552 -1.9988  1.9531 -1.4701
 9496SOL     OW39946   4.676   2.899   8.824 -0.5382 -0.2227 -0.0366
 9496SOL    HW139947   0.027   2.958   8.802  0.4575 -1.9096 -1.2191
 9496SOL    HW239948   4.633   2.872   8.743  0.1515  1.5857 -1.0105
 9497SOL     OW39949   2.994   1.293   7.832  0.3740 -0.4335 -0.0918
 9497SOL    HW139950   3.056   1.254   7.770 -0.5969  0.1635 -1.4283
 9497SOL    HW239951   2.930   1.225   7.855  0.7462 -0.5581  0.5729
 9498SOL     OW39952   2.442   2.193  11.277  0.1476  0.7800 -0.2667
 9498SOL    HW139953   2.352   2.226  11.279 -0.1563 -0.0487 -0.2743
 9498SOL    HW239954   2.490   2.267  11.314 -0.3313  0.8214  0.2823
 9499SOL     OW39955   2.824   4.568   8.335 -0.1874 -0.5558  0.2583
 9499SOL    HW139956   2.840   4.509   8.409  0.6949  0.3541  0.7944
 9499SOL    HW239957   2.851   4.514   8.261  0.4884  2.0030 -1.3902
 9500SOL     OW39958   2.547   1.764   5.468 -0.2288 -0.7050  0.4040
 9500SOL    HW139959   2.505   1.851   5.469  1.4305  0.1050 -1.5901
 9500SOL    HW239960   2.597   1.763   5.387 -0.1159 -1.3233  0.4816
 9501SOL     OW39961   3.814   1.395   3.990 -0.2763  0.0860 -0.4426
 9501SOL    HW139962   3.752   1.455   4.030  0.5974  1.2032 -0.7600
 9501SOL    HW239963   3.883   1.454   3.959  0.3506 -0.1903  0.4251
 9502SOL     OW39964   2.670   2.573   0.396  0.1147 -0.1190  0.1298
 9502SOL    HW139965   2.709   2.658   0.417 -2.6897  1.2915 -0.3216
 9502SOL    HW239966   2.748   2.525   0.424 -1.4348 -2.0969  1.0831
 9503SOL     OW39967   0.797   0.397  13.750 -0.5582  0.5268 -0.1998
 9503SOL    HW139968   0.738   0.351  13.689 -1.2123  1.6734 -0.4375
 9503SOL    HW239969   0.850   0.454  13.694 -0.4900  0.7268  0.0716
 9504SOL     OW39970   3.589   0.437   0.192  0.2691  0.2634  0.2503
 9504SOL    HW139971   3.503   0.398   0.200  0.6478 -0.9667 -1.7775
 9504SOL    HW239972   3.646   0.366   0.221 -1.4567 -1.1160  0.2344
 9505SOL     OW39973   0.188   0.649   8.355 -0.0075 -0.0749 -0.1029
 9505SOL    HW139974   0.210   0.736   8.324 -0.3719 -0.2419 -0.8267
 9505SOL    HW239975   0.117   0.620   8.297 -1.6402  1.5955  1.0716
 9506SOL     OW39976   3.526   1.824   7.975  0.1187  0.1009  0.2840
 9506SOL    HW139977   3.523   1.881   8.052 -1.8586  1.5285 -0.8209
 9506SOL    HW239978   3.438   1.785   7.974  0.2867 -0.3131  2.8081
 9507SOL     OW39979   3.134   0.052   9.222  0.1262 -0.4690  0.2221
 9507SOL    HW139980   3.228   0.067   9.233  0.2813 -0.6971 -0.8083
 9507SOL    HW239981   3.118   4.711   9.293  1.1745 -1.8734 -0.7847
 9508SOL     OW39982   1.814   4.017   8.362  0.1047 -0.1062 -0.7027
 9508SOL    HW139983   1.841   3.944   8.418 -0.9653 -2.1177 -2.7793
 9508SOL    HW239984   1.814   4.099   8.411 -0.5740 -0.4089 -0.1953
 9509SOL     OW39985   2.234   4.586   2.654 -0.3454  0.3388 -0.0781
 9509SOL    HW139986   2.238   4.522   2.725 -2.4119  0.9723  0.6323
 9509SOL    HW239987   2.261   4.659   2.710  0.2014  0.4634 -0.5060
 9510SOL     OW39988   2.780   0.289   4.321  0.0479 -0.0282  0.2937
 9510SOL    HW139989   2.704   0.269   4.266  0.9652 -0.9144 -0.6384
 9510SOL    HW239990   2.814   0.373   4.292 -1.2147  0.4249  0.1141
 9511SOL     OW39991   2.155   4.499   6.594  0.0808 -0.3483  0.0605
 9511SOL    HW139992   2.237   4.460   6.565  0.4811 -0.2012  0.9891
 9511SOL    HW239993   2.138   4.540   6.510 -0.2821 -0.4595  0.0821
 9512SOL     OW39994   1.738   1.055   7.031 -0.0028  0.3053 -0.1891
 9512SOL    HW139995   1.651   1.022   7.054 -0.4372 -0.3143 -2.7941
 9512SOL    HW239996   1.729   1.147   7.054  0.2928  0.1170  0.7043
 9513SOL     OW39997   1.859   3.361   9.363  0.7181  0.0845  0.3245
 9513SOL    HW139998   1.918   3.340   9.435 -4.0436 -0.9627  3.9477
 9513SOL    HW239999   1.904   3.439   9.332  1.7483 -1.1360 -1.2412
 9514SOL     OW40000   3.610   3.021  13.679  0.6857  0.2689  0.2743
 9514SOL    HW140001   3.538   3.043  13.739 -0.7813  1.6234 -1.9822
 9514SOL    HW240002   3.590   3.068  13.598 -0.7121 -0.4925  0.1755
 9515SOL     OW40003   1.594   4.005   8.202  0.2047 -0.4360  0.4960
 9515SOL    HW140004   1.592   3.929   8.261  2.3797 -0.4910  0.5097
 9515SOL    HW240005   1.668   4.051   8.242  2.1577 -2.0759 -1.2176
 9516SOL     OW40006   3.889   0.338   3.626  0.3426 -0.1413 -0.0892
 9516SOL    HW140007   3.976   0.374   3.646  0.3821 -1.5437  2.2413
 9516SOL    HW240008   3.905   0.334   3.532 -0.8987  0.4915 -0.3177
 9517SOL     OW40009   0.653   0.770   6.984 -0.2276 -0.7365  0.6670
 9517SOL    HW140010   0.642   0.704   6.916  0.7219 -0.2277  0.0170
 9517SOL    HW240011   0.573   0.817   6.962  0.0636 -1.8440 -2.7549
 9518SOL     OW40012   4.195   0.183   5.825 -0.7014 -0.0567  0.1517
 9518SOL    HW140013   4.190   0.093   5.794 -0.3828  1.0798 -3.2184
 9518SOL    HW240014   4.142   0.222   5.756 -1.6515 -1.1229  0.2788
 9519SOL     OW40015   1.901   1.971   2.912  0.4776 -0.1548 -0.1376
 9519SOL    HW140016   1.979   1.916   2.923  0.6071  0.0065 -0.2481
 9519SOL    HW240017   1.941   2.055   2.889  0.8471  0.2444  1.8926
 9520SOL     OW40018   3.006   1.432  11.808 -0.6698  0.2355 -0.2479
 9520SOL    HW140019   3.049   1.409  11.890  0.7509  1.0271 -0.7779
 9520SOL    HW240020   2.972   1.350  11.774 -0.9181  0.9085 -1.5964
 9521SOL     OW40021   4.365   0.890   8.844  0.5867 -0.1774 -0.1419
 9521SOL    HW140022   4.426   0.824   8.876  1.6343  0.6672 -0.3925
 9521SOL    HW240023   4.427   0.957   8.873  2.3346 -1.8486 -0.0086
 9522SOL     OW40024   2.147   3.024   5.663  0.4311  0.3653 -0.1149
 9522SOL    HW140025   2.205   2.958   5.624  0.4280  0.3860 -0.1545
 9522SOL    HW240026   2.062   2.981   5.674  1.2483 -1.2796 -0.1544
 9523SOL     OW40027   3.445   0.212   3.846 -0.0123 -0.6689 -0.3628
 9523SOL    HW140028   3.429   0.197   3.753  1.4758  1.3947 -0.9510
 9523SOL    HW240029   3.433   0.126   3.885 -2.1480  0.2735  1.0376
 9524SOL     OW40030   2.620   4.639   7.905 -0.2294 -0.0301  0.8483
 9524SOL    HW140031   2.699   4.587   7.893 -1.0007 -1.0310  0.0579
 9524SOL    HW240032   2.582   4.615   7.820 -1.2652 -0.6378  1.4803
 9525SOL     OW40033   1.392   0.860   4.583 -0.5672 -0.1918 -0.5251
 9525SOL    HW140034   1.376   0.815   4.500  0.2461  2.1502 -1.9482
 9525SOL    HW240035   1.397   0.953   4.562 -0.7097  0.5948  2.9261
 9526SOL     OW40036   4.302   2.136   9.810 -0.2371  0.1034  0.3863
 9526SOL    HW140037   4.230   2.093   9.856  0.7221 -0.5315  1.2834
 9526SOL    HW240038   4.312   2.077   9.735 -0.0621  2.0296 -1.1254
 9527SOL     OW40039   4.658   4.187   3.320 -0.3042 -0.1954 -0.3976
 9527SOL    HW140040   0.000   4.119   3.341 -1.2139 -1.3887 -1.4727
 9527SOL    HW240041   4.713   4.263   3.336 -0.9046  0.0096  0.7164
 9528SOL     OW40042   2.859   0.775   2.924  0.5779  1.1742  0.4808
 9528SOL    HW140043   2.810   0.805   3.001 -1.4758 -1.5813  0.2830
 9528SOL    HW240044   2.778   0.745   2.883 -0.7312  1.9014  2.5200
 9529SOL     OW40045   0.028   1.029  11.335 -0.0210  0.5515  0.2361
 9529SOL    HW140046   0.099   1.039  11.272 -2.6282 -0.3175 -2.8527
 9529SOL    HW240047   0.061   1.088  11.403  1.7573  0.0637 -0.2041
 9530SOL     OW40048   0.947   1.064  13.057  0.1440  0.1567 -0.0905
 9530SOL    HW140049   0.891   1.065  13.135  1.2333 -2.2284  0.7140
 9530SOL    HW240050   1.028   1.032  13.095  1.7951  2.1051 -1.9486
 9531SOL     OW40051   0.605   2.855   7.397  0.3563 -0.0522 -0.0158
 9531SOL    HW140052   0.670   2.820   7.459  0.0168 -1.7028 -0.5770
 9531SOL    HW240053   0.591   2.947   7.419  0.5322  0.0006 -0.1319
 9532SOL     OW40054   2.311   3.357   2.607 -0.1194 -0.2996 -0.2899
 9532SOL    HW140055   2.331   3.408   2.528 -0.7462  0.2014 -0.1234
 9532SOL    HW240056   2.222   3.389   2.621 -1.0492 -2.9016 -0.3116
 9533SOL     OW40057   4.645   1.119   5.894 -0.2305 -0.1016  0.7990
 9533SOL    HW140058   0.003   1.155   5.935  0.8888 -0.4339 -1.0640
 9533SOL    HW240059   4.651   1.026   5.915  0.8573 -0.0951  0.5297
 9534SOL     OW40060   0.683   2.888   6.689  0.1968 -0.4566 -0.2828
 9534SOL    HW140061   0.698   2.796   6.671  2.2048 -0.0957 -0.5321
 9534SOL    HW240062   0.745   2.928   6.628 -0.8516 -0.3970 -1.3082
 9535SOL     OW40063   2.279   2.873  16.390 -0.1701  0.0497 -0.6143
 9535SOL    HW140064   2.337   2.855  16.316 -1.2135 -1.1572 -1.1319
 9535SOL    HW240065   2.203   2.909  16.346  0.2361  1.9948  0.2491
 9536SOL     OW40066   2.735   4.430   3.252 -0.1135 -0.0413  0.1049
 9536SOL    HW140067   2.678   4.370   3.299  1.1248 -0.4766  1.0521
 9536SOL    HW240068   2.772   4.475   3.328  3.1722  1.2187 -2.2351
 9537SOL     OW40069   2.441   4.681  15.371  0.5735  0.0704 -0.0333
 9537SOL    HW140070   2.373   4.652  15.310  0.2223 -0.6727  0.6996
 9537SOL    HW240071   2.408   0.049  15.369  1.4628  0.4133  0.8178
 9538SOL     OW40072   3.494   3.479   1.464  0.2182  0.1717  0.1087
 9538SOL    HW140073   3.456   3.409   1.518 -2.9790  0.7188 -1.3965
 9538SOL    HW240074   3.469   3.554   1.517 -0.2004 -0.0921  0.2876
 9539SOL     OW40075   3.387   1.707   5.925  0.2770  0.6891  0.2693
 9539SOL    HW140076   3.426   1.713   5.838 -0.4552 -0.5598 -0.1557
 9539SOL    HW240077   3.460   1.733   5.981  0.0254  0.5824  0.6509
 9540SOL     OW40078   4.595   4.004   8.714  0.0934  0.0947  0.0084
 9540SOL    HW140079   4.644   3.951   8.651 -0.5402  0.4641 -0.7907
 9540SOL    HW240080   4.655   4.079   8.711  0.3461 -0.1436 -0.9333
 9541SOL     OW40081   3.103   1.384  11.242 -0.6686  0.1559 -0.1569
 9541SOL    HW140082   3.174   1.399  11.305 -1.3021 -0.3733  0.6870
 9541SOL    HW240083   3.139   1.416  11.160  1.4624  1.5639  1.3142
 9542SOL     OW40084   3.112   2.440   8.112 -0.3293 -0.2599 -0.7589
 9542SOL    HW140085   3.128   2.532   8.096  0.0034 -0.2457 -0.3469
 9542SOL    HW240086   3.079   2.455   8.201 -0.3026 -2.1545 -0.4238
 9543SOL     OW40087   0.536   2.942   3.530 -0.4168  0.1935  0.4408
 9543SOL    HW140088   0.562   3.033   3.540 -0.4820  0.0774  1.6894
 9543SOL    HW240089   0.625   2.906   3.520 -0.3531 -0.4167  3.0821
 9544SOL     OW40090   4.284   1.631   2.666  0.2444  0.3765  0.5038
 9544SOL    HW140091   4.215   1.655   2.728 -1.6406 -0.7020 -1.1773
 9544SOL    HW240092   4.362   1.679   2.693 -0.1813  0.1800  2.1020
 9545SOL     OW40093   2.475   0.301   4.418 -0.2626  0.0038 -0.0600
 9545SOL    HW140094   2.504   0.381   4.375  2.7376 -0.9520  0.1596
 9545SOL    HW240095   2.552   0.288   4.474  0.8515  0.7268 -1.4418
 9546SOL     OW40096   2.626   1.903   7.823 -0.1687 -0.4762 -0.6666
 9546SOL    HW140097   2.688   1.835   7.796 -0.2473 -0.1245 -1.7534
 9546SOL    HW240098   2.684   1.952   7.882 -0.8131 -0.2016 -0.2621
 9547SOL     OW40099   4.472   1.030   5.361 -0.3721 -0.2790  0.0014
 9547SOL    HW140100   4.544   0.969   5.344 -0.2807 -0.6594  1.7207
 9547SOL    HW240101   4.525   1.104   5.392 -1.1821  0.7622 -1.0940
 9548SOL     OW40102   2.853   1.940   3.585 -0.0946  0.4698  0.2023
 9548SOL    HW140103   2.821   2.015   3.535 -0.8522  0.3308  0.4830
 9548SOL    HW240104   2.910   1.897   3.521  2.7121  0.4709  2.7226
 9549SOL     OW40105   2.005   2.622   5.777  0.8820  0.0618  0.3006
 9549SOL    HW140106   2.055   2.544   5.801 -1.5199 -1.2365  1.1089
 9549SOL    HW240107   1.964   2.597   5.695 -0.3015  0.2119  0.8388
 9550SOL     OW40108   4.159   3.839   7.775  0.1162  0.4421  0.1236
 9550SOL    HW140109   4.158   3.920   7.827  1.4737 -0.1025  0.9920
 9550SOL    HW240110   4.195   3.872   7.692  0.0469 -0.4637 -0.2639
 9551SOL     OW40111   3.922   3.859  13.667  0.3416 -0.2970 -0.3950
 9551SOL    HW140112   4.015   3.844  13.683  0.5778 -1.5127 -2.8514
 9551SOL    HW240113   3.899   3.865  13.760  0.3709  0.6101 -0.4446
 9552SOL     OW40114   0.723   4.051  16.417 -0.4630 -0.7128  0.0901
 9552SOL    HW140115   0.732   4.144  16.440 -1.2978 -0.8461  0.9248
 9552SOL    HW240116   0.681   4.056  16.331 -0.8775 -0.3273  0.3201
 9553SOL     OW40117   1.902   1.687   2.420 -0.3641 -0.0582 -0.1589
 9553SOL    HW140118   1.845   1.621   2.381  0.2566 -0.8429  0.2525
 9553SOL    HW240119   1.840   1.730   2.479  2.3401  2.2414  1.0396
 9554SOL     OW40120   1.445   0.629   1.553 -0.0017  0.3249 -0.1197
 9554SOL    HW140121   1.444   0.620   1.457 -3.8408  0.9649 -0.1349
 9554SOL    HW240122   1.454   0.721   1.576  0.6076  0.0822  0.6011
 9555SOL     OW40123   0.693   2.384   7.203 -0.5590  0.5791  0.2761
 9555SOL    HW140124   0.684   2.365   7.297  1.7026  0.3832  0.4505
 9555SOL    HW240125   0.775   2.340   7.183 -1.0045  0.4983 -1.4023
 9556SOL     OW40126   4.053   1.450   9.469 -0.0302  0.0131  0.7415
 9556SOL    HW140127   3.986   1.513   9.494 -1.3689 -0.4243 -1.7789
 9556SOL    HW240128   4.099   1.447   9.553 -0.9306 -1.3802  1.1783
 9557SOL     OW40129   1.538   1.324   8.520  0.4237 -0.3492 -0.4812
 9557SOL    HW140130   1.524   1.418   8.533  0.7042 -0.3318 -0.3014
 9557SOL    HW240131   1.561   1.306   8.429 -0.3581 -0.9489 -0.5626
 9558SOL     OW40132   3.706   2.555   5.909  0.7637  0.0286 -0.2616
 9558SOL    HW140133   3.667   2.614   5.972 -0.4373  0.9182 -1.8438
 9558SOL    HW240134   3.760   2.620   5.865 -2.1944  2.0248 -0.9252
 9559SOL     OW40135   2.380   2.507   3.978  0.4798  0.1000 -0.0332
 9559SOL    HW140136   2.472   2.493   4.002  0.4221  0.4879  0.4104
 9559SOL    HW240137   2.382   2.522   3.884 -2.2475  1.2165  0.0901
 9560SOL     OW40138   0.654   2.216  12.133 -0.2655  0.3504  0.2009
 9560SOL    HW140139   0.668   2.298  12.086 -0.5076 -0.0880 -0.6434
 9560SOL    HW240140   0.605   2.246  12.209  0.6217 -0.8889  1.2622
 9561SOL     OW40141   1.904   2.422   9.164  0.3065  0.2316  0.0170
 9561SOL    HW140142   1.817   2.382   9.166  0.0006  0.7917 -2.5930
 9561SOL    HW240143   1.919   2.442   9.072 -0.6768 -1.4415 -0.4960
 9562SOL     OW40144   0.237   0.307   3.543  0.3051 -0.4457 -0.4045
 9562SOL    HW140145   0.304   0.365   3.581 -0.7298 -0.9269  2.1309
 9562SOL    HW240146   0.265   0.315   3.452 -2.9173  0.0754 -1.3486
 9563SOL     OW40147   4.192   0.865   4.744  0.3076 -0.1706  0.4255
 9563SOL    HW140148   4.243   0.856   4.825 -0.6832  3.6575  1.4591
 9563SOL    HW240149   4.163   0.774   4.737  0.0702 -0.1541  1.2072
 9564SOL     OW40150   3.179   2.889  17.289  0.6125  0.4303  0.5268
 9564SOL    HW140151   3.083   2.884  17.287  0.5328  2.0857 -0.5014
 9564SOL    HW240152   3.200   2.980  17.310 -0.8239  0.5764  1.2972
 9565SOL     OW40153   0.072   2.240   2.844  0.1567  0.3382  0.0299
 9565SOL    HW140154   0.037   2.154   2.822 -1.0564  0.5354  1.2083
 9565SOL    HW240155   0.111   2.224   2.931  1.2133 -0.8632 -0.6685
   4.72163   4.72163  17.68878
