Membrane in water
40155
    1TCq1    O1    1   3.711   3.508  11.140 -0.0164  0.1646 -0.4164
    1TCq1    C1    2   3.745   3.629  11.081  0.0393  0.4683  0.1053
    1TCq1    O2    3   3.756   3.652  10.963 -0.3036  0.3908  0.9179
    1TCq1    C2    4   3.829   3.696  11.178  0.1809 -1.2374 -0.3145
    1TCq1    C3    5   3.947   3.753  11.133  0.0639 -1.0732  0.3176
    1TCq1    C4    6   4.015   3.824  11.226 -0.4133  0.5731 -0.5194
    1TCq1    C5    7   3.985   3.819  11.357 -0.0231  0.0191 -0.4193
    1TCq1    C6    8   3.881   3.745  11.397  0.3971  0.7610  0.2088
    1TCq1    C7    9   3.789   3.689  11.309  0.1328 -0.3167  0.2004
    1TCq1    C8   10   3.847   3.742  11.541  0.0133  0.0509  0.8113
    1TCq1    O4   11   3.737   3.703  11.575 -0.5778 -0.5614 -0.5921
    1TCq1    C9   12   4.116   3.912  11.192 -0.5185  0.1243 -0.1177
    1TCq1    O5   13   4.169   3.988  11.280  0.0333  0.1554  0.2157
    1TCq1    O6   14   4.157   3.907  11.074 -0.1021 -0.4962 -0.0090
    1TCq1    H1   15   3.714   3.511  11.238  4.0297 -0.7239 -0.5150
    1TCq1    H2   16   3.971   3.735  11.029 -2.2792 -0.5889 -0.3127
    1TCq1    H3   17   4.049   3.876  11.423 -0.7908 -0.8808  1.0866
    1TCq1    H4   18   3.701   3.639  11.349 -1.4432  3.4387  1.3822
    2MPD2     C   19   3.915   3.821  12.045 -0.5062  0.3221 -0.5432
    2MPD2    C1   20   3.804   3.829  11.964 -0.4003  0.0884 -0.9090
    2MPD2    C2   21   3.816   3.815  11.827 -0.2392 -0.0266 -0.5247
    2MPD2    C3   22   3.938   3.786  11.763 -0.3830  1.1981 -0.1180
    2MPD2    C4   23   4.052   3.779  11.847  0.7034  0.0082 -0.8873
    2MPD2    C5   24   4.033   3.804  11.988  0.5634  0.5199 -0.1095
    2MPD2     H   25   3.726   3.826  11.767  0.3709 -0.7877 -1.5715
    2MPD2    H1   26   4.155   3.768  11.817  1.2332  0.1639  0.8424
    2MPD2    H2   27   3.909   3.837  12.152  1.8565  2.4792 -0.7322
    2MPD2    H3   28   4.120   3.790  12.050  2.2564  0.7059 -2.4723
    2MPD2     N   29   3.951   3.772  11.623 -0.5417 -0.8090  0.3163
    2MPD2    H5   30   4.042   3.779  11.580 -1.2934  0.1748 -1.1097
    2MPD2    N1   31   3.682   3.860  12.027 -0.9211 -0.5228  0.1469
    2MPD2    H7   32   3.608   3.892  11.965 -2.2925 -1.7219  1.1679
    3TCq1    O1   33   3.057   0.263  10.347  0.3843  0.0486  0.3539
    3TCq1    C1   34   3.082   0.192  10.458  0.7980 -0.1347  1.2528
    3TCq1    O2   35   3.013   0.095  10.487 -0.4631 -0.0901  0.0925
    3TCq1    C2   36   3.141   0.280  10.557  0.2730 -0.2799  0.6222
    3TCq1    C3   37   3.228   0.375  10.514  0.6679 -0.3544 -0.1698
    3TCq1    C4   38   3.240   0.491  10.590 -0.7084  0.1456  0.5626
    3TCq1    C5   39   3.174   0.515  10.708  1.1051  0.6421 -0.4415
    3TCq1    C6   40   3.073   0.422  10.734 -0.3138  0.2439  0.3344
    3TCq1    C7   41   3.061   0.303  10.672  0.3915  0.2185 -0.3217
    3TCq1    C8   42   3.006   0.438  10.863 -0.0974  0.3427 -0.5518
    3TCq1    O4   43   2.953   0.344  10.921 -0.0401  1.0085 -0.0720
    3TCq1    C9   44   3.338   0.594  10.544  0.0611 -0.4230  0.1511
    3TCq1    O5   45   3.396   0.578  10.434 -0.1318 -0.1481 -1.1248
    3TCq1    O6   46   3.321   0.703  10.601 -0.2636  0.1897  0.6325
    3TCq1    H1   47   3.121   0.338  10.341 -0.2687  0.6473  0.8224
    3TCq1    H2   48   3.298   0.355  10.434  0.1114 -0.0250 -0.7381
    3TCq1    H3   49   3.201   0.600  10.769 -1.4330 -0.2082  1.8515
    3TCq1    H4   50   2.985   0.232  10.703  1.2959  0.0787  1.5816
    4MPD2     C   51   2.768   0.762  11.186 -0.3005 -0.5109  0.0483
    4MPD2    C1   52   2.838   0.833  11.096  0.8458 -0.5436  0.1016
    4MPD2    C2   53   2.909   0.765  10.996  0.3232  0.3497 -0.1040
    4MPD2    C3   54   2.906   0.629  10.986 -0.3478  0.3224 -0.3050
    4MPD2    C4   55   2.835   0.557  11.082 -0.0512  0.5811  0.6756
    4MPD2    C5   56   2.775   0.628  11.186 -0.5431  0.1975  0.3168
    4MPD2     H   57   2.982   0.810  10.929 -0.5400  0.5782 -0.8854
    4MPD2    H1   58   2.824   0.449  11.078  1.3093  0.4727 -0.2022
    4MPD2    H2   59   2.712   0.809  11.266  1.0186  0.9675  0.0992
    4MPD2    H3   60   2.716   0.567  11.253 -1.2758  0.0854 -0.4245
    4MPD2     N   61   2.984   0.568  10.887  0.2261  0.6879  0.3626
    4MPD2    H5   62   3.005   0.634  10.813  0.9156 -0.5997 -0.5912
    4MPD2    N1   63   2.853   0.976  11.110 -0.2948  0.4926 -0.0515
    4MPD2    H7   64   2.902   1.020  11.033  0.7709 -0.6550 -0.0229
    5TCq1    O1   65   4.055   2.125  12.072 -0.5486 -0.1836  0.3423
    5TCq1    C1   66   4.044   1.994  12.035 -0.3963  0.5110  0.4496
    5TCq1    O2   67   4.137   1.913  12.026 -0.1769 -0.5167 -0.4749
    5TCq1    C2   68   3.932   1.988  11.951  0.0057 -0.6567 -0.1383
    5TCq1    C3   69   3.826   2.060  11.997  0.3871  0.4137  0.9267
    5TCq1    C4   70   3.720   2.092  11.912  0.3191 -0.2437 -0.0654
    5TCq1    C5   71   3.731   2.049  11.776  0.2032 -0.1403  0.4073
    5TCq1    C6   72   3.844   1.985  11.735  0.1508 -0.7271  0.5829
    5TCq1    C7   73   3.951   1.958  11.818 -0.1306 -0.5969  0.0007
    5TCq1    C8   74   3.856   1.965  11.596 -0.3582  0.0718  0.1907
    5TCq1    O4   75   3.949   1.891  11.566  0.0976  0.4790 -0.1681
    5TCq1    C9   76   3.604   2.159  11.962 -0.7602  0.1083  0.5049
    5TCq1    O5   77   3.583   2.145  12.085  0.0854  0.4608  0.0419
    5TCq1    O6   78   3.536   2.219  11.877  0.3083 -0.3096 -0.0911
    5TCq1    H1   79   3.973   2.175  12.051  0.9858  2.2131 -0.0442
    5TCq1    H2   80   3.818   2.073  12.105 -0.2783 -0.1060  0.9420
    5TCq1    H3   81   3.641   2.058  11.717  0.1501 -5.3726 -0.3268
    5TCq1    H4   82   4.047   1.923  11.782 -0.0019  0.0303 -0.2659
    6MPD2     C   83   3.711   2.173  11.337  0.9404 -0.2399 -0.2418
    6MPD2    C1   84   3.789   2.070  11.386  0.0980 -0.3413  0.3698
    6MPD2    C2   85   3.869   1.990  11.306 -0.1806 -0.4526 -0.5195
    6MPD2    C3   86   3.869   2.019  11.172  0.8765  0.7746 -0.4514
    6MPD2    C4   87   3.786   2.120  11.119 -0.0026 -0.3905 -0.2677
    6MPD2    C5   88   3.701   2.195  11.202  0.1830  0.8388 -0.0720
    6MPD2     H   89   3.927   1.910  11.350  0.9823 -0.1168 -1.4691
    6MPD2    H1   90   3.785   2.143  11.013 -4.5345  0.5760  0.0034
    6MPD2    H2   91   3.646   2.222  11.409  0.1700 -1.4165 -0.1298
    6MPD2    H3   92   3.630   2.269  11.167  0.8481  2.1461  1.3201
    6MPD2     N   93   3.944   1.927  11.091  0.7434  0.0590  0.8574
    6MPD2    H5   94   3.985   1.853  11.147 -1.0681 -0.3553  1.6132
    6MPD2    N1   95   3.793   2.063  11.527  0.3616  0.2591  0.1286
    6MPD2    H7   96   3.737   2.134  11.574 -0.3672 -0.0183 -0.3231
    7TCq1    O1   97   1.332   2.231  13.120 -0.0482 -0.2479 -0.2951
    7TCq1    C1   98   1.208   2.177  13.093 -0.4935  0.3497  0.5167
    7TCq1    O2   99   1.180   2.115  12.991  0.0741  0.1876  0.3909
    7TCq1    C2  100   1.169   2.129  13.228  0.3149 -0.6645 -0.8318
    7TCq1    C3  101   1.157   2.217  13.332  0.9014 -0.3191  0.5259
    7TCq1    C4  102   1.071   2.189  13.437 -0.2670 -0.1091 -0.1055
    7TCq1    C5  103   1.006   2.067  13.442  0.4792  0.1927 -0.2608
    7TCq1    C6  104   1.029   1.975  13.342 -0.9511  0.0941 -0.6523
    7TCq1    C7  105   1.100   2.008  13.230 -0.3197 -0.1824  0.1942
    7TCq1    C8  106   1.035   1.835  13.385  0.3202  0.4688  0.1195
    7TCq1    O4  107   1.136   1.778  13.355 -0.0235 -0.1749 -0.6292
    7TCq1    C9  108   1.047   2.280  13.546 -0.7138 -0.5231 -0.3986
    7TCq1    O5  109   0.968   2.243  13.636  0.6695  0.2105 -0.8095
    7TCq1    O6  110   1.140   2.363  13.557 -0.1677  0.5433  0.0794
    7TCq1    H1  111   1.354   2.251  13.213 -2.7861 -1.3256  0.5768
    7TCq1    H2  112   1.190   2.320  13.330  3.3106 -1.0881  1.2965
    7TCq1    H3  113   0.944   2.044  13.529  0.6103 -1.5964 -0.6253
    7TCq1    H4  114   1.115   1.935  13.151 -0.9297 -0.4773  0.3565
    8MPD2     C  115   0.855   1.383  13.551  0.1334 -0.0943 -0.4144
    8MPD2    C1  116   0.974   1.412  13.500  0.1904 -0.3936  0.3027
    8MPD2    C2  117   1.001   1.544  13.470 -0.5638 -0.4139 -0.3004
    8MPD2    C3  118   0.911   1.648  13.502 -0.1283 -0.1396 -0.4504
    8MPD2    C4  119   0.789   1.620  13.566  0.5868 -0.1946  0.0834
    8MPD2    C5  120   0.764   1.484  13.588  0.3886  0.3605  0.2954
    8MPD2     H  121   1.080   1.566  13.399  0.7996  0.3029  1.4262
    8MPD2    H1  122   0.712   1.695  13.581  0.5017  0.2602 -2.6454
    8MPD2    H2  123   0.841   1.278  13.574 -0.7313  0.1601  0.2112
    8MPD2    H3  124   0.674   1.442  13.630 -0.8020  0.1994 -2.4452
    8MPD2     N  125   0.929   1.787  13.458 -0.3492  0.4748 -0.2503
    8MPD2    H5  126   0.857   1.855  13.477 -0.7833 -0.1051  0.1771
    8MPD2    N1  127   1.047   1.302  13.457 -0.2160 -0.3044  0.4614
    8MPD2    H7  128   1.008   1.210  13.472 -0.4181 -0.1414  0.9374
    9TCq1    O1  129   3.478   4.051  10.641  0.0283  0.4959 -0.1275
    9TCq1    C1  130   3.489   4.187  10.632  0.0137  0.1378  0.2622
    9TCq1    O2  131   3.455   4.260  10.543 -0.0866 -0.2671  0.4968
    9TCq1    C2  132   3.489   4.233  10.770  0.5173 -0.6258  0.3414
    9TCq1    C3  133   3.446   4.153  10.870  0.0740  0.0525  0.3478
    9TCq1    C4  134   3.435   4.210  10.991  0.0623  0.0113  0.3818
    9TCq1    C5  135   3.480   4.344  11.013  0.3576  0.5761 -0.3774
    9TCq1    C6  136   3.529   4.420  10.912  0.1652 -0.0823  0.1692
    9TCq1    C7  137   3.528   4.362  10.788 -0.3400  0.2603  0.1488
    9TCq1    C8  138   3.558   4.564  10.922  0.7256  0.7237 -0.0964
    9TCq1    O4  139   3.607   4.626  10.827  0.1205 -0.1892  0.4429
    9TCq1    C9  140   3.381   4.134  11.110  0.3042 -0.6452  0.3902
    9TCq1    O5  141   3.386   4.191  11.222  0.4480  0.1367  0.3538
    9TCq1    O6  142   3.359   4.013  11.094 -0.2203 -0.1380  0.3774
    9TCq1    H1  143   3.532   4.001  10.705  0.8387 -0.1904 -1.3385
    9TCq1    H2  144   3.395   4.058  10.856 -0.2280  0.4950 -1.6063
    9TCq1    H3  145   3.463   4.376  11.115 -2.7970 -0.8227 -0.4347
    9TCq1    H4  146   3.543   4.426  10.702 -2.2570  0.5134 -0.0073
   10MPD2     C  147   3.603   0.132  11.011  0.2449  0.0780  0.9461
   10MPD2    C1  148   3.560   0.025  11.093  0.0486 -0.9628 -0.2652
   10MPD2    C2  149   3.524   0.050  11.224 -0.4397  0.1465 -0.2581
   10MPD2    C3  150   3.530   0.178  11.273 -0.5459  0.9947 -0.0898
   10MPD2    C4  151   3.569   0.286  11.189 -0.4648 -0.2885  0.4189
   10MPD2    C5  152   3.620   0.254  11.064  0.0681  0.1452  0.0507
   10MPD2     H  153   3.489   4.690  11.290 -1.1530  2.0814  1.6734
   10MPD2    H1  154   3.581   0.389  11.222  0.3712 -0.9869  2.2556
   10MPD2    H2  155   3.641   0.112  10.912  0.9103  1.2649  0.9630
   10MPD2    H3  156   3.687   0.329  11.023 -1.0174  2.1618  1.9785
   10MPD2     N  157   3.506   0.207  11.411 -0.4091  0.0312  0.5195
   10MPD2    H5  158   3.531   0.297  11.451 -0.5942  0.4434 -0.2869
   10MPD2    N1  159   3.536   4.614  11.046 -0.0794  0.1149  1.1331
   10MPD2    H7  160   3.495   4.550  11.113 -2.3618 -0.4669 -0.7858
   11TCq1    O1  161   0.140   0.632  14.364 -0.2575 -0.1864  0.1008
   11TCq1    C1  162   0.047   0.632  14.467  0.0011  0.1056  0.2978
   11TCq1    O2  163   0.063   0.680  14.574 -0.1925  0.2269 -0.1823
   11TCq1    C2  164   4.666   0.539  14.424  0.4980 -0.0581  0.0091
   11TCq1    C3  165   4.609   0.478  14.528 -0.7323  0.1389 -0.5843
   11TCq1    C4  166   4.509   0.396  14.511  0.0894 -0.1915 -0.8240
   11TCq1    C5  167   4.452   0.384  14.388  0.2044 -0.2653  0.3308
   11TCq1    C6  168   4.511   0.449  14.282  0.0254 -0.1846 -0.8292
   11TCq1    C7  169   4.621   0.529  14.298 -0.0136 -0.7462 -0.1772
   11TCq1    C8  170   4.459   0.436  14.143 -0.0830  0.0696 -0.6656
   11TCq1    O4  171   4.516   0.499  14.052  0.7256  0.3844  0.2430
   11TCq1    C9  172   4.447   0.317  14.622 -0.2992  0.8332  1.0285
   11TCq1    O5  173   4.353   0.241  14.586 -0.5822 -0.1345  0.3565
   11TCq1    O6  174   4.502   0.328  14.734  0.2435  0.5823  0.2786
   11TCq1    H1  175   0.123   0.569  14.291  0.3921 -0.9966  0.6553
   11TCq1    H2  176   4.654   0.480  14.626 -1.6393 -2.2435 -0.1136
   11TCq1    H3  177   4.359   0.330  14.376 -1.3435  3.0238 -2.5676
   11TCq1    H4  178   4.658   0.598  14.223 -3.1397  0.8617 -0.2688
   12MPD2     C  179   4.256   0.411  13.930  0.2255 -0.3734  0.5123
   12MPD2    C1  180   4.285   0.311  14.026 -0.5730 -0.0861  0.0148
   12MPD2    C2  181   4.220   0.184  14.012 -0.3292  0.2415  0.1823
   12MPD2    C3  182   4.116   0.173  13.920 -0.5198 -0.4077  0.6606
   12MPD2    C4  183   4.089   0.275  13.837 -0.0502 -0.0215 -0.0411
   12MPD2    C5  184   4.164   0.388  13.832 -0.2518  0.1189 -0.6824
   12MPD2     H  185   4.238   0.098  14.076  0.7389  0.5117  0.2404
   12MPD2    H1  186   4.017   0.253  13.758  1.2553 -3.6053 -0.1974
   12MPD2    H2  187   4.326   0.492  13.915  3.0231 -3.1979 -1.6187
   12MPD2    H3  188   4.148   0.460  13.753  0.1420 -0.0775 -0.9417
   12MPD2     N  189   4.042   0.049  13.899  0.7686 -0.3679 -0.1297
   12MPD2    H5  190   3.981   0.052  13.818 -1.4246 -0.1217  1.5393
   12MPD2    N1  191   4.376   0.334  14.133  0.7746 -0.3357  0.2197
   12MPD2    H7  192   4.376   0.273  14.214 -0.4052  1.5955  1.6735
   13TCq1    O1  193   3.161   3.857  11.150  0.1545  0.0183  0.1805
   13TCq1    C1  194   3.096   3.793  11.050 -0.4886 -0.3732 -0.7726
   13TCq1    O2  195   2.990   3.732  11.067 -0.2127  0.0219 -0.2258
   13TCq1    C2  196   3.103   3.895  10.950  0.0742  0.0079  0.4864
   13TCq1    C3  197   3.119   3.864  10.821  0.3862  1.1648  0.7498
   13TCq1    C4  198   3.083   3.954  10.723 -0.7320  0.1681  0.4594
   13TCq1    C5  199   3.049   4.081  10.755 -0.1622  0.1564 -0.5242
   13TCq1    C6  200   3.057   4.117  10.887 -0.0878 -0.1340  0.0668
   13TCq1    C7  201   3.073   4.025  10.980  0.1207 -0.2089  0.7745
   13TCq1    C8  202   3.086   4.251  10.924 -0.2706 -0.2300  0.4050
   13TCq1    O4  203   3.082   4.277  11.043 -0.3602 -0.1780 -0.5187
   13TCq1    C9  204   3.086   3.912  10.587 -0.6418 -0.0695  0.5222
   13TCq1    O5  205   3.082   3.790  10.560 -0.0230  0.2729 -0.3364
   13TCq1    O6  206   3.103   3.998  10.500  0.2832  0.0633 -0.3349
   13TCq1    H1  207   3.241   3.904  11.117 -1.0285  0.9322 -1.3584
   13TCq1    H2  208   3.147   3.764  10.791  0.0665  1.2533  0.1603
   13TCq1    H3  209   3.021   4.154  10.680 -0.8264  0.4469  0.0060
   13TCq1    H4  210   3.074   4.062  11.082  0.6833  1.2574  0.2506
   14MPD2     C  211   3.256   4.497  10.704  0.2022 -0.0357 -0.7477
   14MPD2    C1  212   3.187   4.454  10.821  0.4724 -0.1871 -0.1482
   14MPD2    C2  213   3.148   4.541  10.917 -0.0792  0.3616 -0.2135
   14MPD2    C3  214   3.191   4.672  10.912 -0.5342  0.3382 -0.4185
   14MPD2    C4  215   3.272   4.711  10.806  0.0221 -0.2191 -0.3416
   14MPD2    C5  216   3.294   4.626  10.705  0.1326 -0.2079 -0.1642
   14MPD2     H  217   3.078   4.504  10.991 -2.8685  3.5903 -1.2510
   14MPD2    H1  218   3.315   0.092  10.807 -0.6417  0.0863 -2.9677
   14MPD2    H2  219   3.285   4.426  10.628  0.6582  0.0579 -0.6559
   14MPD2    H3  220   3.353   4.653  10.618 -0.8647  0.9012 -0.4940
   14MPD2     N  221   3.166   0.050  11.022  0.7475  0.4176  0.0007
   14MPD2    H5  222   3.214   0.139  11.016 -0.0373  0.8874  0.7396
   14MPD2    N1  223   3.143   4.321  10.818  0.0591  0.6233 -0.2122
   14MPD2    H7  224   3.155   4.266  10.733 -0.7024  0.2712 -0.0971
   15TCq1    O1  225   4.384   3.879   1.878 -0.4244 -0.3067 -0.2450
   15TCq1    C1  226   4.464   3.900   1.769 -0.2857 -0.1371  0.0505
   15TCq1    O2  227   4.426   3.909   1.655  0.3257 -0.0572  0.4305
   15TCq1    C2  228   4.586   3.830   1.796 -0.1803 -0.3792  0.7030
   15TCq1    C3  229   4.668   3.874   1.904 -0.3739  0.1182  0.2544
   15TCq1    C4  230   0.083   3.844   1.907  0.2193 -0.1486 -0.5350
   15TCq1    C5  231   0.143   3.771   1.807 -0.2052 -0.6762 -0.0848
   15TCq1    C6  232   0.064   3.731   1.701 -0.6142 -0.2420  0.4312
   15TCq1    C7  233   4.651   3.758   1.698  0.3080  0.1723 -0.2113
   15TCq1    C8  234   0.134   3.681   1.585 -0.0767  0.8251  0.5057
   15TCq1    O4  235   0.254   3.707   1.573  0.5480 -0.2352 -0.3746
   15TCq1    C9  236   0.157   3.893   2.021  0.4207  0.3700 -0.2617
   15TCq1    O5  237   0.274   3.865   2.030 -0.4165 -0.0517 -0.3790
   15TCq1    O6  238   0.099   3.980   2.096 -0.2289 -0.0483  0.7076
   15TCq1    H1  239   4.423   3.829   1.953  2.2172 -0.9183 -2.0240
   15TCq1    H2  240   4.631   3.935   1.986  0.8463  1.0008  0.1516
   15TCq1    H3  241   0.250   3.753   1.807 -0.0966 -0.0264  3.0598
   15TCq1    H4  242   4.589   3.738   1.611  1.0612  3.3738 -1.4687
   16MPD2     C  243   4.711   3.509   1.280  0.4813  0.4960  0.3855
   16MPD2    C1  244   0.088   3.549   1.367  0.2263 -0.2714 -0.2454
   16MPD2    C2  245   0.219   3.539   1.327  0.1172 -0.3869 -0.4604
   16MPD2    C3  246   0.256   3.470   1.212 -0.5781 -0.3078 -0.2026
   16MPD2    C4  247   0.159   3.440   1.118  0.6173  0.2364 -0.8275
   16MPD2    C5  248   0.028   3.459   1.155 -0.4372  0.8026 -0.2304
   16MPD2     H  249   0.302   3.573   1.388 -0.0865 -1.3798  0.3710
   16MPD2    H1  250   0.194   3.414   1.019 -1.0208 -1.5593 -0.9368
   16MPD2    H2  251   4.606   3.517   1.308  0.5322  2.4044  0.0460
   16MPD2    H3  252   4.663   3.438   1.091  1.4332 -2.5860 -1.5691
   16MPD2     N  253   0.398   3.462   1.188  0.5789  0.0431 -0.4247
   16MPD2    H5  254   0.460   3.499   1.260  0.2504  1.0473 -0.6701
   16MPD2    N1  255   0.049   3.617   1.491 -0.3323 -0.3134 -0.0455
   16MPD2    H7  256   4.669   3.622   1.510 -0.3116 -0.9632  0.2079
   17TCq1    O1  257   2.810   2.641   9.694  0.0474  0.4736 -0.4917
   17TCq1    C1  258   2.887   2.619   9.801  0.4252  0.2928  0.1363
   17TCq1    O2  259   2.881   2.521   9.872  0.3053  0.1458  0.1376
   17TCq1    C2  260   2.941   2.749   9.838 -0.5816  0.2633  0.0827
   17TCq1    C3  261   2.990   2.826   9.734  0.0813  0.8894  0.0683
   17TCq1    C4  262   3.074   2.930   9.772  0.5110 -0.5866  0.0020
   17TCq1    C5  263   3.090   2.968   9.901  1.0325  0.3707  0.1024
   17TCq1    C6  264   3.041   2.887  10.002 -0.2417 -0.9482  0.1686
   17TCq1    C7  265   2.971   2.775   9.967 -0.6468 -0.2123 -0.5692
   17TCq1    C8  266   3.077   2.917  10.141 -0.4433 -0.2973  0.7985
   17TCq1    O4  267   3.040   2.837  10.226  0.3650 -0.1509 -0.0640
   17TCq1    C9  268   3.145   3.001   9.667  0.1248 -0.2124 -0.3402
   17TCq1    O5  269   3.107   2.976   9.547  0.0124  0.7177 -0.4927
   17TCq1    O6  270   3.252   3.053   9.696  0.1008 -0.0910 -0.7171
   17TCq1    H1  271   2.816   2.737   9.677 -2.1123  0.1876 -3.0021
   17TCq1    H2  272   2.992   2.798   9.630  1.2472 -1.2362  0.6647
   17TCq1    H3  273   3.173   3.038   9.906 -0.1275  1.9333 -2.5289
   17TCq1    H4  274   2.941   2.708  10.047 -1.7624  0.9647  0.0203
   18MPD2     C  275   3.229   3.018  10.387  0.6473  0.4010 -0.7573
   18MPD2    C1  276   3.201   3.089  10.274 -0.0593  0.1020  0.2942
   18MPD2    C2  277   3.246   3.224  10.263 -0.4165  0.0267  0.0838
   18MPD2    C3  278   3.327   3.279  10.362  0.1593 -0.5898 -0.6349
   18MPD2    C4  279   3.346   3.206  10.478  0.1575  0.2200  0.0187
   18MPD2    C5  280   3.288   3.080  10.492  0.9874  0.6612  0.1786
   18MPD2     H  281   3.231   3.268  10.165  1.5981  2.1623  0.7283
   18MPD2    H1  282   3.399   3.244  10.565  1.8073 -0.9941 -0.4600
   18MPD2    H2  283   3.199   2.914  10.394 -0.1234  0.5895 -1.3075
   18MPD2    H3  284   3.326   3.020  10.574 -0.5874  0.4670  0.7642
   18MPD2     N  285   3.391   3.407  10.351  0.3316  0.0448 -0.3586
   18MPD2    H5  286   3.472   3.418  10.411  0.0911  0.3350 -0.0910
   18MPD2    N1  287   3.139   3.040  10.156 -0.4499  0.0570  0.4095
   18MPD2    H7  288   3.152   3.099  10.075  0.6835 -2.7231 -1.4665
   19TMC2    C1  289   0.448   4.447  13.944  0.3175 -0.2275  0.3579
   19TMC2    C2  290   0.425   4.543  13.851  0.2077 -0.2626 -1.0495
   19TMC2    C3  291   0.310   4.544  13.774  0.2517  0.1036 -0.6811
   19TMC2    C4  292   0.354   4.355  13.977  0.3477  0.0978  1.1343
   19TMC2    C5  293   0.238   4.361  13.909  1.3876  0.0251  0.5802
   19TMC2    C6  294   0.219   4.444  13.800 -0.3839  0.1649  0.3382
   19TMC2     C  295   0.566   4.475  14.036 -0.5207  0.5412  0.2295
   19TMC2     O  296   0.648   4.560  13.994  0.4902  0.3499 -0.3983
   19TMC2     H  297   0.511   4.606  13.833 -0.0928  1.0115  1.8781
   19TMC2    H1  298   0.378   4.271  14.041  1.0113 -0.3522  0.2932
   19TMC2    H2  299   0.135   4.434  13.731  1.8607 -0.8074 -2.2384
   19TMC2    C7  300   0.139   4.263  13.937 -0.4940  1.0142 -0.3375
   19TMC2    C8  301   0.336   4.575  13.635  0.3632 -0.3031 -0.2456
   19TMC2    O1  302   0.174   4.159  13.990  0.2287  0.6951  0.2126
   19TMC2    O2  303   0.317   4.499  13.543 -0.2892  0.2846  0.4554
   19TMC2    O5  304   0.406   4.688  13.632  0.8265 -0.1695 -0.2421
   19TMC2    H5  305   0.398   0.026  13.711 -2.5143 -0.9000 -0.0959
   20MPD2     C  306   0.775   4.484  14.255 -0.3508 -0.4198 -0.0302
   20MPD2    C1  307   0.678   4.389  14.247  0.5895  0.1802 -0.1103
   20MPD2    C2  308   0.648   4.308  14.350  0.3445  0.0283 -0.4893
   20MPD2    C3  309   0.719   4.319  14.462 -0.1329  0.1807 -0.4680
   20MPD2    C4  310   0.826   4.408  14.470 -0.0629  1.0612 -0.2226
   20MPD2    C5  311   0.864   4.479  14.363 -0.3112 -0.0067 -0.6738
   20MPD2     H  312   0.559   4.246  14.355  2.1815 -2.4853  1.7347
   20MPD2    H1  313   0.885   4.419  14.561 -0.0820 -0.5275 -0.0042
   20MPD2    H2  314   0.801   4.548  14.171 -1.0507 -0.0546  0.0333
   20MPD2    H3  315   0.956   4.535  14.375  0.1093 -0.5963 -1.1154
   20MPD2     N  316   0.678   4.258  14.580  0.4052 -0.6835 -0.0210
   20MPD2    H5  317   0.721   4.303  14.660  0.2694  1.1270 -0.9581
   20MPD2    N1  318   0.572   4.387  14.146 -0.4110  0.5790  0.0638
   20MPD2    H7  319   0.492   4.325  14.159  0.1569 -0.4716 -1.4254
   21MPD2     C  320   2.482   0.300  14.069 -0.0021  0.1178 -0.1010
   21MPD2    C1  321   2.545   0.240  14.176  0.1557  0.0385 -0.4305
   21MPD2    C2  322   2.479   0.241  14.302  0.1365  0.9735 -0.0253
   21MPD2    C3  323   2.354   0.301  14.307  0.6382  0.7428  0.5068
   21MPD2    C4  324   2.293   0.366  14.201  1.1864 -0.0641  0.4102
   21MPD2    C5  325   2.361   0.360  14.080 -0.3197 -0.1800 -0.3263
   21MPD2     H  326   2.522   0.184  14.383 -1.4841  1.0400  0.8812
   21MPD2    H1  327   2.194   0.410  14.209  2.4302  3.0791 -1.1100
   21MPD2    H2  328   2.529   0.303  13.971 -1.1520  0.6507 -0.6318
   21MPD2    H3  329   2.312   0.397  13.991 -2.7537  0.0336  1.0817
   21MPD2     N  330   2.278   0.291  14.424  0.2154 -0.6526 -0.1421
   21MPD2    H5  331   2.195   0.348  14.431  0.8092  0.4067 -1.5099
   21MPD2    N1  332   2.666   0.163  14.165  0.5718 -0.4005  0.3617
   21MPD2    H7  333   2.709   0.131  14.251 -0.0539 -2.2104 -0.0023
   22TCq2    C1  334   2.299   0.208  14.533  0.3534 -0.3626 -0.2678
   22TCq2    O2  335   2.361   0.102  14.532  0.0977  0.2305  0.2133
   22TCq2    C2  336   2.225   0.243  14.651 -0.1371  0.4886 -0.1643
   22TCq2    C3  337   2.272   0.176  14.771  0.6046 -0.6812 -0.0645
   22TCq2    C4  338   2.223   0.235  14.890  0.4564  0.0120  0.2917
   22TCq2    C5  339   2.145   0.349  14.880 -0.3814  0.4382 -0.6239
   22TCq2    C6  340   2.110   0.412  14.764  0.6278  0.9208  0.3144
   22TCq2    C7  341   2.150   0.352  14.647  0.1056 -0.2520  0.6357
   22TCq2    C8  342   2.020   0.526  14.771 -0.3554 -0.0163 -0.3094
   22TCq2    O4  343   2.003   0.576  14.879  0.2876 -0.0174 -0.6226
   22TCq2    C9  344   2.272   0.183  15.021  0.5244 -0.1085 -0.0176
   22TCq2    O5  345   2.314   0.067  15.024 -0.4641  0.3230  0.0414
   22TCq2    O6  346   2.241   0.258  15.116  0.0824 -0.3173  0.0022
   22TCq2    H2  347   2.350   0.101  14.770  1.8866  0.6826 -2.9362
   22TCq2    H3  348   2.120   0.393  14.975 -0.5640 -1.7094  0.3234
   22TCq2    H4  349   2.145   0.420  14.562  0.2006  0.3599  1.1220
   23MPD2     C  350   4.304   1.293  15.157  0.5147 -0.1056  0.2594
   23MPD2    C1  351   4.208   1.189  15.143 -0.5823  0.1467 -0.6523
   23MPD2    C2  352   4.178   1.139  15.013  0.0346  0.2245 -0.4726
   23MPD2    C3  353   4.246   1.186  14.911 -0.4048 -0.3095  0.2507
   23MPD2    C4  354   4.336   1.283  14.928 -0.0286  0.3803 -0.1745
   23MPD2    C5  355   4.363   1.342  15.046 -0.8941  0.3369 -0.0082
   23MPD2     H  356   4.097   1.067  15.010 -1.2184  1.6311 -0.5116
   23MPD2    H1  357   4.373   1.329  14.837  0.2528 -2.5451 -1.5501
   23MPD2    H2  358   4.329   1.336  15.254 -1.6275  1.7672  0.0007
   23MPD2    H3  359   4.425   1.430  15.061  0.4336 -0.8546  1.5770
   23MPD2     N  360   4.221   1.144  14.780 -0.1992  0.4475  0.0417
   23MPD2    H5  361   4.274   1.203  14.716  0.7189 -0.2936  0.1213
   23MPD2    N1  362   4.145   1.131  15.258  0.2338 -0.2654 -0.2104
   23MPD2    H7  363   4.096   1.043  15.243 -1.2908  0.6692 -0.6413
   24TCq2    C1  364   4.129   1.053  14.729 -0.3761 -0.1856  0.3211
   24TCq2    O2  365   4.063   0.968  14.786  0.4890  0.0065  0.3449
   24TCq2    C2  366   4.123   1.061  14.584  0.3067 -0.3042 -0.0765
   24TCq2    C3  367   4.157   1.173  14.518 -0.0103  0.4024 -0.1107
   24TCq2    C4  368   4.119   1.196  14.386  0.5266  0.5752  0.2956
   24TCq2    C5  369   4.059   1.093  14.319 -0.3984 -0.0597 -0.2498
   24TCq2    C6  370   4.025   0.983  14.387 -0.1071 -1.0858  0.2441
   24TCq2    C7  371   4.048   0.965  14.519  0.3654  0.1098  0.4131
   24TCq2    C8  372   3.945   0.893  14.317  0.4901 -0.7088  0.3251
   24TCq2    O4  373   3.974   0.777  14.339 -0.0825  0.4518  0.3658
   24TCq2    C9  374   4.138   1.330  14.321  0.2747  0.9577  0.3445
   24TCq2    O5  375   4.153   1.420  14.404 -0.4511 -1.0113  0.2095
   24TCq2    O6  376   4.083   1.330  14.209  0.7776  0.3321  0.3137
   24TCq2    H2  377   4.186   1.265  14.569  1.2816 -0.9190  1.5441
   24TCq2    H3  378   4.044   1.103  14.212 -2.4001  0.3688  0.0757
   24TCq2    H4  379   4.008   0.878  14.570  0.1780  0.4751  0.8899
   25TMC2    C1  380   3.353   3.660  11.382  0.3005  0.5115  0.5650
   25TMC2    C2  381   3.445   3.727  11.459 -0.3172  0.1618  0.5777
   25TMC2    C3  382   3.408   3.737  11.590 -0.1707  0.0066  0.3431
   25TMC2    C4  383   3.237   3.603  11.424 -0.1264  0.1965 -0.5982
   25TMC2    C5  384   3.205   3.619  11.555 -0.1163 -0.0396 -0.2372
   25TMC2    C6  385   3.288   3.687  11.643 -0.4646  0.1117  0.2722
   25TMC2     C  386   3.391   3.641  11.246 -0.0546 -0.2363  0.8064
   25TMC2     O  387   3.479   3.718  11.218 -0.3715 -0.0060 -0.0832
   25TMC2     H  388   3.547   3.755  11.434 -0.4109  0.7602  0.8696
   25TMC2    H1  389   3.165   3.548  11.364 -1.6446  1.4409  0.0609
   25TMC2    H2  390   3.272   3.704  11.749 -1.4741 -0.4028  0.2037
   25TMC2    C7  391   3.129   3.508  11.610 -0.0865 -0.1944 -0.1717
   25TMC2    C8  392   3.488   3.804  11.686  0.0399 -0.4404  0.4556
   25TMC2    O1  393   3.104   3.413  11.540 -0.0826 -0.1257 -0.2948
   25TMC2    O2  394   3.483   3.774  11.804 -0.0931  0.1925 -0.2734
   25TMC2    O5  395   3.475   3.933  11.644 -0.0122  0.3882 -0.4192
   25TMC2    H5  396   3.476   3.943  11.546  2.4357 -1.0897 -0.5425
   26MPD2     C  397   3.289   3.516  10.748  0.5242 -0.2980  0.0258
   26MPD2    C1  398   3.202   3.452  10.829  0.3730 -0.4699 -0.4340
   26MPD2    C2  399   3.214   3.471  10.968 -0.0466 -0.5045 -0.1389
   26MPD2    C3  400   3.311   3.545  11.025  0.4820  0.1057 -0.6194
   26MPD2    C4  401   3.402   3.604  10.946  0.3322 -0.3241 -0.5471
   26MPD2    C5  402   3.392   3.593  10.811 -0.0616  0.4497  0.9799
   26MPD2     H  403   3.137   3.421  11.024 -0.7325 -0.3130 -0.9012
   26MPD2    H1  404   3.492   3.657  10.975  0.7029 -2.0867  1.5336
   26MPD2    H2  405   3.289   3.514  10.639  1.6720 -2.4640  0.0742
   26MPD2    H3  406   3.464   3.644  10.747 -0.1095 -1.8003 -0.8537
   26MPD2     N  407   3.311   3.560  11.167 -0.2058 -0.3289 -0.3406
   26MPD2    H5  408   3.238   3.508  11.214  1.1245  0.5077  2.6399
   26MPD2    N1  409   3.106   3.365  10.768 -0.0862  0.0964  0.6639
   26MPD2    H7  410   3.098   3.374  10.667 -0.0620 -0.1215  0.6424
   27TMC2    C1  411   2.206   1.215  11.982 -1.3987  0.6238 -0.0528
   27TMC2    C2  412   2.218   1.337  11.928  0.1363 -0.5209  0.1981
   27TMC2    C3  413   2.251   1.444  12.010  0.4821 -0.0152  0.3871
   27TMC2    C4  414   2.254   1.184  12.108 -0.4245  0.2673 -0.0914
   27TMC2    C5  415   2.273   1.299  12.198  0.2786 -0.3186 -0.3468
   27TMC2    C6  416   2.282   1.427  12.139 -0.4484 -0.7832  0.3631
   27TMC2     C  417   2.126   1.112  11.916 -0.9058  0.3386  0.0357
   27TMC2     O  418   2.153   1.082  11.798 -0.0224 -0.1558  0.0619
   27TMC2     H  419   2.188   1.359  11.826  0.8381 -0.3903  0.0211
   27TMC2    H1  420   2.255   1.087  12.155 -1.9807  0.3875  0.2175
   27TMC2    H2  421   2.313   1.516  12.193 -2.0019  0.3414 -0.6019
   27TMC2    C7  422   2.209   1.285  12.326 -0.4171 -0.4178 -0.5204
   27TMC2    C8  423   2.251   1.581  11.954  0.4453  0.6363 -0.0499
   27TMC2    O1  424   2.226   1.183  12.399  0.4288 -0.0384 -0.2586
   27TMC2    O2  425   2.168   1.667  11.988  0.6599 -0.2761  0.4066
   27TMC2    O5  426   2.383   1.600  11.939  0.7767  0.5727 -0.2470
   27TMC2    H5  427   2.437   1.518  11.939 -0.4700 -0.2402 -0.4661
   28MPD2     C  428   1.742   0.760  11.938 -0.1456  0.0811 -0.3234
   28MPD2    C1  429   1.741   0.841  12.053 -0.3334 -0.3445  1.0403
   28MPD2    C2  430   1.845   0.939  12.065  0.2067 -0.1182  0.0014
   28MPD2    C3  431   1.943   0.957  11.969  0.2878 -0.2582 -0.3498
   28MPD2    C4  432   1.929   0.884  11.854 -0.1429  0.7742  0.3751
   28MPD2    C5  433   1.831   0.792  11.834  0.1025 -0.1518  0.6687
   28MPD2     H  434   1.841   1.014  12.143 -0.7260  0.2321 -0.3793
   28MPD2    H1  435   1.999   0.899  11.772 -0.2645  0.3809  0.1950
   28MPD2    H2  436   1.670   0.680  11.926  0.3857 -0.4944  0.3326
   28MPD2    H3  437   1.825   0.739  11.740  0.1509  1.3250 -0.1509
   28MPD2     N  438   2.038   1.057  12.001  0.2015  0.4010  0.9285
   28MPD2    H5  439   2.034   1.097  12.094  1.7311 -0.7479  1.5046
   28MPD2    N1  440   1.641   0.818  12.150 -0.1302 -0.3912  0.3231
   28MPD2    H7  441   1.568   0.752  12.125  0.6969 -1.2915  0.3230
   29MPD2     C  442   1.456   2.924  14.134 -0.5667 -0.0931 -0.4821
   29MPD2    C1  443   1.491   2.973  14.256  0.1086  0.3129 -0.4589
   29MPD2    C2  444   1.414   3.069  14.320 -0.8771 -0.8008 -0.1793
   29MPD2    C3  445   1.296   3.111  14.252 -0.0189 -0.2322 -0.3051
   29MPD2    C4  446   1.268   3.072  14.119 -0.3022  0.6387 -0.4152
   29MPD2    C5  447   1.351   2.980  14.064 -0.1869  0.5449  0.0051
   29MPD2     H  448   1.421   3.088  14.427 -1.9117 -0.7513 -0.1201
   29MPD2    H1  449   1.171   3.088  14.073 -0.2124  3.0912  0.2402
   29MPD2    H2  450   1.519   2.854  14.079 -0.6461  0.4308 -1.2373
   29MPD2    H3  451   1.326   2.947  13.964  1.6023 -1.8866  0.3686
   29MPD2     N  452   1.204   3.206  14.314 -0.2469 -0.1050 -0.4431
   29MPD2    H5  453   1.110   3.209  14.276 -0.5718  0.6679  0.4233
   29MPD2    N1  454   1.591   2.903  14.328 -0.1662 -0.0105  0.5520
   29MPD2    H7  455   1.629   2.818  14.289 -1.3076 -0.2109 -0.1068
   30TCq2    C1  456   1.238   3.282  14.426  0.4074  0.1078 -0.0225
   30TCq2    O2  457   1.351   3.312  14.466 -0.0017  0.3587 -0.3427
   30TCq2    C2  458   1.126   3.344  14.483 -0.1250 -0.4472  0.0312
   30TCq2    C3  459   1.015   3.263  14.484 -0.1247 -0.3249 -0.5591
   30TCq2    C4  460   0.893   3.322  14.488  0.1898 -0.3058  0.3682
   30TCq2    C5  461   0.890   3.461  14.482  0.0862 -0.0122  0.0190
   30TCq2    C6  462   1.001   3.538  14.485  0.1658  0.1670 -0.3574
   30TCq2    C7  463   1.122   3.482  14.476 -0.4956 -0.1127 -0.1205
   30TCq2    C8  464   0.988   3.679  14.457  0.0667  0.1573 -0.0122
   30TCq2    O4  465   0.878   3.710  14.416 -0.1158  0.1973 -0.2766
   30TCq2    C9  466   0.769   3.247  14.480 -0.2202 -0.4134 -0.4512
   30TCq2    O5  467   0.663   3.315  14.467 -0.1957 -0.6192 -0.2900
   30TCq2    O6  468   0.784   3.135  14.433 -0.3235 -0.3924  0.1790
   30TCq2    H2  469   1.025   3.156  14.472  0.1159 -0.1611 -1.7869
   30TCq2    H3  470   0.794   3.511  14.477 -0.4491 -1.3505 -2.7089
   30TCq2    H4  471   1.219   3.526  14.456 -0.5897 -0.7686 -2.0853
   31MPD2     C  472   4.315   1.770  15.011 -0.2525 -0.1046 -0.2395
   31MPD2    C1  473   4.222   1.731  14.917  0.3244  0.1699 -0.0081
   31MPD2    C2  474   4.128   1.631  14.945  0.4215  0.0210 -0.8052
   31MPD2    C3  475   4.130   1.573  15.070  0.8335 -0.0413  0.1102
   31MPD2    C4  476   4.224   1.614  15.162  0.3156  0.5196 -0.2201
   31MPD2    C5  477   4.317   1.711  15.135  0.3638 -0.0665  0.0023
   31MPD2     H  478   4.068   1.588  14.866 -1.6705  1.6038 -0.0855
   31MPD2    H1  479   4.219   1.574  15.263  0.5678  0.4248 -0.2446
   31MPD2    H2  480   4.381   1.852  14.985 -1.8478  1.0471 -0.6294
   31MPD2    H3  481   4.385   1.741  15.214  2.1315  0.3511 -1.6791
   31MPD2     N  482   4.037   1.479  15.112  0.5364 -0.0516 -0.3883
   31MPD2    H5  483   4.032   1.437  15.204  0.0493 -0.8792 -0.7910
   31MPD2    N1  484   4.230   1.804  14.795 -0.0444  0.7780  0.0049
   31MPD2    H7  485   4.302   1.875  14.792  2.2617 -1.5860 -0.7812
   32TCq2    C1  486   3.943   1.415  15.031  0.5681 -0.0240 -0.3695
   32TCq2    O2  487   3.909   1.423  14.916  0.0478  0.0518 -0.3657
   32TCq2    C2  488   3.879   1.312  15.120  0.0563 -0.7222  0.8813
   32TCq2    C3  489   3.801   1.214  15.063 -0.0502  0.0798 -0.0310
   32TCq2    C4  490   3.719   1.130  15.136 -0.3132  0.5766 -0.2865
   32TCq2    C5  491   3.706   1.164  15.270  0.4581  0.7732 -0.5179
   32TCq2    C6  492   3.770   1.274  15.325  0.2511 -0.0089  0.0967
   32TCq2    C7  493   3.870   1.338  15.255 -0.4966  0.1991  0.2930
   32TCq2    C8  494   3.748   1.299  15.462 -0.2876 -0.1769 -0.3741
   32TCq2    O4  495   3.773   1.209  15.539  0.4996 -0.4862  0.0667
   32TCq2    C9  496   3.626   1.046  15.066 -0.5445 -0.5009  0.0274
   32TCq2    O5  497   3.517   1.022  15.116 -0.1448  0.1710  0.4343
   32TCq2    O6  498   3.659   1.016  14.948  0.2496 -0.1012  0.2170
   32TCq2    H2  499   3.799   1.190  14.957  0.7765 -0.5559  0.0902
   32TCq2    H3  500   3.620   1.113  15.311  2.3806 -2.0479  0.0159
   32TCq2    H4  501   3.913   1.421  15.310  1.3033 -0.9421  0.5791
   33MPD2     C  502   3.285   3.992   9.812 -0.1550 -0.6428 -0.6041
   33MPD2    C1  503   3.413   3.997   9.860  0.3427  0.5225  0.3506
   33MPD2    C2  504   3.511   4.069   9.793 -0.4205  0.8013 -0.4527
   33MPD2    C3  505   3.474   4.149   9.684  0.1999  0.1436 -0.2032
   33MPD2    C4  506   3.340   4.152   9.649 -0.0239 -0.3598 -0.7981
   33MPD2    C5  507   3.250   4.076   9.714  0.5550  0.3181 -0.2435
   33MPD2     H  508   3.614   4.079   9.828 -0.2379 -0.7977 -0.5424
   33MPD2    H1  509   3.314   4.217   9.567  2.1994  1.8079  0.2223
   33MPD2    H2  510   3.213   3.925   9.857  0.4898 -0.0105  1.3617
   33MPD2    H3  511   3.149   4.087   9.674 -0.1439 -3.8853  0.4304
   33MPD2     N  512   3.559   4.243   9.607  0.3489 -0.0827  0.0372
   33MPD2    H5  513   3.521   4.284   9.522 -0.7329  1.3061  1.1788
   33MPD2    N1  514   3.436   3.916   9.963  0.3135 -0.0082  0.0545
   33MPD2    H7  515   3.353   3.865   9.993  0.4309 -0.1741  0.0979
   34TCq2    C1  516   3.684   4.277   9.650  0.0471  0.3277  0.1704
   34TCq2    O2  517   3.743   4.251   9.755 -0.1744 -0.1781  0.4990
   34TCq2    C2  518   3.742   4.372   9.554  0.0827  0.8828  0.7564
   34TCq2    C3  519   3.743   4.335   9.424  0.5147  0.4758 -0.7834
   34TCq2    C4  520   3.806   4.414   9.332 -0.0291  0.7417 -0.3462
   34TCq2    C5  521   3.860   4.531   9.374 -0.1085 -0.1295 -0.4876
   34TCq2    C6  522   3.871   4.562   9.510 -0.4339  0.1500  0.6595
   34TCq2    C7  523   3.815   4.476   9.603  1.0241  0.3617  0.2957
   34TCq2    C8  524   3.944   4.685   9.551 -0.1188 -0.1326  0.1574
   34TCq2    O4  525   3.990   4.682   9.667  0.4404  0.5777  0.8145
   34TCq2    C9  526   3.814   4.383   9.191  0.1228  0.7212 -0.0254
   34TCq2    O5  527   3.754   4.280   9.150  0.4834 -0.5031 -0.3212
   34TCq2    O6  528   3.888   4.453   9.116 -0.8779  0.0981  0.6301
   34TCq2    H2  529   3.704   4.240   9.392 -0.6938  0.7587 -0.1457
   34TCq2    H3  530   3.907   4.583   9.291 -1.8734  3.0634  0.5109
   34TCq2    H4  531   3.821   4.496   9.710  1.4258  2.2803 -0.0929
   35MPD2     C  532   1.480   1.362  11.796 -0.5155 -0.1837  0.4202
   35MPD2    C1  533   1.404   1.251  11.821 -0.3373  0.1979  0.2804
   35MPD2    C2  534   1.295   1.230  11.732 -0.6428 -0.0603  0.4810
   35MPD2    C3  535   1.264   1.320  11.638 -0.2172 -0.0220  0.0223
   35MPD2    C4  536   1.339   1.433  11.620 -0.3524  0.3161 -0.2454
   35MPD2    C5  537   1.452   1.451  11.694  0.6588 -0.3027  0.2215
   35MPD2     H  538   1.246   1.133  11.740  0.6899 -0.8661 -1.0068
   35MPD2    H1  539   1.323   1.501  11.537 -0.9737  1.4148  0.7851
   35MPD2    H2  540   1.569   1.386  11.853  0.3240 -2.5866  0.1147
   35MPD2    H3  541   1.521   1.533  11.674 -0.2214  0.0871 -1.2386
   35MPD2     N  542   1.150   1.289  11.552 -0.2096 -0.0387  0.1111
   35MPD2    H5  543   1.105   1.198  11.561  0.5101 -0.2939  1.2092
   35MPD2    N1  544   1.430   1.172  11.931 -0.3677 -0.3386  0.2154
   35MPD2    H7  545   1.525   1.174  11.966  0.2907  1.4127 -1.6869
   36TCq2    C1  546   1.089   1.368  11.461 -0.2682 -0.9853 -0.4314
   36TCq2    O2  547   1.104   1.489  11.445 -0.0338  0.9991  0.2676
   36TCq2    C2  548   0.966   1.303  11.412 -0.0816  0.0725 -0.3864
   36TCq2    C3  549   0.844   1.354  11.431 -0.3738 -0.1813  0.0182
   36TCq2    C4  550   0.733   1.281  11.416 -0.2602 -0.5326 -0.3912
   36TCq2    C5  551   0.746   1.150  11.382  0.1849 -1.2910 -0.0176
   36TCq2    C6  552   0.866   1.096  11.346 -0.9661 -0.0547  0.2803
   36TCq2    C7  553   0.978   1.171  11.364 -0.2855 -0.2700  0.1641
   36TCq2    C8  554   0.877   0.950  11.319  0.6961  0.3014  0.8782
   36TCq2    O4  555   0.796   0.885  11.377  0.4019 -0.0562  0.8452
   36TCq2    C9  556   0.601   1.331  11.432  0.1835 -0.5056  0.5347
   36TCq2    O5  557   0.595   1.454  11.466 -0.5094  0.0861 -0.0608
   36TCq2    O6  558   0.512   1.282  11.361 -0.1673 -0.4319 -0.2930
   36TCq2    H2  559   0.836   1.452  11.476 -0.0448 -0.0366 -0.2387
   36TCq2    H3  560   0.655   1.094  11.363 -1.5475  0.9702  1.6952
   36TCq2    H4  561   1.077   1.132  11.343 -0.3882 -0.1713 -0.5155
   37TMC2    C1  562   2.928   1.160  11.907  0.3874 -0.3529  1.0124
   37TMC2    C2  563   2.876   1.195  11.789 -0.0373  0.2263 -0.4793
   37TMC2    C3  564   2.956   1.227  11.679 -0.3937 -0.1692 -0.0676
   37TMC2    C4  565   3.053   1.108  11.904 -0.3557  0.3925  0.4076
   37TMC2    C5  566   3.135   1.110  11.795  0.9099 -0.7422 -0.2293
   37TMC2    C6  567   3.086   1.180  11.681 -0.2651 -0.7774  0.8716
   37TMC2     C  568   2.849   1.187  12.028 -0.6452  0.2303 -0.2145
   37TMC2     O  569   2.732   1.232  12.023 -0.4481  0.0383  0.9547
   37TMC2     H  570   2.771   1.221  11.784  0.2852  1.6390  0.0678
   37TMC2    H1  571   3.082   1.058  11.996 -1.3699 -2.7923 -0.9915
   37TMC2    H2  572   3.148   1.217  11.600  3.0662 -0.3657  3.6058
   37TMC2    C7  573   3.274   1.073  11.825  0.3258 -0.0464  0.5598
   37TMC2    C8  574   2.910   1.251  11.546  0.7846 -0.4160 -0.0873
   37TMC2    O1  575   3.302   1.067  11.941 -0.1515  0.0664  0.1948
   37TMC2    O2  576   2.950   1.197  11.446 -0.4906 -0.4692 -0.0604
   37TMC2    O5  577   2.802   1.335  11.549 -0.7238  0.6656 -0.3517
   37TMC2    H5  578   2.803   1.387  11.631  1.1423 -1.2855  0.8639
   38MPD2     C  579   2.807   1.177  12.544 -0.6295 -0.7976 -0.1834
   38MPD2    C1  580   2.925   1.119  12.508 -0.0594  0.0826  0.1154
   38MPD2    C2  581   2.961   1.124  12.375 -0.1323 -0.1667  0.2074
   38MPD2    C3  582   2.878   1.173  12.278  0.2723 -0.2543 -0.1623
   38MPD2    C4  583   2.755   1.228  12.313 -0.3222  0.0244 -0.0801
   38MPD2    C5  584   2.728   1.235  12.442  0.2952  0.3671 -0.1212
   38MPD2     H  585   3.049   1.067  12.352 -0.0736 -0.0487  0.1398
   38MPD2    H1  586   2.683   1.268  12.243  1.4286 -0.4620 -2.1563
   38MPD2    H2  587   2.768   1.189  12.644 -1.9701  0.0055 -0.8099
   38MPD2    H3  588   2.637   1.288  12.468 -0.4936 -0.5888 -0.9832
   38MPD2     N  589   2.918   1.163  12.145  0.4919 -0.3483  0.2355
   38MPD2    H5  590   3.015   1.137  12.129  0.6744  1.3223 -1.3343
   38MPD2    N1  591   3.009   1.056  12.599  0.8488 -0.2030  0.0996
   38MPD2    H7  592   3.096   1.016  12.565  1.2401  0.1744  0.6653
   39MPD2     C  593   1.164   3.038   1.395 -0.2705  0.5090 -0.7545
   39MPD2    C1  594   1.095   3.127   1.466 -0.7496  0.4654  0.0619
   39MPD2    C2  595   0.953   3.116   1.465  0.2206  0.9420  0.0903
   39MPD2    C3  596   0.894   3.022   1.385 -0.4610  0.4389 -0.1066
   39MPD2    C4  597   0.970   2.937   1.309 -0.2871  0.1285 -0.0221
   39MPD2    C5  598   1.102   2.945   1.316 -0.1563 -0.6373  0.1355
   39MPD2     H  599   0.888   3.181   1.521 -2.0850 -0.4095 -1.0021
   39MPD2    H1  600   0.922   2.854   1.259  0.1583 -0.2048  0.1060
   39MPD2    H2  601   1.271   3.051   1.393 -0.0802 -0.5996  2.3738
   39MPD2    H3  602   1.164   2.879   1.258  0.7799 -0.3217  0.7742
   39MPD2     N  603   0.749   3.006   1.384  0.2060 -0.4942 -0.1094
   39MPD2    H5  604   0.710   2.934   1.324 -3.2931  0.4420  1.0392
   39MPD2    N1  605   1.175   3.221   1.535 -0.1990  0.8617 -0.4854
   39MPD2    H7  606   1.274   3.215   1.516  0.2617 -0.3808  2.3364
   40TCq2    C1  607   1.130   3.326   1.612 -0.9523  0.1040  0.2840
   40TCq2    O2  608   1.018   3.344   1.652  0.4981 -0.0997 -0.1574
   40TCq2    C2  609   1.234   3.414   1.668 -0.0735 -0.5603 -1.0378
   40TCq2    C3  610   1.189   3.484   1.778  0.0775  0.5626  0.0953
   40TCq2    C4  611   1.276   3.555   1.851 -0.0589  0.1909 -0.1504
   40TCq2    C5  612   1.410   3.556   1.821  0.6844 -0.4439  0.2323
   40TCq2    C6  613   1.453   3.493   1.705  0.2996 -0.4239  0.4990
   40TCq2    C7  614   1.369   3.415   1.628  0.6821 -0.5848  0.4209
   40TCq2    C8  615   1.598   3.486   1.668 -0.0282  0.3225 -0.1542
   40TCq2    O4  616   1.632   3.393   1.601  0.5236  0.0390  0.3101
   40TCq2    C9  617   1.232   3.635   1.961  0.8899  0.6949  0.7465
   40TCq2    O5  618   1.139   3.586   2.027  0.5918 -0.4977 -0.2471
   40TCq2    O6  619   1.307   3.728   1.996  0.3920 -0.5087  0.4586
   40TCq2    H2  620   1.087   3.491   1.812  0.1181 -3.4014  0.9694
   40TCq2    H3  621   1.482   3.610   1.882  0.1033  0.5146  0.0756
   40TCq2    H4  622   1.390   3.349   1.545  2.5392 -1.4552  1.6214
   41TMC2    C1  623   0.111   1.376  14.271 -1.0992 -0.2330 -0.1726
   41TMC2    C2  624   0.195   1.485  14.304 -0.5314  0.9113  0.3033
   41TMC2    C3  625   0.235   1.569  14.204  0.4970  0.1429  0.1976
   41TMC2    C4  626   0.064   1.359  14.148 -1.0184  0.2704 -1.1484
   41TMC2    C5  627   0.108   1.447  14.052 -0.4423 -0.4155 -0.7705
   41TMC2    C6  628   0.186   1.559  14.079  0.5258 -0.7493 -0.0550
   41TMC2     C  629   0.053   1.295  14.375  0.3359 -0.7341  0.6220
   41TMC2     O  630   4.709   1.192  14.349 -0.4178  0.0251  0.3087
   41TMC2     H  631   0.222   1.503  14.407 -0.8625  2.2719  0.1558
   41TMC2    H1  632   4.699   1.292  14.132 -2.3201  2.0461 -1.7273
   41TMC2    H2  633   0.201   1.643  14.012  0.8763  0.3446  1.3827
   41TMC2    C7  634   0.034   1.444  13.928  0.0845  0.1663 -0.1163
   41TMC2    C8  635   0.307   1.690  14.250  0.5063  0.0493  0.8164
   41TMC2    O1  636   4.641   1.397  13.929  0.6089  0.4969  0.2478
   41TMC2    O2  637   0.349   1.696  14.364 -0.1722  0.5324  0.3802
   41TMC2    O5  638   0.334   1.775  14.147 -0.1241 -0.0194 -0.2610
   41TMC2    H5  639   0.296   1.735  14.065 -0.8996  0.7190 -0.2623
   42MPD2     C  640   0.024   1.184  14.647 -0.6780 -0.2700 -0.4610
   42MPD2    C1  641   0.035   1.317  14.624 -0.3874 -0.3542  0.3301
   42MPD2    C2  642   0.034   1.409  14.729 -0.3847 -0.3989 -0.2097
   42MPD2    C3  643   0.008   1.364  14.855 -0.4334  0.1326  0.3972
   42MPD2    C4  644   4.708   1.229  14.873 -0.4449 -0.3462  0.5208
   42MPD2    C5  645   4.712   1.138  14.771 -0.1563 -0.0208  0.0616
   42MPD2     H  646   0.056   1.513  14.707  0.1872 -0.3369  0.6645
   42MPD2    H1  647   4.679   1.200  14.973 -0.6829  0.2858  0.6339
   42MPD2    H2  648   0.046   1.105  14.577 -1.6591 -0.5019 -0.5021
   42MPD2    H3  649   4.708   1.033  14.799  2.3689  0.0091  0.5253
   42MPD2     N  650   0.006   1.446  14.967  0.4412 -0.4422  0.7978
   42MPD2    H5  651   4.704   1.399  15.055 -1.2978  1.1180  1.2075
   42MPD2    N1  652   0.061   1.368  14.491  0.3461 -0.0544 -0.4599
   42MPD2    H7  653   0.078   1.467  14.480  0.0368  0.2245  1.5669
   43MPD2     C  654   1.190   4.556   0.640 -0.4640  0.2910 -0.5225
   43MPD2    C1  655   1.288   4.564   0.742 -0.1019  0.5861 -0.1765
   43MPD2    C2  656   1.234   4.563   0.870  0.2287  0.2895  0.5436
   43MPD2    C3  657   1.099   4.574   0.892 -0.8268  0.0600 -1.5799
   43MPD2    C4  658   1.008   4.585   0.787  0.4931 -0.1123 -0.5398
   43MPD2    C5  659   1.058   4.575   0.657 -1.1878  0.1451  0.4782
   43MPD2     H  660   1.297   4.581   0.957  0.0264  1.4967  0.4399
   43MPD2    H1  661   0.905   4.608   0.808  1.0129 -0.4166  2.3570
   43MPD2    H2  662   1.206   4.530   0.536  1.3811  0.8740 -0.3850
   43MPD2    H3  663   0.988   4.573   0.574  0.6824 -1.2778 -1.0995
   43MPD2     N  664   1.045   4.562   1.022  0.3572 -0.5304  0.0985
   43MPD2    H5  665   0.944   4.572   1.026  0.3021 -1.3025  0.5539
   43MPD2    N1  666   1.423   4.555   0.720  0.3322 -0.2143 -0.1643
   43MPD2    H7  667   1.477   4.538   0.804  2.3635  1.7444 -1.0611
   44TCq2    C1  668   1.141   4.649   1.584 -0.0598 -0.0597  0.6277
   44TCq2    O2  669   1.258   4.658   1.547 -0.3702  0.3091  0.1509
   44TCq2    C2  670   1.058   4.587   1.484  0.7675  0.6461 -0.1033
   44TCq2    C3  671   0.919   4.620   1.482 -0.7990 -0.5805  0.4754
   44TCq2    C4  672   0.847   4.619   1.366  0.8731 -0.0010  0.3248
   44TCq2    C5  673   0.898   4.555   1.251  0.1078 -0.3743  0.5402
   44TCq2    C6  674   1.031   4.520   1.257 -0.0983 -0.0170  1.1552
   44TCq2    C7  675   1.111   4.533   1.368  0.6114 -0.2020 -0.4023
   44TCq2    C8  676   1.111   4.506   1.128 -0.1934 -0.1847  0.1375
   44TCq2    O4  677   1.219   4.452   1.134  0.3656 -0.3530  0.2632
   44TCq2    C9  678   0.715   4.675   1.368 -0.4018  1.4263  0.0264
   44TCq2    O5  679   0.672   0.024   1.469  0.1931  0.4028  0.4195
   44TCq2    O6  680   0.640   4.670   1.263 -0.4143  0.7549 -0.1603
   44TCq2    H2  681   0.884   4.667   1.574 -0.0723 -0.3101  0.6168
   44TCq2    H3  682   0.833   4.553   1.165 -1.7159 -0.6684  1.9079
   44TCq2    H4  683   1.217   4.510   1.368  0.3531 -1.3750  0.8300
   45TMC2    C1  684   1.960   1.577   9.159  0.6170 -0.0549 -0.1450
   45TMC2    C2  685   2.093   1.572   9.118 -0.5871 -0.5605 -1.1567
   45TMC2    C3  686   2.177   1.672   9.164  0.5720  0.2897  0.1929
   45TMC2    C4  687   1.907   1.685   9.218  0.4302  0.5908 -0.4936
   45TMC2    C5  688   1.992   1.789   9.254  0.0210 -0.0140 -0.1725
   45TMC2    C6  689   2.124   1.779   9.223 -0.2364  0.8965 -0.5127
   45TMC2     C  690   1.889   1.453   9.133  0.1254 -0.6552  0.1529
   45TMC2     O  691   1.953   1.370   9.076  0.3095 -0.3022  0.7810
   45TMC2     H  692   2.133   1.485   9.067  0.4683 -0.0148 -1.2725
   45TMC2    H1  693   1.804   1.696   9.250  0.9238  1.3329  0.8193
   45TMC2    H2  694   2.188   1.861   9.255 -0.6769  0.4871  1.4185
   45TMC2    C7  695   1.927   1.922   9.264 -0.0539  0.0314 -0.5816
   45TMC2    C8  696   2.321   1.667   9.138 -0.8109  0.3388  0.7001
   45TMC2    O1  697   1.805   1.943   9.237 -0.5020 -0.0144 -0.6967
   45TMC2    O2  698   2.385   1.771   9.136 -0.4038 -0.0518 -0.4017
   45TMC2    O5  699   2.345   1.567   9.049  0.0213  0.2464 -0.1461
   45TMC2    H5  700   2.324   1.478   9.085 -0.8661  0.1427 -0.9430
   46MPD2     C  701   1.726   1.210   9.123 -0.2701  0.1203 -0.3614
   46MPD2    C1  702   1.685   1.327   9.184  0.3757  0.3846  0.2092
   46MPD2    C2  703   1.562   1.326   9.251  1.0112 -0.1695  0.5490
   46MPD2    C3  704   1.487   1.210   9.257 -0.1372 -0.3377 -0.1639
   46MPD2    C4  705   1.530   1.096   9.190 -0.2575 -0.3320 -0.0241
   46MPD2    C5  706   1.657   1.099   9.133  0.2415  0.1802 -0.3814
   46MPD2     H  707   1.532   1.414   9.306 -0.6184 -0.1012 -0.4525
   46MPD2    H1  708   1.477   1.002   9.181 -0.6569 -0.1325  0.2106
   46MPD2    H2  709   1.824   1.200   9.078 -0.6047 -2.1418 -0.5575
   46MPD2    H3  710   1.710   1.010   9.099 -0.7178 -0.6302  0.2392
   46MPD2     N  711   1.358   1.206   9.325 -0.1831  0.3605 -0.0204
   46MPD2    H5  712   1.344   1.294   9.373  3.4684  1.8550 -1.6638
   46MPD2    N1  713   1.761   1.446   9.179  0.6749 -0.0287 -0.3274
   46MPD2    H7  714   1.726   1.522   9.237  0.6377 -0.1009 -0.2556
   47TMC2    C1  715   0.266   2.289   9.498  0.8828  0.3268 -0.2048
   47TMC2    C2  716   0.207   2.412   9.494  0.1688 -0.4843 -0.5040
   47TMC2    C3  717   0.081   2.428   9.440  0.3689 -0.3405 -0.5985
   47TMC2    C4  718   0.212   2.181   9.432  0.7873 -0.0419  0.2638
   47TMC2    C5  719   0.092   2.202   9.366 -0.2272 -0.6826 -0.1217
   47TMC2    C6  720   0.022   2.320   9.376  0.0176  0.2292  0.4186
   47TMC2     C  721   0.386   2.273   9.580 -0.0103 -0.3179 -0.4335
   47TMC2     O  722   0.428   2.369   9.642  0.3326  0.2798  0.2116
   47TMC2     H  723   0.245   2.497   9.550 -0.8504  0.0220 -0.5826
   47TMC2    H1  724   0.261   2.085   9.418  1.8149  0.6771 -1.0518
   47TMC2    H2  725   4.639   2.335   9.341 -0.0577 -1.8527 -0.2783
   47TMC2    C7  726   0.030   2.082   9.302 -0.7062  0.5198 -0.1907
   47TMC2    C8  727   0.033   2.559   9.426  0.3659 -0.0487 -0.1806
   47TMC2    O1  728   0.084   1.976   9.326 -0.5814  0.1973  0.4756
   47TMC2    O2  729   0.090   2.644   9.491  0.0590  0.6490 -0.6624
   47TMC2    O5  730   4.663   2.573   9.321  0.1118 -0.5013 -0.1470
   47TMC2    H5  731   4.639   2.492   9.272 -1.1680  0.1401 -0.5970
   48MPD2     C  732   0.586   2.151   9.769  0.4248 -0.2598 -0.4232
   48MPD2    C1  733   0.494   2.083   9.694  0.8421 -0.2290  0.7156
   48MPD2    C2  734   0.504   1.946   9.706 -0.8132  0.3761 -0.1127
   48MPD2    C3  735   0.589   1.887   9.794 -0.2836  0.4493  0.6425
   48MPD2    C4  736   0.675   1.963   9.866 -0.0896 -0.3647 -0.5249
   48MPD2    C5  737   0.681   2.095   9.849 -0.0516  0.5077  0.9707
   48MPD2     H  738   0.436   1.883   9.650 -0.1690  1.8147 -2.4917
   48MPD2    H1  739   0.743   1.909   9.931 -0.2304  1.7210  1.3788
   48MPD2    H2  740   0.586   2.259   9.779 -0.3890 -0.2707 -0.3548
   48MPD2    H3  741   0.743   2.150   9.919 -0.4835  1.4112  0.6330
   48MPD2     N  742   0.585   1.746   9.782 -0.2330  0.3480  0.0905
   48MPD2    H5  743   0.528   1.705   9.710 -2.3077  1.6590  0.9766
   48MPD2    N1  744   0.399   2.136   9.610  0.2669  0.8161 -0.4532
   48MPD2    H7  745   0.346   2.074   9.549 -1.3212 -0.4641  2.2462
   49MPD2     C  746   2.451   4.432   9.881  0.2136  0.1263  0.0890
   49MPD2    C1  747   2.386   4.309   9.878  0.0431  0.4260 -0.9641
   49MPD2    C2  748   2.414   4.213   9.979 -0.1718  0.3294 -0.1383
   49MPD2    C3  749   2.496   4.239  10.085 -0.1749 -0.0636  0.6359
   49MPD2    C4  750   2.556   4.358  10.087 -0.4984  0.8163 -0.4823
   49MPD2    C5  751   2.537   4.452   9.983 -0.6633 -0.7904  0.1318
   49MPD2     H  752   2.365   4.117   9.964 -0.1707  0.4644 -1.0213
   49MPD2    H1  753   2.631   4.391  10.159 -0.4380  1.3000 -0.7673
   49MPD2    H2  754   2.454   4.511   9.807  0.0374  0.8142  0.8103
   49MPD2    H3  755   2.587   4.547   9.992 -1.7548 -0.1322 -0.7024
   49MPD2     N  756   2.533   4.144  10.177  0.1214  0.4264 -0.3314
   49MPD2    H5  757   2.599   4.182  10.244  0.0511  1.7484 -1.0008
   49MPD2    N1  758   2.303   4.276   9.762  0.5846 -0.6331  0.6304
   49MPD2    H7  759   2.266   4.182   9.764 -0.0460 -0.3876  0.3185
   50TCq2    C1  760   2.258   4.364   9.657 -0.0051  0.3086 -0.3158
   50TCq2    O2  761   2.286   4.476   9.629  0.2822  0.0981  0.2373
   50TCq2    C2  762   2.172   4.301   9.559 -0.4527 -0.0751 -0.7628
   50TCq2    C3  763   2.170   4.348   9.432 -0.4982 -0.0129  0.0842
   50TCq2    C4  764   2.085   4.301   9.339 -0.2928 -0.7423 -0.0521
   50TCq2    C5  765   2.012   4.192   9.368  0.9237  0.4587  1.1160
   50TCq2    C6  766   2.018   4.136   9.495  0.2272  0.3068  0.1034
   50TCq2    C7  767   2.096   4.192   9.598 -0.0544  0.1380  0.5712
   50TCq2    C8  768   1.921   4.033   9.524 -0.5654  0.5191  0.2501
   50TCq2    O4  769   1.851   4.008   9.430  0.0157  0.1075 -0.4011
   50TCq2    C9  770   2.079   4.357   9.213 -0.4311 -0.2954 -0.2173
   50TCq2    O5  771   2.170   4.441   9.198 -0.0049  0.3236  0.0773
   50TCq2    O6  772   1.986   4.331   9.132 -0.6570 -0.1326 -0.2664
   50TCq2    H2  773   2.235   4.433   9.414 -0.2567 -0.3953 -0.8456
   50TCq2    H3  774   1.959   4.137   9.291  0.2361  1.0185  1.1933
   50TCq2    H4  775   2.089   4.156   9.700 -0.8040  1.1267  0.8623
   51MPD2     C  776   3.072   3.116   1.032  0.1847  0.4664 -0.1905
   51MPD2    C1  777   3.173   3.053   0.962  0.7397  0.3500  0.6512
   51MPD2    C2  778   3.283   3.124   0.928 -0.1690  0.3385  0.0929
   51MPD2    C3  779   3.295   3.257   0.964  0.3367  0.2809  0.5588
   51MPD2    C4  780   3.204   3.313   1.049 -0.6205  0.1435 -0.1517
   51MPD2    C5  781   3.085   3.246   1.079  0.5629 -0.2438 -0.4874
   51MPD2     H  782   3.356   3.077   0.863 -1.5623  0.0130 -1.2362
   51MPD2    H1  783   3.212   3.417   1.078  1.7722 -0.1367  0.1712
   51MPD2    H2  784   2.994   3.067   1.088  1.6556 -0.8329  0.7135
   51MPD2    H3  785   3.001   3.287   1.133 -0.5365 -1.4580 -1.2746
   51MPD2     N  786   3.423   3.327   0.948 -0.6920 -0.1495 -0.0563
   51MPD2    H5  787   3.434   3.428   0.950  2.0572 -0.3867 -2.4604
   51MPD2    N1  788   3.161   2.920   0.932 -0.1227 -0.1896  0.4334
   51MPD2    H7  789   3.236   2.874   0.881 -1.3767  1.4875 -2.9845
   52TCq2    C1  790   3.536   3.265   0.910  0.4466 -0.3563 -0.0336
   52TCq2    O2  791   3.560   3.145   0.915 -0.4406 -0.4957  0.3405
   52TCq2    C2  792   3.640   3.355   0.867  0.4257  0.4240  0.7732
   52TCq2    C3  793   3.770   3.311   0.893 -0.3498 -0.0430 -0.0541
   52TCq2    C4  794   3.868   3.400   0.864  0.1791 -0.5444  0.1755
   52TCq2    C5  795   3.840   3.516   0.805  0.1090 -0.0292  0.0658
   52TCq2    C6  796   3.711   3.556   0.782  0.1301 -0.0407 -0.1837
   52TCq2    C7  797   3.608   3.474   0.810 -0.2211 -0.3866 -0.3265
   52TCq2    C8  798   3.685   3.696   0.781  0.9889  0.2148 -0.2893
   52TCq2    O4  799   3.582   3.736   0.831 -0.1426  0.8589 -0.1076
   52TCq2    C9  800   4.006   3.370   0.908  0.0438  0.0064  0.0193
   52TCq2    O5  801   4.030   3.269   0.982  0.1070 -0.4955  0.5106
   52TCq2    O6  802   4.097   3.452   0.879 -0.6338  0.2105 -0.3118
   52TCq2    H2  803   3.789   3.215   0.940  1.7204  0.0172 -0.7834
   52TCq2    H3  804   3.923   3.579   0.777 -1.1296  1.1584 -0.9456
   52TCq2    H4  805   3.503   3.497   0.795 -0.3873 -0.6968  0.3581
   53TMC2    C1  806   3.926   1.094  12.162 -0.0253 -0.1313 -0.4144
   53TMC2    C2  807   4.015   1.012  12.226 -0.4722 -0.0673  0.3441
   53TMC2    C3  808   3.993   0.998  12.360  0.2310  0.7042 -0.6175
   53TMC2    C4  809   3.826   1.148  12.220  0.2046  0.1809 -0.3087
   53TMC2    C5  810   3.804   1.133  12.354 -0.1449  0.4091  0.5037
   53TMC2    C6  811   3.898   1.061  12.431 -0.6188 -0.5138 -0.2801
   53TMC2     C  812   3.900   1.065  12.020  0.2005 -0.3582  0.1094
   53TMC2     O  813   3.992   1.024  11.952  0.4669 -0.3993  0.7331
   53TMC2     H  814   4.079   0.945  12.170  0.5075  0.3423  0.9706
   53TMC2    H1  815   3.748   1.208  12.174 -1.2352 -1.1234  0.4459
   53TMC2    H2  816   3.888   1.050  12.539 -1.7872 -0.2619 -0.3572
   53TMC2    C7  817   3.669   1.157  12.403 -0.6270 -0.7719  0.2539
   53TMC2    C8  818   4.103   0.954  12.438 -0.2137 -0.0208  1.5666
   53TMC2    O1  819   3.582   1.150  12.315  0.4815  0.4785 -0.1312
   53TMC2    O2  820   4.084   0.921  12.554  0.0415  0.2344  0.3287
   53TMC2    O5  821   4.219   0.924  12.370 -0.1686 -0.1142 -0.0565
   53TMC2    H5  822   4.237   0.980  12.291 -0.5144 -1.8853 -1.4011
   54MPD2     C  823   3.775   1.063  11.746  0.1292  0.5451 -0.3774
   54MPD2    C1  824   3.702   1.061  11.861 -0.3366  0.1525  0.4526
   54MPD2    C2  825   3.567   1.081  11.852  0.0890 -0.1524 -0.0619
   54MPD2    C3  826   3.496   1.063  11.730  0.2532  0.9874  0.1828
   54MPD2    C4  827   3.569   1.067  11.615  0.2104  0.9285 -0.1302
   54MPD2    C5  828   3.705   1.059  11.623 -0.1317 -0.2863 -0.7669
   54MPD2     H  829   3.517   1.107  11.945  0.1880  0.2669 -0.1252
   54MPD2    H1  830   3.527   1.079  11.516 -2.0062  0.2351  0.7017
   54MPD2    H2  831   3.883   1.065  11.749  0.0944  1.9385 -0.2349
   54MPD2    H3  832   3.754   1.041  11.528 -1.4300 -3.8289 -0.7729
   54MPD2     N  833   3.358   1.068  11.718 -0.1731  0.2603  0.2380
   54MPD2    H5  834   3.320   1.076  11.624  1.9722 -0.2628 -0.6765
   54MPD2    N1  835   3.762   1.062  11.988  0.5484  0.1237  0.1967
   54MPD2    H7  836   3.689   1.082  12.055 -0.4736  0.0793 -0.9110
   55MPD2     C  837   3.747   3.823   0.363 -0.2166  0.1134 -0.8587
   55MPD2    C1  838   3.650   3.729   0.385  0.0912  0.1740  0.7226
   55MPD2    C2  839   3.520   3.773   0.394  0.2361 -0.5466 -0.2464
   55MPD2    C3  840   3.486   3.905   0.378  0.4126 -0.3162 -0.8380
   55MPD2    C4  841   3.582   3.998   0.349  0.0804 -0.5026  0.5003
   55MPD2    C5  842   3.706   3.952   0.342 -0.6488 -0.3304  0.1229
   55MPD2     H  843   3.434   3.709   0.412  0.8905 -0.8674  1.7165
   55MPD2    H1  844   3.555   4.103   0.349  0.0312 -0.5234  2.5105
   55MPD2    H2  845   3.850   3.791   0.373 -0.2391  0.4464  0.4202
   55MPD2    H3  846   3.780   4.031   0.336 -0.6677 -0.4838 -1.9893
   55MPD2     N  847   3.349   3.942   0.394  0.7165 -0.4625 -0.4155
   55MPD2    H5  848   3.285   3.871   0.428 -1.2074  1.0452 -0.9165
   55MPD2    N1  849   3.693   3.597   0.413  0.0741  0.9224 -0.6191
   55MPD2    H7  850   3.788   3.593   0.449  0.1836  1.6328 -0.8370
   56TCq2    C1  851   3.621   3.483   0.421  0.1016  0.5641 -0.8319
   56TCq2    O2  852   3.502   3.484   0.406 -0.6009 -0.3211 -0.2981
   56TCq2    C2  853   3.689   3.357   0.439  0.3426  0.0236 -0.4641
   56TCq2    C3  854   3.824   3.353   0.464 -0.1760 -0.5797  0.5758
   56TCq2    C4  855   3.878   3.252   0.546  0.5685  0.4407  0.2683
   56TCq2    C5  856   3.797   3.150   0.592  0.6347 -0.0808 -0.5804
   56TCq2    C6  857   3.664   3.156   0.560 -0.7159 -0.3377  0.3704
   56TCq2    C7  858   3.604   3.266   0.493  0.1633 -0.7988  0.8774
   56TCq2    C8  859   3.582   3.045   0.616  0.5505  0.8155  0.1756
   56TCq2    O4  860   3.644   2.943   0.657  0.2368  0.0324  0.8118
   56TCq2    C9  861   4.017   3.252   0.580 -0.1640  0.2157 -0.1720
   56TCq2    O5  862   4.060   3.151   0.643  0.2777  0.2072 -0.5821
   56TCq2    O6  863   4.079   3.352   0.538  0.0952 -0.7488  0.0703
   56TCq2    H2  864   3.886   3.426   0.415 -0.6600 -0.6489 -0.1356
   56TCq2    H3  865   3.835   3.072   0.657 -2.8173  0.5668  2.2428
   56TCq2    H4  866   3.498   3.283   0.503 -0.2124 -1.2693 -2.3908
   57TMC2    C1  867   3.486   0.060  13.516 -0.7506  0.0835 -1.1242
   57TMC2    C2  868   3.614   0.061  13.564  0.1842 -0.4231 -0.0774
   57TMC2    C3  869   3.707   4.682  13.524  0.1313 -0.0966  0.4086
   57TMC2    C4  870   3.457   4.688  13.422  0.3063  0.6388  0.1826
   57TMC2    C5  871   3.549   4.592  13.385  0.1642  0.1636  0.2559
   57TMC2    C6  872   3.678   4.589  13.428 -0.0605  0.2748  0.5255
   57TMC2     C  873   3.375   0.127  13.580  0.0179 -0.2263 -0.2002
   57TMC2     O  874   3.408   0.190  13.679  0.0235 -0.4647 -0.4864
   57TMC2     H  875   3.635   0.127  13.647 -3.1359  0.3339  0.1877
   57TMC2    H1  876   3.362   4.690  13.371  1.1835 -1.8062 -1.5363
   57TMC2    H2  877   3.750   4.509  13.415 -0.9940 -0.4125 -0.4145
   57TMC2    C7  878   3.505   4.497  13.281  0.1831 -0.4251  0.0829
   57TMC2    C8  879   3.842   4.668  13.586 -0.5421  0.0934 -0.0238
   57TMC2    O1  880   3.385   4.487  13.252 -0.2056 -0.0597  0.4931
   57TMC2    O2  881   3.883   4.556  13.607 -0.0026 -0.1181  0.2538
   57TMC2    O5  882   3.875   0.060  13.648  0.0781 -0.4196  0.5263
   57TMC2    H5  883   3.826   0.132  13.603  0.9974 -0.1159 -0.0024
   58MPD2     C  884   2.881   0.201  13.699  0.0714 -0.0172  0.8595
   58MPD2    C1  885   2.986   0.272  13.746 -0.7778  0.5068 -0.2636
   58MPD2    C2  886   3.106   0.244  13.683  0.2411 -0.2046  0.6578
   58MPD2    C3  887   3.124   0.134  13.593  0.1952  0.1592  0.4493
   58MPD2    C4  888   3.012   0.073  13.547  0.4361 -0.0305 -0.0865
   58MPD2    C5  889   2.895   0.113  13.594  0.4186  1.0466 -0.5929
   58MPD2     H  890   3.194   0.301  13.712 -0.5319  1.3858 -0.1266
   58MPD2    H1  891   3.017   4.707  13.481 -1.5096 -0.2219  0.0120
   58MPD2    H2  892   2.783   0.208  13.745 -0.2245 -2.9007  0.6680
   58MPD2    H3  893   2.814   0.051  13.559  1.3167  0.0801 -0.9407
   58MPD2     N  894   3.251   0.086  13.540 -0.1314  0.1384  0.4895
   58MPD2    H5  895   3.238   0.021  13.463  1.2784 -0.3138  0.6421
   58MPD2    N1  896   2.978   0.375  13.844  1.0594  0.1747 -0.2610
   58MPD2    H7  897   3.066   0.416  13.874  0.4941  0.8333  0.4852
   59MPD2     C  898   1.360   0.089  12.427  0.0739  0.3228 -0.6869
   59MPD2    C1  899   1.285   0.123  12.539  0.1529  0.1034 -0.4932
   59MPD2    C2  900   1.344   0.156  12.657  0.3686  0.4289  0.1892
   59MPD2    C3  901   1.479   0.178  12.664 -0.0886 -0.2568  0.5283
   59MPD2    C4  902   1.554   0.143  12.555 -0.7714  0.4816  0.0652
   59MPD2    C5  903   1.494   0.102  12.440  0.2693 -0.1549  0.0086
   59MPD2     H  904   1.289   0.175  12.749  1.3977  0.8070  0.7314
   59MPD2    H1  905   1.662   0.155  12.547 -1.0244  2.2769 -0.6626
   59MPD2    H2  906   1.319   0.050  12.334  1.1178  0.0711 -1.0483
   59MPD2    H3  907   1.557   0.081  12.354 -1.0357 -1.7974 -0.5645
   59MPD2     N  908   1.543   0.241  12.776  0.0998 -0.3164 -0.4432
   59MPD2    H5  909   1.639   0.267  12.757  0.7904 -2.0099  0.7550
   59MPD2    N1  910   1.145   0.100  12.538  0.6175 -0.0756  0.3791
   59MPD2    H7  911   1.100   0.102  12.630 -1.5972 -0.7111 -0.6934
   60TCq2    C1  912   1.069   0.106  12.420  0.4096  0.0791  0.4341
   60TCq2    O2  913   1.106   0.118  12.302 -0.1500  0.7485 -0.3349
   60TCq2    C2  914   0.929   0.106  12.448  0.0412 -0.4059 -0.4022
   60TCq2    C3  915   0.879   0.047  12.564 -0.7054 -0.3724 -0.0621
   60TCq2    C4  916   0.757   0.086  12.607  0.4482  0.2082  0.3996
   60TCq2    C5  917   0.681   0.170  12.529 -0.4117 -0.0431 -0.2800
   60TCq2    C6  918   0.730   0.224  12.415  0.5710 -0.0860 -0.4038
   60TCq2    C7  919   0.855   0.193  12.372  0.3708  0.3420 -0.2793
   60TCq2    C8  920   0.654   0.326  12.352 -0.1394  0.1363 -0.1872
   60TCq2    O4  921   0.531   0.323  12.374 -0.5060  0.0919 -0.8168
   60TCq2    C9  922   0.712   0.036  12.734  0.1662 -0.1772  0.1792
   60TCq2    O5  923   0.798   4.683  12.787 -0.3121 -0.7010 -0.5233
   60TCq2    O6  924   0.593   0.063  12.769 -0.0108 -0.5074 -0.3571
   60TCq2    H2  925   0.929   4.681  12.610  0.0140 -0.2746 -0.6605
   60TCq2    H3  926   0.578   0.184  12.562 -0.3360  0.4627 -0.2590
   60TCq2    H4  927   0.890   0.221  12.273  2.8276 -0.6265  0.3311
   61MPD2     C  928   0.430   1.699  15.039 -0.3958 -0.2418 -0.1660
   61MPD2    C1  929   0.421   1.822  15.102 -0.7915 -0.4200 -0.6801
   61MPD2    C2  930   0.510   1.915  15.068  0.0035  0.1747  0.2521
   61MPD2    C3  931   0.598   1.898  14.958 -0.6824 -0.2018  0.2124
   61MPD2    C4  932   0.595   1.781  14.886  0.3220  0.5272  0.0586
   61MPD2    C5  933   0.505   1.689  14.927 -0.1306  0.5815 -0.3762
   61MPD2     H  934   0.494   2.015  15.106  4.2834  1.2496 -0.7717
   61MPD2    H1  935   0.659   1.764  14.801  0.9939  1.2865  0.4089
   61MPD2    H2  936   0.368   1.613  15.059 -0.4927 -0.2180 -0.3698
   61MPD2    H3  937   0.509   1.589  14.885 -2.0348  0.4395 -0.2340
   61MPD2     N  938   0.681   2.006  14.932 -0.2058 -0.1803 -0.2070
   61MPD2    H5  939   0.695   2.077  15.002 -0.0579 -1.5417  1.1441
   61MPD2    N1  940   0.338   1.859  15.219 -0.1555 -0.0623 -0.1001
   61MPD2    H7  941   0.351   1.951  15.260  0.7220 -0.8771  1.4441
   62TCq2    C1  942   0.265   1.763  15.286 -0.3380  0.5890  0.1270
   62TCq2    O2  943   0.262   1.641  15.261 -0.4531  0.3119 -0.3034
   62TCq2    C2  944   0.203   1.811  15.412 -0.1454 -0.0431 -0.3524
   62TCq2    C3  945   0.175   1.711  15.505 -0.0386 -0.1635  0.4733
   62TCq2    C4  946   0.159   1.747  15.638 -0.2681  0.2590 -0.2475
   62TCq2    C5  947   0.174   1.875  15.677 -0.6549  0.2172  0.1916
   62TCq2    C6  948   0.196   1.973  15.578  0.1016  0.0323 -0.1187
   62TCq2    C7  949   0.210   1.940  15.446  0.4604 -0.2289 -0.7441
   62TCq2    C8  950   0.236   2.113  15.604 -0.2601 -0.1553 -0.1772
   62TCq2    O4  951   0.256   2.185  15.505 -0.5224 -0.3611 -0.7353
   62TCq2    C9  952   0.134   1.646  15.739  0.2979 -0.3130  0.8361
   62TCq2    O5  953   0.058   1.553  15.701 -0.1025 -0.0331  0.0327
   62TCq2    O6  954   0.130   1.695  15.854  0.1263 -0.7438  0.2916
   62TCq2    H2  955   0.175   1.608  15.473 -2.1674 -0.2048  0.6494
   62TCq2    H3  956   0.171   1.904  15.781  1.1324  0.3383  0.2111
   62TCq2    H4  957   0.231   2.016  15.372 -0.0255  0.7578  0.1302
   63TMC2    C1  958   0.751   1.920  10.759 -0.3099 -0.5885  0.3567
   63TMC2    C2  959   0.860   1.965  10.825 -0.0701  0.4552  0.0586
   63TMC2    C3  960   0.937   2.067  10.768  0.3337 -0.0943  0.7161
   63TMC2    C4  961   0.721   1.969  10.636 -0.6116 -0.3751  1.0301
   63TMC2    C5  962   0.808   2.068  10.577 -0.2221 -0.4208 -0.1827
   63TMC2    C6  963   0.909   2.129  10.651  0.3258 -0.0107 -0.7826
   63TMC2     C  964   0.641   1.857  10.824 -0.5705  0.3318 -0.1507
   63TMC2     O  965   0.655   1.811  10.938  0.8242  0.4312 -0.1380
   63TMC2     H  966   0.878   1.926  10.925 -0.5928  1.6740  0.6279
   63TMC2    H1  967   0.651   1.925  10.566  0.5048  0.2182 -0.4583
   63TMC2    H2  968   0.984   2.199  10.615  0.0876  0.6791  0.0738
   63TMC2    C7  969   0.780   2.126  10.447  0.9570 -0.2003  0.9030
   63TMC2    C8  970   1.052   2.119  10.842 -0.1799 -0.1875  0.5728
   63TMC2    O1  971   0.692   2.066  10.382  0.7584 -0.3614 -0.2798
   63TMC2    O2  972   1.091   2.233  10.827 -0.3624  0.6659  0.5367
   63TMC2    O5  973   1.062   2.049  10.958 -0.1808  0.5313 -0.0823
   63TMC2    H5  974   1.039   1.956  10.938 -0.3122  1.2548 -3.4230
   64MPD2     C  975   0.188   1.623  10.843  0.3161 -0.2704  0.0008
   64MPD2    C1  976   0.231   1.635  10.711 -0.2210 -0.0167  0.0220
   64MPD2    C2  977   0.345   1.711  10.683 -0.1873  0.0385  0.0584
   64MPD2    C3  978   0.416   1.769  10.787  0.6401  0.3874 -0.0058
   64MPD2    C4  979   0.372   1.755  10.917  0.1029 -0.3186  0.2002
   64MPD2    C5  980   0.254   1.697  10.943  0.5906 -0.7848  0.3112
   64MPD2     H  981   0.385   1.709  10.582  0.7283  1.3265  0.3847
   64MPD2    H1  982   0.426   1.806  10.996  0.0257 -0.2318  0.1965
   64MPD2    H2  983   0.099   1.572  10.877  0.0878  2.4749  3.5877
   64MPD2    H3  984   0.228   1.692  11.048 -2.0547  2.5383 -0.1722
   64MPD2     N  985   0.524   1.846  10.750 -0.7546  0.2198  0.3316
   64MPD2    H5  986   0.528   1.861  10.650 -2.4984  1.6639  0.4911
   64MPD2    N1  987   0.159   1.565  10.608 -0.0020  0.8236  0.1576
   64MPD2    H7  988   0.176   1.577  10.509  1.1510  1.3347  0.4063
   65MPD2     C  989   0.681   1.219  15.740  0.2202 -0.4017 -0.7277
   65MPD2    C1  990   0.702   1.219  15.603 -0.9180 -0.1375 -0.7012
   65MPD2    C2  991   0.766   1.107  15.546 -0.5703 -0.6486 -0.0571
   65MPD2    C3  992   0.820   1.007  15.625  0.3676  0.1106 -0.3369
   65MPD2    C4  993   0.796   1.011  15.766 -0.2033 -0.5410 -0.0975
   65MPD2    C5  994   0.721   1.115  15.816 -0.0549 -0.1055 -0.1035
   65MPD2     H  995   0.774   1.104  15.438 -1.1995 -2.8069 -0.0458
   65MPD2    H1  996   0.827   0.926  15.826  0.6955 -1.7401 -2.2683
   65MPD2    H2  997   0.633   1.299  15.796 -0.9642 -2.1414  0.7193
   65MPD2    H3  998   0.711   1.117  15.924 -1.7989  1.0621 -0.2954
   65MPD2     N  999   0.900   0.908  15.575 -0.2226 -0.5971  0.7145
   65MPD2    H5 1000   0.937   0.849  15.649 -0.3902 -1.1806  0.3348
   65MPD2    N1 1001   0.653   1.320  15.515  0.0206  0.0698  0.0487
   65MPD2    H7 1002   0.676   1.310  15.417 -0.8066  2.3441 -0.3778
   66TCq2    C1 1003   0.579   1.430  15.558 -0.5336 -0.0602  0.1468
   66TCq2    O2 1004   0.545   1.468  15.668  0.3444  0.1971 -0.2813
   66TCq2    C2 1005   0.593   1.540  15.461  0.6044 -0.9210  0.2049
   66TCq2    C3 1006   0.684   1.533  15.357 -0.1826 -0.4719 -0.5018
   66TCq2    C4 1007   0.738   1.648  15.299  0.5896 -0.0166  0.0070
   66TCq2    C5 1008   0.688   1.772  15.332 -0.6781 -0.2877 -0.0784
   66TCq2    C6 1009   0.598   1.779  15.435 -0.3923 -0.7891 -0.2057
   66TCq2    C7 1010   0.558   1.668  15.506  0.0479 -0.4803  0.1927
   66TCq2    C8 1011   0.570   1.918  15.481  0.7734  0.5444  0.1980
   66TCq2    O4 1012   0.599   2.010  15.405 -0.1087 -0.4549 -0.4113
   66TCq2    C9 1013   0.834   1.630  15.195  0.4693 -0.1129 -0.2852
   66TCq2    O5 1014   0.859   1.506  15.166 -0.0258  0.3138 -0.1271
   66TCq2    O6 1015   0.918   1.724  15.183  0.4880 -0.3944 -0.6487
   66TCq2    H2 1016   0.717   1.438  15.317 -1.3113 -1.1571  0.1949
   66TCq2    H3 1017   0.738   1.860  15.293 -1.3638 -0.4853 -1.4032
   66TCq2    H4 1018   0.476   1.676  15.576 -0.0782  1.4195 -0.1732
   67MPD2     C 1019   1.166   0.808  13.848  0.2235  0.2642 -0.1497
   67MPD2    C1 1020   1.094   0.874  13.945 -0.1557  0.8491  0.6895
   67MPD2    C2 1021   0.961   0.868  13.937  0.5226 -0.6327 -0.5515
   67MPD2    C3 1022   0.900   0.804  13.825  0.0653  0.3575  0.2237
   67MPD2    C4 1023   0.973   0.747  13.735  0.0711 -0.2214  0.0148
   67MPD2    C5 1024   1.106   0.741  13.749  0.0566 -0.7651 -0.3655
   67MPD2     H 1025   0.913   0.906  14.026  2.1491  0.7803 -0.2715
   67MPD2    H1 1026   0.931   0.695  13.649  0.3259 -0.5256  0.0750
   67MPD2    H2 1027   1.274   0.819  13.853  0.2917  0.6477 -2.1952
   67MPD2    H3 1028   1.169   0.690  13.677  1.1078 -2.3449  1.6783
   67MPD2     N 1029   0.760   0.798  13.825  0.2380 -0.3357 -0.3074
   67MPD2    H5 1030   0.722   0.754  13.742  1.7811 -0.6533 -0.8538
   67MPD2    N1 1031   1.146   0.934  14.064 -0.6953  0.2339  0.2115
   67MPD2    H7 1032   1.080   0.980  14.126 -0.0369  1.4699  0.0122
   68TCq2    C1 1033   1.272   0.936  14.098  0.6786 -0.6596 -0.4903
   68TCq2    O2 1034   1.344   0.842  14.069 -0.0255 -0.0281 -0.9105
   68TCq2    C2 1035   1.282   1.004  14.228 -0.3894  0.1106 -0.6608
   68TCq2    C3 1036   1.193   1.111  14.257  1.1684 -0.4629 -0.3856
   68TCq2    C4 1037   1.185   1.149  14.391 -0.1232  0.3205  0.7655
   68TCq2    C5 1038   1.255   1.086  14.491 -0.8494  0.5162  0.0928
   68TCq2    C6 1039   1.339   0.985  14.453  0.1020  0.3709  0.1098
   68TCq2    C7 1040   1.350   0.941  14.323  0.0873 -0.8542 -0.4043
   68TCq2    C8 1041   1.384   0.890  14.555 -0.6991 -0.2780  0.1655
   68TCq2    O4 1042   1.419   0.780  14.505 -0.4099  0.1915 -0.8449
   68TCq2    C9 1043   1.094   1.256  14.423 -0.3245  0.7766 -0.0780
   68TCq2    O5 1044   1.060   1.327  14.327 -0.2316 -0.2164 -0.1869
   68TCq2    O6 1045   1.049   1.259  14.541  0.4856 -0.2389 -0.1640
   68TCq2    H2 1046   1.143   1.166  14.178  0.3742 -0.9043 -0.1909
   68TCq2    H3 1047   1.227   1.106  14.594 -2.7829 -1.6252  0.0106
   68TCq2    H4 1048   1.417   0.863  14.289 -0.1206 -0.7079 -1.1575
   69TMC2    C1 1049   2.764   1.917  11.924  0.0725 -0.1276  0.0601
   69TMC2    C2 1050   2.677   1.831  11.860 -0.5150  0.4593 -0.0794
   69TMC2    C3 1051   2.698   1.820  11.729 -0.0830 -0.0528  0.4177
   69TMC2    C4 1052   2.849   2.000  11.852 -0.0244 -0.7035  0.0675
   69TMC2    C5 1053   2.859   1.985  11.713 -0.0051 -0.4390 -0.1539
   69TMC2    C6 1054   2.786   1.891  11.659  0.1771 -0.8242  1.2292
   69TMC2     C 1055   2.804   1.878  12.058  0.6566 -0.3249  0.7590
   69TMC2     O 1056   2.717   1.837  12.134 -0.2263 -0.2966 -0.5118
   69TMC2     H 1057   2.609   1.769  11.916  1.9790 -0.6068  1.7408
   69TMC2    H1 1058   2.915   2.070  11.901 -0.5617 -1.2639  1.5928
   69TMC2    H2 1059   2.793   1.881  11.552  0.2572 -0.0254  1.1582
   69TMC2    C7 1060   3.000   1.956  11.688  0.8588  0.0427 -1.0225
   69TMC2    C8 1061   2.606   1.739  11.659 -0.8401 -0.0390 -0.0492
   69TMC2    O1 1062   3.064   1.930  11.792  0.8804 -0.5982  0.6554
   69TMC2    O2 1063   2.638   1.699  11.550 -0.2433  0.1355 -0.6556
   69TMC2    O5 1064   2.498   1.824  11.678  0.8864  0.8740  0.0706
   69TMC2    H5 1065   2.526   1.893  11.742 -0.8085  1.1901  0.4644
   70MPD2     C 1066   3.152   1.836  12.175 -0.1097 -0.1213 -0.1394
   70MPD2    C1 1067   3.016   1.856  12.193  0.0406 -0.3809  0.9700
   70MPD2    C2 1068   2.957   1.864  12.315 -0.5360  0.1831 -0.7205
   70MPD2    C3 1069   3.038   1.859  12.422  0.4301 -0.0568  0.4748
   70MPD2    C4 1070   3.174   1.843  12.405  0.2717 -0.0047 -0.2387
   70MPD2    C5 1071   3.233   1.829  12.288  0.3693 -0.0189 -0.4553
   70MPD2     H 1072   2.849   1.871  12.322 -0.4155  1.4784 -0.1200
   70MPD2    H1 1073   3.246   1.824  12.484 -0.1871 -2.3737 -0.4029
   70MPD2    H2 1074   3.201   1.835  12.079 -1.1770  1.6305 -0.7073
   70MPD2    H3 1075   3.339   1.807  12.275  0.7068  0.0552  2.1501
   70MPD2     N 1076   3.002   1.870  12.558 -0.4666 -0.0407 -0.3172
   70MPD2    H5 1077   3.077   1.883  12.625  0.0686 -1.1726 -0.7045
   70MPD2    N1 1078   2.942   1.872  12.075 -0.0248 -0.0729 -0.0175
   70MPD2    H7 1079   2.995   1.883  11.989 -0.8381 -2.6998 -0.8572
   71TMC2    C1 1080   1.562   2.299   1.771  0.5046 -0.2839 -0.0276
   71TMC2    C2 1081   1.617   2.349   1.891  0.4887  0.2964  0.5515
   71TMC2    C3 1082   1.590   2.281   2.006  0.2408  0.1146 -0.5048
   71TMC2    C4 1083   1.485   2.184   1.763  0.1215  0.3960  0.7662
   71TMC2    C5 1084   1.464   2.124   1.883  0.2068 -0.0176  0.1084
   71TMC2    C6 1085   1.512   2.174   2.006  0.1057 -0.3232  0.0282
   71TMC2     C 1086   1.576   2.383   1.657  0.3643  0.5348  0.1301
   71TMC2     O 1087   1.540   2.327   1.553 -0.2112 -0.6008  0.2177
   71TMC2     H 1088   1.677   2.439   1.896  0.6327  0.2142  0.2486
   71TMC2    H1 1089   1.437   2.157   1.669  3.4631  0.7388 -1.0483
   71TMC2    H2 1090   1.493   2.121   2.098 -0.3627 -0.3014 -0.0538
   71TMC2    C7 1091   1.349   2.034   1.906  0.2522  0.4145  0.1639
   71TMC2    C8 1092   1.659   2.299   2.129 -0.1896  0.0128 -0.6959
   71TMC2    O1 1093   1.332   1.982   2.015 -0.2824  0.5135  0.1095
   71TMC2    O2 1094   1.677   2.220   2.219  0.2861  0.2626 -0.3268
   71TMC2    O5 1095   1.677   2.427   2.133 -0.1545  0.6968 -0.7620
   71TMC2    H5 1096   1.623   2.480   2.071  1.6917  2.1484 -1.1395
   72MPD2     C 1097   1.654   2.822   1.411 -0.0974  0.7351 -0.1801
   72MPD2    C1 1098   1.641   2.698   1.363  0.2264  0.4035  0.4645
   72MPD2    C2 1099   1.627   2.594   1.454  0.8651  0.3461 -1.0323
   72MPD2    C3 1100   1.625   2.619   1.592 -0.4281 -0.8740  0.3854
   72MPD2    C4 1101   1.638   2.746   1.636  0.2397 -0.0313  1.0042
   72MPD2    C5 1102   1.641   2.849   1.542  0.0969  0.2115  0.3000
   72MPD2     H 1103   1.611   2.494   1.417 -0.1945  0.1704 -0.0969
   72MPD2    H1 1104   1.638   2.775   1.740 -1.2955 -2.0458  1.5780
   72MPD2    H2 1105   1.664   2.913   1.352  1.3490  0.8721  0.2906
   72MPD2    H3 1106   1.642   2.952   1.575  0.2824 -0.3750  2.1401
   72MPD2     N 1107   1.600   2.512   1.687 -0.3911 -0.6192  0.1063
   72MPD2    H5 1108   1.607   2.545   1.783  1.1033 -1.8614  0.4264
   72MPD2    N1 1109   1.626   2.659   1.229  0.0294  0.0774  0.3981
   72MPD2    H7 1110   1.601   2.562   1.212  0.0047 -0.3065  2.6041
   73TMC2    C1 1111   0.119   3.412  13.725  0.2381  0.0022 -0.1897
   73TMC2    C2 1112   0.080   3.320  13.816 -0.4555  0.4537 -0.7818
   73TMC2    C3 1113   0.112   3.335  13.946  0.4466  0.1478 -0.5992
   73TMC2    C4 1114   0.180   3.518  13.763  0.6894  0.2074  0.0711
   73TMC2    C5 1115   0.225   3.528  13.889 -0.1973 -0.1081 -0.0205
   73TMC2    C6 1116   0.193   3.441  13.988 -0.6113  0.3417 -0.4947
   73TMC2     C 1117   0.176   3.365  13.598 -0.4826  0.1726 -0.4754
   73TMC2     O 1118   0.271   3.432  13.562 -0.7264  0.3472 -0.8518
   73TMC2     H 1119   0.025   3.235  13.778  0.2458 -0.9792  1.4657
   73TMC2    H1 1120   0.217   3.596  13.697  1.1641 -0.0996 -0.0288
   73TMC2    H2 1121   0.219   3.435  14.093  1.7178  1.2972 -1.0271
   73TMC2    C7 1122   0.359   3.575  13.898  0.5460  0.1297 -0.8563
   73TMC2    C8 1123   0.040   3.257  14.043 -0.1375  0.5554  0.4240
   73TMC2    O1 1124   0.412   3.588  14.009 -0.0910 -0.2541  0.0262
   73TMC2    O2 1125   4.652   3.198  14.021  0.3087  0.4180  0.1570
   73TMC2    O5 1126   0.137   3.212  14.124 -0.1720 -0.5061  0.1091
   73TMC2    H5 1127   0.225   3.246  14.096 -1.0814  0.4266 -1.5462
   74MPD2     C 1128   0.315   2.985  13.272  0.1523 -0.9700 -0.2679
   74MPD2    C1 1129   0.370   3.108  13.297  0.5504  0.5450  0.4110
   74MPD2    C2 1130   0.312   3.190  13.386 -0.1523 -0.5167  0.1341
   74MPD2    C3 1131   0.180   3.161  13.442  0.1094  0.3658  0.6002
   74MPD2    C4 1132   0.128   3.039  13.410 -0.4362  0.1488 -0.3213
   74MPD2    C5 1133   0.195   2.947  13.326  0.5008 -0.6490 -0.3876
   74MPD2     H 1134   0.366   3.280  13.413  0.6894 -1.1741  0.6056
   74MPD2    H1 1135   0.028   3.015  13.444  0.3284 -3.1781 -0.4263
   74MPD2    H2 1136   0.361   2.915  13.203 -1.0679 -0.0324 -2.0283
   74MPD2    H3 1137   0.158   2.847  13.310 -1.6451 -0.3545  2.7198
   74MPD2     N 1138   0.123   3.250  13.538 -0.7265  0.2036  1.0902
   74MPD2    H5 1139   0.039   3.212  13.580 -0.9071 -1.8758 -1.1587
   74MPD2    N1 1140   0.500   3.135  13.230 -0.3447 -0.2294 -0.2966
   74MPD2    H7 1141   0.547   3.060  13.181 -0.2961  1.6573 -3.1582
   75TCq2    C1 1142   0.673   0.844  13.922  0.2368 -0.2422  0.0955
   75TCq2    O2 1143   0.678   0.859  14.043  0.1863  0.2100 -0.5879
   75TCq2    C2 1144   0.539   0.853  13.868 -0.1152 -0.7736 -0.2470
   75TCq2    C3 1145   0.431   0.800  13.940  0.0639  0.3392  0.0887
   75TCq2    C4 1146   0.311   0.796  13.876 -0.2841 -0.2316 -0.0927
   75TCq2    C5 1147   0.290   0.861  13.762 -0.2248  0.2004 -0.0557
   75TCq2    C6 1148   0.391   0.917  13.693 -0.0408  0.0117  0.0648
   75TCq2    C7 1149   0.518   0.898  13.742 -0.2573  0.2912 -0.3716
   75TCq2    C8 1150   0.382   0.941  13.551 -0.6668  0.2110  0.5420
   75TCq2    O4 1151   0.286   0.884  13.497 -0.4275 -0.1060  0.8215
   75TCq2    C9 1152   0.200   0.746  13.957 -0.3272 -0.4457 -0.7170
   75TCq2    O5 1153   0.119   0.670  13.901 -0.0325 -0.0833  0.6184
   75TCq2    O6 1154   0.220   0.747  14.082 -0.0034  0.5324 -0.7439
   75TCq2    H2 1155   0.443   0.749  14.035 -0.6153 -0.8269 -0.4489
   75TCq2    H3 1156   0.187   0.869  13.730 -1.1599 -3.1428  2.1069
   75TCq2    H4 1157   0.602   0.945  13.693 -0.7366  2.5087  0.9080
   76MPD2     C 1158   3.830   1.456  12.336  0.1707 -0.6016 -0.0578
   76MPD2    C1 1159   3.916   1.472  12.229  0.3096 -0.1550 -0.2960
   76MPD2    C2 1160   4.051   1.444  12.253  0.2954 -0.2599 -0.3223
   76MPD2    C3 1161   4.098   1.407  12.374 -0.3422  0.2486  0.1726
   76MPD2    C4 1162   4.011   1.403  12.485  0.2037  0.7026 -0.5036
   76MPD2    C5 1163   3.878   1.421  12.464 -0.6251 -0.5498 -0.4809
   76MPD2     H 1164   4.118   1.461  12.169  1.1793 -0.8749  0.2557
   76MPD2    H1 1165   4.042   1.383  12.587 -1.1637 -2.9682 -0.7998
   76MPD2    H2 1166   3.723   1.461  12.320 -0.0509  0.5008  1.7243
   76MPD2    H3 1167   3.806   1.427  12.545 -0.3050  1.2469 -0.3376
   76MPD2     N 1168   4.232   1.387  12.407 -0.6335  0.1718 -0.0768
   76MPD2    H5 1169   4.246   1.383  12.508  0.9917 -0.0352 -0.3103
   76MPD2    N1 1170   3.871   1.512  12.094  0.1047  0.4857  0.1859
   76MPD2    H7 1171   3.943   1.526  12.024  0.8558  0.4705  0.9529
   77TCq2    C1 1172   4.334   1.362  12.321  0.2364  0.2221  0.8989
   77TCq2    O2 1173   4.343   1.356  12.201  0.0301 -0.4079  0.2433
   77TCq2    C2 1174   4.450   1.334  12.397 -0.2454  0.4019  0.5313
   77TCq2    C3 1175   4.433   1.277  12.522  0.9713  0.0969 -0.2482
   77TCq2    C4 1176   4.545   1.246  12.595  0.2194  0.1910 -0.1419
   77TCq2    C5 1177   4.672   1.249  12.535  0.4769  0.0412  0.1672
   77TCq2    C6 1178   4.685   1.308  12.409 -0.1580 -0.3749 -0.2813
   77TCq2    C7 1179   4.575   1.352  12.344  0.1496  0.0215 -0.6289
   77TCq2    C8 1180   0.087   1.372  12.368  0.3572  0.7658 -0.1845
   77TCq2    O4 1181   0.089   1.446  12.274  0.1998  0.2484 -0.0554
   77TCq2    C9 1182   4.528   1.183  12.721 -0.4075 -0.3053 -0.0050
   77TCq2    O5 1183   4.632   1.196  12.795 -0.1403  0.5289  0.1812
   77TCq2    O6 1184   4.415   1.140  12.752  0.0393  0.4152  0.3111
   77TCq2    H2 1185   4.339   1.249  12.567  2.0614 -1.2826  1.1954
   77TCq2    H3 1186   0.035   1.213  12.595 -0.1824  0.5082  1.3418
   77TCq2    H4 1187   4.586   1.400  12.247 -0.4720 -0.7285 -1.0712
   78MPD1     C 1188   4.300   1.946   0.910 -0.0483  0.5761  0.1924
   78MPD1    C1 1189   4.273   1.819   0.946  0.1039 -0.1025 -0.1369
   78MPD1    C2 1190   4.363   1.745   1.020  0.1283 -0.0075 -0.3877
   78MPD1    C3 1191   4.481   1.806   1.068  0.1001 -0.3764  0.2289
   78MPD1    C4 1192   4.506   1.939   1.031  0.4092  0.0392 -0.9236
   78MPD1    C5 1193   4.420   2.004   0.949 -0.1071 -0.2831 -0.5606
   78MPD1     H 1194   4.353   1.638   1.029 -0.9762  0.3735  2.9578
   78MPD1    H1 1195   4.598   1.981   1.068  0.0595  0.0848 -0.1048
   78MPD1    H2 1196   4.238   2.002   0.841 -0.8462  0.0935  0.5134
   78MPD1    H3 1197   4.437   2.106   0.916 -0.3396 -0.3176 -0.7943
   78MPD1     N 1198   4.581   1.747   1.144 -0.2298 -0.2244  1.1453
   78MPD1    H5 1199   4.666   1.803   1.144  0.4947 -1.3394 -0.2466
   78MPD1    N1 1200   4.167   1.753   0.883  0.7082 -0.9165  0.1859
   78MPD1    H6 1201   4.105   1.824   0.844  0.9445 -1.9409 -2.1094
   78MPD1    H7 1202   4.109   1.682   0.928 -0.6790 -1.3537 -2.2538
   79TCq2    C1 1203   4.556   1.632   1.223 -0.5662  0.0675 -0.1419
   79TCq2    O2 1204   4.454   1.574   1.249 -0.4258  0.4091 -0.1805
   79TCq2    C2 1205   4.670   1.589   1.310 -0.0459  0.6911 -0.1428
   79TCq2    C3 1206   4.650   1.520   1.427  0.1281 -0.4142 -0.1288
   79TCq2    C4 1207   0.040   1.480   1.503  0.6115 -0.5693  1.1825
   79TCq2    C5 1208   0.167   1.512   1.468 -0.6151 -0.5948  0.3533
   79TCq2    C6 1209   0.181   1.585   1.350 -0.4892 -0.6414  0.0177
   79TCq2    C7 1210   0.075   1.625   1.272 -0.3925  0.1543  0.0430
   79TCq2    C8 1211   0.319   1.619   1.323  0.5213  0.5873  0.2142
   79TCq2    O4 1212   0.413   1.576   1.392  0.0390 -0.0373  0.4246
   79TCq2    C9 1213   0.015   1.409   1.628  0.0033  0.6516 -1.0578
   79TCq2    O5 1214   0.126   1.382   1.696  0.3247 -0.0185 -0.2461
   79TCq2    O6 1215   4.619   1.367   1.650 -0.2620 -1.1172 -0.4600
   79TCq2    H2 1216   4.552   1.506   1.470 -0.6139  0.6352 -1.4573
   79TCq2    H3 1217   0.250   1.475   1.528 -1.2373 -0.1771  1.4710
   79TCq2    H4 1218   0.088   1.670   1.175  0.8961 -0.0172  0.1356
   80MPD2     C 1219   3.856   0.675  12.441  0.0271  0.0119 -0.3807
   80MPD2    C1 1220   3.749   0.737  12.385  0.2220 -0.3575 -0.1546
   80MPD2    C2 1221   3.641   0.779  12.462 -0.3184 -0.5766  0.2122
   80MPD2    C3 1222   3.633   0.761  12.595  0.3209 -0.2591 -0.1497
   80MPD2    C4 1223   3.740   0.703  12.651  0.2943 -0.2423 -0.0251
   80MPD2    C5 1224   3.843   0.651  12.577  0.0089  0.2158 -0.3526
   80MPD2     H 1225   3.554   0.814  12.406  2.4978  3.2011 -1.7853
   80MPD2    H1 1226   3.742   0.679  12.756 -1.3048 -0.0196  0.0569
   80MPD2    H2 1227   3.936   0.624  12.388  0.2163  0.4609 -0.5222
   80MPD2    H3 1228   3.913   0.598  12.641  1.6381  1.3762 -1.1881
   80MPD2     N 1229   3.539   0.812  12.681 -0.5597 -0.5127  0.0922
   80MPD2    H5 1230   3.552   0.794  12.780  0.8284  0.2120  0.0345
   80MPD2    N1 1231   3.733   0.756  12.239  0.9920  0.4220 -0.0658
   80MPD2    H7 1232   3.653   0.801  12.198  0.7588  0.4592  0.4386
   81TCq2    C1 1233   3.821   0.714  12.146 -0.7060  0.0890 -0.2545
   81TCq2    O2 1234   3.937   0.669  12.153  0.3338  0.1901  0.5266
   81TCq2    C2 1235   3.766   0.725  12.013 -0.5004 -0.7499 -0.1481
   81TCq2    C3 1236   3.857   0.725  11.912  0.4260  0.4327 -0.0941
   81TCq2    C4 1237   3.809   0.705  11.787  0.5988 -0.0430 -0.7669
   81TCq2    C5 1238   3.676   0.678  11.772  0.5412 -0.4856 -0.2470
   81TCq2    C6 1239   3.592   0.656  11.877 -0.8088 -0.1137 -0.2066
   81TCq2    C7 1240   3.637   0.679  12.004  1.3947 -0.5384  0.7073
   81TCq2    C8 1241   3.458   0.601  11.851  0.5338 -0.4660 -0.3161
   81TCq2    O4 1242   3.416   0.614  11.734 -0.5780 -0.4187 -0.6160
   81TCq2    C9 1243   3.890   0.720  11.670  0.4836 -0.0227 -0.1933
   81TCq2    O5 1244   3.833   0.703  11.561 -0.4443  0.1292 -0.3888
   81TCq2    O6 1245   4.008   0.747  11.693 -0.1066  0.4563  0.3424
   81TCq2    H2 1246   3.954   0.773  11.917  0.4594  0.5971 -2.5372
   81TCq2    H3 1247   3.632   0.658  11.675  0.6290  0.4284 -0.4770
   81TCq2    H4 1248   3.570   0.669  12.088  2.0268  0.0587  1.2808
   82MPD2     C 1249   1.452   1.060  10.448 -0.1952 -0.3445 -0.6434
   82MPD2    C1 1250   1.412   0.932  10.438  0.0415 -0.4192  1.0362
   82MPD2    C2 1251   1.441   0.843  10.538  0.3607 -0.2461 -0.1767
   82MPD2    C3 1252   1.506   0.892  10.650  0.4136  0.0917 -0.3321
   82MPD2    C4 1253   1.536   1.027  10.658 -0.1599 -0.2899 -0.9598
   82MPD2    C5 1254   1.511   1.110  10.557 -0.4548  0.2077 -0.0527
   82MPD2     H 1255   1.390   0.748  10.531 -0.0760  0.0648 -1.4212
   82MPD2    H1 1256   1.579   1.067  10.749  0.8395  2.7021 -2.7566
   82MPD2    H2 1257   1.428   1.138  10.377  1.4305  0.2678 -0.5195
   82MPD2    H3 1258   1.551   1.210  10.565 -1.3969  0.6544 -0.8996
   82MPD2     N 1259   1.544   0.812  10.758  0.1573 -0.4823  0.2105
   82MPD2    H5 1260   1.572   0.860  10.844 -0.8482  0.1376  0.1913
   82MPD2    N1 1261   1.346   0.903  10.320  0.2078  0.1948  0.7411
   82MPD2    H7 1262   1.324   0.985  10.263 -0.7934 -1.3684 -1.1118
   83TCq2    C1 1263   1.526   0.676  10.763 -0.1648  0.0351 -0.0564
   83TCq2    O2 1264   1.495   0.596  10.674  0.2269  0.1143 -0.3252
   83TCq2    C2 1265   1.550   0.628  10.897  0.5268  0.1960  0.2888
   83TCq2    C3 1266   1.620   0.702  10.992 -0.6302  0.5701  0.2497
   83TCq2    C4 1267   1.661   0.643  11.106  0.4515  0.0236 -0.7690
   83TCq2    C5 1268   1.629   0.513  11.130  0.3283  0.2347  0.1328
   83TCq2    C6 1269   1.553   0.444  11.040 -0.2711 -0.3558  0.0022
   83TCq2    C7 1270   1.518   0.502  10.919 -0.0508  0.4805 -0.6316
   83TCq2    C8 1271   1.507   0.307  11.076 -0.2915 -0.3994 -0.2376
   83TCq2    O4 1272   1.514   0.282  11.200  0.3943  0.0269  0.0316
   83TCq2    C9 1273   1.723   0.715  11.208  0.3363  1.1288 -0.0233
   83TCq2    O5 1274   1.742   0.658  11.317 -1.0751  0.5607  0.3608
   83TCq2    O6 1275   1.733   0.836  11.185  0.4425 -0.7416 -0.6105
   83TCq2    H2 1276   1.640   0.808  10.983  0.9636  0.3156  0.7504
   83TCq2    H3 1277   1.658   0.462  11.221 -0.9416  0.2919  0.5715
   83TCq2    H4 1278   1.445   0.460  10.852  2.0819 -1.2650 -1.8254
   84TCq2    C1 1279   2.499   4.011  10.183  0.2428 -0.5020  0.3405
   84TCq2    O2 1280   2.438   3.948  10.103  0.0102 -0.1821 -0.4564
   84TCq2    C2 1281   2.552   3.942  10.298 -0.2591 -0.4524  0.1876
   84TCq2    C3 1282   2.552   3.802  10.286  0.2792 -0.0851 -0.2406
   84TCq2    C4 1283   2.613   3.728  10.383  0.3077 -0.4905  0.2664
   84TCq2    C5 1284   2.682   3.786  10.482 -0.2559 -0.0861  0.5895
   84TCq2    C6 1285   2.659   3.922  10.505  0.2060 -0.4385  0.6863
   84TCq2    C7 1286   2.594   4.001  10.413 -1.0197 -0.0579  0.8818
   84TCq2    C8 1287   2.695   3.970  10.640  0.5367  0.4187  0.5647
   84TCq2    O4 1288   2.762   3.901  10.718 -0.2971  0.4751  0.3444
   84TCq2    C9 1289   2.617   3.591  10.365  0.8188  0.6380 -0.1734
   84TCq2    O5 1290   2.685   3.537  10.451  0.4146  0.2445 -0.2963
   84TCq2    O6 1291   2.590   3.548  10.247 -0.1603 -0.0410  0.8594
   84TCq2    H2 1292   2.518   3.755  10.195 -1.5916  1.0949 -0.1432
   84TCq2    H3 1293   2.741   3.723  10.549  0.7104 -1.4442 -1.5250
   84TCq2    H4 1294   2.585   4.108  10.424 -0.1359  0.2276 -1.1208
   85MPD2     C 1295   3.266   2.126  16.497  0.8693 -0.7306  0.0614
   85MPD2    C1 1296   3.202   2.127  16.378  0.3998  0.8991  0.3842
   85MPD2    C2 1297   3.229   2.227  16.283  0.5649 -0.0082 -0.1807
   85MPD2    C3 1298   3.323   2.326  16.311  0.2629  0.2539  0.3281
   85MPD2    C4 1299   3.382   2.326  16.439 -0.5338 -0.3835 -0.1387
   85MPD2    C5 1300   3.361   2.223  16.520 -0.2121  0.7896  0.2724
   85MPD2     H 1301   3.198   2.230  16.179 -1.1597 -1.1300  0.2883
   85MPD2    H1 1302   3.439   2.408  16.481  0.8816 -1.4690  0.0702
   85MPD2    H2 1303   3.244   2.049  16.570 -1.2569  2.6546  3.0139
   85MPD2    H3 1304   3.402   2.220  16.620 -2.1106  0.7999  1.0508
   85MPD2     N 1305   3.356   2.420  16.212  0.8089 -0.4005 -0.3928
   85MPD2    H5 1306   3.299   2.409  16.128  0.7203  1.7663 -0.6207
   85MPD2    N1 1307   3.120   2.013  16.353  0.0404 -0.3482 -0.1031
   85MPD2    H7 1308   3.104   1.955  16.434 -1.9097  1.3676  0.7285
   86TCq2    C1 1309   3.466   2.508  16.219  0.0990  0.4207  0.1428
   86TCq2    O2 1310   3.543   2.534  16.311  0.3670 -0.0266 -0.7017
   86TCq2    C2 1311   3.486   2.595  16.099  0.4515  0.1083  0.0219
   86TCq2    C3 1312   3.389   2.647  16.023 -0.3203 -0.3095 -0.4067
   86TCq2    C4 1313   3.421   2.732  15.924  0.0439  0.0244  0.3639
   86TCq2    C5 1314   3.545   2.772  15.902 -0.0925 -0.3142  0.1194
   86TCq2    C6 1315   3.644   2.718  15.979 -0.2896 -0.0290  0.0242
   86TCq2    C7 1316   3.612   2.634  16.082 -0.0458  0.1283  0.2866
   86TCq2    C8 1317   3.752   2.659  15.904 -0.4956  0.6959 -0.0580
   86TCq2    O4 1318   3.852   2.627  15.961  0.4204 -0.1349 -0.2318
   86TCq2    C9 1319   3.317   2.787  15.842 -0.2402 -0.5044 -0.9161
   86TCq2    O5 1320   3.354   2.870  15.751  0.3476  0.2618 -0.5122
   86TCq2    O6 1321   3.201   2.740  15.872  0.2565 -0.0294 -0.5361
   86TCq2    H2 1322   3.284   2.629  16.042 -0.3863 -0.4124 -0.8654
   86TCq2    H3 1323   3.568   2.840  15.821 -1.4680 -2.7018 -2.2971
   86TCq2    H4 1324   3.698   2.588  16.128  0.2047 -0.5610 -0.8685
   87MPD2     C 1325   0.278   1.239   1.197 -0.7892  0.6258 -0.0265
   87MPD2    C1 1326   0.202   1.135   1.243 -0.5186  0.0404  0.1411
   87MPD2    C2 1327   0.063   1.143   1.242  0.1903 -0.6998  0.4628
   87MPD2    C3 1328   0.005   1.254   1.179  0.1731  0.4784 -0.3497
   87MPD2    C4 1329   0.089   1.352   1.120 -0.1801 -0.2449 -0.1384
   87MPD2    C5 1330   0.228   1.354   1.139  0.2296 -0.1010 -1.6980
   87MPD2     H 1331   0.003   1.055   1.262  0.1841 -0.0627  3.1910
   87MPD2    H1 1332   0.041   1.435   1.069 -1.0782 -0.8645 -0.3085
   87MPD2    H2 1333   0.386   1.238   1.203 -0.8940  0.2042  1.7648
   87MPD2    H3 1334   0.293   1.436   1.110  2.9320 -0.3225  3.7483
   87MPD2     N 1335   4.589   1.274   1.152  0.4565  0.3419  0.2855
   87MPD2    H5 1336   4.564   1.346   1.085  1.4379 -0.1371 -0.6077
   87MPD2    N1 1337   0.270   1.024   1.288 -0.4300  0.7302  0.0108
   87MPD2    H7 1338   0.364   1.004   1.257  0.2102  2.8689  0.5568
   88TCq2    C1 1339   0.207   0.923   1.351  0.6618 -0.3675  0.1803
   88TCq2    O2 1340   0.097   0.926   1.404 -0.6035 -0.5866 -0.5566
   88TCq2    C2 1341   0.288   0.810   1.382  0.0322  0.2424  0.6144
   88TCq2    C3 1342   0.222   0.715   1.452  0.2537 -0.1889  0.1581
   88TCq2    C4 1343   0.282   0.598   1.487 -0.0887  0.8035  0.1305
   88TCq2    C5 1344   0.406   0.573   1.433  0.2838 -0.2998  0.0705
   88TCq2    C6 1345   0.471   0.667   1.347 -0.2341 -0.0196 -0.0892
   88TCq2    C7 1346   0.414   0.789   1.318  0.2980 -1.0410 -0.1655
   88TCq2    C8 1347   0.616   0.649   1.334 -0.1935 -0.4156  0.0216
   88TCq2    O4 1348   0.672   0.593   1.430 -0.6279 -0.1018  0.1615
   88TCq2    C9 1349   0.212   0.500   1.570  0.6646 -0.0182 -0.1534
   88TCq2    O5 1350   0.091   0.523   1.605  0.4026 -0.0181 -0.6677
   88TCq2    O6 1351   0.262   0.383   1.589 -0.5861 -0.5137  0.1121
   88TCq2    H2 1352   0.121   0.731   1.487  0.6660  3.0066 -0.0475
   88TCq2    H3 1353   0.453   0.482   1.466  1.5315  0.2144 -0.2767
   88TCq2    H4 1354   0.460   0.855   1.246  1.5906 -1.1764  0.5238
   89MPD2     C 1355   1.872   3.553   1.570 -0.6309 -0.0679 -0.4488
   89MPD2    C1 1356   1.792   3.637   1.647  0.0048  0.6668 -0.1637
   89MPD2    C2 1357   1.839   3.759   1.683 -0.5048  0.0481  0.4716
   89MPD2    C3 1358   1.956   3.806   1.631  0.0095  0.5064 -0.5454
   89MPD2    C4 1359   2.040   3.722   1.552 -0.1840 -0.0052  0.4365
   89MPD2    C5 1360   1.994   3.594   1.522 -0.5019 -0.4389 -0.2548
   89MPD2     H 1361   1.786   3.830   1.746 -0.4644 -0.6305  1.2584
   89MPD2    H1 1362   2.139   3.753   1.521 -0.3553  0.5407  0.4306
   89MPD2    H2 1363   1.847   3.448   1.559 -1.4815  0.1087 -0.1952
   89MPD2    H3 1364   2.054   3.511   1.484 -0.6170 -0.6350 -0.0039
   89MPD2     N 1365   1.986   3.936   1.667  0.2659  0.3592  0.3805
   89MPD2    H5 1366   1.938   3.977   1.747 -0.3287 -0.0489  0.2290
   89MPD2    N1 1367   1.665   3.599   1.699 -0.4998  0.0636  0.0854
   89MPD2    H7 1368   1.607   3.675   1.735 -1.2011  0.3926 -1.7615
   90TCq2    C1 1369   2.074   4.015   1.598  0.2119 -1.0075 -0.5191
   90TCq2    O2 1370   2.153   3.989   1.507 -0.2345 -0.5330 -0.5806
   90TCq2    C2 1371   2.068   4.141   1.654  0.0521  0.1525 -0.1598
   90TCq2    C3 1372   2.028   4.161   1.784  0.5007  0.2412 -0.7370
   90TCq2    C4 1373   2.042   4.284   1.841 -0.1601 -0.4521  0.6213
   90TCq2    C5 1374   2.072   4.388   1.764 -0.2147  0.1255 -0.4422
   90TCq2    C6 1375   2.106   4.371   1.629 -0.1871 -0.3645  0.0133
   90TCq2    C7 1376   2.106   4.245   1.571 -0.9993 -0.0509  0.0590
   90TCq2    C8 1377   2.169   4.482   1.557 -0.2904  0.6682  0.4146
   90TCq2    O4 1378   2.275   4.458   1.494  0.0431  0.2962  0.1752
   90TCq2    C9 1379   2.000   4.306   1.978  0.9705 -0.1809 -0.1251
   90TCq2    O5 1380   1.987   4.424   2.012  0.0118  0.4350 -0.2326
   90TCq2    O6 1381   2.027   4.207   2.056  0.5458 -0.5535  0.1299
   90TCq2    H2 1382   1.994   4.081   1.850  1.1600  1.1704  0.7284
   90TCq2    H3 1383   2.083   4.486   1.808 -2.0433  0.8735 -1.6618
   90TCq2    H4 1384   2.144   4.229   1.471 -0.9706  4.3901 -0.6288
   91TMC2    C1 1385   3.139   3.492  16.634  0.0025 -0.3115 -0.7260
   91TMC2    C2 1386   3.179   3.605  16.565 -0.7583 -0.1777 -0.6760
   91TMC2    C3 1387   3.090   3.656  16.476  0.0041  0.2136 -0.3559
   91TMC2    C4 1388   3.018   3.435  16.613  0.1966  0.0474  0.0065
   91TMC2    C5 1389   2.940   3.487  16.509  0.0255 -0.2998 -0.1243
   91TMC2    C6 1390   2.972   3.602  16.443 -0.1557  0.5276 -0.3574
   91TMC2     C 1391   3.225   3.419  16.727  0.1558 -0.4990 -0.5433
   91TMC2     O 1392   3.189   3.315  16.782  0.2967 -0.0168  0.2600
   91TMC2     H 1393   3.264   3.667  16.592 -1.3731  0.3004  0.1560
   91TMC2    H1 1394   2.992   3.341  16.658 -2.3310  0.2958 -0.9609
   91TMC2    H2 1395   2.918   3.661  16.369  0.2661  0.6180 -0.5970
   91TMC2    C7 1396   2.815   3.413  16.480 -0.0366 -0.5785 -0.4136
   91TMC2    C8 1397   3.123   3.789  16.423  0.1837  0.7302  0.3281
   91TMC2    O1 1398   2.807   3.307  16.537  0.0137 -0.3327 -1.0608
   91TMC2    O2 1399   3.030   3.861  16.400  0.2149 -0.5535 -0.2959
   91TMC2    O5 1400   3.236   3.791  16.347  0.3528 -0.1852  0.2788
   91TMC2    H5 1401   3.308   3.736  16.384  0.5504 -1.0527 -1.4136
   92MPD2     C 1402   3.482   3.303  16.842  0.5677 -0.3218  0.1612
   92MPD2    C1 1403   3.475   3.410  16.756  0.0101  0.4797  0.6183
   92MPD2    C2 1404   3.590   3.470  16.702  0.1229  0.5455  0.2944
   92MPD2    C3 1405   3.711   3.415  16.729  0.4266 -0.9851 -0.4900
   92MPD2    C4 1406   3.721   3.316  16.822  0.0318  0.0592 -0.0744
   92MPD2    C5 1407   3.610   3.260  16.874  0.6257 -0.6503 -0.2873
   92MPD2     H 1408   3.575   3.548  16.628  0.5597 -0.2296 -0.6109
   92MPD2    H1 1409   3.814   3.276  16.862  0.8286  0.4072 -1.5542
   92MPD2    H2 1410   3.396   3.250  16.882 -0.2850  0.9398  0.0183
   92MPD2    H3 1411   3.609   3.180  16.948 -0.3756 -0.2778  0.1057
   92MPD2     N 1412   3.824   3.467  16.667  0.5421  0.1961  0.0035
   92MPD2    H5 1413   3.808   3.539  16.597 -0.0554 -0.1587 -0.2227
   92MPD2    N1 1414   3.353   3.467  16.711  0.7600 -0.0144  0.6260
   92MPD2    H7 1415   3.369   3.552  16.659  2.3214 -0.8731 -0.2749
   93MPD2     C 1416   0.534   2.803  13.503  0.5669  0.5663  0.1069
   93MPD2    C1 1417   0.472   2.852  13.617 -0.6316 -0.0153  0.2437
   93MPD2    C2 1418   0.352   2.785  13.658  0.1182 -0.1799 -0.7174
   93MPD2    C3 1419   0.299   2.687  13.583  0.5172 -1.0582 -0.0016
   93MPD2    C4 1420   0.366   2.645  13.470 -0.1304 -0.3650 -0.5236
   93MPD2    C5 1421   0.482   2.699  13.429  0.9155  0.5629 -0.9477
   93MPD2     H 1422   0.304   2.829  13.745  0.0818  0.0847 -0.8705
   93MPD2    H1 1423   0.337   2.561  13.408  1.9027 -1.8482  0.5052
   93MPD2    H2 1424   0.628   2.846  13.472  1.8309 -1.6488  0.9263
   93MPD2    H3 1425   0.535   2.657  13.344 -0.2959  1.6679 -2.2396
   93MPD2     N 1426   0.182   2.617  13.616 -0.1245 -0.1368  0.1912
   93MPD2    H5 1427   0.145   2.553  13.547 -0.4216 -0.3101  0.5086
   93MPD2    N1 1428   0.521   2.953  13.705 -0.3737  0.4220 -0.4557
   93MPD2    H7 1429   0.469   2.974  13.790  0.9297 -0.7952  0.6520
   94TCq2    C1 1430   0.636   3.027  13.679  0.7201 -0.0916 -0.1129
   94TCq2    O2 1431   0.723   3.015  13.596  0.3577  0.5342  0.3479
   94TCq2    C2 1432   0.661   3.132  13.780 -0.0446  0.6363  0.8772
   94TCq2    C3 1433   0.558   3.174  13.861  0.8970 -0.4510 -0.9179
   94TCq2    C4 1434   0.589   3.243  13.971  0.7743  0.1995 -0.2713
   94TCq2    C5 1435   0.719   3.278  14.000  0.6319 -0.0209  0.3423
   94TCq2    C6 1436   0.816   3.239  13.918 -0.2300 -0.7288  0.4776
   94TCq2    C7 1437   0.791   3.165  13.810 -0.0158 -0.1510 -0.0666
   94TCq2    C8 1438   0.955   3.262  13.952 -0.2885 -0.2564 -0.3360
   94TCq2    O4 1439   1.046   3.202  13.892  1.3742  0.4415  0.1000
   94TCq2    C9 1440   0.492   3.278  14.064 -0.2734 -0.0472  0.0515
   94TCq2    O5 1441   0.367   3.249  14.046 -0.9363 -0.0266  0.1442
   94TCq2    O6 1442   0.533   3.306  14.177 -0.2092 -0.1542  0.3181
   94TCq2    H2 1443   0.456   3.149  13.835  1.1601 -1.1620 -1.2712
   94TCq2    H3 1444   0.746   3.339  14.085 -0.4012  1.1413 -0.1608
   94TCq2    H4 1445   0.873   3.120  13.755  1.4200  0.7472  1.3388
   95TMC2    C1 1446   0.442   0.152  15.893  0.3756  0.0483  0.4025
   95TMC2    C2 1447   0.435   0.035  15.965 -0.1777 -0.2897  0.3992
   95TMC2    C3 1448   0.342   0.026  16.059  0.0264  0.8229  0.1438
   95TMC2    C4 1449   0.345   0.243  15.894 -0.0374 -0.2012  0.3026
   95TMC2    C5 1450   0.242   0.217  15.981 -0.0115 -0.2887  0.0295
   95TMC2    C6 1451   0.230   0.104  16.059 -0.3740 -0.2746  0.2667
   95TMC2     C 1452   0.555   0.176  15.800 -0.0575  0.1935  0.5818
   95TMC2     O 1453   0.575   0.292  15.770 -0.5083  0.0463 -0.5538
   95TMC2     H 1454   0.528   4.699  15.979 -1.2589 -2.0235  0.7798
   95TMC2    H1 1455   0.342   0.323  15.821 -0.6437 -0.0705  0.4693
   95TMC2    H2 1456   0.147   0.092  16.129 -0.7068 -1.6311 -0.3649
   95TMC2    C7 1457   0.116   0.292  15.967  0.5674  0.1089  1.1740
   95TMC2    C8 1458   0.345   4.641  16.157 -0.8411  0.0332  0.4881
   95TMC2    O1 1459   0.046   0.305  16.067 -0.6025  0.1025  0.6251
   95TMC2    O2 1460   0.419   4.656  16.253 -0.1583 -0.5649 -0.0127
   95TMC2    O5 1461   0.220   4.592  16.166  0.4672 -0.0712 -0.2975
   95TMC2    H5 1462   0.178   4.582  16.078  2.7456 -2.2393 -1.1302
   96MPD2     C 1463   0.942   0.064  15.489  0.7625 -0.3066  0.8423
   96MPD2    C1 1464   0.888   0.183  15.514 -0.3959  0.5117  0.3049
   96MPD2    C2 1465   0.782   0.187  15.600  0.9027 -0.2537 -0.1739
   96MPD2    C3 1466   0.729   0.073  15.662 -0.0589  0.1536  0.5478
   96MPD2    C4 1467   0.785   4.670  15.627  0.0417 -0.2506  0.5694
   96MPD2    C5 1468   0.891   4.667  15.539  0.4264 -0.5021 -0.1550
   96MPD2     H 1469   0.740   0.284  15.626  1.6323  0.7454 -2.6714
   96MPD2    H1 1470   0.754   4.576  15.672  2.8083 -1.6800 -0.5938
   96MPD2    H2 1471   1.016   0.056  15.411 -0.8450  0.8921 -0.7909
   96MPD2    H3 1472   0.927   4.572  15.501 -3.2924 -1.1548 -2.1017
   96MPD2     N 1473   0.622   0.070  15.748  0.5714  0.3645  0.4266
   96MPD2    H5 1474   0.601   4.694  15.774 -1.6164  1.5093  2.8545
   96MPD2    N1 1475   0.946   0.303  15.463  0.0286  0.1052 -0.2416
   96MPD2    H7 1476   1.036   0.295  15.417  1.5423  0.3506  2.6631
   97MPD2     C 1477   1.905   2.220   0.862 -1.4372 -0.4031 -0.0512
   97MPD2    C1 1478   1.971   2.334   0.827 -0.2583 -0.5375 -0.4705
   97MPD2    C2 1479   2.026   2.338   0.698  0.7028  0.4025  0.2797
   97MPD2    C3 1480   1.993   2.236   0.604  0.5191  0.0514  0.0155
   97MPD2    C4 1481   1.918   2.130   0.641  0.0762 -0.5081 -0.1361
   97MPD2    C5 1482   1.876   2.119   0.771  0.4039  0.0014  0.7239
   97MPD2     H 1483   2.066   2.429   0.655 -0.5532  0.4875 -0.7171
   97MPD2    H1 1484   1.891   2.049   0.574 -1.2262 -0.3581  0.2051
   97MPD2    H2 1485   1.876   2.205   0.965 -0.4235 -1.8477  0.0313
   97MPD2    H3 1486   1.819   2.033   0.805  0.5037  0.6542  2.5710
   97MPD2     N 1487   2.046   2.227   0.472  0.5873 -0.2405 -0.1339
   97MPD2    H5 1488   1.994   2.159   0.417  2.7141 -2.1609  0.2451
   97MPD2    N1 1489   1.979   2.439   0.919 -0.9012 -0.0218 -0.0899
   97MPD2    H7 1490   1.948   2.420   1.014 -0.6340 -0.1048 -0.0193
   98TCq2    C1 1491   2.138   2.311   0.413  0.4035 -1.2213  0.1725
   98TCq2    O2 1492   2.210   2.386   0.479  0.1782  0.2092  0.4997
   98TCq2    C2 1493   2.158   2.307   0.265  0.4792 -0.1633 -0.4051
   98TCq2    C3 1494   2.056   2.263   0.184 -0.5210 -0.1012 -0.0886
   98TCq2    C4 1495   2.075   2.268   0.048  0.0871  0.3686  0.4544
   98TCq2    C5 1496   2.185   2.322  17.672 -0.0491 -0.4606  0.0574
   98TCq2    C6 1497   2.284   2.361   0.077  0.0693  0.9518  0.3676
   98TCq2    C7 1498   2.271   2.358   0.208 -0.5843  0.6418 -0.0892
   98TCq2    C8 1499   2.365   2.470   0.028 -0.2304  0.4826  0.0322
   98TCq2    O4 1500   2.461   2.497   0.099 -0.1637  0.2016 -0.0978
   98TCq2    C9 1501   1.960   2.224  17.642 -0.1580  0.1429 -0.0883
   98TCq2    O5 1502   1.855   2.187   0.018  0.2693  0.2045 -0.0945
   98TCq2    O6 1503   1.975   2.237  17.516 -0.0046 -0.7853  0.1842
   98TCq2    H2 1504   1.968   2.211   0.221  0.6698 -0.3790  2.3369
   98TCq2    H3 1505   2.200   2.328  17.565  1.1084  2.9053  0.3923
   98TCq2    H4 1506   2.355   2.397   0.265  0.0869 -0.7451 -0.1226
   99MPD2     C 1507   1.281   0.132   2.042  0.0431 -0.1517  0.2858
   99MPD2    C1 1508   1.142   0.129   2.035 -0.6989 -0.1745 -0.3757
   99MPD2    C2 1509   1.090   0.068   1.923  0.4305 -0.5801 -0.1733
   99MPD2    C3 1510   1.157   0.032   1.809 -0.6441  0.1659  0.6542
   99MPD2    C4 1511   1.293   0.047   1.818 -0.4714 -0.2349 -0.1596
   99MPD2    C5 1512   1.354   0.091   1.932  0.6534  0.4248  0.6246
   99MPD2     H 1513   0.983   0.046   1.926  0.0147  1.2021 -2.2149
   99MPD2    H1 1514   1.366   0.027   1.741  0.5614  1.0237  0.4954
   99MPD2    H2 1515   1.333   0.168   2.129  0.0660  0.6718 -0.0738
   99MPD2    H3 1516   1.462   0.089   1.935  0.7624  1.8393 -2.1422
   99MPD2     N 1517   1.086   4.692   1.701  0.4230  1.0779  0.6238
   99MPD2    H5 1518   0.995   4.653   1.724  0.8019 -1.1030 -1.4904
   99MPD2    N1 1519   1.059   0.150   2.145  0.2005 -0.0966  0.7561
   99MPD2    H7 1520   0.971   0.102   2.133  0.3211  0.0513 -0.6998
  100TCq2    C1 1521   1.090   0.242   2.244 -0.2340 -0.2164 -0.5187
  100TCq2    O2 1522   1.188   0.313   2.246 -0.1828 -0.0793  0.1934
  100TCq2    C2 1523   0.983   0.255   2.345 -0.1319  0.1494  0.6345
  100TCq2    C3 1524   1.010   0.347   2.443 -0.3816 -0.0855  0.6497
  100TCq2    C4 1525   0.904   0.381   2.528 -0.6157 -0.1506 -0.1043
  100TCq2    C5 1526   0.781   0.318   2.517 -0.1613  0.2739  0.3472
  100TCq2    C6 1527   0.760   0.237   2.412  0.4281  0.7659 -0.1357
  100TCq2    C7 1528   0.860   0.197   2.322  0.6314 -0.6306 -0.1567
  100TCq2    C8 1529   0.645   0.146   2.427  0.4355  0.1479  0.0682
  100TCq2    O4 1530   0.554   0.191   2.492 -0.3960 -0.4564 -0.0056
  100TCq2    C9 1531   0.934   0.449   2.648 -0.6502 -0.3008 -0.0412
  100TCq2    O5 1532   1.059   0.486   2.657  0.1028 -0.2472  0.1519
  100TCq2    O6 1533   0.851   0.455   2.740 -0.0275  0.0615 -0.3531
  100TCq2    H2 1534   1.106   0.395   2.460  1.0761 -2.5385 -0.5700
  100TCq2    H3 1535   0.710   0.343   2.596  0.0637 -0.2031  0.7042
  100TCq2    H4 1536   0.832   0.145   2.231  1.3433 -1.7388  0.2542
  101MPD2     C 1537   2.097   0.971  12.711 -0.5603  0.7690 -0.6254
  101MPD2    C1 1538   2.025   1.028  12.816  0.2937  0.5963 -0.8251
  101MPD2    C2 1539   1.957   0.939  12.904  0.0263 -1.0789 -0.8674
  101MPD2    C3 1540   1.967   0.805  12.897 -0.4513 -0.4833 -0.1095
  101MPD2    C4 1541   2.049   0.751  12.798 -1.0767  0.7615 -0.6206
  101MPD2    C5 1542   2.106   0.835  12.705 -0.2183  0.4988  0.0179
  101MPD2     H 1543   1.883   0.982  12.970  1.6841 -0.5166  0.6297
  101MPD2    H1 1544   2.067   0.645  12.783  0.4864  0.6793  1.9766
  101MPD2    H2 1545   2.142   1.028  12.631 -0.9944  0.7841 -0.8598
  101MPD2    H3 1546   2.157   0.785  12.623  0.1707  0.6373  0.1732
  101MPD2     N 1547   1.873   0.727  12.966 -0.4557  0.0970 -0.0990
  101MPD2    H5 1548   1.818   0.780  13.033  0.1457  0.0163  0.4598
  101MPD2    N1 1549   2.009   1.172  12.821 -0.0955  0.3935 -0.3645
  101MPD2    H7 1550   2.059   1.227  12.752  1.8835  0.8424  1.4272
  102TCq2    C1 1551   2.168   1.602  12.659 -0.6998  0.1244 -0.4445
  102TCq2    O2 1552   2.265   1.534  12.689 -0.4167 -0.8906 -0.3448
  102TCq2    C2 1553   2.051   1.556  12.737  0.0286  0.3249 -0.2091
  102TCq2    C3 1554   1.941   1.638  12.754  0.8494 -0.1099  0.0967
  102TCq2    C4 1555   1.838   1.590  12.831  0.4124  0.3175 -0.5970
  102TCq2    C5 1556   1.845   1.470  12.898  0.8748 -0.0856 -0.5893
  102TCq2    C6 1557   1.946   1.385  12.865 -0.2691 -0.1033  0.2566
  102TCq2    C7 1558   2.039   1.427  12.774  0.3265  0.2829  0.1137
  102TCq2    C8 1559   1.926   1.245  12.902 -0.3920 -0.4257  0.3202
  102TCq2    O4 1560   1.851   1.216  12.996  0.2006 -0.1391  0.3468
  102TCq2    C9 1561   1.727   1.677  12.856 -0.3982 -0.2058  0.3631
  102TCq2    O5 1562   1.624   1.629  12.915 -0.0841 -0.3886  0.6151
  102TCq2    O6 1563   1.732   1.797  12.807  0.3919 -0.0251  0.2250
  102TCq2    H2 1564   1.937   1.740  12.719 -1.2979  0.1179  0.9496
  102TCq2    H3 1565   1.760   1.440  12.957  0.1252  0.6630 -1.2812
  102TCq2    H4 1566   2.127   1.368  12.748  0.2889 -0.9199  2.6415
  103TMC2    C1 1567   0.487   1.502  13.039  0.2323 -0.0580  0.4618
  103TMC2    C2 1568   0.606   1.575  13.041  0.2380 -0.5084 -0.1253
  103TMC2    C3 1569   0.649   1.611  13.167 -0.8546  0.2126  0.0228
  103TMC2    C4 1570   0.418   1.472  13.157 -0.4684 -0.0988 -0.9013
  103TMC2    C5 1571   0.474   1.508  13.277 -0.6237 -0.1944 -0.4717
  103TMC2    C6 1572   0.585   1.585  13.282 -0.4295 -0.4307  1.2774
  103TMC2     C 1573   0.437   1.452  12.913 -0.7068  0.0883  0.2314
  103TMC2     O 1574   0.368   1.349  12.906 -0.3070 -0.9039  0.2806
  103TMC2     H 1575   0.668   1.600  12.956  0.8004 -1.0916  0.1169
  103TMC2    H1 1576   0.335   1.404  13.146 -1.4910  1.0908 -0.4320
  103TMC2    H2 1577   0.628   1.640  13.364 -1.2539  0.0053  1.4201
  103TMC2    C7 1578   0.384   1.501  13.386  0.4134 -0.0490 -0.0864
  103TMC2    C8 1579   0.762   1.702  13.172 -0.0594  0.1569  0.2761
  103TMC2    O1 1580   0.441   1.521  13.492 -0.2119 -0.4806  0.0900
  103TMC2    O2 1581   0.842   1.709  13.079  0.1841 -0.7390 -0.2043
  103TMC2    O5 1582   0.722   1.817  13.234  0.3018  0.0149  0.3081
  103TMC2    H5 1583   0.628   1.818  13.264 -0.2371 -2.3487 -1.2661
  104MPD2     C 1584   0.492   1.616  12.589 -0.8962 -1.3413  0.7214
  104MPD2    C1 1585   0.433   1.525  12.680  0.6685 -0.5476 -0.1553
  104MPD2    C2 1586   0.321   1.451  12.632 -0.2166  0.2962  0.0814
  104MPD2    C3 1587   0.278   1.459  12.507  0.2324 -0.0878 -0.3984
  104MPD2    C4 1588   0.339   1.544  12.418 -1.2824  0.1965 -0.8140
  104MPD2    C5 1589   0.445   1.620  12.459  0.4689 -0.0612 -0.0765
  104MPD2     H 1590   0.261   1.385  12.694  2.5331 -1.1111  1.2482
  104MPD2    H1 1591   0.302   1.532  12.317 -1.6883  2.0047 -0.8867
  104MPD2    H2 1592   0.570   1.683  12.622 -1.5327  0.0669 -0.6209
  104MPD2    H3 1593   0.494   1.679  12.382  0.3076  1.3753  0.9034
  104MPD2     N 1594   0.170   1.375  12.476 -0.5880  0.1528 -0.3662
  104MPD2    H5 1595   0.154   1.304  12.546  0.1605 -0.6833 -1.0486
  104MPD2    N1 1596   0.467   1.540  12.814 -0.9358  0.0084  0.2642
  104MPD2    H7 1597   0.516   1.626  12.836 -0.4876  0.1232 -1.1290
  105MPD2     C 1598   1.620   1.017  17.675 -0.2391 -0.1556  0.1407
  105MPD2    C1 1599   1.542   0.909  17.635 -0.0756  0.4726 -0.0388
  105MPD2    C2 1600   1.452   0.841   0.040  0.4142 -0.7257 -0.1352
  105MPD2    C3 1601   1.451   0.880   0.174 -0.2730  0.3106  0.2451
  105MPD2    C4 1602   1.531   0.990   0.214 -0.2912 -0.3371 -0.2761
  105MPD2    C5 1603   1.618   1.052   0.126  0.0280 -0.7439 -0.0414
  105MPD2     H 1604   1.395   0.755   0.008 -1.2847  0.4446 -0.2739
  105MPD2    H1 1605   1.547   1.022   0.316 -0.2244 -0.8385 -0.1281
  105MPD2    H2 1606   1.687   1.069  17.608 -1.1690  1.9628  0.8577
  105MPD2    H3 1607   1.693   1.121   0.163  0.2362 -0.4246 -1.0709
  105MPD2     N 1608   1.355   0.825   0.267 -0.3838  0.0141  0.4525
  105MPD2    H5 1609   1.271   0.781   0.231 -0.9940  2.2471 -0.9024
  105MPD2    N1 1610   1.525   0.873  17.500 -0.0809  1.3490 -0.6166
  105MPD2    H7 1611   1.455   0.802  17.485  0.8678  0.0629  1.1157
  106TCq2    C1 1612   1.366   0.830   0.400  0.2502 -0.3991  0.8578
  106TCq2    O2 1613   1.466   0.841   0.470 -0.3264  0.1925  0.0725
  106TCq2    C2 1614   1.237   0.796   0.464  0.0084  0.6092 -0.2717
  106TCq2    C3 1615   1.126   0.824   0.394  0.4344 -0.6102 -0.4309
  106TCq2    C4 1616   1.009   0.786   0.448  0.7832 -0.4646  0.2364
  106TCq2    C5 1617   0.997   0.730   0.571  0.1729  0.0640 -0.7212
  106TCq2    C6 1618   1.114   0.714   0.645  0.0960 -0.0063 -0.1241
  106TCq2    C7 1619   1.232   0.752   0.594 -0.0382 -0.8727  0.6088
  106TCq2    C8 1620   1.106   0.681   0.790 -0.0736 -0.9046  0.4347
  106TCq2    O4 1621   1.212   0.664   0.844  0.0464  0.1441  0.3314
  106TCq2    C9 1622   0.890   0.786   0.360 -0.3179 -0.2749 -0.5226
  106TCq2    O5 1623   0.879   0.870   0.268  0.0510  0.1356  0.0431
  106TCq2    O6 1624   0.798   0.716   0.408 -0.0024  0.4151 -0.5741
  106TCq2    H2 1625   1.118   0.868   0.296 -2.2066 -2.1006 -0.8689
  106TCq2    H3 1626   0.901   0.690   0.602  1.0996  0.1293  2.2543
  106TCq2    H4 1627   1.320   0.713   0.645  0.9086  1.3104  0.6683
  107TMC2    C1 1628   2.726   4.147  11.598 -0.7117 -0.3032 -0.2274
  107TMC2    C2 1629   2.816   4.043  11.620  0.3587 -0.0940  0.6030
  107TMC2    C3 1630   2.895   4.010  11.507 -0.3076 -0.4117 -0.1149
  107TMC2    C4 1631   2.732   4.223  11.485  0.1543 -1.0220  0.5320
  107TMC2    C5 1632   2.801   4.175  11.376  0.1816 -0.0454  0.2258
  107TMC2    C6 1633   2.889   4.069  11.380 -0.6758  0.3222  0.2936
  107TMC2     C 1634   2.644   4.191  11.711 -0.4394 -0.2309  0.3210
  107TMC2     O 1635   2.602   4.097  11.772 -0.3318 -0.2635  0.7218
  107TMC2     H 1636   2.823   3.982  11.709 -0.4014  0.2517  0.8949
  107TMC2    H1 1637   2.668   4.309  11.473 -0.1638 -1.0282  2.1338
  107TMC2    H2 1638   2.940   4.046  11.287 -0.1866  1.9100  0.1806
  107TMC2    C7 1639   2.773   4.246  11.253  0.2440 -0.5620 -0.2674
  107TMC2    C8 1640   2.964   3.881  11.519  0.8907  0.0779 -0.7084
  107TMC2    O1 1641   2.738   4.363  11.274  0.2152  0.4353 -0.3669
  107TMC2    O2 1642   2.921   3.790  11.592  0.0968 -0.1548  0.3655
  107TMC2    O5 1643   3.094   3.910  11.528  0.1206  0.2718  0.0994
  107TMC2    H5 1644   3.112   3.998  11.489 -0.9299  0.7232  0.6407
  108MPD2     C 1645   2.507   4.533  11.764  0.1595  0.5232  0.0768
  108MPD2    C1 1646   2.517   4.396  11.783 -0.1480  0.2677  0.1764
  108MPD2    C2 1647   2.424   4.341  11.868  0.0098 -0.5502 -0.0739
  108MPD2    C3 1648   2.326   4.416  11.927  0.2476 -0.2720  1.0142
  108MPD2    C4 1649   2.306   4.548  11.897 -0.6817  0.1547 -0.0811
  108MPD2    C5 1650   2.405   4.609  11.818 -0.0052  0.1538 -0.3855
  108MPD2     H 1651   2.439   4.235  11.884  2.2182 -0.3146 -0.5913
  108MPD2    H1 1652   2.242   4.620  11.947 -2.4648 -0.2737 -1.7324
  108MPD2    H2 1653   2.581   4.588  11.706 -1.0362  0.9525 -1.0228
  108MPD2    H3 1654   2.408   4.717  11.807  0.7947 -0.0240 -1.9009
  108MPD2     N 1655   2.242   4.365  12.025  0.2617  0.8302  0.1373
  108MPD2    H5 1656   2.164   4.420  12.059  0.5398  0.9000  0.6563
  108MPD2    N1 1657   2.619   4.325  11.717  0.3022 -0.2251  0.0963
  108MPD2    H7 1658   2.674   4.385  11.656 -2.3944  2.2805  0.1239
  109MPD2     C 1659   1.367   1.621   1.840  0.2546 -0.1799  0.2044
  109MPD2    C1 1660   1.405   1.711   1.742 -0.3537 -0.3766  0.2199
  109MPD2    C2 1661   1.522   1.786   1.754 -0.2469 -0.6078 -0.1887
  109MPD2    C3 1662   1.597   1.786   1.871  0.0675  0.2584 -0.1815
  109MPD2    C4 1663   1.566   1.690   1.968  0.1596 -0.2164  0.9840
  109MPD2    C5 1664   1.457   1.618   1.942  0.1163  1.0143  0.0715
  109MPD2     H 1665   1.533   1.864   1.679 -1.2539  0.9100  1.2366
  109MPD2    H1 1666   1.630   1.678   2.055 -1.2153  1.9691  2.3158
  109MPD2    H2 1667   1.289   1.547   1.829  0.6692 -0.6784  0.6090
  109MPD2    H3 1668   1.440   1.535   2.011 -0.4650  2.7604  2.0266
  109MPD2     N 1669   1.703   1.880   1.884 -0.5848  0.3716  0.5346
  109MPD2    H5 1670   1.737   1.925   1.800  1.1485  0.5620  1.3400
  109MPD2    N1 1671   1.332   1.733   1.616 -0.7469 -0.3947 -0.3423
  109MPD2    H7 1672   1.383   1.788   1.548 -1.2869 -0.4827 -0.8270
  110TCq2    C1 1673   1.772   1.899   2.006  0.0278  0.1253 -0.8623
  110TCq2    O2 1674   1.764   1.836   2.110  0.0837  0.2235  0.2034
  110TCq2    C2 1675   1.887   1.985   1.990 -0.6523  0.0747 -0.1558
  110TCq2    C3 1676   1.986   1.976   2.090  0.1014 -0.0342  0.0804
  110TCq2    C4 1677   2.081   2.070   2.091  0.0505 -0.4169  0.5389
  110TCq2    C5 1678   2.082   2.172   2.001  0.3435  0.4314  0.2314
  110TCq2    C6 1679   1.981   2.167   1.903  0.4539 -0.4322 -0.2946
  110TCq2    C7 1680   1.887   2.080   1.896  0.2511  0.4796 -1.0365
  110TCq2    C8 1681   1.973   2.279   1.809 -0.0968 -0.0942 -0.3519
  110TCq2    O4 1682   1.906   2.258   1.707 -0.1452  0.4470  0.4306
  110TCq2    C9 1683   2.176   2.078   2.202 -0.3737  0.8491  0.1122
  110TCq2    O5 1684   2.177   1.983   2.286 -0.2898 -0.0762  0.0246
  110TCq2    O6 1685   2.249   2.183   2.218 -0.3729 -0.1226 -0.0559
  110TCq2    H2 1686   1.993   1.899   2.166 -0.3233 -0.3773 -0.2219
  110TCq2    H3 1687   2.160   2.247   2.006  0.8336  0.0544 -1.8859
  110TCq2    H4 1688   1.812   2.093   1.819  1.4018 -0.7691 -2.3685
  111TMC2    C1 1689   2.899   1.657  11.218  0.4737 -0.4481 -0.2002
  111TMC2    C2 1690   3.006   1.644  11.133 -0.0680  0.3581 -0.2785
  111TMC2    C3 1691   3.130   1.631  11.183  0.0619  0.9076 -0.0807
  111TMC2    C4 1692   2.909   1.651  11.354 -0.1096 -0.3303 -0.3598
  111TMC2    C5 1693   3.040   1.632  11.401  0.6679  0.0896 -0.4123
  111TMC2    C6 1694   3.154   1.630  11.317  0.1742 -0.8636 -0.5148
  111TMC2     C 1695   2.783   1.714  11.156 -1.0024 -0.2691  0.5193
  111TMC2     O 1696   2.773   1.720  11.033  0.1782 -0.9091 -0.2339
  111TMC2     H 1697   2.991   1.665  11.028  1.7729  1.7066 -0.2777
  111TMC2    H1 1698   2.829   1.632  11.425  0.8281 -2.0453  0.2465
  111TMC2    H2 1699   3.260   1.624  11.337 -0.2495  1.1612  2.3495
  111TMC2    C7 1700   3.063   1.618  11.543 -0.7802  0.1357  0.4474
  111TMC2    C8 1701   3.243   1.670  11.094  0.0577  0.0098 -0.2025
  111TMC2    O1 1702   2.967   1.639  11.616 -0.2696 -0.3486  0.2276
  111TMC2    O2 1703   3.347   1.726  11.130  0.1440  0.0961 -0.0375
  111TMC2    O5 1704   3.215   1.623  10.967 -0.5951  0.3838  0.4607
  111TMC2    H5 1705   3.152   1.548  10.979 -1.4369  1.0080 -0.0655
  112MPD2     C 1706   2.368   2.004  11.170 -0.0700  0.6460 -0.8728
  112MPD2    C1 1707   2.411   1.918  11.072  0.3195 -0.2675  0.0549
  112MPD2    C2 1708   2.521   1.840  11.100  0.4772  0.6115  0.1178
  112MPD2    C3 1709   2.583   1.836  11.228 -0.2311 -0.9167 -0.5502
  112MPD2    C4 1710   2.522   1.908  11.329  0.3948  0.0262  0.3926
  112MPD2    C5 1711   2.416   1.990  11.296 -0.0973 -0.2160  0.1349
  112MPD2     H 1712   2.558   1.772  11.024  2.3035  1.4095  0.2983
  112MPD2    H1 1713   2.573   1.919  11.424  0.1242  1.3428  0.3755
  112MPD2    H2 1714   2.288   2.071  11.144 -0.4997  1.3996  2.4174
  112MPD2    H3 1715   2.364   2.046  11.373 -0.3268  0.9587 -0.8853
  112MPD2     N 1716   2.697   1.758  11.254  0.0315  0.1866 -0.1424
  112MPD2    H5 1717   2.708   1.754  11.355 -1.4059 -2.2933 -0.0808
  112MPD2    N1 1718   2.381   1.927  10.930 -0.5738 -0.3954  0.3293
  112MPD2    H7 1719   2.444   1.869  10.876 -0.2134 -1.7293  2.1875
  113MPD2     C 1720   0.613   4.358   1.470  0.2330 -0.4237  0.5668
  113MPD2    C1 1721   0.480   4.372   1.492 -0.1259 -0.4861 -0.1664
  113MPD2    C2 1722   0.396   4.331   1.391 -0.0060 -0.6209  0.6502
  113MPD2    C3 1723   0.440   4.258   1.281  0.0269  0.3299 -0.2687
  113MPD2    C4 1724   0.577   4.243   1.264  0.2355 -0.2900 -0.5353
  113MPD2    C5 1725   0.664   4.300   1.357  0.3058 -0.1310  0.5907
  113MPD2     H 1726   0.289   4.341   1.406 -0.2742  0.1249 -1.6198
  113MPD2    H1 1727   0.623   4.179   1.189  1.0543 -1.4493  0.9691
  113MPD2    H2 1728   0.685   4.395   1.541  0.6129  1.0771 -0.5951
  113MPD2    H3 1729   0.772   4.289   1.347  0.0825  0.9518 -2.9551
  113MPD2     N 1730   0.356   4.210   1.175  0.1626  0.0582 -0.0521
  113MPD2    H5 1731   0.402   4.186   1.088 -1.4357 -1.8995 -0.3542
  113MPD2    N1 1732   0.422   4.454   1.589  0.1852 -0.3712 -0.0399
  113MPD2    H7 1733   0.322   4.471   1.574  0.0411 -0.5651  0.7204
  114TCq2    C1 1734   0.217   4.203   1.178  0.0075  0.3125  0.2189
  114TCq2    O2 1735   0.140   4.221   1.267  0.1562  0.4917  0.2644
  114TCq2    C2 1736   0.163   4.161   1.050 -0.2701  0.4158 -0.4273
  114TCq2    C3 1737   0.240   4.175   0.935  0.2487 -0.6920 -0.9247
  114TCq2    C4 1738   0.179   4.143   0.817 -0.1448  0.2964 -0.9298
  114TCq2    C5 1739   0.048   4.102   0.807 -0.0094  0.3689  0.2466
  114TCq2    C6 1740   4.703   4.065   0.925 -0.4542 -0.0241  0.6192
  114TCq2    C7 1741   0.040   4.099   1.044 -0.6634  0.0718 -0.3161
  114TCq2    C8 1742   4.558   4.043   0.918  0.0311  0.1465  0.5989
  114TCq2    O4 1743   4.503   4.056   0.812  0.2721  1.0876 -0.1938
  114TCq2    C9 1744   0.256   4.165   0.695  1.0744 -0.4333  0.7388
  114TCq2    O5 1745   0.192   4.172   0.585 -0.1260 -0.5018  0.0227
  114TCq2    O6 1746   0.382   4.179   0.717  0.3036  0.1114 -0.1095
  114TCq2    H2 1747   0.323   4.245   0.938 -1.1356  0.9751 -1.8359
  114TCq2    H3 1748   0.014   4.071   0.709 -0.8142 -0.8647  0.9007
  114TCq2    H4 1749   4.702   4.090   1.136 -0.2683  0.5231 -0.0281
  115TMC2    C1 1750   1.001   2.473  17.619  0.3924 -0.3850 -0.8374
  115TMC2    C2 1751   0.977   2.466   0.073 -0.0950 -0.3929 -0.3258
  115TMC2    C3 1752   1.058   2.541   0.155 -0.1609  0.7398 -0.1251
  115TMC2    C4 1753   1.107   2.542  17.572 -0.8062  0.4683  0.4668
  115TMC2    C5 1754   1.199   2.593  17.661 -0.2584 -0.5187  0.2116
  115TMC2    C6 1755   1.178   2.601   0.118 -0.5000  0.7408  0.2757
  115TMC2     C 1756   0.938   2.373  17.540  0.4151  0.0916 -0.4763
  115TMC2     O 1757   0.944   2.387  17.420  0.4246  0.0870  0.3489
  115TMC2     H 1758   0.892   2.411   0.113  0.3445 -1.1953 -0.4957
  115TMC2    H1 1759   1.142   2.549  17.470  1.3876 -0.2740  1.1583
  115TMC2    H2 1760   1.249   2.637   0.192  0.6730  2.6519 -1.7874
  115TMC2    C7 1761   1.282   2.699  17.609 -0.0635  0.4129  0.0775
  115TMC2    C8 1762   1.028   2.531   0.299 -0.1901 -0.1207  0.4486
  115TMC2    O1 1763   1.229   2.760  17.517  0.2611  0.2077  0.0035
  115TMC2    O2 1764   0.951   2.442   0.347  0.2773  0.0837 -0.3558
  115TMC2    O5 1765   1.066   2.638   0.367 -0.1632  0.0348 -0.4096
  115TMC2    H5 1766   1.105   2.708   0.310 -0.2844  0.0459 -0.4781
  116MPD2     C 1767   0.659   1.943  17.465 -1.1041  0.2662 -1.0826
  116MPD2    C1 1768   0.701   2.036  17.376 -0.0159  0.2783  0.0122
  116MPD2    C2 1769   0.775   2.145  17.421 -0.0912  0.3520  0.2529
  116MPD2    C3 1770   0.817   2.161  17.554  0.2939 -0.1470 -0.4271
  116MPD2    C4 1771   0.768   2.071  17.639 -0.2872  0.7787 -0.3531
  116MPD2    C5 1772   0.694   1.959  17.599 -0.5757 -0.7346  0.3055
  116MPD2     H 1773   0.808   2.226  17.357 -0.2617 -0.7042 -1.1546
  116MPD2    H1 1774   0.794   2.078   0.064  2.2911  1.2666 -1.0288
  116MPD2    H2 1775   0.590   1.864  17.437 -1.2778 -0.2405  0.8242
  116MPD2    H3 1776   0.652   1.895  17.676  1.0507 -1.9836  0.1559
  116MPD2     N 1777   0.903   2.255  17.608 -0.6829  0.0453 -0.2301
  116MPD2    H5 1778   0.934   2.249   0.024 -0.4566  0.9003 -0.2438
  116MPD2    N1 1779   0.652   2.024  17.241 -0.8867 -0.8653  0.7204
  116MPD2    H7 1780   0.595   1.943  17.217 -2.8633  1.6927 -3.2262
  117TMC2    C1 1781   4.291   3.562  14.066  0.1428  0.1273  0.4335
  117TMC2    C2 1782   4.324   3.486  14.172  0.0701  0.1828  0.0851
  117TMC2    C3 1783   4.436   3.530  14.245 -0.5719 -0.3489 -0.6622
  117TMC2    C4 1784   4.378   3.651  14.021  0.1177  0.3448  0.3219
  117TMC2    C5 1785   4.499   3.673  14.081  0.0574  0.0881 -0.1381
  117TMC2    C6 1786   4.532   3.619  14.201 -0.4944  0.0376  0.2500
  117TMC2     C 1787   4.157   3.561  14.005  0.2340 -0.4859  0.2265
  117TMC2     O 1788   4.115   3.460  13.948  0.0503  0.6250  0.9147
  117TMC2     H 1789   4.244   3.421  14.207  0.3415 -0.0982  0.1802
  117TMC2    H1 1790   4.361   3.700  13.926 -1.6077  2.4204  1.7037
  117TMC2    H2 1791   4.613   3.659  14.261  0.6765 -1.3572 -0.3721
  117TMC2    C7 1792   4.561   3.807  14.048  0.0868  0.2829 -0.1867
  117TMC2    C8 1793   4.428   3.520  14.391  0.0651  0.3325  0.1598
  117TMC2    O1 1794   4.678   3.834  14.068 -0.0222 -0.3052 -0.1550
  117TMC2    O2 1795   4.423   3.623  14.456  0.5509  0.0885 -0.7201
  117TMC2    O5 1796   4.367   3.408  14.423 -0.5266 -0.0895 -0.6836
  117TMC2    H5 1797   4.396   3.336  14.364 -1.2052 -2.4422  1.8763
  118MPD2     C 1798   4.362   4.099  13.950 -0.2978 -0.3588  0.5495
  118MPD2    C1 1799   4.478   4.036  13.983 -0.2602 -0.5224  0.6348
  118MPD2    C2 1800   4.609   4.099  13.986 -0.0107  0.6963  0.7444
  118MPD2    C3 1801   4.616   4.231  13.937 -0.1541 -0.4086  0.6065
  118MPD2    C4 1802   4.499   4.293  13.911  0.1129  0.1422 -0.5929
  118MPD2    C5 1803   4.379   4.230  13.917  0.0631  0.0423  0.3031
  118MPD2     H 1804   4.702   4.052  14.017 -0.8137 -1.2574  0.1841
  118MPD2    H1 1805   4.498   4.396  13.878  0.6020 -0.2159 -1.7137
  118MPD2    H2 1806   4.261   4.061  13.960 -0.1698 -0.6568  0.7061
  118MPD2    H3 1807   4.286   4.282  13.901 -0.5791 -1.7631 -1.8778
  118MPD2     N 1808   0.010   4.304  13.919  0.0127  0.1259 -0.2701
  118MPD2    H5 1809   0.002   4.399  13.882 -2.5450 -0.3682 -0.9839
  118MPD2    N1 1810   4.457   3.895  14.023 -0.0296 -0.4099 -0.4437
  118MPD2    H7 1811   4.363   3.860  14.016 -0.2479  0.3455 -1.2347
  119MPD2     C 1812   3.155   0.738  13.483 -0.7634  0.6373  0.1879
  119MPD2    C1 1813   3.033   0.723  13.550  0.0919  0.4718  0.0381
  119MPD2    C2 1814   2.952   0.625  13.503 -0.2054  1.1364 -0.7516
  119MPD2    C3 1815   2.979   0.552  13.387  0.0989  0.2126  0.3680
  119MPD2    C4 1816   3.094   0.570  13.322 -0.4925 -0.2641  0.4890
  119MPD2    C5 1817   3.185   0.659  13.374 -0.3044  0.0464 -0.3600
  119MPD2     H 1818   2.871   0.595  13.568  1.0083  1.8497  1.0973
  119MPD2    H1 1819   3.124   0.495  13.249  0.7724  0.3692  0.3705
  119MPD2    H2 1820   3.237   0.799  13.518 -1.3594  1.1733  0.6558
  119MPD2    H3 1821   3.288   0.668  13.343 -0.2983  1.2864  0.0111
  119MPD2     N 1822   2.894   0.457  13.331 -0.4846 -0.0198 -0.1300
  119MPD2    H5 1823   2.935   0.410  13.251 -0.3720 -1.7237  0.9290
  119MPD2    N1 1824   3.000   0.796  13.661  0.9179  0.3474 -0.1094
  119MPD2    H7 1825   3.076   0.848  13.702  0.9365 -0.1368  0.4695
  120TCq2    C1 1826   2.761   0.428  13.365  0.1647 -0.2516  0.0843
  120TCq2    O2 1827   2.687   0.490  13.434  0.0491 -0.1887 -0.2140
  120TCq2    C2 1828   2.714   0.316  13.288 -0.4533  0.4554  0.2886
  120TCq2    C3 1829   2.804   0.225  13.224 -0.1472 -0.7517 -0.5294
  120TCq2    C4 1830   2.759   0.102  13.212  0.3449  0.1375 -0.7455
  120TCq2    C5 1831   2.629   0.061  13.236 -0.1881  0.4167  0.1569
  120TCq2    C6 1832   2.541   0.156  13.298 -0.0416  0.0093  0.2630
  120TCq2    C7 1833   2.584   0.283  13.325  0.3911  0.0112 -0.2709
  120TCq2    C8 1834   2.400   0.128  13.316 -0.0190  0.7880 -0.0776
  120TCq2    O4 1835   2.337   0.054  13.242  0.0890 -0.4666  0.6070
  120TCq2    C9 1836   2.852   0.005  13.170 -0.7743  0.5047  0.0065
  120TCq2    O5 1837   2.974   0.033  13.152  1.0534 -0.8634 -0.3623
  120TCq2    O6 1838   2.812   4.607  13.173  0.1807 -0.4930  0.4296
  120TCq2    H2 1839   2.907   0.249  13.200  0.1360 -0.1264  1.2831
  120TCq2    H3 1840   2.593   4.682  13.207 -2.3007 -0.0727  4.4463
  120TCq2    H4 1841   2.515   0.355  13.367 -0.3672 -0.6031 -0.4831
  121TMC2    C1 1842   0.010   2.142  13.976 -0.2038 -0.4362  0.5957
  121TMC2    C2 1843   0.012   2.010  14.021  0.2061 -0.2215 -0.8368
  121TMC2    C3 1844   4.616   1.939  13.988  0.4882 -0.0194 -0.5695
  121TMC2    C4 1845   4.622   2.198  13.915  0.1346  0.3766  0.3269
  121TMC2    C5 1846   4.506   2.127  13.892  0.3595  0.1686 -0.5652
  121TMC2    C6 1847   4.495   2.002  13.944  0.0462  0.1555 -0.0814
  121TMC2     C 1848   0.129   2.201  13.932 -0.3030 -0.2147  0.4639
  121TMC2     O 1849   0.231   2.184  13.999  0.0579  0.9888  0.7575
  121TMC2     H 1850   0.099   1.964  14.066  1.5511  1.0787 -2.0999
  121TMC2    H1 1851   4.634   2.301  13.883 -0.1164  0.0046 -0.9776
  121TMC2    H2 1852   4.407   1.941  13.925 -1.2295  1.5890  1.1179
  121TMC2    C7 1853   4.421   2.179  13.787  0.6196 -0.6192  0.3129
  121TMC2    C8 1854   4.614   1.799  14.028  0.0255 -0.4613 -0.3158
  121TMC2    O1 1855   4.479   2.245  13.703 -0.3485 -0.8211  0.0535
  121TMC2    O2 1856   4.695   1.752  14.104 -0.2446  0.3487 -0.0772
  121TMC2    O5 1857   4.544   1.728  13.933  0.4670 -0.0027 -0.8887
  121TMC2    H5 1858   4.519   1.782  13.855 -0.3433 -0.5497 -1.0077
  122MPD2     C 1859   0.354   2.279  13.746 -0.5043  0.0521  0.3428
  122MPD2    C1 1860   0.223   2.255  13.708 -0.1031 -0.0262  0.3318
  122MPD2    C2 1861   0.183   2.232  13.575 -0.0312 -0.3532  0.1248
  122MPD2    C3 1862   0.275   2.222  13.478 -0.3007  0.9069  0.0861
  122MPD2    C4 1863   0.408   2.246  13.515 -0.1144  0.5591  0.2244
  122MPD2    C5 1864   0.448   2.271  13.646  0.1458 -0.3717  0.3434
  122MPD2     H 1865   0.075   2.227  13.565  0.0853 -0.5818 -0.9480
  122MPD2    H1 1866   0.475   2.257  13.430 -1.3226 -1.6504 -0.9937
  122MPD2    H2 1867   0.385   2.289  13.849 -0.2428  0.5337  0.2172
  122MPD2    H3 1868   0.553   2.291  13.666  0.0776  0.6790 -0.3239
  122MPD2     N 1869   0.244   2.196  13.344  0.1428 -0.2543  0.1524
  122MPD2    H5 1870   0.327   2.206  13.285  1.2546 -0.6222  1.6440
  122MPD2    N1 1871   0.118   2.243  13.799 -0.1735 -0.2154 -0.4793
  122MPD2    H7 1872   0.026   2.235  13.757 -0.9403  1.1132  0.9169
  123MPD2     C 1873   2.337   0.147   9.821  0.2204 -0.5336 -0.2445
  123MPD2    C1 1874   2.336   0.276   9.781 -0.2196  0.2799  0.9264
  123MPD2    C2 1875   2.425   0.365   9.840 -0.3265  0.1703 -0.4112
  123MPD2    C3 1876   2.521   0.314   9.936  0.2150  1.0057  0.9543
  123MPD2    C4 1877   2.540   0.173   9.951 -0.6661  0.3203  0.1976
  123MPD2    C5 1878   2.436   0.103   9.906 -0.1125 -0.4154  0.0717
  123MPD2     H 1879   2.419   0.473   9.834  0.8876  0.2529 -0.2657
  123MPD2    H1 1880   2.609   0.126  10.021  2.0804 -0.2986 -2.9133
  123MPD2    H2 1881   2.259   0.080   9.789 -1.0132  0.9606 -0.3517
  123MPD2    H3 1882   2.423   0.005   9.949  1.0935 -0.4646  0.3175
  123MPD2     N 1883   2.585   0.411  10.014 -0.6314  0.1745  0.7772
  123MPD2    H5 1884   2.553   0.507   9.999  1.4487  0.4872 -1.7279
  123MPD2    N1 1885   2.231   0.319   9.707  0.5897  0.9602  0.0419
  123MPD2    H7 1886   2.151   0.261   9.685 -0.2133  1.9212  0.3913
  124TCq2    C1 1887   2.703   0.380  10.086 -0.1906 -0.3279  1.0012
  124TCq2    O2 1888   2.769   0.278  10.078 -0.1578 -0.3588 -0.1890
  124TCq2    C2 1889   2.761   0.496  10.158 -0.6607  0.1694  0.1647
  124TCq2    C3 1890   2.896   0.489  10.184 -0.0389 -0.2615  0.6563
  124TCq2    C4 1891   2.958   0.611  10.206  0.0841  0.3293 -0.2830
  124TCq2    C5 1892   2.905   0.735  10.190 -0.1850  0.2099 -0.1956
  124TCq2    C6 1893   2.772   0.738  10.157 -0.0140  0.4491 -0.3986
  124TCq2    C7 1894   2.699   0.624  10.146  0.2829 -0.6272  0.2248
  124TCq2    C8 1895   2.741   0.827  10.051  0.0772 -0.4133  0.8530
  124TCq2    O4 1896   2.690   0.768   9.952  0.6163  0.5609 -0.0010
  124TCq2    C9 1897   3.096   0.603  10.243  0.4423 -0.2795  0.3241
  124TCq2    O5 1898   3.161   0.707  10.269  0.1357  0.4842  0.9154
  124TCq2    O6 1899   3.155   0.493  10.239 -0.0664  0.4019 -0.3108
  124TCq2    H2 1900   2.953   0.396  10.179 -0.0146 -0.2938  1.4505
  124TCq2    H3 1901   2.958   0.829  10.188 -1.9518  1.2038 -0.1664
  124TCq2    H4 1902   2.592   0.631  10.132  0.4347  3.4724  1.1287
  125TMC2    C1 1903   0.136   1.395   8.867 -0.5287  0.3293 -0.2499
  125TMC2    C2 1904   0.141   1.362   8.736  0.3175  0.5529  0.2821
  125TMC2    C3 1905   0.044   1.410   8.657 -0.3575  0.5148 -0.0510
  125TMC2    C4 1906   0.038   1.471   8.920  0.0731  0.0654 -0.8733
  125TMC2    C5 1907   4.672   1.523   8.831  0.0181 -0.0173 -0.0626
  125TMC2    C6 1908   4.676   1.493   8.703  0.0908 -0.3466 -0.0303
  125TMC2     C 1909   0.228   1.319   8.945  0.5104 -0.7197 -0.2717
  125TMC2     O 1910   0.266   1.220   8.888 -0.3189  0.0300  0.0900
  125TMC2     H 1911   0.217   1.296   8.695 -1.5317 -0.2736 -1.8149
  125TMC2    H1 1912   0.034   1.492   9.026  0.8302 -1.3907 -0.5606
  125TMC2    H2 1913   4.608   1.532   8.628 -2.0159 -0.3697  1.8698
  125TMC2    C7 1914   4.572   1.626   8.866  0.5504  0.0071  0.6409
  125TMC2    C8 1915   0.059   1.407   8.510 -0.9779  0.0741 -0.5125
  125TMC2    O1 1916   4.475   1.635   8.789 -0.1892  0.3043  0.4978
  125TMC2    O2 1917   0.026   1.499   8.436 -0.0528 -0.0080 -0.3443
  125TMC2    O5 1918   0.142   1.316   8.471  0.1607 -0.0705 -0.2924
  125TMC2    H5 1919   0.131   1.238   8.529 -0.0215 -0.6585 -1.1126
  126MPD1     C 1920   0.595   1.271   9.309  1.1783  0.7199  0.1376
  126MPD1    C1 1921   0.554   1.404   9.312 -0.5515  0.1030 -0.5829
  126MPD1    C2 1922   0.460   1.441   9.215  0.5914  0.1154  0.9550
  126MPD1    C3 1923   0.398   1.348   9.134  0.5022 -0.9663  0.0208
  126MPD1    C4 1924   0.438   1.218   9.136  0.6207  0.1192  0.0099
  126MPD1    C5 1925   0.546   1.185   9.215 -0.6963 -0.9609 -0.8788
  126MPD1     H 1926   0.431   1.545   9.208  0.5750 -0.0608 -1.6246
  126MPD1    H1 1927   0.401   1.139   9.072 -0.0427  0.5731 -0.1735
  126MPD1    H2 1928   0.677   1.228   9.366  2.3852  1.4792 -1.0371
  126MPD1    H3 1929   0.577   1.082   9.207  0.1414 -0.8138  0.5212
  126MPD1     N 1930   0.293   1.393   9.048 -0.3111 -0.2107 -0.0426
  126MPD1    H5 1931   0.256   1.488   9.053  0.8839  0.1385  2.3427
  126MPD1    N1 1932   0.623   1.500   9.392 -0.3437  0.2935  0.2979
  126MPD1    H6 1933   0.662   1.454   9.474  1.1083  1.4116  0.2263
  126MPD1    H7 1934   0.556   1.567   9.430 -1.1261 -0.3969  0.1504
  127MPD2     C 1935   4.583   1.078   9.628  0.2226  0.1588  0.1305
  127MPD2    C1 1936   4.660   1.006   9.720  0.2121  0.2065  0.5876
  127MPD2    C2 1937   0.069   1.049   9.766  0.5638 -0.6920 -0.6060
  127MPD2    C3 1938   0.115   1.176   9.716  0.2071  0.0802  0.3866
  127MPD2    C4 1939   0.033   1.239   9.629 -0.2388 -0.4945  0.0015
  127MPD2    C5 1940   4.631   1.193   9.587  0.2491  0.3067 -0.2675
  127MPD2     H 1941   0.130   0.991   9.834  0.2185 -0.3550 -0.0163
  127MPD2    H1 1942   0.057   1.334   9.583 -1.7721  0.1997  0.6293
  127MPD2    H2 1943   4.504   1.026   9.575  1.7856 -1.4696 -0.5963
  127MPD2    H3 1944   4.576   1.260   9.522  0.4042  0.3382 -0.3675
  127MPD2     N 1945   0.241   1.222   9.756 -0.1791  0.1016  0.4587
  127MPD2    H5 1946   0.288   1.169   9.829 -1.5013 -1.6501  0.0483
  127MPD2    N1 1947   4.608   0.880   9.755 -0.7178  0.3033 -0.0780
  127MPD2    H7 1948   4.512   0.861   9.728  0.3691 -0.5282 -3.3222
  128TCq2    C1 1949   4.675   0.776   9.828  0.5556  0.1934 -0.3993
  128TCq2    O2 1950   0.051   0.780   9.906  0.0269  0.2571 -0.3803
  128TCq2    C2 1951   4.599   0.652   9.823  0.5350  0.2991 -0.1185
  128TCq2    C3 1952   4.613   0.556   9.924  0.3171  0.4391 -0.3094
  128TCq2    C4 1953   4.499   0.480   9.940  0.1562  0.5968  0.1944
  128TCq2    C5 1954   4.404   0.473   9.842  0.1057 -0.2661  0.1272
  128TCq2    C6 1955   4.411   0.544   9.736 -0.1220 -0.2726  0.4767
  128TCq2    C7 1956   4.505   0.644   9.719  0.4075 -0.0508  0.2131
  128TCq2    C8 1957   4.304   0.528   9.641  0.3538 -0.1404 -0.2062
  128TCq2    O4 1958   4.274   0.630   9.573  0.1245 -0.0193 -0.2411
  128TCq2    C9 1959   4.493   0.396  10.058  0.1194  0.2478  0.5902
  128TCq2    O5 1960   4.604   0.348  10.104  0.2564  0.4661  0.0522
  128TCq2    O6 1961   4.381   0.339  10.073  0.7248  0.6708  0.4857
  128TCq2    H2 1962   4.681   0.572  10.007  0.4058 -3.2857  0.3082
  128TCq2    H3 1963   4.320   0.408   9.863 -0.2525 -0.1935 -1.0753
  128TCq2    H4 1964   4.511   0.699   9.626  1.3640 -0.3958  0.0699
  129MPD2     C 1965   2.334   2.326   0.883  0.1783 -0.0811  0.0710
  129MPD2    C1 1966   2.401   2.377   0.987  0.2934 -0.4873  0.6911
  129MPD2    C2 1967   2.523   2.440   0.964  0.5215  0.0756  0.0283
  129MPD2    C3 1968   2.587   2.431   0.841 -0.3862  0.4871 -0.3614
  129MPD2    C4 1969   2.519   2.379   0.737 -0.6636 -0.5177 -0.1000
  129MPD2    C5 1970   2.394   2.329   0.760  0.4115  1.1398 -0.2117
  129MPD2     H 1971   2.572   2.480   1.052 -1.9208 -0.1753  1.4847
  129MPD2    H1 1972   2.559   2.376   0.636  0.7387 -2.5734  0.5244
  129MPD2    H2 1973   2.235   2.281   0.880 -0.8468  2.1670  0.3447
  129MPD2    H3 1974   2.323   2.295   0.685  0.2833  0.8222  0.0528
  129MPD2     N 1975   2.718   2.489   0.840 -0.3149  0.3118  0.6320
  129MPD2    H5 1976   2.757   2.533   0.923 -0.9378  0.9869  0.5633
  129MPD2    N1 1977   2.357   2.367   1.120  0.1533 -0.4827 -0.1808
  129MPD2    H7 1978   2.414   2.414   1.189 -0.0740  0.4217 -0.6131
  130TCq2    C1 1979   2.235   2.317   1.165  1.0155 -0.0729 -1.2002
  130TCq2    O2 1980   2.150   2.255   1.103  0.2699  0.2498  0.2084
  130TCq2    C2 1981   2.217   2.319   1.306  0.8150  0.3309 -0.4699
  130TCq2    C3 1982   2.297   2.403   1.377 -0.4087 -0.2027 -0.1224
  130TCq2    C4 1983   2.315   2.373   1.508 -1.0822 -0.1430 -0.3724
  130TCq2    C5 1984   2.253   2.265   1.570  0.2853 -0.8315  0.1212
  130TCq2    C6 1985   2.170   2.192   1.488  0.5480 -0.6819  0.3031
  130TCq2    C7 1986   2.144   2.221   1.359  0.6839 -0.2460  0.0660
  130TCq2    C8 1987   2.118   2.065   1.538 -0.3689  0.0883 -0.4697
  130TCq2    O4 1988   2.019   2.017   1.479 -0.1423  0.5610 -0.1187
  130TCq2    C9 1989   2.414   2.452   1.581 -0.2185 -0.2516  0.3575
  130TCq2    O5 1990   2.443   2.561   1.530  0.1086 -0.0356 -0.6760
  130TCq2    O6 1991   2.435   2.426   1.703 -0.0976  0.0918  0.3488
  130TCq2    H2 1992   2.354   2.487   1.338 -1.3411  1.0496  1.1957
  130TCq2    H3 1993   2.267   2.247   1.676 -2.0987 -0.0639  0.5770
  130TCq2    H4 1994   2.100   2.149   1.292  0.9251 -2.1871  2.0086
  131MPD2     C 1995   2.165   1.277   9.469 -0.6948 -0.2948  0.3701
  131MPD2    C1 1996   2.232   1.206   9.563 -0.4592 -0.5757 -0.3563
  131MPD2    C2 1997   2.205   1.071   9.577 -0.8617  0.2410 -0.3605
  131MPD2    C3 1998   2.098   1.018   9.498  1.0714 -0.1770  0.1148
  131MPD2    C4 1999   2.033   1.094   9.403  0.0153 -1.0436  0.3695
  131MPD2    C5 2000   2.069   1.223   9.390  0.8343  0.4819  0.2157
  131MPD2     H 2001   2.251   1.008   9.653  2.1686 -0.4738 -2.7827
  131MPD2    H1 2002   1.953   1.055   9.340  0.3636 -1.0989 -0.0420
  131MPD2    H2 2003   2.184   1.384   9.463 -1.1001 -0.4007 -2.6726
  131MPD2    H3 2004   2.024   1.281   9.310  0.2461  0.4842  0.5489
  131MPD2     N 2005   2.076   0.883   9.512  0.3275  0.7287  1.2007
  131MPD2    H5 2006   2.139   0.832   9.573 -0.0904 -0.1776  0.8790
  131MPD2    N1 2007   2.328   1.272   9.645 -0.4064 -0.0500  0.2879
  131MPD2    H7 2008   2.352   1.364   9.609 -2.2493  0.5168  0.5133
  132TCq2    C1 2009   2.592   1.661   9.808  0.2359  0.2056  0.1782
  132TCq2    O2 2010   2.513   1.710   9.727 -0.1678 -0.1564 -0.1480
  132TCq2    C2 2011   2.571   1.526   9.852  0.4717  0.1238  0.3253
  132TCq2    C3 2012   2.597   1.504   9.984  0.2467 -0.0387 -0.5065
  132TCq2    C4 2013   2.555   1.383  10.042  0.4729 -0.1612  0.7791
  132TCq2    C5 2014   2.484   1.295   9.966  0.4038 -0.6093 -0.1761
  132TCq2    C6 2015   2.464   1.327   9.833 -0.2713 -0.8778  0.7548
  132TCq2    C7 2016   2.506   1.439   9.773  0.3082 -0.1666  0.6638
  132TCq2    C8 2017   2.384   1.231   9.763  0.6387 -0.3330  0.0905
  132TCq2    O4 2018   2.362   1.127   9.822 -0.2645 -0.1033  0.4308
  132TCq2    C9 2019   2.574   1.352  10.179 -0.2170  0.5870  0.3647
  132TCq2    O5 2020   2.644   1.438  10.247  0.1948  0.4336  0.3626
  132TCq2    O6 2021   2.519   1.247  10.220  0.1259  0.4051 -0.1968
  132TCq2    H2 2022   2.637   1.586  10.042  0.3219 -0.1956 -0.3357
  132TCq2    H3 2023   2.460   1.201  10.015 -0.6293  2.0954  4.5251
  132TCq2    H4 2024   2.501   1.455   9.666 -0.3500 -0.0366  0.7162
  133MPD2     C 2025   0.613   0.511   9.281 -0.4009  0.1799  0.0531
  133MPD2    C1 2026   0.575   0.639   9.250 -0.3538 -0.2013 -0.6350
  133MPD2    C2 2027   0.661   0.743   9.291  0.3630  0.6485  0.4058
  133MPD2    C3 2028   0.781   0.714   9.357 -0.1353 -0.2515  0.5219
  133MPD2    C4 2029   0.819   0.582   9.363  0.0150  0.6568  0.0879
  133MPD2    C5 2030   0.733   0.485   9.335 -0.1408  0.0845 -0.0960
  133MPD2     H 2031   0.622   0.844   9.290 -2.4304 -0.4190  1.3922
  133MPD2    H1 2032   0.918   0.564   9.403  0.8414  1.3603 -1.6363
  133MPD2    H2 2033   0.549   0.427   9.257  1.8747 -1.7241  0.5789
  133MPD2    H3 2034   0.761   0.382   9.350  1.9871  0.4941 -1.1393
  133MPD2     N 2035   0.873   0.814   9.402  0.8362 -0.1764 -0.1729
  133MPD2    H5 2036   0.961   0.786   9.445  1.1287 -1.6741 -1.7832
  133MPD2    N1 2037   0.450   0.660   9.184 -0.7388 -0.1497 -0.1271
  133MPD2    H7 2038   0.399   0.578   9.154 -2.2186  1.4197 -1.8811
  134TCq2    C1 2039   0.399   0.784   9.149 -0.0051 -0.0588 -0.0158
  134TCq2    O2 2040   0.459   0.895   9.144  0.3859 -0.0837 -0.0694
  134TCq2    C2 2041   0.272   0.772   9.084 -0.0923 -0.1403  0.2248
  134TCq2    C3 2042   0.216   0.668   9.020  0.1215  0.4065 -0.3181
  134TCq2    C4 2043   0.096   0.682   8.963 -0.2245 -0.3087  0.2386
  134TCq2    C5 2044   0.033   0.806   8.972 -0.1257  0.4433 -0.4567
  134TCq2    C6 2045   0.084   0.912   9.037 -0.3646  0.4659  0.1226
  134TCq2    C7 2046   0.210   0.899   9.081 -0.0199  0.5313 -0.4910
  134TCq2    C8 2047   4.711   1.028   9.059 -0.2086  0.0480 -0.5081
  134TCq2    O4 2048   4.609   1.026   8.994  0.2014 -0.2279  0.7440
  134TCq2    C9 2049   0.036   0.580   8.885  0.0865 -0.2377  0.0985
  134TCq2    O5 2050   0.117   0.509   8.826  0.2234 -0.0153  0.1258
  134TCq2    O6 2051   4.632   0.554   8.897  0.6117 -0.7533  0.3452
  134TCq2    H2 2052   0.275   0.579   9.001 -0.7980  0.0174 -1.3143
  134TCq2    H3 2053   4.657   0.810   8.919 -1.1661 -0.2925  1.3693
  134TCq2    H4 2054   0.256   0.980   9.137  1.0008 -0.5313  0.2033
  135MPD2     C 2055   4.102   2.694   9.267  0.3579  0.8525  0.5850
  135MPD2    C1 2056   4.215   2.636   9.318  0.0919  0.1774  0.3641
  135MPD2    C2 2057   4.301   2.565   9.239  0.0948  0.6430  0.1726
  135MPD2    C3 2058   4.293   2.561   9.098  0.9038  0.8855 -0.3252
  135MPD2    C4 2059   4.184   2.623   9.045 -0.1749  0.3562  0.2226
  135MPD2    C5 2060   4.085   2.684   9.129  0.0287 -0.2775  0.7150
  135MPD2     H 2061   4.384   2.517   9.290 -1.6094 -1.7938  0.6794
  135MPD2    H1 2062   4.159   2.621   8.939  0.5561 -1.6364  0.0942
  135MPD2    H2 2063   4.023   2.746   9.322 -0.2814  1.9147 -1.3411
  135MPD2    H3 2064   3.999   2.723   9.075  2.0108 -0.3002 -2.4546
  135MPD2     N 2065   4.380   2.495   9.009 -0.4919 -0.7111  0.2827
  135MPD2    H5 2066   4.366   2.495   8.908  1.1190  1.0743  0.0764
  135MPD2    N1 2067   4.242   2.628   9.459 -0.1025  0.1675 -0.7610
  135MPD2    H7 2068   4.315   2.566   9.493  0.9653  1.5895 -0.5101
  136TCq2    C1 2069   4.174   2.702   9.552 -0.7585 -0.0224 -0.4709
  136TCq2    O2 2070   4.109   2.802   9.532 -0.6608 -0.1537  0.1341
  136TCq2    C2 2071   4.232   2.689   9.683 -0.0802 -0.3128 -0.7925
  136TCq2    C3 2072   4.334   2.598   9.707 -0.6341 -0.0917  0.5726
  136TCq2    C4 2073   4.368   2.589   9.844  0.5596  0.0211 -0.2165
  136TCq2    C5 2074   4.307   2.659   9.939 -0.4506  0.4972 -0.3142
  136TCq2    C6 2075   4.207   2.747   9.904 -0.2212 -0.6803  1.3695
  136TCq2    C7 2076   4.165   2.756   9.779  0.0568  0.1903  0.3829
  136TCq2    C8 2077   4.118   2.800  10.007  0.3801  0.8138 -0.3965
  136TCq2    O4 2078   4.058   2.906   9.986 -0.3452  1.2990 -0.6013
  136TCq2    C9 2079   4.467   2.489   9.893 -0.4552  0.6656 -0.7041
  136TCq2    O5 2080   4.476   2.393   9.818  0.3614 -0.3400  0.0602
  136TCq2    O6 2081   4.491   2.488  10.017 -0.4003  0.6005  0.1305
  136TCq2    H2 2082   4.403   2.554   9.636 -0.8766  0.7329 -0.1775
  136TCq2    H3 2083   4.329   2.633  10.042  3.3478  1.8853 -0.7820
  136TCq2    H4 2084   4.077   2.818   9.765 -0.0317  0.2008  0.9870
  137MPD2     C 2085   4.038   0.905  10.227  0.0337  0.3222 -0.5272
  137MPD2    C1 2086   4.013   1.020  10.159 -0.7933 -0.0583 -0.7486
  137MPD2    C2 2087   4.094   1.127  10.194 -0.7002 -0.3920 -0.5400
  137MPD2    C3 2088   4.205   1.121  10.280 -0.2254  0.3734 -0.3839
  137MPD2    C4 2089   4.237   0.998  10.333  0.4126  0.3605 -0.4112
  137MPD2    C5 2090   4.149   0.892  10.303 -0.2753 -0.2814  0.4060
  137MPD2     H 2091   4.081   1.216  10.134  0.0101 -0.8265 -1.3409
  137MPD2    H1 2092   4.332   0.989  10.385  0.8337  0.7394 -1.1206
  137MPD2    H2 2093   3.976   0.819  10.203  0.6709  0.0755 -1.2858
  137MPD2    H3 2094   4.187   0.796  10.338  1.9366 -0.1428 -1.6152
  137MPD2     N 2095   4.278   1.237  10.317  0.5867 -0.1605 -0.1561
  137MPD2    H5 2096   4.252   1.325  10.274 -0.2212 -0.9755 -1.3183
  137MPD2    N1 2097   3.905   1.018  10.069  0.5438 -0.1751 -0.2946
  137MPD2    H7 2098   3.854   0.930  10.062  0.6856 -0.1800 -1.3706
  138TCq2    C1 2099   3.880   1.120   9.980 -0.0285 -0.2587  0.2821
  138TCq2    O2 2100   3.935   1.228   9.969  1.0678 -0.0390 -0.5625
  138TCq2    C2 2101   3.757   1.114   9.897 -0.1155  0.3290 -0.0790
  138TCq2    C3 2102   3.655   1.039   9.938  0.0532  0.1543 -0.1581
  138TCq2    C4 2103   3.534   1.055   9.876 -0.2664 -0.1916  0.9170
  138TCq2    C5 2104   3.521   1.147   9.774 -0.2378 -0.3045  0.4223
  138TCq2    C6 2105   3.633   1.210   9.725  0.1283 -0.1349  0.6213
  138TCq2    C7 2106   3.753   1.193   9.788 -0.2456 -0.2429 -0.6062
  138TCq2    C8 2107   3.617   1.339   9.662  0.1871 -0.3024  0.4950
  138TCq2    O4 2108   3.498   1.367   9.653 -0.3368 -0.0902  0.3520
  138TCq2    C9 2109   3.417   0.967   9.905  0.1743 -0.4177 -0.3160
  138TCq2    O5 2110   3.320   0.978   9.823 -0.2169  0.6036 -0.1317
  138TCq2    O6 2111   3.400   0.903  10.017  0.4321 -0.0619  0.4220
  138TCq2    H2 2112   3.679   0.955  10.002  0.7203  0.7028  0.3073
  138TCq2    H3 2113   3.425   1.167   9.727 -0.3805  2.3482  1.8815
  138TCq2    H4 2114   3.844   1.243   9.757 -0.0951  0.7477  1.4856
  139TMC2    C1 2115   4.351   4.377  13.526 -0.5109  1.0234  0.0910
  139TMC2    C2 2116   4.481   4.378  13.488  0.2414  0.2149  0.1082
  139TMC2    C3 2117   4.527   4.504  13.455  0.6245 -0.4184  0.7450
  139TMC2    C4 2118   4.270   4.486  13.519  0.5029 -1.0868  0.0432
  139TMC2    C5 2119   4.318   4.611  13.475  0.5958 -0.2224 -0.8694
  139TMC2    C6 2120   4.452   4.620  13.450 -0.0713  0.4803 -0.2373
  139TMC2     C 2121   4.287   4.255  13.578  0.2930  0.3953 -0.4373
  139TMC2     O 2122   4.173   4.253  13.622 -0.4196 -0.0445 -0.0285
  139TMC2     H 2123   4.542   4.289  13.485 -0.1559 -0.0704  0.5114
  139TMC2    H1 2124   4.163   4.470  13.525 -0.0507  2.9373  1.3124
  139TMC2    H2 2125   4.496   4.707  13.403  0.0510 -0.5141 -1.9692
  139TMC2    C7 2126   4.232   0.007  13.471 -0.5679 -0.0373  0.2804
  139TMC2    C8 2127   4.665   4.500  13.411  1.2143 -0.9529 -0.6767
  139TMC2    O1 2128   4.116   4.706  13.449 -0.0828  0.0433  0.1235
  139TMC2    O2 2129   0.023   4.411  13.444  1.2629 -0.3432 -0.1286
  139TMC2    O5 2130   4.653   4.547  13.292 -0.7638  0.3660  0.4063
  139TMC2    H5 2131   4.563   4.581  13.274 -0.9825 -1.5894 -2.2245
  140MPD2     C 2132   4.216   3.963  13.648 -0.2907  0.1159 -0.0088
  140MPD2    C1 2133   4.341   4.015  13.611 -0.2514 -0.3131 -0.0325
  140MPD2    C2 2134   4.441   3.920  13.587  0.0707 -0.7301 -0.0731
  140MPD2    C3 2135   4.420   3.787  13.598  0.2007 -0.5759 -0.1536
  140MPD2    C4 2136   4.297   3.737  13.639 -0.1252 -0.0280 -0.3022
  140MPD2    C5 2137   4.197   3.829  13.658 -0.0271  0.6263 -0.2148
  140MPD2     H 2138   4.537   3.963  13.565 -1.9053  3.8473  0.3604
  140MPD2    H1 2139   4.273   3.631  13.649  2.0444 -0.3704  1.3274
  140MPD2    H2 2140   4.135   4.030  13.675 -1.5010 -0.7381 -1.5712
  140MPD2    H3 2141   4.096   3.795  13.676 -0.0823  1.3898  0.9145
  140MPD2     N 2142   4.519   3.707  13.537  0.6523  0.1476  0.0157
  140MPD2    H5 2143   4.600   3.759  13.504  1.6113  0.8152  3.5027
  140MPD2    N1 2144   4.373   4.148  13.572  0.2164 -0.5484 -0.4060
  140MPD2    H7 2145   4.469   4.172  13.549 -0.0151  0.9272  0.1494
  141TCq2    C1 2146   0.017   1.581  14.968 -0.5219  0.0709 -0.1067
  141TCq2    O2 2147   0.029   1.658  14.873  0.2361  0.5050  0.1242
  141TCq2    C2 2148   0.002   1.654  15.092 -0.3316  0.2689 -0.5744
  141TCq2    C3 2149   4.672   1.585  15.201 -1.0261  0.9484 -0.2820
  141TCq2    C4 2150   4.632   1.664  15.305 -0.2439 -0.4421 -1.1816
  141TCq2    C5 2151   4.612   1.799  15.291  0.1013  0.6007  0.3303
  141TCq2    C6 2152   4.659   1.863  15.180  0.2770  0.0077  0.0438
  141TCq2    C7 2153   0.003   1.787  15.082  0.0688  0.2829  1.2560
  141TCq2    C8 2154   4.689   2.007  15.196 -0.3622  0.8869  0.0159
  141TCq2    O4 2155   4.618   2.069  15.271  0.0344  0.2622 -0.4477
  141TCq2    C9 2156   4.590   1.599  15.423  1.0233  0.2163 -0.0214
  141TCq2    O5 2157   4.525   1.664  15.511 -0.1193  0.4023  0.1373
  141TCq2    O6 2158   4.623   1.479  15.434 -0.1784 -1.3946 -0.2393
  141TCq2    H2 2159   4.686   1.479  15.217 -2.6273  0.3516 -2.8962
  141TCq2    H3 2160   4.570   1.852  15.375  0.6345  1.1177  0.2750
  141TCq2    H4 2161   0.040   1.838  14.994  1.9106  0.2971  2.0271
  142MPD2     C 2162   2.084   0.573   8.861 -0.3071 -0.6406 -0.2375
  142MPD2    C1 2163   2.103   0.551   8.997 -0.4030 -0.6006  0.5165
  142MPD2    C2 2164   2.170   0.643   9.075  0.6333  0.4276  0.5004
  142MPD2    C3 2165   2.236   0.751   9.011 -0.2721 -0.0492 -0.2753
  142MPD2    C4 2166   2.217   0.767   8.875 -0.9146 -0.3876 -0.0073
  142MPD2    C5 2167   2.149   0.674   8.797 -0.1331  0.1217 -0.1757
  142MPD2     H 2168   2.177   0.628   9.182  0.0849  0.8661  0.5971
  142MPD2    H1 2169   2.252   0.858   8.827 -2.2703 -0.3502 -0.9399
  142MPD2    H2 2170   2.016   0.516   8.799 -0.1934 -0.6063 -0.3918
  142MPD2    H3 2171   2.142   0.692   8.690 -1.1741 -0.7993 -0.2530
  142MPD2     N 2172   2.321   0.835   9.079 -0.1831  0.5924 -0.5686
  142MPD2    H5 2173   2.366   0.896   9.012 -0.8088  1.5190 -0.1394
  142MPD2    N1 2174   2.038   0.445   9.059 -0.1846  0.0751  0.5171
  142MPD2    H7 2175   1.978   0.390   8.997  1.0001  0.2001 -0.7324
  143TCq2    C1 2176   2.361   0.827   9.211 -0.8999  0.3186  0.3187
  143TCq2    O2 2177   2.355   0.742   9.294 -0.2905  0.3858 -1.0940
  143TCq2    C2 2178   2.442   0.942   9.248 -0.7123  1.2343  0.1784
  143TCq2    C3 2179   2.409   1.063   9.198 -0.1809 -0.0114  0.5556
  143TCq2    C4 2180   2.432   1.173   9.272  0.5572 -1.0967 -0.5119
  143TCq2    C5 2181   2.508   1.158   9.386  0.1051 -0.6737 -0.3320
  143TCq2    C6 2182   2.553   1.037   9.431  0.1328  0.2897 -0.6346
  143TCq2    C7 2183   2.506   0.925   9.366 -0.2441 -0.1222  0.3325
  143TCq2    C8 2184   2.584   1.019   9.573  0.4490  0.4780  0.6461
  143TCq2    O4 2185   2.561   0.911   9.628  0.7397 -0.2148  0.0291
  143TCq2    C9 2186   2.386   1.300   9.231 -0.0018 -0.8992 -0.9485
  143TCq2    O5 2187   2.333   1.307   9.119  0.8877  0.1935 -0.1142
  143TCq2    O6 2188   2.439   1.398   9.281 -0.4649 -0.5027 -0.1694
  143TCq2    H2 2189   2.361   1.084   9.103 -2.5553 -1.8665  1.3692
  143TCq2    H3 2190   2.526   1.242   9.452  2.9825 -0.1149 -1.8347
  143TCq2    H4 2191   2.521   0.824   9.401 -1.6875  0.6376  3.1713
  144MPD2     C 2192   0.286   3.801   1.039  0.1252 -0.6479 -0.3463
  144MPD2    C1 2193   0.355   3.743   0.938  1.2122 -0.1852  0.0502
  144MPD2    C2 2194   0.493   3.735   0.951 -0.0925  0.5893 -0.0795
  144MPD2    C3 2195   0.565   3.804   1.057 -0.5078  0.1683  0.4071
  144MPD2    C4 2196   0.491   3.865   1.155 -0.5482  0.1369  0.6295
  144MPD2    C5 2197   0.353   3.856   1.146 -0.3157  0.1571 -0.0421
  144MPD2     H 2198   0.546   3.680   0.873  1.5717  0.8990  0.8424
  144MPD2    H1 2199   0.527   3.911   1.246 -2.9460  0.5442  1.3616
  144MPD2    H2 2200   0.179   3.808   1.053  0.0381  1.6330 -2.0234
  144MPD2    H3 2201   0.300   3.914   1.220 -0.3596 -0.7578  0.6349
  144MPD2     N 2202   0.705   3.809   1.061  0.5205  0.0456 -0.1772
  144MPD2    H5 2203   0.746   3.848   1.145  0.7273 -0.2810 -0.1289
  144MPD2    N1 2204   0.291   3.701   0.821 -0.1747  0.0258  0.2242
  144MPD2    H7 2205   0.349   3.670   0.744 -0.3791  1.3649 -0.4678
  145TCq2    C1 2206   0.791   3.758   0.969  0.0351 -0.0307  0.0212
  145TCq2    O2 2207   0.761   3.683   0.876 -0.8626  0.5473  0.3510
  145TCq2    C2 2208   0.935   3.770   1.011  0.0434 -0.4786 -0.2163
  145TCq2    C3 2209   1.027   3.680   0.956 -0.0808 -0.2461  0.2101
  145TCq2    C4 2210   1.159   3.715   0.964  0.1765  0.0418  0.1361
  145TCq2    C5 2211   1.206   3.819   1.041 -0.0642 -0.5186  0.6278
  145TCq2    C6 2212   1.116   3.892   1.103  0.1556 -0.0327  0.3293
  145TCq2    C7 2213   0.981   3.878   1.086  0.0453 -0.4342 -0.5411
  145TCq2    C8 2214   1.157   3.987   1.210  0.0300  0.3083  0.4162
  145TCq2    O4 2215   1.273   4.030   1.205 -0.6432 -0.1901  0.0162
  145TCq2    C9 2216   1.257   3.635   0.902  0.1300  0.2773  0.5130
  145TCq2    O5 2217   1.378   3.671   0.910  0.1475 -0.4241  0.2886
  145TCq2    O6 2218   1.218   3.523   0.859 -0.1833  0.0180 -0.4233
  145TCq2    H2 2219   1.004   3.596   0.891  1.7822  1.4618 -2.6595
  145TCq2    H3 2220   1.312   3.821   1.064  0.2213 -1.7577 -0.5784
  145TCq2    H4 2221   0.910   3.949   1.127 -0.3522 -1.2369  0.1701
  146TMC2    C1 2222   1.826   2.729  12.659 -0.5151  0.1698  0.3715
  146TMC2    C2 2223   1.779   2.817  12.565 -0.7158 -0.0125  0.4141
  146TMC2    C3 2224   1.774   2.775  12.434  0.4269  0.4840 -1.6316
  146TMC2    C4 2225   1.878   2.610  12.619 -0.8039 -0.2225  0.0503
  146TMC2    C5 2226   1.872   2.572  12.484 -0.0499  0.9054 -0.1054
  146TMC2    C6 2227   1.811   2.651  12.394  0.1887  0.2620 -0.6782
  146TMC2     C 2228   1.851   2.766  12.793  0.4397  0.6665 -0.2646
  146TMC2     O 2229   1.866   2.886  12.810  0.4675 -0.1270  0.5961
  146TMC2     H 2230   1.762   2.921  12.588 -0.4604 -0.0597  0.8140
  146TMC2    H1 2231   1.928   2.545  12.690  1.4263  2.4325  0.8986
  146TMC2    H2 2232   1.810   2.619  12.291 -0.2983 -1.1519 -0.2393
  146TMC2    C7 2233   1.963   2.473  12.428 -0.1523  0.0087 -0.1694
  146TMC2    C8 2234   1.678   2.851  12.363  0.3523 -0.0011  0.7775
  146TMC2    O1 2235   1.991   2.482  12.308  0.5511  0.4139  0.1036
  146TMC2    O2 2236   1.583   2.904  12.414  0.2969  0.1399 -0.3606
  146TMC2    O5 2237   1.677   2.796  12.244  0.5141 -0.2872  0.1161
  146TMC2    H5 2238   1.767   2.799  12.205 -0.1505 -0.7340 -1.4413
  147MPD2     C 2239   2.299   2.095  12.493  0.2727 -0.3441  0.1342
  147MPD2    C1 2240   2.211   2.095  12.606 -0.0036 -0.0441 -0.6880
  147MPD2    C2 2241   2.102   2.182  12.610 -0.2598 -0.7843 -0.2157
  147MPD2    C3 2242   2.087   2.270  12.503 -0.7256  0.1620 -0.1355
  147MPD2    C4 2243   2.180   2.273  12.397  0.0084  0.6454  0.8362
  147MPD2    C5 2244   2.285   2.189  12.399 -0.0478  0.0470  0.0396
  147MPD2     H 2245   2.025   2.180  12.686  1.0999  3.0915  1.2947
  147MPD2    H1 2246   2.170   2.338  12.311 -1.0602  0.4748  0.8339
  147MPD2    H2 2247   2.393   2.043  12.483  0.6134  0.2086  0.4411
  147MPD2    H3 2248   2.361   2.195  12.322  0.5493  3.1575  0.8849
  147MPD2     N 2249   1.987   2.374  12.518 -0.1413  0.0898  0.5413
  147MPD2    H5 2250   1.931   2.366  12.601 -0.0868  1.5229  0.7161
  147MPD2    N1 2251   2.247   1.998  12.713 -0.6333 -0.3484  0.0413
  147MPD2    H7 2252   2.332   1.949  12.689  0.7300  1.0775  1.9910
  148MPD2     C 2253   2.141   0.857  10.913 -0.5878 -0.8702  0.4711
  148MPD2    C1 2254   2.188   0.876  10.786 -0.0621 -0.9634 -0.5019
  148MPD2    C2 2255   2.099   0.879  10.679  0.1525  0.0278  0.6646
  148MPD2    C3 2256   1.964   0.858  10.708 -0.0423 -0.6611 -0.6066
  148MPD2    C4 2257   1.923   0.848  10.836 -0.1125  0.2043 -0.1197
  148MPD2    C5 2258   2.011   0.840  10.943  0.0847  0.8671 -0.2332
  148MPD2     H 2259   2.132   0.870  10.576  1.9763 -1.0447  1.3392
  148MPD2    H1 2260   1.817   0.840  10.854 -0.1078 -1.2767 -0.7711
  148MPD2    H2 2261   2.209   0.853  10.997  1.2891 -0.8537 -1.0285
  148MPD2    H3 2262   1.972   0.842  11.044 -0.1106 -0.1387 -0.2828
  148MPD2     N 2263   1.869   0.831  10.606 -0.7126  0.1820  0.0929
  148MPD2    H5 2264   1.783   0.786  10.636 -1.8810 -0.4256 -4.1534
  148MPD2    N1 2265   2.328   0.884  10.768 -0.1130  0.3738 -0.4928
  148MPD2    H7 2266   2.358   0.891  10.672  2.4393 -0.1848  0.2436
  149TCq2    C1 2267   2.417   0.942  10.859 -0.8460 -0.0769 -0.0005
  149TCq2    O2 2268   2.403   1.004  10.961  0.1310  0.2653  0.0425
  149TCq2    C2 2269   2.549   0.929  10.797 -0.3202 -0.4046  0.0513
  149TCq2    C3 2270   2.626   1.046  10.800  0.1783 -0.0623 -0.2755
  149TCq2    C4 2271   2.759   1.049  10.750 -0.4955  0.4677 -0.2013
  149TCq2    C5 2272   2.814   0.937  10.694  0.1903  0.0979  0.3480
  149TCq2    C6 2273   2.731   0.824  10.696  0.5869 -0.5461 -0.0000
  149TCq2    C7 2274   2.601   0.814  10.747  0.0480  0.1159  0.4622
  149TCq2    C8 2275   2.772   0.712  10.619 -0.3443 -0.1028 -0.4597
  149TCq2    O4 2276   2.885   0.676  10.635  0.2726  0.3638  0.1023
  149TCq2    C9 2277   2.813   1.173  10.707  0.3746 -0.1537  0.2216
  149TCq2    O5 2278   2.942   1.184  10.715  0.2238 -0.4966  0.6513
  149TCq2    O6 2279   2.736   1.263  10.665 -0.5140 -0.1579  0.1348
  149TCq2    H2 2280   2.585   1.141  10.833 -1.4586 -0.6801 -0.5572
  149TCq2    H3 2281   2.912   0.937  10.647 -0.5005  3.2503 -1.1066
  149TCq2    H4 2282   2.553   0.720  10.769 -0.1778 -0.0462 -0.7268
  150MPD2     C 2283   3.836   0.102  12.162  0.1744  0.6362  0.2289
  150MPD2    C1 2284   3.815   0.203  12.075  0.7439 -0.4976 -0.4504
  150MPD2    C2 2285   3.897   0.318  12.087  0.2695 -0.4048 -0.4625
  150MPD2    C3 2286   4.007   0.317  12.177 -0.0537 -0.6741 -0.4965
  150MPD2    C4 2287   4.018   0.216  12.268  0.1051  0.3257 -0.3890
  150MPD2    C5 2288   3.941   0.106  12.252  0.7425  0.4900  0.3470
  150MPD2     H 2289   3.878   0.405  12.025  3.7296 -0.0911 -1.1004
  150MPD2    H1 2290   4.101   0.209  12.337 -0.1591 -1.3513 -0.2334
  150MPD2    H2 2291   3.772   0.014  12.167 -0.1921  0.9022  0.2262
  150MPD2    H3 2292   3.959   0.021  12.316  0.3268  0.0260 -0.1563
  150MPD2     N 2293   4.091   0.434  12.187  0.4528 -0.2892 -0.2585
  150MPD2    H5 2294   4.056   0.512  12.134  0.4588 -1.7904 -2.4695
  150MPD2    N1 2295   3.709   0.182  11.987  0.2808  0.1394  0.2865
  150MPD2    H7 2296   3.666   0.090  11.989  0.3449  0.1694  3.5877
  151TCq2    C1 2297   4.198   0.470  12.274 -0.1393 -0.5188 -0.4130
  151TCq2    O2 2298   4.256   0.389  12.344 -0.0824 -0.0198  0.1990
  151TCq2    C2 2299   4.268   0.593  12.239  0.6279  0.9498  0.4119
  151TCq2    C3 2300   4.239   0.664  12.129  0.0115  0.0542 -0.1981
  151TCq2    C4 2301   4.314   0.770  12.091 -0.0455  0.3486 -0.1009
  151TCq2    C5 2302   4.428   0.798  12.158 -0.2324 -0.0985  0.4583
  151TCq2    C6 2303   4.459   0.725  12.272  0.0018  0.1919  0.3064
  151TCq2    C7 2304   4.373   0.621  12.320 -0.9155  0.1150  0.3593
  151TCq2    C8 2305   4.591   0.748  12.335  0.2112  0.0039 -0.4688
  151TCq2    O4 2306   4.643   0.859  12.330 -0.1610  0.1561  0.2696
  151TCq2    C9 2307   4.294   0.825  11.963 -0.3612 -0.0436 -0.7245
  151TCq2    O5 2308   4.344   0.941  11.940  0.1637  0.2531 -0.1047
  151TCq2    O6 2309   4.200   0.777  11.893 -0.5147  0.0698 -0.0465
  151TCq2    H2 2310   4.151   0.648  12.068  0.3219 -3.9890  0.4292
  151TCq2    H3 2311   4.495   0.876  12.124 -0.0831 -1.4036 -2.2521
  151TCq2    H4 2312   4.388   0.576  12.417 -2.2097 -1.3480 -0.1128
  152MPD2     C 2313   3.736   4.562  12.822 -0.4806 -1.0395  0.5926
  152MPD2    C1 2314   3.743   4.663  12.732  0.1009  0.4487  0.4867
  152MPD2    C2 2315   3.632   4.715  12.662 -0.6606 -0.1612  0.2328
  152MPD2    C3 2316   3.511   4.660  12.693  0.0359 -0.0011 -0.8686
  152MPD2    C4 2317   3.508   4.545  12.768  0.6851 -0.4455 -0.4822
  152MPD2    C5 2318   3.617   4.498  12.831 -0.0780 -0.1102  0.0071
  152MPD2     H 2319   3.646   0.075  12.589 -0.9174 -1.7874 -1.5930
  152MPD2    H1 2320   3.422   4.479  12.772 -1.1522  1.8031 -2.8929
  152MPD2    H2 2321   3.828   4.518  12.858 -0.8255  0.2813  3.0592
  152MPD2    H3 2322   3.614   4.402  12.882 -1.4967  0.0341  0.2034
  152MPD2     N 2323   3.397   4.713  12.625 -0.2055 -0.5816  0.0522
  152MPD2    H5 2324   3.399   0.057  12.545  2.4551 -2.2888 -1.2372
  152MPD2    N1 2325   3.876   4.718  12.729 -0.2081  0.4581  0.1561
  152MPD2    H7 2326   3.944   4.669  12.786  0.3612 -0.2988 -1.1810
  153TCq2    C1 2327   3.906   0.129  12.691 -0.5424  0.6164  0.0685
  153TCq2    O2 2328   3.837   0.204  12.618 -0.6622 -0.1609 -0.1015
  153TCq2    C2 2329   4.041   0.170  12.730  0.2145 -0.0790  0.3891
  153TCq2    C3 2330   4.121   0.098  12.815 -0.3370 -0.6524  0.1945
  153TCq2    C4 2331   4.231   0.162  12.854  0.4139  0.4623  0.2691
  153TCq2    C5 2332   4.277   0.282  12.804  0.6262  0.0983  0.2115
  153TCq2    C6 2333   4.201   0.346  12.716 -0.0915 -0.8377  0.7513
  153TCq2    C7 2334   4.078   0.295  12.679 -0.3369  0.2882 -0.2801
  153TCq2    C8 2335   4.244   0.481  12.677  0.4615 -0.3626  0.0815
  153TCq2    O4 2336   4.155   0.554  12.641  0.0957  0.0368 -0.4324
  153TCq2    C9 2337   4.309   0.095  12.962  0.2204 -0.2481 -0.3142
  153TCq2    O5 2338   4.418   0.148  12.990 -0.1860  0.2833 -0.6753
  153TCq2    O6 2339   4.266   4.702  13.003  0.4057  0.4435 -0.7327
  153TCq2    H2 2340   4.094   0.004  12.861  1.9509 -0.9653  0.8702
  153TCq2    H3 2341   4.369   0.323  12.843 -0.6287  0.3499  2.9332
  153TCq2    H4 2342   4.008   0.350  12.618  1.0322  1.7265 -0.5790
  154MPD2     C 2343   4.654   0.512   0.755  0.7535 -0.0158 -0.1233
  154MPD2    C1 2344   0.003   0.418   0.831  0.1934  0.1143  0.3479
  154MPD2    C2 2345   4.642   0.323   0.888 -0.4810  0.8358  0.1211
  154MPD2    C3 2346   4.505   0.322   0.874 -0.2845 -0.1673  0.8431
  154MPD2    C4 2347   4.440   0.421   0.806  0.7243 -1.1270 -0.0156
  154MPD2    C5 2348   4.523   0.509   0.744  0.0640 -0.4760  0.1281
  154MPD2     H 2349   4.691   0.251   0.952  0.2203  0.4877 -0.8128
  154MPD2    H1 2350   4.332   0.434   0.797  1.0678  1.5355 -0.1786
  154MPD2    H2 2351   4.709   0.585   0.697  0.6322  0.0263 -0.1853
  154MPD2    H3 2352   4.474   0.591   0.693  1.4684 -1.5959 -2.9792
  154MPD2     N 2353   4.437   0.216   0.943  0.0557  0.2807  0.1479
  154MPD2    H5 2354   4.502   0.147   0.979  0.6252  0.2217 -0.9758
  154MPD2    N1 2355   0.144   0.436   0.846  0.4069 -0.2034 -0.8390
  154MPD2    H7 2356   0.193   0.499   0.783 -2.6233  2.9844 -0.0309
  155TCq2    C1 2357   0.227   0.373   0.942  0.5615  0.1167 -0.3192
  155TCq2    O2 2358   0.200   0.280   1.020  0.0799 -0.2106 -0.0648
  155TCq2    C2 2359   0.364   0.407   0.935 -0.5715  0.1331 -0.1711
  155TCq2    C3 2360   0.416   0.462   0.820 -0.8448 -0.3876 -0.7148
  155TCq2    C4 2361   0.554   0.467   0.813 -0.7311 -0.7350  0.0809
  155TCq2    C5 2362   0.640   0.438   0.914  0.0505  0.0279  0.4206
  155TCq2    C6 2363   0.583   0.384   1.024 -0.6368 -0.3739 -0.3825
  155TCq2    C7 2364   0.446   0.371   1.034 -1.0257  0.2064  0.0947
  155TCq2    C8 2365   0.658   0.330   1.137  0.7322 -0.0179 -0.1222
  155TCq2    O4 2366   0.604   0.311   1.246 -0.3709  0.0301  0.0244
  155TCq2    C9 2367   0.615   0.520   0.689 -0.0193  0.3010 -0.7315
  155TCq2    O5 2368   0.534   0.542   0.598  0.4590  1.0596  0.1818
  155TCq2    O6 2369   0.734   0.526   0.667 -0.3846 -0.4401  0.0426
  155TCq2    H2 2370   0.356   0.494   0.735 -0.3274  2.7896  0.1082
  155TCq2    H3 2371   0.746   0.459   0.900 -0.6280  3.1755  0.0653
  155TCq2    H4 2372   0.411   0.322   1.124  1.0281  0.0185  0.7869
  156MPD2     C 2373   4.458   2.257  11.896 -0.0158 -0.5920 -0.8218
  156MPD2    C1 2374   4.321   2.290  11.911 -0.7527  0.2808 -0.1794
  156MPD2    C2 2375   4.275   2.361  12.021 -0.3521 -0.2457  0.0858
  156MPD2    C3 2376   4.366   2.418  12.107 -0.2975 -0.1997  0.4607
  156MPD2    C4 2377   4.494   2.369  12.111  0.4235  0.2326 -0.0904
  156MPD2    C5 2378   4.534   2.292  12.003 -0.1396 -0.5420 -0.3977
  156MPD2     H 2379   4.171   2.388  12.039  0.3218  1.4706  1.3739
  156MPD2    H1 2380   4.568   2.396  12.185 -0.9834  2.4629  0.5007
  156MPD2    H2 2381   4.505   2.199  11.818 -1.7195 -1.6148 -1.0922
  156MPD2    H3 2382   4.639   2.267  11.998 -0.4930 -2.2776  1.0155
  156MPD2     N 2383   4.318   2.519  12.198  0.1908  0.3961 -0.5679
  156MPD2    H5 2384   4.218   2.537  12.190 -0.0644  0.1954  2.2147
  156MPD2    N1 2385   4.239   2.250  11.803  0.3836  0.1024 -0.6533
  156MPD2    H7 2386   4.280   2.199  11.725 -1.2305 -1.1585 -0.6783
  157TCq2    C1 2387   4.107   2.285  11.789  0.1650 -0.1960  0.3235
  157TCq2    O2 2388   4.030   2.348  11.858 -0.5126 -0.3279 -0.2115
  157TCq2    C2 2389   4.071   2.269  11.653  0.2924 -0.5358  0.2757
  157TCq2    C3 2390   4.150   2.197  11.572  0.0793 -0.4518 -0.6074
  157TCq2    C4 2391   4.161   2.237  11.442  0.5541  0.0504  0.1391
  157TCq2    C5 2392   4.082   2.338  11.393  0.5261 -0.4995  0.3878
  157TCq2    C6 2393   3.981   2.388  11.473 -0.2194  0.3482 -0.3901
  157TCq2    C7 2394   3.976   2.365  11.607  0.8152  0.0599  0.1364
  157TCq2    C8 2395   3.927   2.520  11.436 -0.0108 -0.2040  0.0911
  157TCq2    O4 2396   3.985   2.582  11.351  0.4840  0.1903 -0.4608
  157TCq2    C9 2397   4.257   2.168  11.354 -0.1765 -0.7011 -0.0281
  157TCq2    O5 2398   4.328   2.077  11.401  0.0878 -0.0577 -0.3707
  157TCq2    O6 2399   4.255   2.203  11.236  1.1350 -0.7742 -0.1146
  157TCq2    H2 2400   4.215   2.116  11.601 -0.0140 -0.0757  0.6476
  157TCq2    H3 2401   4.085   2.359  11.287 -2.5458 -1.5751  0.0759
  157TCq2    H4 2402   3.921   2.416  11.686  0.2326  0.7195 -0.6895
  158TMC2    C1 2403   4.369   1.344  13.115  0.5978 -0.1336 -0.0649
  158TMC2    C2 2404   4.407   1.411  13.000  0.1524  0.6873 -0.0441
  158TMC2    C3 2405   4.316   1.436  12.904 -0.2750  0.3943  0.5787
  158TMC2    C4 2406   4.234   1.319  13.138 -0.1702  0.1135  0.4175
  158TMC2    C5 2407   4.142   1.359  13.039  0.1363  0.2807  0.6336
  158TMC2    C6 2408   4.189   1.400  12.918 -0.3014 -0.4423  0.1593
  158TMC2     C 2409   4.477   1.290  13.202 -0.5897  0.2203  0.2268
  158TMC2     O 2410   4.589   1.308  13.154  0.3965 -0.0166 -0.0515
  158TMC2     H 2411   4.507   1.407  12.959  0.2650 -0.3242  0.3201
  158TMC2    H1 2412   4.208   1.273  13.233 -3.0871 -0.5693 -0.7109
  158TMC2    H2 2413   4.120   1.402  12.834 -0.4381 -1.9131  0.2426
  158TMC2    C7 2414   4.008   1.307  13.028 -0.2321 -0.4895 -1.1326
  158TMC2    C8 2415   4.345   1.493  12.780  0.8479 -0.2173 -0.4151
  158TMC2    O1 2416   3.936   1.361  12.943 -0.1483 -0.1593 -0.0605
  158TMC2    O2 2417   4.269   1.479  12.683  0.2077  0.1911  0.2794
  158TMC2    O5 2418   4.408   1.611  12.802  0.1678  0.0414 -0.1234
  158TMC2    H5 2419   4.468   1.602  12.879 -0.4563  1.3211  0.5006
  159MPD2     C 2420   4.654   1.017  13.599 -0.5203 -0.3033  0.0202
  159MPD2    C1 2421   4.517   0.999  13.595 -0.2329 -0.0288 -0.3506
  159MPD2    C2 2422   4.438   1.063  13.495  0.4833 -0.8138  1.2024
  159MPD2    C3 2423   4.510   1.140  13.402 -0.6733  0.5447 -0.0029
  159MPD2    C4 2424   4.646   1.152  13.406  0.6552  0.2048 -0.0168
  159MPD2    C5 2425   0.001   1.087  13.503  0.2450  0.2097 -0.2623
  159MPD2     H 2426   4.330   1.062  13.495  0.4717  1.7693 -0.9216
  159MPD2    H1 2427   4.696   1.222  13.339 -0.9789  1.1460 -0.2360
  159MPD2    H2 2428   4.715   0.966  13.674 -3.9181 -1.0331  2.3141
  159MPD2    H3 2429   0.109   1.089  13.495  0.3978 -1.1603  1.3116
  159MPD2     N 2430   4.431   1.228  13.316 -0.5348  0.0904 -0.3618
  159MPD2    H5 2431   4.331   1.214  13.323 -0.2146 -1.3858  1.5183
  159MPD2    N1 2432   4.460   0.930  13.705 -0.4392 -0.0294 -0.3710
  159MPD2    H7 2433   4.526   0.891  13.773  0.5379 -1.3396 -2.0712
  160TMC2    C1 2434   3.385   0.106   1.556 -0.5898  0.2435  0.3949
  160TMC2    C2 2435   3.420   0.017   1.659 -0.8243  0.1362  0.4118
  160TMC2    C3 2436   3.485   4.615   1.627 -0.0432 -0.1736  0.2866
  160TMC2    C4 2437   3.410   0.065   1.431 -0.5186 -0.1732  0.0617
  160TMC2    C5 2438   3.452   4.658   1.402  0.7233  0.5932 -0.3681
  160TMC2    C6 2439   3.495   4.570   1.499 -0.2371  0.4147  0.0467
  160TMC2     C 2440   3.330   0.240   1.583  0.4488 -0.0339 -0.0520
  160TMC2     O 2441   3.261   0.259   1.681 -0.4353  0.5817  0.3862
  160TMC2     H 2442   3.400   0.047   1.762  0.8529  0.4221  0.6563
  160TMC2    H1 2443   3.388   0.127   1.345  0.1681  0.3259  0.2459
  160TMC2    H2 2444   3.512   4.465   1.478  1.6782  0.6241  0.4888
  160TMC2    C7 2445   3.493   4.623   1.271  0.8840  0.0197  0.1517
  160TMC2    C8 2446   3.477   4.505   1.715 -0.0034 -0.3137 -0.8008
  160TMC2    O1 2447   3.436   4.670   1.175 -0.8208 -0.2636  0.2162
  160TMC2    O2 2448   3.431   4.400   1.676  0.3966  0.1138 -0.2478
  160TMC2    O5 2449   3.496   4.546   1.848 -0.5502  0.3913  0.4819
  160TMC2    H5 2450   3.542   4.632   1.853  0.9581 -0.1132 -4.5605
  161MPD2     C 2451   3.329   0.539   1.636  0.3179 -0.1163 -0.4576
  161MPD2    C1 2452   3.355   0.472   1.514 -0.1889 -0.6411 -0.6947
  161MPD2    C2 2453   3.391   0.551   1.405 -0.1504 -0.1623  0.2500
  161MPD2    C3 2454   3.394   0.690   1.418 -0.3516 -0.3288  0.3725
  161MPD2    C4 2455   3.356   0.749   1.535  0.3406  0.0745 -0.2915
  161MPD2    C5 2456   3.318   0.674   1.641 -0.4730 -0.4411  0.4300
  161MPD2     H 2457   3.429   0.498   1.318 -0.4865 -0.4339  0.2665
  161MPD2    H1 2458   3.348   0.857   1.531  1.2461  0.1942  1.1443
  161MPD2    H2 2459   3.302   0.489   1.729 -0.1378  0.3161 -0.3591
  161MPD2    H3 2460   3.287   0.741   1.720  2.4173  1.1049  0.2778
  161MPD2     N 2461   3.442   0.789   1.314 -0.1746  0.3887 -0.0258
  161MPD2    H5 2462   3.448   0.887   1.339  2.0004 -0.1642  1.6839
  161MPD2    N1 2463   3.364   0.331   1.495  0.4381 -0.1928  0.1359
  161MPD2    H7 2464   3.405   0.305   1.406  2.3100 -1.5552  1.4082
  162TMC2    C1 2465   1.109   1.494   0.698  0.9170 -0.7092 -0.0531
  162TMC2    C2 2466   1.004   1.467   0.607 -0.4597 -0.5501 -0.8556
  162TMC2    C3 2467   0.887   1.408   0.653  0.0358  0.9112 -0.1871
  162TMC2    C4 2468   1.094   1.440   0.826 -0.6994 -0.3670  0.0575
  162TMC2    C5 2469   0.982   1.369   0.867 -0.1185 -0.1232  0.5903
  162TMC2    C6 2470   0.871   1.356   0.779  0.0227 -0.2293  0.0469
  162TMC2     C 2471   1.243   1.528   0.658  0.0339  0.2670  0.2730
  162TMC2     O 2472   1.342   1.500   0.725  0.1755  0.1572 -0.8149
  162TMC2     H 2473   1.027   1.470   0.501  0.8574  1.4449 -0.5092
  162TMC2    H1 2474   1.183   1.456   0.886 -0.7928  1.6622 -0.3285
  162TMC2    H2 2475   0.783   1.303   0.812  1.0365 -2.7078 -1.2098
  162TMC2    C7 2476   0.961   1.329   1.003 -0.6907  0.1260 -0.6206
  162TMC2    C8 2477   0.800   1.368   0.542 -0.2741 -0.1127 -0.3583
  162TMC2    O1 2478   0.841   1.309   1.032 -0.2013  0.1055  0.7903
  162TMC2    O2 2479   0.724   1.277   0.559  0.8335 -0.2707  0.3655
  162TMC2    O5 2480   0.802   1.450   0.439 -0.2164 -0.1697 -0.0778
  162TMC2    H5 2481   0.860   1.528   0.453  0.2938 -0.3753 -1.1175
  163MPD2     C 2482   1.548   1.717   0.279  0.0931  0.2503 -0.7521
  163MPD2    C1 2483   1.580   1.643   0.393  0.5463 -0.5449 -1.0915
  163MPD2    C2 2484   1.480   1.611   0.485 -0.8639  0.3369  0.1641
  163MPD2    C3 2485   1.346   1.648   0.459  0.3326  0.4269  0.7645
  163MPD2    C4 2486   1.321   1.721   0.347  0.7280  0.6926 -0.4747
  163MPD2    C5 2487   1.423   1.757   0.257 -0.3891 -0.0023  0.8140
  163MPD2     H 2488   1.494   1.544   0.569  0.9317 -1.9303 -1.9371
  163MPD2    H1 2489   1.223   1.759   0.320  0.3124  0.4926  0.7760
  163MPD2    H2 2490   1.620   1.746   0.203  0.1329 -1.3696 -1.3168
  163MPD2    H3 2491   1.401   1.808   0.164  2.1490  0.6413  0.5758
  163MPD2     N 2492   1.241   1.607   0.540  0.0288  0.5048  0.8501
  163MPD2    H5 2493   1.156   1.643   0.498 -0.8079 -1.7770  0.5864
  163MPD2    N1 2494   1.716   1.623   0.415 -0.1941 -0.2520 -0.1805
  163MPD2    H7 2495   1.785   1.661   0.350  1.1027 -1.8591  0.2615
  164TCq2    C1 2496   2.796   1.057  11.205 -0.2842  0.4784  0.3621
  164TCq2    O2 2497   2.744   1.034  11.313  0.2720 -0.0104 -0.1974
  164TCq2    C2 2498   2.769   1.184  11.151  0.5332 -0.4418 -0.5070
  164TCq2    C3 2499   2.870   1.241  11.079 -0.2129  0.9234 -0.1011
  164TCq2    C4 2500   2.845   1.345  10.988 -0.5783 -0.1063 -0.6107
  164TCq2    C5 2501   2.713   1.394  10.977  0.1392  0.3414 -0.0775
  164TCq2    C6 2502   2.619   1.343  11.064 -0.0398  0.0265  0.1577
  164TCq2    C7 2503   2.637   1.234  11.148  0.5951  0.0737 -0.0693
  164TCq2    C8 2504   2.495   1.418  11.084  0.6348 -0.8521 -0.7752
  164TCq2    O4 2505   2.461   1.473  10.983  0.3645 -0.2942 -0.0665
  164TCq2    C9 2506   2.955   1.425  10.929  0.7595  0.4662 -0.0697
  164TCq2    O5 2507   2.923   1.506  10.842  0.3041 -0.0822  0.1283
  164TCq2    O6 2508   3.070   1.408  10.980  0.6020  0.6432 -0.0247
  164TCq2    H2 2509   2.969   1.198  11.085 -0.3645  0.7964  1.5140
  164TCq2    H3 2510   2.695   1.476  10.908 -0.9890  1.3352  1.3859
  164TCq2    H4 2511   2.554   1.190  11.201 -0.7671  1.2022 -1.2775
  165MPD2     C 2512   3.909   3.977   0.672 -0.4161  0.1379 -0.1047
  165MPD2    C1 2513   3.810   3.912   0.749  0.3591 -0.7100  0.0056
  165MPD2    C2 2514   3.749   3.990   0.844 -0.2860 -0.2374 -0.9396
  165MPD2    C3 2515   3.784   4.118   0.883  0.0120  0.1256  0.5401
  165MPD2    C4 2516   3.885   4.176   0.814 -0.1484  0.5394  0.4419
  165MPD2    C5 2517   3.937   4.106   0.704 -0.3945 -0.0088 -0.1728
  165MPD2     H 2518   3.669   3.943   0.902 -0.1671 -1.1601 -1.5209
  165MPD2    H1 2519   3.933   4.271   0.837  1.8421 -0.8937  2.2463
  165MPD2    H2 2520   3.964   3.926   0.594 -0.6412 -3.4593  2.0734
  165MPD2    H3 2521   4.023   4.148   0.653 -1.2213  0.3457 -1.2726
  165MPD2     N 2522   3.707   4.195   0.973 -0.5888 -0.0901  0.8394
  165MPD2    H5 2523   3.736   4.285   1.008  1.4823 -0.6788  0.6383
  165MPD2    N1 2524   3.787   3.768   0.730  0.1629 -0.1535 -0.8410
  165MPD2    H7 2525   3.853   3.724   0.667  1.3024  0.7023 -0.2371
  166TCq2    C1 2526   3.574   4.163   0.995 -0.2828  0.1422  0.4871
  166TCq2    O2 2527   3.492   4.110   0.922 -0.6687  0.0001 -0.4468
  166TCq2    C2 2528   3.532   4.206   1.128 -0.5677  0.1845 -0.1244
  166TCq2    C3 2529   3.397   4.221   1.147 -0.2888  0.1772  0.3841
  166TCq2    C4 2530   3.358   4.238   1.279  0.1875 -0.0291  0.3365
  166TCq2    C5 2531   3.444   4.238   1.386 -0.0667 -0.1022 -0.3680
  166TCq2    C6 2532   3.577   4.219   1.354  0.3240 -0.5466 -0.2393
  166TCq2    C7 2533   3.625   4.203   1.229 -0.3911  0.5819  0.6990
  166TCq2    C8 2534   3.677   4.204   1.464 -0.1957 -0.6327 -0.1705
  166TCq2    O4 2535   3.796   4.210   1.438 -0.0492  0.5306  0.1877
  166TCq2    C9 2536   3.213   4.259   1.296  0.2452 -0.1807 -0.1065
  166TCq2    O5 2537   3.172   4.294   1.412 -0.0655 -0.1983 -0.0370
  166TCq2    O6 2538   3.134   4.225   1.205  0.2137 -0.0482 -0.0071
  166TCq2    H2 2539   3.328   4.209   1.065  2.4482 -0.3111 -1.8462
  166TCq2    H3 2540   3.403   4.249   1.486 -0.0973  0.3671 -0.4292
  166TCq2    H4 2541   3.729   4.173   1.229 -0.8709 -1.1456 -1.7168
  167TMC2    C1 2542   1.634   1.041  12.742 -1.1579 -0.5024 -0.4232
  167TMC2    C2 2543   1.561   1.036  12.856 -0.8710  0.0475  0.1240
  167TMC2    C3 2544   1.497   0.918  12.884  0.1001 -0.3106  0.4107
  167TMC2    C4 2545   1.669   0.935  12.664  0.0701 -0.2316 -0.5200
  167TMC2    C5 2546   1.631   0.813  12.718  0.0896 -0.1271  0.2740
  167TMC2    C6 2547   1.544   0.803  12.826 -0.1482 -0.5785 -0.3110
  167TMC2     C 2548   1.682   1.169  12.701  0.7452  0.4200 -0.2065
  167TMC2     O 2549   1.611   1.258  12.747  0.9238 -0.1987 -0.6592
  167TMC2     H 2550   1.563   1.118  12.928 -1.1226 -2.4700  2.9974
  167TMC2    H1 2551   1.722   0.952  12.571  1.9700 -0.2793  0.5440
  167TMC2    H2 2552   1.505   0.711  12.869 -2.6720  0.8898  0.5444
  167TMC2    C7 2553   1.626   0.696  12.631  0.1297 -0.2257  0.2773
  167TMC2    C8 2554   1.402   0.908  12.994  0.7180 -0.3652  0.1856
  167TMC2    O1 2555   1.536   0.619  12.652  0.1926 -0.7695 -0.1197
  167TMC2    O2 2556   1.408   0.809  13.067  0.4112  0.2640 -0.5018
  167TMC2    O5 2557   1.375   1.028  13.045  0.1241  0.2780  0.3810
  167TMC2    H5 2558   1.350   1.098  12.981 -0.6261 -0.7758 -0.4960
  168MPD2     C 2559   1.754   1.400  12.516  0.2664  0.3837 -0.5032
  168MPD2    C1 2560   1.830   1.282  12.530  1.3368  0.1266  0.0944
  168MPD2    C2 2561   1.957   1.272  12.473  0.4975  0.6695 -0.3806
  168MPD2    C3 2562   2.004   1.387  12.409 -0.3040  0.7083 -0.1526
  168MPD2    C4 2563   1.934   1.501  12.404  0.0372 -0.3624 -0.7118
  168MPD2    C5 2564   1.800   1.511  12.451  0.6739 -0.5911  0.4191
  168MPD2     H 2565   2.021   1.185  12.483 -0.4853  0.0331  0.5058
  168MPD2    H1 2566   1.976   1.580  12.343  0.4287 -0.9320 -1.1911
  168MPD2    H2 2567   1.651   1.411  12.546 -0.0769  0.4707 -1.7146
  168MPD2    H3 2568   1.731   1.594  12.442  2.6851  1.2998  2.4061
  168MPD2     N 2569   2.127   1.392  12.341 -0.3603 -0.2864  0.6537
  168MPD2    H5 2570   2.142   1.468  12.274  0.5656  0.4549  1.6994
  168MPD2    N1 2571   1.782   1.173  12.604 -0.3912  0.1544  0.4992
  168MPD2    H7 2572   1.832   1.085  12.591 -2.0430 -0.2470 -3.1141
  169MPD1     C 2573   3.787   0.416   8.773  0.0227  0.1868 -0.5056
  169MPD1    C1 2574   3.867   0.509   8.825 -0.1948 -0.3604 -0.0675
  169MPD1    C2 2575   3.948   0.460   8.927 -0.1656  0.0662 -0.1096
  169MPD1    C3 2576   3.973   0.325   8.946  0.0376  0.4693  0.0133
  169MPD1    C4 2577   3.912   0.233   8.868  0.4354 -0.7617  0.1026
  169MPD1    C5 2578   3.809   0.283   8.790  0.5076 -0.2161  0.4318
  169MPD1     H 2579   4.000   0.542   8.976  0.7859  0.6073 -2.0253
  169MPD1    H1 2580   3.924   0.125   8.865 -1.3133 -0.9149 -2.2349
  169MPD1    H2 2581   3.705   0.435   8.705  0.3598  2.1425 -0.3716
  169MPD1    H3 2582   3.755   0.210   8.732 -2.2144  0.3871  2.2353
  169MPD1     N 2583   4.071   0.292   9.042  0.4069 -0.1844 -0.0512
  169MPD1    H5 2584   4.106   0.377   9.085 -0.7144  1.4357 -2.3268
  169MPD1    N1 2585   3.828   0.640   8.824  0.5437  0.2277 -0.0206
  169MPD1    H6 2586   3.785   0.660   8.735 -0.3432  0.3238  0.4320
  169MPD1    H7 2587   3.906   0.705   8.836  0.4586  0.2331  0.5409
  170MPD1     C 2588   3.197   2.796  12.890  1.1994  0.4631 -0.2031
  170MPD1    C1 2589   3.276   2.769  13.001 -0.4650 -0.2585 -0.1123
  170MPD1    C2 2590   3.280   2.862  13.104  0.2663  0.0673  0.0339
  170MPD1    C3 2591   3.173   2.959  13.108  0.3962  0.0211  0.2316
  170MPD1    C4 2592   3.080   2.973  13.006  0.9518 -0.0154  0.1846
  170MPD1    C5 2593   3.097   2.889  12.899 -0.1148 -0.3790 -0.4544
  170MPD1     H 2594   3.351   2.854  13.185  1.1241 -0.3988 -0.7655
  170MPD1    H1 2595   3.004   3.050  13.013 -1.8464 -2.5129 -2.3351
  170MPD1    H2 2596   3.204   2.726  12.808 -0.4864  1.8060 -1.4849
  170MPD1    H3 2597   3.024   2.892  12.818  1.3475 -5.3035 -1.9010
  170MPD1     N 2598   3.182   3.049  13.216 -0.2634  0.0902  0.4881
  170MPD1    H5 2599   3.246   3.021  13.289  1.6500 -0.0985 -1.2442
  170MPD1    N1 2600   3.370   2.673  12.980 -0.1981 -0.4718 -0.7464
  170MPD1    H6 2601   3.324   2.594  12.934 -0.8557  0.5448 -1.8280
  170MPD1    H7 2602   3.410   2.640  13.068 -1.4205 -3.0825 -1.1568
  171MPD1     C 2603   1.315   4.562  15.625  0.6593  0.1091  0.7088
  171MPD1    C1 2604   1.415   4.575  15.533  0.5241 -0.5289 -0.3126
  171MPD1    C2 2605   1.531   4.500  15.550 -0.0868 -0.1672 -0.1411
  171MPD1    C3 2606   1.560   4.427  15.662  0.0461 -0.6405 -0.6747
  171MPD1    C4 2607   1.463   4.436  15.758  0.0913  0.0636 -0.0727
  171MPD1    C5 2608   1.349   4.500  15.740 -0.0436 -0.0277 -0.5020
  171MPD1     H 2609   1.604   4.496  15.470 -1.1135  0.0718 -1.0908
  171MPD1    H1 2610   1.455   4.365  15.839 -1.3493  1.5430  1.0816
  171MPD1    H2 2611   1.218   4.606  15.608  1.4154  1.8603  0.9317
  171MPD1    H3 2612   1.266   4.490  15.809 -0.2291  0.8240 -0.6049
  171MPD1     N 2613   1.676   4.349  15.682 -0.2816  0.1774 -0.1675
  171MPD1    H5 2614   1.676   4.308  15.775 -1.3457  1.8298  0.5709
  171MPD1    N1 2615   1.370   4.635  15.409  0.1938  0.2364  0.1326
  171MPD1    H6 2616   1.450   4.672  15.357 -0.4592 -2.0153 -2.4557
  171MPD1    H7 2617   1.309   4.712  15.436 -2.1433 -1.7846  0.6369
  172MPD1     C 2618   0.469   3.245   0.530 -0.1762 -0.1766 -0.4111
  172MPD1    C1 2619   0.430   3.344   0.446  0.8779 -0.3774  0.0550
  172MPD1    C2 2620   0.485   3.469   0.470 -0.2263 -0.2161 -0.2651
  172MPD1    C3 2621   0.559   3.488   0.584 -0.6231 -0.0771 -0.0592
  172MPD1    C4 2622   0.583   3.389   0.679 -0.1891  0.3083  0.7073
  172MPD1    C5 2623   0.545   3.258   0.643  0.3424 -0.0604 -0.1206
  172MPD1     H 2624   0.487   3.555   0.404  0.8423  0.6119  0.8529
  172MPD1    H1 2625   0.628   3.410   0.775 -0.3146  2.4968  0.2849
  172MPD1    H2 2626   0.441   3.143   0.506 -0.9287 -0.5147  1.8924
  172MPD1    H3 2627   0.552   3.181   0.719  1.5191  1.1429  0.9916
  172MPD1     N 2628   0.604   3.623   0.622  0.3948 -0.4051 -0.1752
  172MPD1    H5 2629   0.682   3.622   0.687 -0.1737  2.0244  0.5402
  172MPD1    N1 2630   0.372   3.306   0.326 -0.9556  0.1836 -0.2235
  172MPD1    H6 2631   0.323   3.217   0.332 -0.0011 -0.2539  1.2278
  172MPD1    H7 2632   0.300   3.368   0.292  0.4057  1.8881 -0.0347
  173MPD1     C 2633   2.599   3.541  13.569 -0.2125 -0.4209 -0.1044
  173MPD1    C1 2634   2.614   3.408  13.606 -0.1005  0.5896  0.0399
  173MPD1    C2 2635   2.601   3.370  13.739  0.1308  0.1702  0.4351
  173MPD1    C3 2636   2.564   3.470  13.838  0.3129 -0.8280  0.5327
  173MPD1    C4 2637   2.566   3.608  13.804  0.6587 -0.8126  0.4133
  173MPD1    C5 2638   2.585   3.640  13.673  0.2354 -0.3869  0.3716
  173MPD1     H 2639   2.617   3.268  13.772 -1.7965  0.2901  1.7330
  173MPD1    H1 2640   2.553   3.682  13.883  1.5043 -0.6802  0.4319
  173MPD1    H2 2641   2.607   3.575  13.467  2.3439 -0.7525 -0.0058
  173MPD1    H3 2642   2.572   3.742  13.641  2.3812 -0.4744 -0.8040
  173MPD1     N 2643   2.522   3.422  13.964 -0.2184  0.2474 -0.6628
  173MPD1    H5 2644   2.520   3.323  13.986  0.2110  0.2524 -0.6028
  173MPD1    N1 2645   2.632   3.316  13.508 -0.2475 -0.4872 -0.7522
  173MPD1    H6 2646   2.668   3.230  13.547 -0.3325  0.1770  0.7954
  173MPD1    H7 2647   2.688   3.348  13.429  1.6973 -1.6069  0.1776
  174MPD1     C 2648   3.016   3.039  14.570  0.2829  0.2081  0.1824
  174MPD1    C1 2649   2.909   3.078  14.641  0.4608 -0.4743 -0.0236
  174MPD1    C2 2650   2.799   3.140  14.578  0.5488  0.6518  0.1013
  174MPD1    C3 2651   2.791   3.155  14.446  0.1599  0.4423  0.1520
  174MPD1    C4 2652   2.904   3.118  14.374 -0.0126 -0.5525 -0.6291
  174MPD1    C5 2653   3.010   3.062  14.435  0.1568 -0.2875 -0.1647
  174MPD1     H 2654   2.705   3.144  14.633  1.8115 -0.6413  2.3452
  174MPD1    H1 2655   2.907   3.143  14.269  2.0763  1.3825 -0.1137
  174MPD1    H2 2656   3.106   2.997  14.614 -0.9993 -1.8586  0.8375
  174MPD1    H3 2657   3.098   3.040  14.376 -0.2028 -1.1846 -0.3620
  174MPD1     N 2658   2.676   3.203  14.386 -0.1852  0.0971  0.9465
  174MPD1    H5 2659   2.675   3.215  14.286 -2.4667  0.3296  0.9857
  174MPD1    N1 2660   2.903   3.026  14.769  0.4230  0.1950  0.4472
  174MPD1    H6 2661   2.867   3.094  14.836  2.9777  1.9159  0.0573
  174MPD1    H7 2662   3.000   3.007  14.796  0.8065  1.4723 -0.0222
  175MPD1     C 2663   4.404   4.153  15.931  0.6738 -0.4775 -0.3189
  175MPD1    C1 2664   4.506   4.100  16.000 -0.0476  0.3546  0.2689
  175MPD1    C2 2665   4.563   4.184  16.093  0.3189  0.2139 -0.6197
  175MPD1    C3 2666   4.531   4.311  16.099  0.2292  0.3949  0.3242
  175MPD1    C4 2667   4.445   4.368  16.004  0.3177  1.1355  0.3797
  175MPD1    C5 2668   4.374   4.279  15.938  0.2417 -0.3873  0.0665
  175MPD1     H 2669   4.630   4.139  16.166  0.4960  0.7403 -0.4566
  175MPD1    H1 2670   4.420   4.473  16.000 -0.9587  0.8435  0.6617
  175MPD1    H2 2671   4.337   4.093  15.872  0.7825  2.1761 -3.1627
  175MPD1    H3 2672   4.285   4.324  15.893  1.4328  0.2615 -1.6506
  175MPD1     N 2673   4.578   4.398  16.199  0.8503  0.5908  0.0093
  175MPD1    H5 2674   4.535   4.490  16.196  2.3684  1.4079  3.2977
  175MPD1    N1 2675   4.524   3.958  16.009 -0.1072  0.4326 -0.2056
  175MPD1    H6 2676   4.619   3.942  16.040  0.4743  2.2126 -1.0087
  175MPD1    H7 2677   4.506   3.905  15.924 -1.1009  0.3403  0.0714
  176MPD1     C 2678   1.929   1.446  16.263 -0.8953  0.1540  0.5178
  176MPD1    C1 2679   1.808   1.477  16.323 -0.0787 -0.5080 -0.2516
  176MPD1    C2 2680   1.821   1.533  16.446  0.4526  0.4238  0.3290
  176MPD1    C3 2681   1.942   1.543  16.508  0.4031 -0.0306 -0.6402
  176MPD1    C4 2682   2.058   1.505  16.448  0.8427  0.1944 -0.4680
  176MPD1    C5 2683   2.051   1.454  16.322  0.2872 -0.4199  0.9342
  176MPD1     H 2684   1.736   1.569  16.504  0.4395  2.3392 -0.8954
  176MPD1    H1 2685   2.160   1.503  16.484  0.3333 -1.0048  0.9066
  176MPD1    H2 2686   1.934   1.407  16.162 -0.4470 -3.1566  1.8279
  176MPD1    H3 2687   2.146   1.446  16.271  0.2129 -2.1624  1.0951
  176MPD1     N 2688   1.945   1.598  16.638 -0.1895 -0.2393  0.5664
  176MPD1    H5 2689   1.868   1.653  16.674  0.0402 -0.4722  1.3938
  176MPD1    N1 2690   1.687   1.457  16.249 -0.1461  0.6347 -0.5678
  176MPD1    H6 2691   1.614   1.422  16.312 -0.4156  1.2812 -0.5103
  176MPD1    H7 2692   1.690   1.376  16.188  2.9194  0.5796 -0.3124
  177MPD1     C 2693   0.884   0.705   9.794  0.2088 -0.7197 -0.5054
  177MPD1    C1 2694   0.764   0.731   9.723 -0.1291 -1.0284  0.1424
  177MPD1    C2 2695   0.714   0.853   9.728 -0.8542  0.4190  1.0122
  177MPD1    C3 2696   0.781   0.960   9.780  0.2652 -0.8502 -0.1545
  177MPD1    C4 2697   0.907   0.945   9.831 -0.0242  0.7067 -0.1876
  177MPD1    C5 2698   0.958   0.813   9.834  0.2625 -0.0584 -0.1389
  177MPD1     H 2699   0.618   0.868   9.678 -0.6117  0.6179  0.6074
  177MPD1    H1 2700   0.974   1.028   9.851  0.3753  0.0882  1.0468
  177MPD1    H2 2701   0.916   0.602   9.802 -0.8305 -0.9794  0.3001
  177MPD1    H3 2702   1.056   0.806   9.881  0.1829 -0.8845 -0.1001
  177MPD1     N 2703   0.713   1.085   9.781  0.0811  0.4140  0.1339
  177MPD1    H5 2704   0.622   1.081   9.737  1.4000  0.1637 -2.5313
  177MPD1    N1 2705   0.683   0.626   9.682  0.7720 -0.1491 -0.1144
  177MPD1    H6 2706   0.742   0.550   9.649 -0.7115 -0.2361 -2.6109
  177MPD1    H7 2707   0.621   0.654   9.606  0.1714  0.6581  0.6697
  178MPD1     C 2708   3.835   2.123   0.012  0.0206  0.0767 -0.4754
  178MPD1    C1 2709   3.792   2.071  17.573 -0.1423  0.3482 -0.3723
  178MPD1    C2 2710   3.671   2.095  17.515  0.1879 -0.5860 -0.3496
  178MPD1    C3 2711   3.588   2.175  17.591 -0.4450 -0.1767  0.0464
  178MPD1    C4 2712   3.632   2.231   0.025  0.4750 -0.0231 -0.0599
  178MPD1    C5 2713   3.755   2.208   0.077 -0.0294  0.2080  0.1928
  178MPD1     H 2714   3.642   2.062  17.416 -0.3598  1.6031 -0.9254
  178MPD1    H1 2715   3.557   2.290   0.075 -1.7823 -2.5372 -0.4479
  178MPD1    H2 2716   3.933   2.102   0.052 -0.9448 -2.2010  0.7505
  178MPD1    H3 2717   3.788   2.259   0.167  1.7353 -1.1342  0.2990
  178MPD1     N 2718   3.464   2.218  17.547  0.5931  0.3019 -0.4182
  178MPD1    H5 2719   3.410   2.280  17.606 -0.7757  0.6412 -1.9982
  178MPD1    N1 2720   3.867   1.965  17.515  0.1818 -0.4543  0.4250
  178MPD1    H6 2721   3.870   1.967  17.413  1.6600 -0.1552  0.4792
  178MPD1    H7 2722   3.963   1.953  17.547 -0.0920  0.7466  1.6610
  179MPD1     C 2723   2.071   0.959  15.045  0.3770 -0.0016  0.4587
  179MPD1    C1 2724   2.064   1.003  15.176 -0.5106 -0.4452  0.2229
  179MPD1    C2 2725   2.089   0.906  15.270 -0.2257 -0.0796  0.0356
  179MPD1    C3 2726   2.140   0.785  15.246  0.2606 -0.7680  0.7654
  179MPD1    C4 2727   2.153   0.743  15.120  0.1950  0.7127 -0.7260
  179MPD1    C5 2728   2.125   0.835  15.029  0.4829 -0.0890 -0.2959
  179MPD1     H 2729   2.053   0.932  15.369 -1.7028  0.8316 -0.7619
  179MPD1    H1 2730   2.182   0.644  15.084  0.1761  0.5297 -0.2317
  179MPD1    H2 2731   2.038   1.018  14.961 -0.2346  0.8255  1.2741
  179MPD1    H3 2732   2.134   0.803  14.926  0.2258  0.7769 -0.5858
  179MPD1     N 2733   2.155   0.684  15.345 -0.3800  0.2469  0.2828
  179MPD1    H5 2734   2.188   0.592  15.319  0.3087  0.0828  1.7454
  179MPD1    N1 2735   1.987   1.114  15.206 -0.3857 -0.1929 -0.2730
  179MPD1    H6 2736   2.005   1.154  15.298 -0.1752 -0.4112 -0.2200
  179MPD1    H7 2737   1.994   1.187  15.135  0.4264 -0.8364 -0.8584
  180MPD1     C 2738   3.346   1.699  14.954 -0.4445  0.2092  0.1700
  180MPD1    C1 2739   3.392   1.796  14.867  0.6459  0.2119  0.3321
  180MPD1    C2 2740   3.305   1.865  14.788  0.6082  0.0886  0.0089
  180MPD1    C3 2741   3.172   1.847  14.816 -0.2943  0.2658 -0.1948
  180MPD1    C4 2742   3.129   1.753  14.913  0.6312 -0.8019  0.1583
  180MPD1    C5 2743   3.219   1.681  14.980  0.2768  0.0401  0.0382
  180MPD1     H 2744   3.340   1.927  14.707 -1.9701  2.3330  0.6114
  180MPD1    H1 2745   3.025   1.735  14.938  0.6053  2.6280  2.5335
  180MPD1    H2 2746   3.417   1.632  15.001  0.4186  1.0524  0.0722
  180MPD1    H3 2747   3.188   1.602  15.047  1.7673 -1.4180 -1.0002
  180MPD1     N 2748   3.085   1.933  14.748  0.1562 -0.2133  0.4504
  180MPD1    H5 2749   3.122   1.976  14.664 -1.5211 -0.0189 -0.1872
  180MPD1    N1 2750   3.529   1.809  14.847  0.5800  0.3638 -0.5362
  180MPD1    H6 2751   3.574   1.773  14.930 -0.7408 -0.9666 -0.3804
  180MPD1    H7 2752   3.562   1.905  14.843 -0.0986  0.5514 -1.8373
  181MPD1     C 2753   3.607   2.949   9.647 -0.4396 -0.7605  0.2369
  181MPD1    C1 2754   3.590   3.080   9.616 -0.3887 -0.1951  0.0984
  181MPD1    C2 2755   3.697   3.167   9.616  0.1181 -0.1997  0.4568
  181MPD1    C3 2756   3.813   3.115   9.678  0.7044  0.0886 -0.1440
  181MPD1    C4 2757   3.827   2.990   9.731  0.0334 -0.5977  0.9667
  181MPD1    C5 2758   3.724   2.896   9.712 -0.1904  0.8661  0.1393
  181MPD1     H 2759   3.685   3.264   9.569  0.9939  0.2701  1.1977
  181MPD1    H1 2760   3.915   2.959   9.785  1.2930  0.5629 -0.4101
  181MPD1    H2 2761   3.531   2.879   9.613  2.2238 -2.1631 -2.8194
  181MPD1    H3 2762   3.728   2.790   9.737 -0.7796  0.9150  0.4373
  181MPD1     N 2763   3.930   3.196   9.694  0.2918 -0.3289  0.6398
  181MPD1    H5 2764   4.003   3.170   9.758 -0.1807 -0.9474  0.9223
  181MPD1    N1 2765   3.475   3.100   9.534  0.1294 -0.3563 -0.1518
  181MPD1    H6 2766   3.450   3.199   9.531 -0.2237 -0.4827 -1.1380
  181MPD1    H7 2767   3.393   3.058   9.576 -0.8504  0.2557 -1.4718
  182MPD1     C 2768   0.544   2.707   1.423 -0.3142 -0.4980 -0.7132
  182MPD1    C1 2769   0.589   2.698   1.292 -0.2807  0.2432 -0.6359
  182MPD1    C2 2770   0.494   2.709   1.193 -0.1918 -0.9565 -0.0901
  182MPD1    C3 2771   0.358   2.707   1.224 -0.4062 -0.2150  0.4676
  182MPD1    C4 2772   0.322   2.702   1.355  0.4210 -0.2479 -0.0951
  182MPD1    C5 2773   0.414   2.695   1.452 -0.3727 -0.6179  0.0136
  182MPD1     H 2774   0.516   2.705   1.086  0.8646  0.3343  0.0877
  182MPD1    H1 2775   0.219   2.693   1.388 -0.1409 -0.1336 -1.8180
  182MPD1    H2 2776   0.618   2.713   1.502 -1.0037  3.3801 -0.3527
  182MPD1    H3 2777   0.387   2.683   1.556 -2.2265  0.8029 -0.2926
  182MPD1     N 2778   0.252   2.708   1.122 -0.4700 -0.0358 -0.7216
  182MPD1    H5 2779   0.160   2.730   1.160 -0.5209 -2.1106  0.3356
  182MPD1    N1 2780   0.724   2.704   1.257  0.4866  0.0273  0.0077
  182MPD1    H6 2781   0.737   2.667   1.163 -1.2271  2.1087 -1.0602
  182MPD1    H7 2782   0.782   2.664   1.330 -0.7857 -1.4980  0.1897
  183MPD1     C 2783   4.461   3.982   9.307  0.3932  0.0300  0.3187
  183MPD1    C1 2784   4.537   3.952   9.191 -1.0007 -0.1704 -0.0492
  183MPD1    C2 2785   4.638   3.861   9.202  0.0093 -0.4199  0.9667
  183MPD1    C3 2786   4.652   3.786   9.314  0.7037  0.5046 -0.2384
  183MPD1    C4 2787   4.568   3.803   9.425 -0.1318  0.5507 -0.4689
  183MPD1    C5 2788   4.473   3.908   9.419 -0.8699 -0.3649 -0.2869
  183MPD1     H 2789   4.716   3.849   9.128 -0.0190 -1.3728  1.0953
  183MPD1    H1 2790   4.576   3.741   9.513 -2.9344  3.0260  1.5274
  183MPD1    H2 2791   4.385   4.060   9.308 -0.7981 -1.1186 -0.6574
  183MPD1    H3 2792   4.420   3.936   9.510 -0.8573  0.4596 -0.5364
  183MPD1     N 2793   0.034   3.687   9.308  0.1509  0.1835 -0.4040
  183MPD1    H5 2794   0.096   3.680   9.228 -0.8205 -2.5145 -0.9091
  183MPD1    N1 2795   4.529   4.033   9.074  0.9861 -0.0086 -0.6618
  183MPD1    H6 2796   4.434   4.062   9.055  2.2243  2.0838 -3.7064
  183MPD1    H7 2797   4.559   3.989   8.987  1.6142 -0.0951 -0.4023
  184MPD1     C 2798   4.538   0.623  10.321  0.5033  0.0115  0.1659
  184MPD1    C1 2799   4.631   0.720  10.331  0.2531 -1.1795  0.2141
  184MPD1    C2 2800   4.613   0.831  10.248 -0.1871  0.4770  0.2536
  184MPD1    C3 2801   4.504   0.850  10.167  0.1775 -0.2783  0.6906
  184MPD1    C4 2802   4.413   0.749  10.156 -0.1736  0.2095 -0.1552
  184MPD1    C5 2803   4.434   0.645  10.235  0.0359 -0.2512  0.2696
  184MPD1     H 2804   4.694   0.903  10.240  0.8812 -0.8422 -0.9322
  184MPD1    H1 2805   4.333   0.752  10.083  0.2230 -0.8861 -0.6286
  184MPD1    H2 2806   4.549   0.521  10.357  1.9655  0.1458  0.0955
  184MPD1    H3 2807   4.366   0.561  10.234 -1.3528  0.8963 -0.5947
  184MPD1     N 2808   4.487   0.962  10.084  0.9075  0.1164 -0.2434
  184MPD1    H5 2809   4.414   0.953  10.014 -0.1420  2.0533  0.6045
  184MPD1    N1 2810   0.035   0.700  10.400 -0.1285 -0.1859 -0.0810
  184MPD1    H6 2811   0.080   0.784  10.437  0.8956  0.1803 -2.1368
  184MPD1    H7 2812   0.027   0.625  10.469 -0.2930 -1.7802 -1.8547
  185MPD1     C 2813   3.907   1.017   9.500 -0.3620 -0.9992 -1.0631
  185MPD1    C1 2814   3.954   1.142   9.475  0.3725 -0.0506  0.2603
  185MPD1    C2 2815   4.043   1.196   9.570 -0.4644  0.2319  0.1299
  185MPD1    C3 2816   4.090   1.117   9.678  0.0512  0.2903 -0.1523
  185MPD1    C4 2817   4.032   0.993   9.693 -0.2542 -0.6685 -0.7169
  185MPD1    C5 2818   3.939   0.948   9.616  0.1549 -0.1518 -0.0217
  185MPD1     H 2819   4.080   1.297   9.553 -0.3019  0.4386  1.7306
  185MPD1    H1 2820   4.057   0.926   9.775  1.0118 -0.1321 -0.6570
  185MPD1    H2 2821   3.844   0.969   9.425 -0.2485 -0.4377 -1.5136
  185MPD1    H3 2822   3.896   0.849   9.626  0.9190 -0.2965  1.8474
  185MPD1     N 2823   4.193   1.167   9.766 -0.0118 -0.0531  0.4089
  185MPD1    H5 2824   4.227   1.096   9.830  2.2057  0.7184  0.0694
  185MPD1    N1 2825   3.910   1.219   9.364  0.2397  0.2259  0.1262
  185MPD1    H6 2826   3.857   1.176   9.289 -1.9670  1.3099  1.0569
  185MPD1    H7 2827   3.927   1.317   9.341 -1.6785  0.6011  0.2864
  186MPD1     C 2828   2.865   0.566  15.885 -0.4463 -0.0115 -0.6094
  186MPD1    C1 2829   2.829   0.523  16.007 -0.3288  0.5562  0.0955
  186MPD1    C2 2830   2.797   0.614  16.104  0.6180  0.1699  0.5562
  186MPD1    C3 2831   2.794   0.750  16.075  0.2983 -0.6127 -0.6388
  186MPD1    C4 2832   2.852   0.795  15.957  0.1026 -0.0287 -0.4554
  186MPD1    C5 2833   2.883   0.699  15.860 -0.0421  0.0498 -0.2206
  186MPD1     H 2834   2.758   0.585  16.201  1.1670  0.4223  0.8525
  186MPD1    H1 2835   2.878   0.898  15.934  1.1441 -0.0114  0.7986
  186MPD1    H2 2836   2.902   0.499  15.808 -0.8523 -0.5390 -0.3463
  186MPD1    H3 2837   2.932   0.726  15.767 -0.3116  0.3375 -0.2802
  186MPD1     N 2838   2.752   0.849  16.167 -0.1315 -0.4630  0.2297
  186MPD1    H5 2839   2.760   0.943  16.130  0.5150 -1.3389 -1.8493
  186MPD1    N1 2840   2.835   0.390  16.048  0.2088 -0.3995 -0.4950
  186MPD1    H6 2841   2.740   0.373  16.080  0.5867  1.7919  1.7930
  186MPD1    H7 2842   2.831   0.343  15.957  1.7080 -2.5879  0.5548
  187MPD1     C 2843   2.139   3.164   0.499  0.2094  0.4513 -0.3977
  187MPD1    C1 2844   2.154   3.034   0.460 -0.4242  0.2503 -0.0497
  187MPD1    C2 2845   2.141   2.994   0.320  0.5202  0.0991 -0.6463
  187MPD1    C3 2846   2.108   3.091   0.220 -0.1547 -0.5162 -0.0827
  187MPD1    C4 2847   2.105   3.222   0.267  0.4768 -0.0694 -0.1612
  187MPD1    C5 2848   2.112   3.259   0.400  0.0850  0.3088  0.6317
  187MPD1     H 2849   2.147   2.888   0.300 -1.5192 -0.4117  1.4023
  187MPD1    H1 2850   2.083   3.304   0.200  1.6438  0.1780 -0.2530
  187MPD1    H2 2851   2.140   3.198   0.602  0.6451 -1.0682  0.1012
  187MPD1    H3 2852   2.106   3.363   0.430  1.2286  0.4542  0.3495
  187MPD1     N 2853   2.092   3.062   0.082 -0.5701  0.3879 -0.1394
  187MPD1    H5 2854   2.065   3.139   0.021 -0.4922 -0.8081 -1.6827
  187MPD1    N1 2855   2.160   2.929   0.552 -0.0400  0.0771  0.3237
  187MPD1    H6 2856   2.199   2.847   0.508 -2.4704 -1.5214  1.1637
  187MPD1    H7 2857   2.228   2.952   0.624 -0.7299  1.9537  0.3855
  188MPD1     C 2858   2.170   3.051  10.036  0.2657 -0.6392 -0.1931
  188MPD1    C1 2859   2.276   2.976  10.091 -0.2116 -0.0018  0.2444
  188MPD1    C2 2860   2.273   2.834  10.089 -0.1136 -0.5350 -0.4530
  188MPD1    C3 2861   2.165   2.784  10.013 -0.2695 -0.4062 -0.1343
  188MPD1    C4 2862   2.083   2.858   9.940 -0.3601  0.0909 -0.7184
  188MPD1    C5 2863   2.081   2.990   9.965  0.8661 -0.2910  0.3537
  188MPD1     H 2864   2.340   2.772  10.148  0.3651 -1.5739 -2.0742
  188MPD1    H1 2865   1.998   2.809   9.894 -0.8844  0.0954  0.2465
  188MPD1    H2 2866   2.169   3.159  10.045 -2.0913 -0.7755  1.1241
  188MPD1    H3 2867   2.000   3.050   9.924 -0.5951 -1.9045  0.8901
  188MPD1     N 2868   2.137   2.645   9.998  1.2557 -0.1206 -0.0703
  188MPD1    H5 2869   2.054   2.627   9.943  1.9177 -0.4956 -0.9460
  188MPD1    N1 2870   2.366   3.029  10.188 -0.2489  0.0139  0.0675
  188MPD1    H6 2871   2.447   2.968  10.179  1.8107  2.4766  2.2931
  188MPD1    H7 2872   2.392   3.126  10.173  0.1566  0.0732  1.2346
  189MPD1     C 2873   3.504   2.872   0.263 -0.2588 -0.2823 -0.1139
  189MPD1    C1 2874   3.399   2.784   0.270 -0.1662  0.7352  0.1925
  189MPD1    C2 2875   3.279   2.830   0.247 -0.2354  0.8583  0.5841
  189MPD1    C3 2876   3.246   2.961   0.246 -0.0673  0.4787 -0.6324
  189MPD1    C4 2877   3.357   3.054   0.243  1.0186  0.2499  0.4084
  189MPD1    C5 2878   3.481   3.004   0.240 -0.7480  0.1947  0.0464
  189MPD1     H 2879   3.192   2.765   0.243  2.3197 -2.3942 -1.6688
  189MPD1    H1 2880   3.349   3.160   0.226  2.1589  0.1194 -0.8793
  189MPD1    H2 2881   3.605   2.832   0.263  0.3588  1.3058  1.1429
  189MPD1    H3 2882   3.564   3.071   0.219 -0.5144  0.0042  0.3641
  189MPD1     N 2883   3.110   3.001   0.248 -0.1746 -0.3264 -0.4538
  189MPD1    H5 2884   3.050   2.923   0.273 -0.7966  0.8394  1.6546
  189MPD1    N1 2885   3.418   2.644   0.265 -0.8384  0.1999  0.5267
  189MPD1    H6 2886   3.347   2.587   0.311 -0.6142  1.1631  2.0682
  189MPD1    H7 2887   3.505   2.632   0.317 -0.9346  1.0313  0.8913
  190MPD1     C 2888   2.171   2.479  15.685  0.3153  0.8054  0.0870
  190MPD1    C1 2889   2.157   2.405  15.802  0.1558  0.1392  0.4363
  190MPD1    C2 2890   2.214   2.281  15.813  0.0572  0.5781 -0.3254
  190MPD1    C3 2891   2.277   2.226  15.708  0.3270  0.2006  0.0812
  190MPD1    C4 2892   2.278   2.290  15.586 -0.1935 -0.7292 -0.1538
  190MPD1    C5 2893   2.227   2.418  15.577 -0.3432  0.9088  0.5086
  190MPD1     H 2894   2.214   2.232  15.910 -0.2607  0.9309 -0.1458
  190MPD1    H1 2895   2.304   2.239  15.494 -0.5565  0.3100 -0.8337
  190MPD1    H2 2896   2.130   2.579  15.679  0.0089  0.5268 -2.3817
  190MPD1    H3 2897   2.230   2.471  15.483  1.6458  0.9794  0.5994
  190MPD1     N 2898   2.329   2.098  15.730 -0.1843  0.3024 -0.3170
  190MPD1    H5 2899   2.332   2.057  15.822  0.6168 -0.2213 -0.5719
  190MPD1    N1 2900   2.093   2.461  15.915  0.3498 -0.3224 -0.4362
  190MPD1    H6 2901   2.045   2.550  15.904  0.9826  0.0660 -0.0625
  190MPD1    H7 2902   2.052   2.406  15.990 -2.6203  0.5023 -1.4575
  191MPD1     C 2903   1.885   3.509  13.165 -0.1093  0.0755  0.4194
  191MPD1    C1 2904   1.993   3.521  13.077  0.3924 -0.4715 -0.3586
  191MPD1    C2 2905   1.959   3.580  12.960 -0.4451 -0.8420  0.2969
  191MPD1    C3 2906   1.835   3.610  12.911  0.3943  0.4365  0.2042
  191MPD1    C4 2907   1.731   3.571  12.994 -0.1959  0.2247 -0.4924
  191MPD1    C5 2908   1.757   3.524  13.119 -0.0652 -0.5791 -0.3076
  191MPD1     H 2909   2.047   3.597  12.899  0.6208 -1.7773  1.5456
  191MPD1    H1 2910   1.626   3.577  12.966 -0.7718  0.4578  1.7572
  191MPD1    H2 2911   1.897   3.478  13.268  1.6220  0.6573  0.3923
  191MPD1    H3 2912   1.676   3.486  13.181 -1.5430  0.7858 -1.4331
  191MPD1     N 2913   1.827   3.675  12.783  0.1438  0.7417 -0.6112
  191MPD1    H5 2914   1.912   3.694  12.730 -1.2722 -1.5480 -3.7478
  191MPD1    N1 2915   2.128   3.504  13.113  0.1319 -0.9242 -0.2503
  191MPD1    H6 2916   2.185   3.470  13.036  1.0845 -1.1263  0.5435
  191MPD1    H7 2917   2.144   3.428  13.179  0.6714 -0.5857  0.0166
  192MPD1     C 2918   1.290   4.488  12.294  0.1438 -0.0763  0.8788
  192MPD1    C1 2919   1.335   4.467  12.425  0.6376 -0.0654  0.1352
  192MPD1    C2 2920   1.409   4.352  12.445 -0.6984  0.2845  0.5161
  192MPD1    C3 2921   1.455   4.273  12.340  0.5149  0.2803  1.0381
  192MPD1    C4 2922   1.422   4.306  12.214  0.1823 -0.1538 -0.3108
  192MPD1    C5 2923   1.340   4.405  12.191 -0.5776 -0.2756  0.1497
  192MPD1     H 2924   1.434   4.331  12.548  0.9891  2.5868  0.5803
  192MPD1    H1 2925   1.463   4.249  12.132 -0.4272  0.4503 -1.0313
  192MPD1    H2 2926   1.235   4.575  12.260  0.6508  0.0339  0.3470
  192MPD1    H3 2927   1.329   4.437  12.088  2.2626 -1.2585 -0.4869
  192MPD1     N 2928   1.534   4.157  12.358  0.0765 -0.5979 -0.1689
  192MPD1    H5 2929   1.549   4.101  12.275 -1.0525  0.2258 -0.9037
  192MPD1    N1 2930   1.263   4.517  12.533  0.2309 -0.3735 -0.0410
  192MPD1    H6 2931   1.329   4.508  12.609  0.3651  0.6300 -0.0448
  192MPD1    H7 2932   1.238   4.615  12.520 -1.8558 -1.1791 -2.1911
  193MPD1     C 2933   1.396   3.876  16.072 -0.5756 -0.9254 -0.0297
  193MPD1    C1 2934   1.345   3.922  16.188 -0.1160 -0.7570 -0.4412
  193MPD1    C2 2935   1.425   3.928  16.295 -0.3509 -0.2197  0.3281
  193MPD1    C3 2936   1.562   3.939  16.282 -0.0541 -0.6137  0.0691
  193MPD1    C4 2937   1.612   3.905  16.156  0.0916  0.2301 -0.2707
  193MPD1    C5 2938   1.534   3.855  16.059  1.0743  0.2655  0.2725
  193MPD1     H 2939   1.386   3.949  16.394  3.9835 -0.1470  2.0119
  193MPD1    H1 2940   1.718   3.889  16.140  0.3914 -0.5219  2.3313
  193MPD1    H2 2941   1.333   3.837  15.993  1.5117  1.7531 -3.0205
  193MPD1    H3 2942   1.576   3.803  15.974  1.5215  1.3385 -0.1544
  193MPD1     N 2943   1.650   3.955  16.386 -0.2841  0.4148 -0.1679
  193MPD1    H5 2944   1.747   3.926  16.384 -0.8387 -1.3786 -0.5087
  193MPD1    N1 2945   1.205   3.906  16.208  0.3005  0.1087  0.1883
  193MPD1    H6 2946   1.175   3.954  16.293 -1.3326  0.2561 -0.4611
  193MPD1    H7 2947   1.157   3.949  16.129  1.3792 -0.5545 -0.8302
  194MPD1     C 2948   4.205   2.073  17.623 -0.5590  0.0548  0.0606
  194MPD1    C1 2949   4.219   2.027  17.491  0.7900  0.3181  0.1431
  194MPD1    C2 2950   4.237   1.896  17.466  0.8551 -1.0376 -0.3268
  194MPD1    C3 2951   4.239   1.800  17.575 -1.0962  0.9025 -0.0763
  194MPD1    C4 2952   4.213   1.850   0.019  0.0301 -0.0528 -0.7282
  194MPD1    C5 2953   4.196   1.985   0.043  0.2948  0.5542 -0.0543
  194MPD1     H 2954   4.256   1.866  17.364 -0.0442 -2.6292 -0.0311
  194MPD1    H1 2955   4.194   1.780   0.100 -2.1862 -0.0505 -1.2299
  194MPD1    H2 2956   4.173   2.175  17.642  0.9435  0.1291  2.0814
  194MPD1    H3 2957   4.185   2.015   0.147 -0.4720 -1.7225  0.5168
  194MPD1     N 2958   4.284   1.673  17.554 -0.0503  0.5518 -0.0860
  194MPD1    H5 2959   4.318   1.619  17.633  0.8690  1.7579  0.3502
  194MPD1    N1 2960   4.219   2.127  17.390  0.2248 -0.1284  0.2649
  194MPD1    H6 2961   4.160   2.204  17.419  0.9503 -0.0125  1.4209
  194MPD1    H7 2962   4.186   2.087  17.302 -1.5305  0.0158  0.8654
  195MPD1     C 2963   0.767   1.682  17.233  0.1453 -0.1302 -0.2188
  195MPD1    C1 2964   0.886   1.752  17.240 -0.2784  0.1073 -0.2573
  195MPD1    C2 2965   0.974   1.717  17.344  0.0347 -0.0726 -0.6174
  195MPD1    C3 2966   0.941   1.612  17.433  0.1597  0.3064 -0.6359
  195MPD1    C4 2967   0.822   1.549  17.424 -0.6391 -0.0626  0.3346
  195MPD1    C5 2968   0.737   1.584  17.321 -0.1297  0.2999 -0.0246
  195MPD1     H 2969   1.061   1.781  17.349 -1.0948  1.4538 -0.6639
  195MPD1    H1 2970   0.799   1.473  17.498 -3.1110  1.0809  0.7354
  195MPD1    H2 2971   0.697   1.702  17.153  0.2318 -1.3539 -0.5919
  195MPD1    H3 2972   0.635   1.546  17.322 -0.1587  0.3631 -2.9931
  195MPD1     N 2973   1.034   1.563  17.530  0.2425  0.7613  0.1433
  195MPD1    H5 2974   0.996   1.502  17.602  0.0440 -0.1597 -0.7388
  195MPD1    N1 2975   0.928   1.850  17.143  0.3022  0.3895  0.0969
  195MPD1    H6 2976   0.978   1.920  17.198  0.3823  1.3592 -1.2212
  195MPD1    H7 2977   0.856   1.899  17.090 -0.6079 -0.7709  0.2528
  196MPD1     C 2978   1.472   2.069   0.434  0.0636 -0.3810  0.3171
  196MPD1    C1 2979   1.541   2.049   0.558 -0.2590 -0.6779 -0.0250
  196MPD1    C2 2980   1.532   2.157   0.653 -0.2312 -0.3449 -0.1143
  196MPD1    C3 2981   1.454   2.272   0.628 -0.1473 -0.0475 -0.3244
  196MPD1    C4 2982   1.387   2.281   0.508 -0.4712 -0.1385  0.1522
  196MPD1    C5 2983   1.393   2.180   0.409  0.1148  0.3269  0.0827
  196MPD1     H 2984   1.588   2.151   0.745 -0.0203  1.5306 -0.1175
  196MPD1    H1 2985   1.324   2.365   0.481  0.7998  0.8059  0.1599
  196MPD1    H2 2986   1.496   2.008   0.347  0.6349  2.8304 -1.7708
  196MPD1    H3 2987   1.351   2.209   0.313 -0.3895 -0.8895 -0.0637
  196MPD1     N 2988   1.445   2.375   0.718 -0.1455 -0.2879 -0.4555
  196MPD1    H5 2989   1.388   2.454   0.688 -0.1977  0.5219  1.8113
  196MPD1    N1 2990   1.644   1.952   0.555 -0.4727 -0.5431 -0.1559
  196MPD1    H6 2991   1.656   1.926   0.653 -0.8451 -0.4101 -0.0783
  196MPD1    H7 2992   1.619   1.871   0.498 -0.7931  0.0824 -0.8915
  197MPD1     C 2993   0.634   4.698  17.573  0.1386  0.7501 -0.3892
  197MPD1    C1 2994   0.502   0.006  17.612  0.0342  0.0162  0.5369
  197MPD1    C2 2995   0.420   0.063  17.523 -0.4044  0.4739 -0.4311
  197MPD1    C3 2996   0.456   0.099  17.392 -0.4746  0.3325 -0.3369
  197MPD1    C4 2997   0.584   0.058  17.359  0.1550 -0.6374 -0.5963
  197MPD1    C5 2998   0.671   4.710  17.440 -0.2601 -0.0452 -0.8998
  197MPD1     H 2999   0.315   0.075  17.546 -0.4290  0.7089 -0.6661
  197MPD1    H1 3000   0.618   0.075  17.258  0.9849  1.0934 -0.0204
  197MPD1    H2 3001   0.705   4.659  17.645 -1.6321 -3.0962 -0.7248
  197MPD1    H3 3002   0.765   4.669  17.403  0.0435  0.4599 -0.6822
  197MPD1     N 3003   0.385   0.184  17.299  0.0555 -0.5938  0.2160
  197MPD1    H5 3004   0.430   0.195  17.209  2.0531 -0.6211  1.2000
  197MPD1    N1 3005   0.468   4.716   0.073  1.0700 -0.7295  0.1852
  197MPD1    H6 3006   0.510   4.633   0.113 -0.2740 -1.8724 -0.7766
  197MPD1    H7 3007   0.369   4.705   0.090  0.9171 -0.3190 -0.4233
  198MPD1     C 3008   2.466   3.154  14.953  0.5250 -0.3713 -0.1919
  198MPD1    C1 3009   2.517   3.281  14.950  0.6035 -0.1537  0.1370
  198MPD1    C2 3010   2.524   3.345  15.079  0.2086 -0.5461 -0.4792
  198MPD1    C3 3011   2.466   3.282  15.196  0.3346 -0.6220 -0.2420
  198MPD1    C4 3012   2.397   3.163  15.176  0.0212  0.1813 -0.3551
  198MPD1    C5 3013   2.398   3.099  15.057  0.0093 -0.6794 -0.0022
  198MPD1     H 3014   2.581   3.437  15.084 -0.6934 -0.1181  2.3598
  198MPD1    H1 3015   2.330   3.114  15.246 -1.2763  0.1739 -1.6062
  198MPD1    H2 3016   2.463   3.100  14.860 -0.2664 -0.6026 -0.0295
  198MPD1    H3 3017   2.345   3.005  15.049  1.4020 -1.3823 -1.1861
  198MPD1     N 3018   2.479   3.353  15.311 -0.0879 -0.2753  0.7401
  198MPD1    H5 3019   2.542   3.433  15.306  0.5955 -0.9323 -0.9129
  198MPD1    N1 3020   2.586   3.318  14.832 -0.4520  0.0004  0.7810
  198MPD1    H6 3021   2.544   3.280  14.747 -0.1379  1.9774 -0.2443
  198MPD1    H7 3022   2.590   3.419  14.819 -1.4976 -0.3452 -2.2599
  199MPD1     C 3023   4.613   3.423   9.083  1.1354 -0.8808 -0.5286
  199MPD1    C1 3024   4.549   3.385   9.198 -0.7277  0.6825 -0.1656
  199MPD1    C2 3025   4.429   3.444   9.236 -0.0607  0.1820  0.3299
  199MPD1    C3 3026   4.382   3.552   9.170  0.0727  0.1334 -0.4648
  199MPD1    C4 3027   4.443   3.595   9.054  0.1536  0.3628 -0.1574
  199MPD1    C5 3028   4.567   3.538   9.026  0.3747 -0.1743 -0.9186
  199MPD1     H 3029   4.379   3.401   9.322  1.0026  0.2076  0.9480
  199MPD1    H1 3030   4.418   3.672   8.982 -2.8223  0.3181  0.8319
  199MPD1    H2 3031   4.706   3.377   9.051  1.2396 -0.7934 -0.3480
  199MPD1    H3 3032   4.617   3.576   8.938 -3.0582  1.3303 -2.2235
  199MPD1     N 3033   4.262   3.623   9.215 -0.0497 -0.4581 -0.0649
  199MPD1    H5 3034   4.254   3.712   9.165  1.4825  0.2104  0.8936
  199MPD1    N1 3035   4.582   3.263   9.261 -0.1928  0.1985 -0.9663
  199MPD1    H6 3036   4.558   3.254   9.359 -2.4120  1.3532 -1.4228
  199MPD1    H7 3037   4.677   3.227   9.250 -1.3056 -2.9123 -0.4028
  200MPD1     C 3038   3.914   4.251  15.164 -0.4765 -0.9268 -0.1865
  200MPD1    C1 3039   3.842   4.164  15.088 -0.0928 -0.5272  0.5037
  200MPD1    C2 3040   3.813   4.199  14.951  0.3614  0.1140 -0.6216
  200MPD1    C3 3041   3.859   4.321  14.898 -0.3993 -0.3685 -0.3105
  200MPD1    C4 3042   3.936   4.400  14.971  0.2533  0.2482  0.2513
  200MPD1    C5 3043   3.957   4.366  15.102 -0.4953 -0.8997 -0.1138
  200MPD1     H 3044   3.748   4.135  14.892  0.6408 -1.6857  1.0072
  200MPD1    H1 3045   3.983   4.489  14.931  1.4316 -0.3120  0.3947
  200MPD1    H2 3046   3.914   4.239  15.271  1.5726 -0.9125 -0.1836
  200MPD1    H3 3047   4.008   4.441  15.162  0.4259  0.1770 -2.2559
  200MPD1     N 3048   3.831   4.342  14.758 -0.4032 -0.2972  0.2625
  200MPD1    H5 3049   3.779   4.275  14.702  1.1557 -1.0207 -0.3195
  200MPD1    N1 3050   3.773   4.055  15.145  0.0602  0.4731 -0.3977
  200MPD1    H6 3051   3.824   4.015  15.223  1.2355 -0.6743 -1.7449
  200MPD1    H7 3052   3.771   3.980  15.075 -1.6489  1.1913 -1.1244
  201MPD1     C 3053   0.657   2.891  13.042 -0.2632  0.5641  0.5683
  201MPD1    C1 3054   0.735   2.949  12.936 -0.4983  0.5744 -1.3494
  201MPD1    C2 3055   0.870   2.972  12.949  0.2433  0.7524  0.0869
  201MPD1    C3 3056   0.929   2.936  13.066  0.0310 -0.0859 -1.1484
  201MPD1    C4 3057   0.860   2.859  13.160  0.1375 -0.2876 -0.2242
  201MPD1    C5 3058   0.726   2.851  13.154  1.0182  0.3947 -0.3258
  201MPD1     H 3059   0.921   3.040  12.881  1.3728  1.3864  1.5584
  201MPD1    H1 3060   0.901   2.836  13.258  0.1402 -1.8461 -0.5917
  201MPD1    H2 3061   0.550   2.877  13.037 -0.1017 -0.4015 -0.3091
  201MPD1    H3 3062   0.668   2.802  13.232  0.4733 -0.2633 -1.1456
  201MPD1     N 3063   1.065   2.976  13.089  0.9470 -0.2019 -0.3839
  201MPD1    H5 3064   1.103   3.038  13.017 -0.3294  0.1259 -0.7640
  201MPD1    N1 3065   0.670   2.992  12.828 -0.2099  0.0796  0.7361
  201MPD1    H6 3066   0.591   2.936  12.799  0.6958 -0.5555 -0.5372
  201MPD1    H7 3067   0.718   2.995  12.738 -3.2045  1.8823 -0.8178
  202MPD1     C 3068   1.242   2.521   9.055 -0.4613  0.8137 -0.6694
  202MPD1    C1 3069   1.147   2.519   9.150 -0.3501  0.3378  0.0737
  202MPD1    C2 3070   1.148   2.633   9.236 -0.3721  0.2062  0.3809
  202MPD1    C3 3071   1.266   2.707   9.249 -0.2469 -0.0393 -0.0232
  202MPD1    C4 3072   1.366   2.689   9.161  0.1194 -0.5377 -0.4036
  202MPD1    C5 3073   1.345   2.600   9.063 -0.2866  0.2263 -0.1105
  202MPD1     H 3074   1.067   2.646   9.307  0.8133 -0.4920  1.8496
  202MPD1    H1 3075   1.461   2.742   9.167 -0.6366  0.8065 -0.3746
  202MPD1    H2 3076   1.225   2.443   8.982 -0.7016 -0.5692  0.8763
  202MPD1    H3 3077   1.420   2.587   8.986  0.7670 -0.0951  0.9645
  202MPD1     N 3078   1.289   2.800   9.351 -0.0043 -0.0799 -0.0556
  202MPD1    H5 3079   1.380   2.844   9.351 -0.2946  0.4922 -1.8827
  202MPD1    N1 3080   1.024   2.461   9.118  0.2284 -0.1965  0.0443
  202MPD1    H6 3081   1.020   2.368   9.076  0.5387  0.1752 -0.8042
  202MPD1    H7 3082   0.965   2.447   9.200 -0.2746 -0.8956 -0.4377
  203MPD1     C 3083   4.478   3.683  12.603 -0.3329  0.2158 -0.2437
  203MPD1    C1 3084   4.484   3.575  12.688 -0.5692  0.1208  0.2518
  203MPD1    C2 3085   4.524   3.458  12.635  0.1253  0.3454  0.4217
  203MPD1    C3 3086   4.565   3.444  12.502  0.0937 -0.7592  0.2766
  203MPD1    C4 3087   4.567   3.550  12.426 -0.1351 -0.4789  0.8513
  203MPD1    C5 3088   4.527   3.669  12.478 -0.5652 -0.0125 -0.1541
  203MPD1     H 3089   4.505   3.370  12.696  1.5109 -2.3444 -3.0077
  203MPD1    H1 3090   4.597   3.549  12.322 -0.1232 -3.5511  0.8980
  203MPD1    H2 3091   4.454   3.781  12.643  1.9626  1.4931 -1.9711
  203MPD1    H3 3092   4.507   3.756  12.415 -3.5198 -0.7846 -0.2570
  203MPD1     N 3093   4.593   3.311  12.463  0.1179 -0.7669 -0.0003
  203MPD1    H5 3094   4.582   3.237  12.531 -0.3895 -1.5331 -0.9036
  203MPD1    N1 3095   4.424   3.586  12.812 -0.0676  0.0253 -0.0559
  203MPD1    H6 3096   4.441   3.515  12.883  1.7630  0.6341  0.1219
  203MPD1    H7 3097   4.434   3.676  12.858 -0.1617 -0.2568  0.5231
  204MPD1     C 3098   2.721   4.560   0.336  0.5662  0.0805  0.0818
  204MPD1    C1 3099   2.842   4.499   0.368 -0.3281  0.4089 -0.0279
  204MPD1    C2 3100   2.938   4.486   0.263 -0.0599 -0.4574  0.1178
  204MPD1    C3 3101   2.912   4.510   0.131 -0.3942  0.0905 -0.1994
  204MPD1    C4 3102   2.787   4.576   0.102 -0.4807 -0.1400 -0.4556
  204MPD1    C5 3103   2.698   4.603   0.202  0.7457 -0.5143  0.2701
  204MPD1     H 3104   3.031   4.436   0.285  0.0549 -0.8600 -1.3037
  204MPD1    H1 3105   2.764   4.602  17.679  0.6316  1.3757 -0.3205
  204MPD1    H2 3106   2.648   4.585   0.412  1.2217  0.4561  0.5852
  204MPD1    H3 3107   2.597   4.635   0.180  0.3651 -1.2320  0.9764
  204MPD1     N 3108   3.000   4.475   0.036 -0.7331  0.2597  0.1068
  204MPD1    H5 3109   3.079   4.422   0.070 -0.5235 -0.6918 -1.9143
  204MPD1    N1 3110   2.885   4.479   0.500  0.7173  0.0790  0.2352
  204MPD1    H6 3111   2.966   4.419   0.515 -0.1109 -0.3595  2.8381
  204MPD1    H7 3112   2.813   4.455   0.567 -0.2703  2.5955  0.0810
  205MPD1     C 3113   4.460   3.970  17.626 -0.4066  0.0467  0.7804
  205MPD1    C1 3114   4.453   3.900   0.067 -0.4619 -0.0107  0.1977
  205MPD1    C2 3115   4.342   3.819   0.102  0.2018 -0.1989 -0.6823
  205MPD1    C3 3116   4.238   3.817   0.009  0.3408  0.5387  0.2601
  205MPD1    C4 3117   4.258   3.868  17.565  0.1047  0.8786 -0.1211
  205MPD1    C5 3118   4.353   3.955  17.535 -0.4360  0.9869  0.1000
  205MPD1     H 3119   4.328   3.774   0.200 -0.5638  0.4274 -0.5057
  205MPD1    H1 3120   4.175   3.855  17.497 -1.0640  0.1834  1.4436
  205MPD1    H2 3121   4.545   4.028  17.595  0.0073 -0.4560  0.9785
  205MPD1    H3 3122   4.380   3.983  17.434  1.7623 -1.1488  0.1092
  205MPD1     N 3123   4.114   3.755   0.033 -0.7325 -0.2924 -0.3318
  205MPD1    H5 3124   4.049   3.762  17.635 -0.1254 -1.4606 -0.9636
  205MPD1    N1 3125   4.563   3.905   0.160  0.4045 -0.2044  0.9091
  205MPD1    H6 3126   4.538   3.921   0.257 -1.8434 -0.7742  0.4389
  205MPD1    H7 3127   4.638   3.969   0.137 -0.5656  0.0033 -1.7326
  206MPD1     C 3128   4.097   1.560  16.946  0.7457 -0.0509  0.3868
  206MPD1    C1 3129   4.179   1.486  16.866  0.3989 -0.2179 -0.6346
  206MPD1    C2 3130   4.131   1.439  16.747 -0.2702 -0.3663 -0.3766
  206MPD1    C3 3131   4.002   1.454  16.706  0.4258 -0.9497 -1.1127
  206MPD1    C4 3132   3.915   1.527  16.785 -0.4439  0.2119 -0.0647
  206MPD1    C5 3133   3.965   1.574  16.906 -0.5840  0.4088 -0.0052
  206MPD1     H 3134   4.199   1.400  16.672 -1.4575 -1.3961 -0.9149
  206MPD1    H1 3135   3.810   1.544  16.765  0.0903  2.2934 -1.1011
  206MPD1    H2 3136   4.132   1.618  17.031 -1.3173  0.9137  0.5760
  206MPD1    H3 3137   3.902   1.632  16.974  0.1479  0.3734  0.7015
  206MPD1     N 3138   3.950   1.401  16.582 -0.1607 -0.5627 -0.3445
  206MPD1    H5 3139   3.867   1.441  16.539  0.3688  1.6019  0.6579
  206MPD1    N1 3140   4.314   1.477  16.896 -0.5706 -0.0015 -0.3758
  206MPD1    H6 3141   4.331   1.490  16.996 -0.6227  1.9461 -0.6231
  206MPD1    H7 3142   4.365   1.394  16.869  3.1292  1.2503  2.6887
  207MPD1     C 3143   1.149   0.073   9.000 -0.0469  0.1481  0.1550
  207MPD1    C1 3144   1.205   0.196   8.990  0.6303  0.0836  0.5293
  207MPD1    C2 3145   1.322   0.215   9.055 -0.7021 -0.1412  0.3416
  207MPD1    C3 3146   1.398   0.116   9.105 -0.6350 -0.0936 -0.1641
  207MPD1    C4 3147   1.344   4.710   9.095  0.4595 -0.4011  0.8873
  207MPD1    C5 3148   1.216   4.686   9.048  0.1430  0.1555 -0.4903
  207MPD1     H 3149   1.363   0.315   9.060 -0.5832  0.0011 -4.1178
  207MPD1    H1 3150   1.402   4.626   9.132 -0.1846 -1.4436 -0.4439
  207MPD1    H2 3151   1.045   0.075   8.971  0.5677  1.9560 -2.0063
  207MPD1    H3 3152   1.167   4.590   9.059  0.6441 -0.2717 -2.0659
  207MPD1     N 3153   1.526   0.134   9.161 -0.7311  0.5250 -0.6759
  207MPD1    H5 3154   1.570   0.052   9.201  0.6834  1.7550  0.3069
  207MPD1    N1 3155   1.120   0.305   8.963 -0.2403  0.7163 -0.3963
  207MPD1    H6 3156   1.163   0.395   8.947 -0.8661  0.7897 -1.6259
  207MPD1    H7 3157   1.053   0.284   8.890 -0.8165  1.7254 -0.1469
  208MPD1     C 3158   4.594   2.663  16.765  0.5114 -0.4769 -0.2935
  208MPD1    C1 3159   4.504   2.750  16.817  0.1490  0.1165 -0.6505
  208MPD1    C2 3160   4.492   2.761  16.954  0.0460 -0.4916 -0.2054
  208MPD1    C3 3161   4.559   2.671  17.039 -0.5721  0.3366 -0.0313
  208MPD1    C4 3162   4.641   2.578  16.985  0.3779  0.5880 -0.1864
  208MPD1    C5 3163   4.654   2.576  16.847  0.3610 -0.1927 -0.1430
  208MPD1     H 3164   4.426   2.832  17.003 -0.9087 -0.3860 -1.6452
  208MPD1    H1 3165   4.683   2.491  17.034 -0.7651 -0.3298 -0.8428
  208MPD1    H2 3166   4.619   2.655  16.660 -2.3021 -1.1986 -0.8946
  208MPD1    H3 3167   0.002   2.502  16.804  0.2905  0.3915 -1.2657
  208MPD1     N 3168   4.518   2.671  17.179 -0.4769 -0.0496  0.3451
  208MPD1    H5 3169   4.446   2.737  17.205 -0.9602 -0.3670 -0.1842
  208MPD1    N1 3170   4.443   2.848  16.735  0.0493  0.4991  0.3273
  208MPD1    H6 3171   4.420   2.822  16.640  2.7200 -1.7776  0.3089
  208MPD1    H7 3172   4.362   2.890  16.782 -3.1038 -2.5802 -2.4174
  209MPD1     C 3173   2.279   3.827  10.617 -0.3810 -0.7058 -0.3519
  209MPD1    C1 3174   2.339   3.943  10.663 -0.4520  0.3217 -0.0367
  209MPD1    C2 3175   2.316   4.058  10.591  0.7692 -0.1643 -0.6986
  209MPD1    C3 3176   2.256   4.053  10.462 -0.5797 -0.2119  0.0884
  209MPD1    C4 3177   2.210   3.931  10.416 -0.7032  0.6523  0.2496
  209MPD1    C5 3178   2.228   3.814  10.491  0.5967  0.0370 -0.7047
  209MPD1     H 3179   2.344   4.151  10.639 -0.1889  0.3272 -1.1045
  209MPD1    H1 3180   2.146   3.922  10.329  0.2060  4.7155 -0.8150
  209MPD1    H2 3181   2.278   3.738  10.679  0.7552  0.2991  1.0886
  209MPD1    H3 3182   2.199   3.717  10.452  1.2393 -0.8008  0.9127
  209MPD1     N 3183   2.233   4.183  10.402 -0.1717 -0.2345  0.4403
  209MPD1    H5 3184   2.252   4.268  10.454 -0.5402  2.0231 -3.1251
  209MPD1    N1 3185   2.389   3.941  10.797  0.2474  0.3072 -0.2338
  209MPD1    H6 3186   2.420   3.853  10.836 -1.1949 -0.8070 -1.5999
  209MPD1    H7 3187   2.439   4.027  10.821  0.6566 -0.2509  0.8786
  210MPD1     C 3188   2.243   0.239  10.773 -0.3351 -0.2602  0.3609
  210MPD1    C1 3189   2.347   0.226  10.679  0.3094  0.3062 -0.8163
  210MPD1    C2 3190   2.344   0.130  10.580 -0.8798 -0.6600 -0.6219
  210MPD1    C3 3191   2.229   0.048  10.572  0.0645 -1.0637 -0.2657
  210MPD1    C4 3192   2.133   0.054  10.675  0.4576  0.1174 -0.4115
  210MPD1    C5 3193   2.136   0.150  10.772  0.2480  0.5961  0.0708
  210MPD1     H 3194   2.424   0.124  10.508  0.6169  1.0915  0.9094
  210MPD1    H1 3195   2.043   4.713  10.677  1.1876 -0.9700 -0.2654
  210MPD1    H2 3196   2.258   0.307  10.856 -1.2248 -0.6148  0.8163
  210MPD1    H3 3197   2.050   0.158  10.838  0.1050 -0.6712  0.0284
  210MPD1     N 3198   2.201   4.679  10.466  0.4936 -0.0869  0.2750
  210MPD1    H5 3199   2.112   4.629  10.471  1.1329 -1.1726  0.9550
  210MPD1    N1 3200   2.468   0.298  10.709  0.2188  0.1461  0.1335
  210MPD1    H6 3201   2.437   0.389  10.742  2.5951  0.6202  1.0312
  210MPD1    H7 3202   2.527   0.309  10.627  1.9322 -0.2798  1.3174
  211MPD1     C 3203   0.147   3.783  16.480 -0.1000 -0.0814  0.0499
  211MPD1    C1 3204   0.064   3.852  16.392 -0.1882 -0.3415  0.1123
  211MPD1    C2 3205   4.650   3.812  16.385  0.2921  0.4208  0.2233
  211MPD1    C3 3206   4.597   3.721  16.476 -0.2605 -0.0557 -0.1551
  211MPD1    C4 3207   4.684   3.670  16.571  0.1234  0.8639 -0.7382
  211MPD1    C5 3208   0.099   3.689  16.570 -0.4202 -0.7808  0.1965
  211MPD1     H 3209   4.577   3.853  16.316 -1.8405 -3.1960  0.2935
  211MPD1    H1 3210   4.653   3.593  16.640  1.3326 -0.4441 -1.6459
  211MPD1    H2 3211   0.254   3.799  16.491 -0.2209  0.8117 -0.0742
  211MPD1    H3 3212   0.164   3.638  16.639  1.8680  1.3063 -0.4152
  211MPD1     N 3213   4.455   3.688  16.461  0.4175 -0.0992  0.8665
  211MPD1    H5 3214   4.401   3.728  16.385 -0.2870 -1.4343  0.6493
  211MPD1    N1 3215   0.104   3.972  16.328  0.0254 -0.0906 -0.2087
  211MPD1    H6 3216   0.065   3.977  16.234  0.8920 -0.0848 -0.5637
  211MPD1    H7 3217   0.204   3.973  16.307 -0.1023  0.3495 -0.8024
  212MPD1     C 3218   3.583   1.877  16.668 -0.2835  0.1251  0.4814
  212MPD1    C1 3219   3.523   1.759  16.617 -0.2860 -0.2713  0.3500
  212MPD1    C2 3220   3.495   1.660  16.713 -0.5346  0.5471 -0.5067
  212MPD1    C3 3221   3.555   1.669  16.840 -0.1342 -0.5869 -0.0723
  212MPD1    C4 3222   3.611   1.789  16.887 -0.7028 -0.2417  0.6567
  212MPD1    C5 3223   3.631   1.886  16.793  0.5955  1.0131 -0.1477
  212MPD1     H 3224   3.431   1.577  16.685 -0.0565  0.0938 -0.2670
  212MPD1    H1 3225   3.633   1.811  16.990  0.8055 -0.3072  0.3402
  212MPD1    H2 3226   3.609   1.960  16.605  2.4769 -1.7936 -0.8894
  212MPD1    H3 3227   3.680   1.981  16.812 -1.0082  1.5894  1.1293
  212MPD1     N 3228   3.533   1.567  16.937 -0.0028  0.3319 -0.4579
  212MPD1    H5 3229   3.554   1.598  17.032  0.3720  0.3999 -0.5628
  212MPD1    N1 3230   3.461   1.765  16.494  0.0300  0.0474 -0.0650
  212MPD1    H6 3231   3.419   1.681  16.454 -0.5639 -0.0997  0.8582
  212MPD1    H7 3232   3.492   1.833  16.425 -3.8576  0.9503 -0.9286
  213MPD1     C 3233   1.801   2.648  16.040 -0.5402  0.6906 -1.0547
  213MPD1    C1 3234   1.715   2.548  15.988  0.1442  0.2535  0.4562
  213MPD1    C2 3235   1.730   2.515  15.853 -0.3110  0.3608 -0.1348
  213MPD1    C3 3236   1.809   2.591  15.769  0.4287 -0.1954  0.4639
  213MPD1    C4 3237   1.881   2.698  15.824  0.4419  0.0842  0.6641
  213MPD1    C5 3238   1.883   2.716  15.956 -0.3382  0.1127  0.1627
  213MPD1     H 3239   1.666   2.442  15.805  0.1863 -1.0639  1.3751
  213MPD1    H1 3240   1.940   2.761  15.758  0.4884 -1.2256 -0.5472
  213MPD1    H2 3241   1.803   2.685  16.142 -0.5639 -0.1552 -0.7397
  213MPD1    H3 3242   1.959   2.776  16.003 -1.3098  1.5736 -0.1420
  213MPD1     N 3243   1.809   2.555  15.631  0.3404  0.4222 -0.1027
  213MPD1    H5 3244   1.749   2.474  15.613 -1.4298  1.2976  1.8008
  213MPD1    N1 3245   1.658   2.449  16.075 -0.5278  0.3082  0.4379
  213MPD1    H6 3246   1.624   2.488  16.163 -0.0387 -0.4499  0.9535
  213MPD1    H7 3247   1.579   2.404  16.030 -0.1343  0.7225 -0.6736
  214MPD1     C 3248   1.436   1.876  15.021 -0.3989  0.9769 -0.7454
  214MPD1    C1 3249   1.404   1.940  15.138 -0.1003 -0.9265  0.3578
  214MPD1    C2 3250   1.467   2.058  15.168 -0.5864 -0.5213  0.4315
  214MPD1    C3 3251   1.581   2.097  15.098  0.4786 -0.4677  0.5608
  214MPD1    C4 3252   1.627   2.016  14.997  0.1651 -0.4643 -0.1160
  214MPD1    C5 3253   1.554   1.907  14.962 -0.4866  0.0518 -0.1501
  214MPD1     H 3254   1.433   2.116  15.254  0.2957 -0.3624  0.6746
  214MPD1    H1 3255   1.715   2.024  14.933  2.0108 -1.1003  2.3356
  214MPD1    H2 3256   1.398   1.780  14.988  0.1908  0.7659 -0.8141
  214MPD1    H3 3257   1.591   1.846  14.880  1.9910  1.1999  0.1227
  214MPD1     N 3258   1.652   2.216  15.134 -0.0461 -0.7004 -0.0324
  214MPD1    H5 3259   1.727   2.243  15.070 -2.0955 -0.0054 -2.1379
  214MPD1    N1 3260   1.285   1.900  15.199 -0.2353 -0.4534  0.0341
  214MPD1    H6 3261   1.287   1.929  15.297  0.0742  3.1297 -1.0194
  214MPD1    H7 3262   1.278   1.799  15.207 -0.3181 -0.4126  0.5264
  215MPD1     C 3263   1.484   3.701  11.595 -0.0623  0.5119 -0.0648
  215MPD1    C1 3264   1.518   3.696  11.730  0.4322  0.0744  0.2929
  215MPD1    C2 3265   1.625   3.778  11.766  0.1514 -0.2728 -0.2829
  215MPD1    C3 3266   1.700   3.846  11.671  0.1842 -0.3168 -0.6246
  215MPD1    C4 3267   1.664   3.849  11.533 -0.2123  0.0782 -0.3853
  215MPD1    C5 3268   1.555   3.773  11.505  0.1626  1.0488 -0.2548
  215MPD1     H 3269   1.652   3.786  11.871  1.6399 -0.2247 -0.6621
  215MPD1    H1 3270   1.719   3.885  11.446 -0.4164  2.3540  0.4106
  215MPD1    H2 3271   1.391   3.659  11.560  0.5175 -1.0180  0.2062
  215MPD1    H3 3272   1.527   3.758  11.401  0.9165 -0.2934 -0.2659
  215MPD1     N 3273   1.805   3.930  11.721  0.5381 -0.4184  0.2208
  215MPD1    H5 3274   1.812   3.937  11.822  2.0359 -4.3447  0.3941
  215MPD1    N1 3275   1.440   3.636  11.826  0.2924 -0.3199  0.1633
  215MPD1    H6 3276   1.405   3.552  11.780  0.1477 -1.0076  1.5398
  215MPD1    H7 3277   1.500   3.600  11.900 -0.6527  1.6093  1.8759
  216MPD1     C 3278   3.744   1.087  16.698  0.5020 -0.3885  0.3771
  216MPD1    C1 3279   3.710   0.961  16.655 -0.7376  0.6169  0.6339
  216MPD1    C2 3280   3.709   0.865  16.756 -0.3116 -0.2511 -0.3366
  216MPD1    C3 3281   3.738   0.888  16.888 -0.4424 -0.1094  0.0587
  216MPD1    C4 3282   3.790   1.010  16.925  0.0230 -0.5955  0.4712
  216MPD1    C5 3283   3.779   1.110  16.829  0.7417  0.4241  0.0737
  216MPD1     H 3284   3.677   0.765  16.729 -0.7743 -0.0580 -0.4975
  216MPD1    H1 3285   3.823   1.035  17.026  0.2496 -0.1213  0.2807
  216MPD1    H2 3286   3.764   1.172  16.634 -2.4404  1.3463  1.7738
  216MPD1    H3 3287   3.806   1.208  16.866  3.2763 -0.3664  0.3413
  216MPD1     N 3288   3.730   0.779  16.980 -0.0024 -0.2191 -0.1056
  216MPD1    H5 3289   3.696   0.693  16.938  2.1075 -1.8261  1.4693
  216MPD1    N1 3290   3.693   0.921  16.519 -0.4502  0.3321 -0.3842
  216MPD1    H6 3291   3.651   0.987  16.454  1.0503  0.8816 -0.7865
  216MPD1    H7 3292   3.656   0.828  16.504 -0.5816  0.3319 -0.0692
  217MPD1     C 3293   3.905   2.080   8.417  0.4051 -0.6010  0.0917
  217MPD1    C1 3294   3.980   1.984   8.476 -0.0548  0.4189  0.7775
  217MPD1    C2 3295   4.088   2.019   8.561 -0.6011  0.8589  0.3970
  217MPD1    C3 3296   4.134   2.151   8.567 -0.3822 -0.8810 -0.2720
  217MPD1    C4 3297   4.048   2.244   8.505 -0.1186  0.0101  0.4284
  217MPD1    C5 3298   3.940   2.211   8.427 -0.0104  0.0819  0.1034
  217MPD1     H 3299   4.143   1.939   8.609 -2.4007 -1.5432 -1.5606
  217MPD1    H1 3300   4.079   2.348   8.499 -0.2877  0.1066  1.3057
  217MPD1    H2 3301   3.817   2.059   8.357  0.0776 -2.1596  1.1349
  217MPD1    H3 3302   3.886   2.284   8.368 -0.3961  0.9133  1.5156
  217MPD1     N 3303   4.254   2.194   8.634  0.0945  0.3823 -0.1260
  217MPD1    H5 3304   4.272   2.294   8.634  2.3917 -0.0392  0.9517
  217MPD1    N1 3305   3.923   1.854   8.482 -0.4561  0.2428  0.4424
  217MPD1    H6 3306   3.863   1.835   8.402  0.6630  0.9153 -0.5617
  217MPD1    H7 3307   3.990   1.777   8.480 -1.7684 -0.9154  0.9414
  218MPD1     C 3308   1.434   3.279  13.285  0.3026  0.5646 -0.1530
  218MPD1    C1 3309   1.540   3.201  13.315  0.0183  0.6361  0.0050
  218MPD1    C2 3310   1.631   3.171  13.221  0.7550 -0.1651  0.9247
  218MPD1    C3 3311   1.614   3.220  13.092  0.1735 -0.1218 -0.1696
  218MPD1    C4 3312   1.501   3.292  13.058 -0.2468  0.2521  0.3165
  218MPD1    C5 3313   1.417   3.328  13.163 -0.5142 -0.5170 -0.4066
  218MPD1     H 3314   1.721   3.116  13.246 -0.2244 -1.0801  2.4591
  218MPD1    H1 3315   1.476   3.351  12.971 -0.5966 -3.0068 -1.7965
  218MPD1    H2 3316   1.368   3.301  13.369  0.0247 -2.1205  0.3187
  218MPD1    H3 3317   1.334   3.390  13.131 -0.8621 -0.9644 -0.3844
  218MPD1     N 3318   1.713   3.208  12.996 -0.0387 -0.5781  0.5751
  218MPD1    H5 3319   1.808   3.188  13.026 -1.0195  1.6583  5.2457
  218MPD1    N1 3320   1.556   3.160  13.447  0.0878  1.0836 -0.5700
  218MPD1    H6 3321   1.654   3.137  13.461 -0.3934 -1.1141 -0.8877
  218MPD1    H7 3322   1.540   3.236  13.512  1.8803  1.4646 -0.5716
  219MPD1     C 3323   2.175   3.477  12.027 -0.3444 -0.2569 -0.1169
  219MPD1    C1 3324   2.083   3.551  12.098  0.4018 -0.2264  0.4780
  219MPD1    C2 3325   2.054   3.516  12.227 -0.2883  0.2050 -0.8596
  219MPD1    C3 3326   2.113   3.409  12.287 -0.5227  0.7155 -0.4712
  219MPD1    C4 3327   2.204   3.341  12.214 -0.3081 -0.6242  0.1380
  219MPD1    C5 3328   2.241   3.372  12.086  0.3578  0.6145 -0.4003
  219MPD1     H 3329   2.002   3.587  12.290  1.1626 -0.9146  1.6115
  219MPD1    H1 3330   2.256   3.251  12.245  1.8251  0.0317 -1.5283
  219MPD1    H2 3331   2.186   3.498  11.921 -0.1931 -0.8518 -0.2182
  219MPD1    H3 3332   2.307   3.311  12.026  0.7250  0.9157 -0.3036
  219MPD1     N 3333   2.080   3.359  12.417 -0.3675  0.2205 -0.7486
  219MPD1    H5 3334   2.132   3.281  12.455 -0.5682  0.9498  1.0597
  219MPD1    N1 3335   1.998   3.645  12.034 -0.4283 -0.4000 -0.5048
  219MPD1    H6 3336   1.980   3.710  12.111 -2.1709  0.0750 -1.3254
  219MPD1    H7 3337   2.037   3.702  11.959 -0.0167  2.3632  1.7769
  220MPD1     C 3338   1.670   4.660   9.987  0.1796  0.3687  0.3581
  220MPD1    C1 3339   1.638   4.523   9.976  0.0310 -0.0235  0.6920
  220MPD1    C2 3340   1.680   4.441  10.084  0.2864  1.0376  0.5322
  220MPD1    C3 3341   1.770   4.486  10.178  0.0353  0.2796  0.5650
  220MPD1    C4 3342   1.817   4.623  10.171 -0.3330 -0.8008 -0.0503
  220MPD1    C5 3343   1.762   4.703  10.080  0.2888  0.1639 -0.1827
  220MPD1     H 3344   1.641   4.341  10.097  1.4746  0.7875  2.2026
  220MPD1    H1 3345   1.883   4.661  10.249  0.8720 -0.9200 -1.0114
  220MPD1    H2 3346   1.629   0.020   9.925 -0.8431 -0.6051 -0.1983
  220MPD1    H3 3347   1.799   0.085  10.075 -4.1866  1.8357  1.3061
  220MPD1     N 3348   1.803   4.402  10.289 -0.4089 -0.2876 -0.0979
  220MPD1    H5 3349   1.756   4.312  10.293 -0.9841  0.0187  0.0240
  220MPD1    N1 3350   1.526   4.485   9.901 -0.4340  0.7088 -0.0878
  220MPD1    H6 3351   1.529   4.536   9.812  0.5673 -0.2923 -0.6332
  220MPD1    H7 3352   1.525   4.389   9.867 -0.2032  0.6808 -0.0168
  221MPD1     C 3353   3.311   2.960  16.397  0.4666  0.2569 -0.5838
  221MPD1    C1 3354   3.364   3.051  16.482  0.4341 -0.6112 -0.5971
  221MPD1    C2 3355   3.501   3.074  16.474 -0.3904 -0.6064 -0.1064
  221MPD1    C3 3356   3.585   2.995  16.402 -0.0637  0.3243  1.0104
  221MPD1    C4 3357   3.534   2.885  16.341 -0.0821 -0.3625  0.1628
  221MPD1    C5 3358   3.399   2.866  16.342  0.0120  0.1076 -1.0833
  221MPD1     H 3359   3.534   3.151  16.542  1.3339 -3.3085  2.1097
  221MPD1    H1 3360   3.595   2.816  16.284 -0.4453  0.1975 -0.9085
  221MPD1    H2 3361   3.204   2.946  16.387  0.0471  3.3258 -0.5593
  221MPD1    H3 3362   3.358   2.786  16.281 -0.3731 -0.4501 -0.0975
  221MPD1     N 3363   3.729   3.005  16.393 -0.0054 -0.3388 -0.0619
  221MPD1    H5 3364   3.774   2.929  16.342  0.9332  0.1062  0.1020
  221MPD1    N1 3365   3.274   3.125  16.556  0.2464  0.3603 -0.2779
  221MPD1    H6 3366   3.203   3.065  16.597  0.5483 -0.0580 -0.3755
  221MPD1    H7 3367   3.320   3.186  16.623  0.1690  0.4832 -0.3355
  222MPD1     C 3368   0.402   1.251   0.740 -0.0054 -0.7356  0.5272
  222MPD1    C1 3369   0.354   1.294   0.619  1.1602  0.2369  0.4351
  222MPD1    C2 3370   0.216   1.286   0.606 -0.4203 -0.1442  0.0453
  222MPD1    C3 3371   0.128   1.226   0.698 -0.5134 -0.3240  0.4907
  222MPD1    C4 3372   0.187   1.176   0.815 -0.2835 -0.0818  1.0058
  222MPD1    C5 3373   0.320   1.198   0.835 -0.0049 -0.1236 -0.8286
  222MPD1     H 3374   0.170   1.324   0.516  2.4421 -1.0408 -1.7831
  222MPD1    H1 3375   0.129   1.136   0.897  1.2338  1.9479  3.0812
  222MPD1    H2 3376   0.504   1.257   0.774  0.8962 -1.1853 -2.1419
  222MPD1    H3 3377   0.359   1.171   0.932  0.3626 -0.5515 -1.0941
  222MPD1     N 3378   4.711   1.212   0.682 -0.3820 -0.1640  0.0025
  222MPD1    H5 3379   4.660   1.143   0.736 -0.7982  0.0027 -0.1739
  222MPD1    N1 3380   0.435   1.371   0.529 -0.0095 -0.2397 -0.0989
  222MPD1    H6 3381   0.533   1.343   0.535  0.3963  1.4847  1.1528
  222MPD1    H7 3382   0.394   1.375   0.436  0.0268 -1.3352 -0.1702
  223MPD1     C 3383   4.077   0.498   0.531  1.1755  0.5471  0.4868
  223MPD1    C1 3384   3.996   0.603   0.493 -0.3181  0.4914  0.1798
  223MPD1    C2 3385   4.056   0.718   0.461  1.0760  0.4829  0.3944
  223MPD1    C3 3386   4.193   0.739   0.465  0.1478  0.5579  0.4304
  223MPD1    C4 3387   4.274   0.637   0.504  0.0838  0.8021  0.9300
  223MPD1    C5 3388   4.213   0.515   0.531  0.2350  0.6118  0.1121
  223MPD1     H 3389   4.001   0.811   0.459  0.6479  0.1920 -1.2616
  223MPD1    H1 3390   4.382   0.645   0.512  0.2008 -0.8085  0.8387
  223MPD1    H2 3391   4.032   0.411   0.578 -0.2041  0.7390 -0.4659
  223MPD1    H3 3392   4.274   0.431   0.561  3.1593  2.1287 -1.5690
  223MPD1     N 3393   4.243   0.872   0.460 -0.0944  0.2634 -0.1850
  223MPD1    H5 3394   4.175   0.948   0.458  2.0632  2.1773 -1.7564
  223MPD1    N1 3395   3.863   0.596   0.531 -0.5909  0.0688  0.4150
  223MPD1    H6 3396   3.835   0.498   0.539 -0.0790  0.0004  1.2965
  223MPD1    H7 3397   3.795   0.658   0.486 -0.6554  1.0234  1.8303
  224MPD1     C 3398   4.241   2.689   8.647  0.7527 -0.1723  0.1138
  224MPD1    C1 3399   4.358   2.610   8.624  0.1789 -0.7269 -0.1066
  224MPD1    C2 3400   4.474   2.642   8.696  0.6787 -0.0511  0.0839
  224MPD1    C3 3401   4.478   2.744   8.791  0.8031 -0.5439  0.8494
  224MPD1    C4 3402   4.369   2.819   8.809  0.8502 -0.1909 -0.1872
  224MPD1    C5 3403   4.252   2.789   8.738 -0.3695 -0.3044  0.1867
  224MPD1     H 3404   4.560   2.577   8.682  0.4952 -0.7755  2.4008
  224MPD1    H1 3405   4.381   2.894   8.886  0.0734  0.9210 -1.1498
  224MPD1    H2 3406   4.151   2.687   8.586  1.0822  0.3006 -0.3797
  224MPD1    H3 3407   4.169   2.859   8.745  0.2185  0.3374  0.7638
  224MPD1     N 3408   4.588   2.759   8.882  0.5986 -0.0481 -0.3241
  224MPD1    H5 3409   4.601   2.849   8.928  0.0732  0.2097 -0.6893
  224MPD1    N1 3410   4.343   2.490   8.555  0.2665 -0.5232  0.2443
  224MPD1    H6 3411   4.430   2.447   8.525  0.3843 -3.1402  4.4089
  224MPD1    H7 3412   4.284   2.494   8.472  0.0023 -0.9469  0.4100
  225MPD1     C 3413   1.067   4.194  12.985 -0.0434 -0.1759  0.5172
  225MPD1    C1 3414   1.070   4.067  12.931 -0.0000 -0.1993  1.4117
  225MPD1    C2 3415   1.082   4.052  12.794 -0.2050  0.0515 -0.1224
  225MPD1    C3 3416   1.115   4.162  12.714 -0.5236 -0.2282 -0.2280
  225MPD1    C4 3417   1.120   4.290  12.776  0.6138 -0.5104  0.4612
  225MPD1    C5 3418   1.094   4.306  12.907  0.4152  0.0213 -0.1091
  225MPD1     H 3419   1.072   3.952  12.752  2.9655  0.2631 -1.3808
  225MPD1    H1 3420   1.164   4.378  12.732 -1.0468  0.8135  1.4602
  225MPD1    H2 3421   1.055   4.217  13.090 -1.5907 -1.1419  0.5632
  225MPD1    H3 3422   1.088   4.408  12.941  1.1239 -0.3494  1.1357
  225MPD1     N 3423   1.127   4.150  12.573  0.1042 -0.0208  0.5229
  225MPD1    H5 3424   1.124   4.243  12.533  0.5842 -0.9278 -1.6495
  225MPD1    N1 3425   1.018   3.953  13.007 -0.3169 -0.2213  0.2572
  225MPD1    H6 3426   1.056   3.950  13.101 -2.6158 -1.4997  1.1333
  225MPD1    H7 3427   1.024   3.862  12.963 -0.6955  0.8803 -2.0985
  226MPD1     C 3428   4.588   2.076   8.372 -0.5012  0.5134 -0.4369
  226MPD1    C1 3429   4.709   2.093   8.441 -0.0707 -0.8493 -0.0067
  226MPD1    C2 3430   0.030   2.225   8.467  0.0859 -0.3020 -0.5821
  226MPD1    C3 3431   4.688   2.337   8.410  0.2404  0.0182  0.4053
  226MPD1    C4 3432   4.570   2.316   8.339  0.2502  0.0388 -0.5342
  226MPD1    C5 3433   4.526   2.186   8.322  0.5295 -0.0564 -0.7242
  226MPD1     H 3434   0.114   2.229   8.536 -1.1417  0.3339  0.8617
  226MPD1    H1 3435   4.512   2.398   8.300  0.9394  0.3093 -0.9857
  226MPD1    H2 3436   4.548   1.978   8.350  1.8315 -0.2108 -1.4908
  226MPD1    H3 3437   4.432   2.162   8.274  0.2682 -0.1760 -0.1516
  226MPD1     N 3438   0.018   2.469   8.433 -0.6067 -0.5079  0.1790
  226MPD1    H5 3439   0.079   2.471   8.513 -0.2213 -2.1687 -0.0660
  226MPD1    N1 3440   0.050   1.990   8.508 -0.1293  0.8413  0.5040
  226MPD1    H6 3441   0.010   1.899   8.485  1.2085  0.0841  1.1545
  226MPD1    H7 3442   0.149   2.005   8.494 -0.2206  1.8982  1.0223
  227MPD1     C 3443   4.151   3.296   8.474  0.0606  0.1912 -0.4324
  227MPD1    C1 3444   4.149   3.196   8.373  1.1964  0.6327 -0.3316
  227MPD1    C2 3445   4.250   3.099   8.382  0.4789 -0.3165 -0.0591
  227MPD1    C3 3446   4.357   3.113   8.470  0.9240  0.5155 -0.2854
  227MPD1    C4 3447   4.353   3.218   8.559 -0.0585  0.0171  0.5921
  227MPD1    C5 3448   4.247   3.298   8.568  0.7186  0.1561 -0.1154
  227MPD1     H 3449   4.251   3.017   8.311  2.4327  1.7651 -2.4068
  227MPD1    H1 3450   4.424   3.235   8.639 -0.0505  0.9658  0.3785
  227MPD1    H2 3451   4.071   3.368   8.485  0.9009  0.9019  1.0585
  227MPD1    H3 3452   4.247   3.373   8.647  1.9749 -0.2293  0.2517
  227MPD1     N 3453   4.467   3.023   8.462  0.0185  0.2250 -0.1795
  227MPD1    H5 3454   4.462   2.950   8.391  2.8541 -0.7079  0.5633
  227MPD1    N1 3455   4.034   3.172   8.291 -0.1123 -0.3360  0.6966
  227MPD1    H6 3456   4.061   3.108   8.217 -3.5626 -2.4758  1.2737
  227MPD1    H7 3457   3.997   3.256   8.247  2.0527  0.3974  0.3010
  228MPD1     C 3458   3.004   1.710  13.271  0.5935  0.4453 -0.1505
  228MPD1    C1 3459   2.924   1.603  13.277  0.5955 -0.0431  0.2849
  228MPD1    C2 3460   2.800   1.610  13.217  0.2786 -0.1547  0.4313
  228MPD1    C3 3461   2.754   1.727  13.159  0.7139 -0.4606 -0.4430
  228MPD1    C4 3462   2.841   1.835  13.154 -0.0372 -0.1991 -0.5326
  228MPD1    C5 3463   2.969   1.821  13.201 -0.0022  0.5448 -0.0122
  228MPD1     H 3464   2.732   1.526  13.223  0.5669 -0.5027 -1.2012
  228MPD1    H1 3465   2.817   1.921  13.093 -0.8339  0.8683  1.2924
  228MPD1    H2 3466   3.103   1.704  13.314  0.1595 -0.2660  0.7610
  228MPD1    H3 3467   3.033   1.908  13.198 -0.5793  0.9291 -1.2438
  228MPD1     N 3468   2.617   1.726  13.119 -0.3225 -0.2392  0.4060
  228MPD1    H5 3469   2.566   1.638  13.126 -3.3036  1.6619  2.6108
  228MPD1    N1 3470   2.979   1.481  13.316 -0.1696  0.6090  0.6127
  228MPD1    H6 3471   2.909   1.426  13.367 -1.4767  0.0968 -1.7666
  228MPD1    H7 3472   3.043   1.494  13.395  0.5590 -2.1542  0.4980
  229MPD1     C 3473   2.206   0.852  14.418 -0.4552 -0.4079  0.2260
  229MPD1    C1 3474   2.285   0.767  14.335 -0.0450 -0.2762 -0.4490
  229MPD1    C2 3475   2.371   0.675  14.397 -0.6703  0.3635 -0.2630
  229MPD1    C3 3476   2.385   0.671  14.534  0.4393  0.9831 -0.5948
  229MPD1    C4 3477   2.293   0.734  14.615 -0.0858 -0.6065  0.3385
  229MPD1    C5 3478   2.208   0.829  14.552 -0.1803  0.3132  0.0736
  229MPD1     H 3479   2.426   0.604  14.336 -0.1115  0.8656 -0.3303
  229MPD1    H1 3480   2.309   0.741  14.722 -2.8252 -1.6602  0.8171
  229MPD1    H2 3481   2.139   0.931  14.385 -0.2719 -0.4556 -0.2582
  229MPD1    H3 3482   2.148   0.901  14.607 -0.0464 -0.8922  1.7946
  229MPD1     N 3483   2.470   0.581  14.601 -0.0388  0.3902  0.0641
  229MPD1    H5 3484   2.454   0.572  14.701 -0.8877  1.0472 -0.0131
  229MPD1    N1 3485   2.287   0.780  14.198 -0.1122  0.6638 -0.3894
  229MPD1    H6 3486   2.334   0.699  14.156 -1.7821 -1.0402  1.0456
  229MPD1    H7 3487   2.196   0.787  14.153  0.9989 -1.6448 -3.0723
  230MPD1     C 3488   2.923   0.178  15.367  0.0148  0.5972 -0.8978
  230MPD1    C1 3489   2.996   0.122  15.264  0.2650 -0.6275  0.0316
  230MPD1    C2 3490   2.938   0.122  15.142 -0.5748 -0.1401  0.3619
  230MPD1    C3 3491   2.814   0.188  15.118  0.1885 -0.7625 -0.5548
  230MPD1    C4 3492   2.757   0.255  15.222 -0.3639 -0.4920 -0.1131
  230MPD1    C5 3493   2.814   0.247  15.346 -0.1011  0.4387  0.0845
  230MPD1     H 3494   2.992   0.082  15.057  2.8619  0.4784  2.2504
  230MPD1    H1 3495   2.673   0.322  15.210 -0.5356 -0.3391  1.9524
  230MPD1    H2 3496   2.958   0.182  15.469 -0.5245  1.3990 -0.7446
  230MPD1    H3 3497   2.749   0.292  15.420 -1.6977  1.2734 -1.8374
  230MPD1     N 3498   2.766   0.190  14.985 -0.1964 -0.1394 -0.1682
  230MPD1    H5 3499   2.812   0.132  14.915 -1.6484 -1.1726 -0.2613
  230MPD1    N1 3500   3.107   0.044  15.279 -0.0692  0.8807 -0.0724
  230MPD1    H6 3501   3.160   0.011  15.199 -0.0139 -0.5327  0.5499
  230MPD1    H7 3502   3.168   0.059  15.359 -0.7775  1.6498  0.3296
  231MPD1     C 3503   1.136   2.962  15.691  0.0667  0.6885  0.3372
  231MPD1    C1 3504   1.080   2.888  15.587 -0.0461 -0.1061  0.2905
  231MPD1    C2 3505   1.153   2.891  15.470 -0.1472 -0.6445  0.1720
  231MPD1    C3 3506   1.263   2.974  15.444 -0.0505 -0.2537  0.2279
  231MPD1    C4 3507   1.300   3.058  15.552  0.7878 -0.8312  0.1522
  231MPD1    C5 3508   1.238   3.045  15.666  0.6360  0.7375  0.1248
  231MPD1     H 3509   1.105   2.840  15.387 -0.5000 -0.4420  0.2502
  231MPD1    H1 3510   1.378   3.133  15.545 -1.1651  1.1960  0.0241
  231MPD1    H2 3511   1.100   2.955  15.793 -0.3345  0.4534  0.1805
  231MPD1    H3 3512   1.284   3.098  15.749 -1.0626 -1.7103  2.6066
  231MPD1     N 3513   1.316   2.979  15.314 -0.6119  0.6296  0.0704
  231MPD1    H5 3514   1.291   2.900  15.256  1.7631 -0.3492  0.3936
  231MPD1    N1 3515   0.988   2.785  15.613  1.0715 -0.2301 -0.0079
  231MPD1    H6 3516   0.947   2.751  15.526  0.1982 -0.6268  0.5483
  231MPD1    H7 3517   0.924   2.817  15.685  1.0303  0.1782 -0.2298
  232MPD1     C 3518   3.082   1.653   0.119  0.2245 -0.3597 -0.1806
  232MPD1    C1 3519   3.079   1.544   0.030 -0.5809 -0.2124 -0.6344
  232MPD1    C2 3520   3.012   1.430   0.079  0.5051  0.1896  0.1223
  232MPD1    C3 3521   2.942   1.437   0.200 -0.4568 -0.4145  0.2036
  232MPD1    C4 3522   2.944   1.548   0.284 -0.1255 -0.2038 -0.3669
  232MPD1    C5 3523   3.011   1.650   0.237  0.0833 -0.0594 -0.0882
  232MPD1     H 3524   3.019   1.341   0.017  2.7673  1.8938 -2.0795
  232MPD1    H1 3525   2.890   1.557   0.378  1.0144 -0.5850  0.3162
  232MPD1    H2 3526   3.139   1.743   0.100  0.7990 -0.6158  0.3302
  232MPD1    H3 3527   3.015   1.739   0.299  2.5372  0.7427 -1.4001
  232MPD1     N 3528   2.879   1.312   0.235 -0.2420 -0.3896  0.2876
  232MPD1    H5 3529   2.871   1.235   0.169 -2.6728 -1.0784  1.3820
  232MPD1    N1 3530   3.152   1.538  17.596 -0.0767 -0.7322  0.4209
  232MPD1    H6 3531   3.115   1.489  17.515 -0.2606 -0.3257  0.2614
  232MPD1    H7 3532   3.185   1.629  17.565 -0.8111 -0.9936 -1.1403
  233MPD1     C 3533   3.663   1.622   0.997  0.3023 -0.1220 -0.6411
  233MPD1    C1 3534   3.765   1.544   1.044 -0.2439  0.8048  0.0921
  233MPD1    C2 3535   3.859   1.596   1.128 -0.3078  0.4102  0.7160
  233MPD1    C3 3536   3.861   1.734   1.144 -0.0622 -0.0041  0.4077
  233MPD1    C4 3537   3.764   1.811   1.087 -0.0601  0.3625  0.0284
  233MPD1    C5 3538   3.658   1.757   1.021  0.3210 -0.5305 -0.5819
  233MPD1     H 3539   3.921   1.525   1.182  0.6215  0.9529  0.3486
  233MPD1    H1 3540   3.763   1.918   1.103  0.0580  0.0802  1.9932
  233MPD1    H2 3541   3.580   1.576   0.945 -0.2421 -1.1975  1.1679
  233MPD1    H3 3542   3.578   1.825   0.992 -2.4055 -2.9303  1.3172
  233MPD1     N 3543   3.962   1.803   1.219 -0.2682 -0.4766 -0.3625
  233MPD1    H5 3544   3.963   1.904   1.209 -1.0970 -0.6340 -1.9992
  233MPD1    N1 3545   3.745   1.404   1.027 -0.3867 -0.3903  0.8977
  233MPD1    H6 3546   3.836   1.359   1.024 -1.6816 -2.9366 -0.7249
  233MPD1    H7 3547   3.708   1.383   0.934  2.6880 -0.8579 -0.2136
  234MPD1     C 3548   1.100   1.275   9.062 -0.0637  0.3704  0.6980
  234MPD1    C1 3549   0.971   1.238   9.094  0.0666 -0.1241  0.8453
  234MPD1    C2 3550   0.895   1.341   9.150  0.3019  0.1240 -0.2462
  234MPD1    C3 3551   0.949   1.461   9.195  0.3905 -0.7484  0.2130
  234MPD1    C4 3552   1.084   1.482   9.183 -0.2505  0.2803 -0.0130
  234MPD1    C5 3553   1.154   1.395   9.108  0.2505 -0.6146 -0.3334
  234MPD1     H 3554   0.788   1.333   9.136  0.3972 -1.7635  0.0826
  234MPD1    H1 3555   1.132   1.576   9.210  1.3110 -0.3749 -0.4799
  234MPD1    H2 3556   1.155   1.217   8.988 -0.4244  0.5315  0.3019
  234MPD1    H3 3557   1.252   1.425   9.073 -0.1738  0.7380 -0.3752
  234MPD1     N 3558   0.864   1.567   9.242  0.0720  0.9571  0.6570
  234MPD1    H5 3559   0.766   1.547   9.261  1.3032 -2.5609  3.3025
  234MPD1    N1 3560   0.918   1.122   9.028 -0.0401 -0.5308 -0.3783
  234MPD1    H6 3561   0.843   1.084   9.086 -1.3363  1.5236 -0.7294
  234MPD1    H7 3562   0.992   1.054   9.012 -0.3690 -0.8962 -0.3447
  235MPD1     C 3563   1.284   0.277   9.399  0.2941  0.4707 -0.2926
  235MPD1    C1 3564   1.315   0.398   9.351 -0.0781  0.0492 -0.0135
  235MPD1    C2 3565   1.436   0.448   9.386  0.1254  0.6363  0.0544
  235MPD1    C3 3566   1.529   0.381   9.454  0.6895 -0.3610 -0.8611
  235MPD1    C4 3567   1.498   0.256   9.506 -0.8802 -0.0349  0.3603
  235MPD1    C5 3568   1.373   0.209   9.476 -0.0449  0.6363 -0.4203
  235MPD1     H 3569   1.455   0.552   9.359  2.3829  0.2172  0.0461
  235MPD1    H1 3570   1.563   0.203   9.574 -2.1708 -0.8402  0.9724
  235MPD1    H2 3571   1.190   0.226   9.378 -1.0122  2.7764 -0.0683
  235MPD1    H3 3572   1.332   0.122   9.526 -0.1925  0.8740 -0.1266
  235MPD1     N 3573   1.649   0.450   9.480 -0.5057 -0.3084  0.3523
  235MPD1    H5 3574   1.661   0.538   9.431 -0.0561  0.2150  1.4099
  235MPD1    N1 3575   1.207   0.465   9.303  0.0399 -0.6726 -0.3234
  235MPD1    H6 3576   1.160   0.409   9.233 -0.0706 -0.1265 -0.6826
  235MPD1    H7 3577   1.228   0.548   9.248  1.0126 -0.6511  0.0786
  236MPD1     C 3578   1.620   1.435   9.915 -0.2685 -0.3360 -0.0892
  236MPD1    C1 3579   1.519   1.337   9.897  1.4460 -0.0591 -0.6153
  236MPD1    C2 3580   1.544   1.212   9.959  0.5784 -0.4583 -0.0650
  236MPD1    C3 3581   1.673   1.189  10.019 -0.0967 -0.3189  0.1185
  236MPD1    C4 3582   1.758   1.296  10.035 -0.8031  0.0607 -0.3694
  236MPD1    C5 3583   1.728   1.419   9.988 -0.2650 -0.0740 -0.3323
  236MPD1     H 3584   1.467   1.135   9.958  1.1343 -1.0287  0.6989
  236MPD1    H1 3585   1.852   1.279  10.086 -0.5588 -1.4727 -1.3099
  236MPD1    H2 3586   1.616   1.527   9.858  2.6249 -0.1815 -0.0671
  236MPD1    H3 3587   1.796   1.503   9.995 -0.2970  0.0138 -1.0668
  236MPD1     N 3588   1.718   1.067  10.070 -0.1499 -0.3264 -0.6176
  236MPD1    H5 3589   1.812   1.056  10.106  0.6446  2.6094 -1.7817
  236MPD1    N1 3590   1.408   1.363   9.816  0.0045 -0.1014 -0.5147
  236MPD1    H6 3591   1.378   1.458   9.838 -1.2883 -0.9487  1.4246
  236MPD1    H7 3592   1.331   1.306   9.852 -0.1992  0.5942  0.1515
  237MPD1     C 3593   0.900   3.510  16.342  0.1698  0.7711  0.2105
  237MPD1    C1 3594   0.777   3.458  16.320 -0.2226  0.1247  0.0380
  237MPD1    C2 3595   0.723   3.484  16.200 -0.5429  0.0720  0.0861
  237MPD1    C3 3596   0.769   3.583  16.119  0.3135 -0.6765 -0.3580
  237MPD1    C4 3597   0.892   3.642  16.156 -0.2763 -0.3457 -0.5159
  237MPD1    C5 3598   0.955   3.605  16.269  0.1847 -0.2543 -0.2424
  237MPD1     H 3599   0.639   3.424  16.167  0.3047 -0.3996 -1.2275
  237MPD1    H1 3600   0.954   3.704  16.092  2.9344 -0.3094  2.6067
  237MPD1    H2 3601   0.962   3.483  16.427  0.3424 -1.8668 -0.7764
  237MPD1    H3 3602   1.051   3.646  16.299 -0.8906  0.5871  2.0598
  237MPD1     N 3603   0.717   3.610  15.988  0.7931  0.6160 -0.0425
  237MPD1    H5 3604   0.762   3.675  15.925  2.4456 -1.0043 -0.5201
  237MPD1    N1 3605   0.736   3.341  16.396  0.6350  0.6996 -0.7018
  237MPD1    H6 3606   0.764   3.360  16.492 -0.3054 -0.6938 -0.1493
  237MPD1    H7 3607   0.798   3.265  16.369  0.0699  0.0701 -0.2474
  238MPD1     C 3608   3.623   2.083  15.045  0.2808  0.3352  0.2519
  238MPD1    C1 3609   3.524   2.065  15.143 -0.0442  0.3429  0.1057
  238MPD1    C2 3610   3.397   2.105  15.102  0.0541  0.0689  0.6752
  238MPD1    C3 3611   3.358   2.145  14.975 -0.3915 -0.3106  0.0168
  238MPD1    C4 3612   3.461   2.153  14.881 -0.4043  0.3919  0.1637
  238MPD1    C5 3613   3.586   2.128  14.915 -1.0217 -1.0377  0.5118
  238MPD1     H 3614   3.321   2.064  15.167  0.3865 -4.0409 -1.4946
  238MPD1    H1 3615   3.439   2.173  14.777 -0.0344 -1.9932 -0.3751
  238MPD1    H2 3616   3.725   2.062  15.074  0.1241 -1.4969 -0.5273
  238MPD1    H3 3617   3.666   2.142  14.844 -1.3521 -1.6504  0.0300
  238MPD1     N 3618   3.228   2.179  14.934  0.6003  0.3796  0.1340
  238MPD1    H5 3619   3.221   2.209  14.837 -2.2785 -0.8575 -0.0596
  238MPD1    N1 3620   3.554   1.988  15.254  0.0534  0.2645 -0.4029
  238MPD1    H6 3621   3.654   1.977  15.265  0.1647  0.3154 -1.3344
  238MPD1    H7 3622   3.529   2.045  15.335 -0.1865 -0.0107 -0.2849
  239MPD1     C 3623   3.322   3.231  15.068  0.0326  0.5144  0.1045
  239MPD1    C1 3624   3.417   3.249  14.974  0.5576  0.0583  0.2780
  239MPD1    C2 3625   3.372   3.270  14.842  0.1567 -0.0925 -0.2464
  239MPD1    C3 3626   3.239   3.283  14.803  0.8113  0.7229  0.7815
  239MPD1    C4 3627   3.145   3.270  14.899 -0.1768  0.5067  0.0500
  239MPD1    C5 3628   3.188   3.242  15.030 -0.3906  0.2235  0.3533
  239MPD1     H 3629   3.454   3.285  14.772 -1.8252  0.3191 -2.4648
  239MPD1    H1 3630   3.040   3.255  14.878  0.3223  0.2625 -2.2761
  239MPD1    H2 3631   3.361   3.207  15.166 -0.2655  2.4060  0.7002
  239MPD1    H3 3632   3.106   3.232  15.100  0.2148  2.4391  1.3869
  239MPD1     N 3633   3.194   3.317  14.671  0.5002  0.4046 -0.2798
  239MPD1    H5 3634   3.097   3.335  14.646  0.7571  0.2718 -1.3563
  239MPD1    N1 3635   3.558   3.240  15.000 -0.2257  0.0272 -0.7307
  239MPD1    H6 3636   3.621   3.300  14.948  1.5215 -0.9555  0.2562
  239MPD1    H7 3637   3.580   3.235  15.099  2.0540 -0.8853 -1.2947
  240MPD1     C 3638   2.606   2.973  13.594  0.2742 -0.3302 -0.7711
  240MPD1    C1 3639   2.510   3.013  13.679 -0.6096 -0.2092 -0.1913
  240MPD1    C2 3640   2.529   3.002  13.815 -0.2464 -0.1406  0.0286
  240MPD1    C3 3641   2.648   2.947  13.861 -0.4273  0.2788 -0.2311
  240MPD1    C4 3642   2.751   2.918  13.769 -0.1452 -0.4200  0.0214
  240MPD1    C5 3643   2.733   2.946  13.641  0.2230  0.7475 -0.1218
  240MPD1     H 3644   2.447   3.027  13.881 -0.1011  1.1009 -0.2624
  240MPD1    H1 3645   2.851   2.881  13.790  0.8804  2.2551 -0.0313
  240MPD1    H2 3646   2.582   2.971  13.488 -0.4729  1.2291 -0.6268
  240MPD1    H3 3647   2.807   2.916  13.568 -1.5689 -1.1387 -1.1817
  240MPD1     N 3648   2.674   2.929  13.999  0.0775 -0.2209  0.0313
  240MPD1    H5 3649   2.599   2.953  14.064  1.2909  0.8054  1.0463
  240MPD1    N1 3650   2.389   3.059  13.623 -0.2011 -0.1701 -0.0666
  240MPD1    H6 3651   2.406   3.142  13.566 -0.4979 -0.5602 -0.7240
  240MPD1    H7 3652   2.317   3.083  13.691 -0.9614  0.2587 -1.0147
  241MPD1     C 3653   3.230   2.551  14.905 -0.1482  0.6830  0.5862
  241MPD1    C1 3654   3.262   2.539  14.774 -1.1192  0.3421 -0.3919
  241MPD1    C2 3655   3.181   2.594  14.680 -0.4102 -0.1884  0.0477
  241MPD1    C3 3656   3.068   2.672  14.714 -1.0221  0.6620 -0.4363
  241MPD1    C4 3657   3.045   2.693  14.853  0.1881  0.0365 -0.2600
  241MPD1    C5 3658   3.130   2.633  14.939  0.1456  0.4891 -0.2300
  241MPD1     H 3659   3.199   2.572  14.576 -1.3073 -2.4872  0.3611
  241MPD1    H1 3660   2.961   2.750  14.889 -1.0652 -1.7927 -0.2574
  241MPD1    H2 3661   3.302   2.515  14.977 -0.7284  0.3010  0.9752
  241MPD1    H3 3662   3.118   2.660  15.044  0.4964  0.4166 -0.1725
  241MPD1     N 3663   2.978   2.719  14.611  0.7005  0.2710 -0.3370
  241MPD1    H5 3664   2.894   2.760  14.652 -0.7258 -2.6912 -0.2844
  241MPD1    N1 3665   3.368   2.457  14.729 -0.2042  0.8100 -0.1443
  241MPD1    H6 3666   3.454   2.467  14.783 -0.0364 -0.3580 -0.1987
  241MPD1    H7 3667   3.392   2.490  14.636 -0.5011  0.6300 -0.2848
  242MPD1     C 3668   2.177   1.753  15.441  0.3307 -0.4110 -0.0846
  242MPD1    C1 3669   2.072   1.662  15.424 -0.1052 -0.6021  0.6640
  242MPD1    C2 3670   2.090   1.570  15.319  0.4398  0.7475  0.1214
  242MPD1    C3 3671   2.185   1.586  15.214  0.1758 -0.7724  0.3915
  242MPD1    C4 3672   2.278   1.685  15.239 -0.3688  0.2675  0.0644
  242MPD1    C5 3673   2.276   1.759  15.354 -0.7704  0.1391 -0.1928
  242MPD1     H 3674   2.016   1.491  15.314 -0.6376  1.7865 -0.2333
  242MPD1    H1 3675   2.366   1.704  15.179 -0.2453  1.7119  0.7067
  242MPD1    H2 3676   2.186   1.811  15.532  0.5413 -1.3438  0.4936
  242MPD1    H3 3677   2.365   1.816  15.376 -0.5604  0.1829 -1.1639
  242MPD1     N 3678   2.206   1.497  15.106  0.3737  0.7228  0.1001
  242MPD1    H5 3679   2.292   1.500  15.051 -0.5284 -0.2804 -1.3743
  242MPD1    N1 3680   1.980   1.639  15.527  0.3191 -0.1724  0.0662
  242MPD1    H6 3681   1.892   1.604  15.490  0.5601 -1.5597  0.8025
  242MPD1    H7 3682   1.958   1.726  15.574  1.9738 -0.1145  0.7098
  243MPD1     C 3683   2.449   3.600  17.188  0.0466 -0.7079 -0.4265
  243MPD1    C1 3684   2.500   3.553  17.303  0.2064  0.2202 -0.2197
  243MPD1    C2 3685   2.634   3.579  17.325 -0.3148 -0.2703 -0.1870
  243MPD1    C3 3686   2.715   3.661  17.242 -0.1432  0.1052  0.1741
  243MPD1    C4 3687   2.651   3.718  17.134 -0.1409 -0.3710 -0.3922
  243MPD1    C5 3688   2.519   3.682  17.106 -0.3376  0.0243  0.2291
  243MPD1     H 3689   2.684   3.537  17.411 -0.3650 -0.5178 -0.2768
  243MPD1    H1 3690   2.710   3.785  17.073 -0.8364  1.1608  0.6169
  243MPD1    H2 3691   2.346   3.578  17.163 -0.0676 -1.1870  0.4783
  243MPD1    H3 3692   2.467   3.711  17.015 -1.2378 -1.1182  0.3686
  243MPD1     N 3693   2.844   3.698  17.288  0.2497  0.1642 -0.0049
  243MPD1    H5 3694   2.870   3.660  17.379 -1.8206 -0.5729  0.2706
  243MPD1    N1 3695   2.421   3.510  17.410  0.1711 -0.2929 -0.3246
  243MPD1    H6 3696   2.474   3.464  17.484 -2.6269  0.1609  1.9782
  243MPD1    H7 3697   2.358   3.436  17.379 -1.0676  0.2671  0.8289
  244MPD1     C 3698   3.360   3.081  17.175 -0.2535  0.4335  0.5442
  244MPD1    C1 3699   3.239   3.129  17.120  0.0367  0.2930 -0.3806
  244MPD1    C2 3700   3.208   3.268  17.145 -0.1671  0.0277  0.3058
  244MPD1    C3 3701   3.295   3.347  17.221 -0.0412  0.1444 -0.3423
  244MPD1    C4 3702   3.413   3.294  17.269  0.2254 -0.0643 -0.6850
  244MPD1    C5 3703   3.446   3.167  17.243  0.5676  0.0109  0.1364
  244MPD1     H 3704   3.116   3.318  17.115 -0.0123  1.1331  1.7036
  244MPD1    H1 3705   3.483   3.349  17.330  0.9962 -1.3883 -0.3827
  244MPD1    H2 3706   3.393   2.977  17.171 -0.7569  0.2772  0.4814
  244MPD1    H3 3707   3.543   3.132  17.278  0.5924  1.1681  1.2027
  244MPD1     N 3708   3.256   3.480  17.244  0.4629 -0.3239 -0.1598
  244MPD1    H5 3709   3.169   3.498  17.194 -0.7727 -0.5986  1.8925
  244MPD1    N1 3710   3.151   3.035  17.062 -0.6054 -0.0762 -0.3481
  244MPD1    H6 3711   3.086   3.084  17.001 -1.2594  1.3892  1.5225
  244MPD1    H7 3712   3.200   2.963  17.009  0.4942  0.8533 -0.5753
  245MPD1     C 3713   1.064   0.358  13.207 -0.9241  0.2044 -0.2637
  245MPD1    C1 3714   1.125   0.428  13.100 -0.8189 -0.1268  0.0218
  245MPD1    C2 3715   1.165   0.560  13.133 -0.4832 -0.2190 -0.2873
  245MPD1    C3 3716   1.156   0.610  13.256  0.0417 -0.0754 -0.7575
  245MPD1    C4 3717   1.104   0.540  13.357 -0.2793 -0.2630  0.7883
  245MPD1    C5 3718   1.054   0.417  13.331  0.0378 -0.2260  0.6944
  245MPD1     H 3719   1.200   0.629  13.057  1.7219 -1.5987 -0.5330
  245MPD1    H1 3720   1.095   0.586  13.455  1.0841  0.0977  0.7465
  245MPD1    H2 3721   1.024   0.257  13.210  1.4584 -0.7718 -1.2108
  245MPD1    H3 3722   1.010   0.357  13.410 -1.2831  1.3284  1.1409
  245MPD1     N 3723   1.208   0.736  13.277  0.4230  0.1795  0.2061
  245MPD1    H5 3724   1.276   0.780  13.216 -0.1417  1.5844  0.5944
  245MPD1    N1 3725   1.112   0.387  12.965  0.0666 -0.6137  0.4000
  245MPD1    H6 3726   1.122   0.287  12.953  0.7118 -0.4776 -0.2092
  245MPD1    H7 3727   1.181   0.424  12.900 -0.4800 -2.2108 -1.0650
  246MPD1     C 3728   4.605   1.480   9.289  0.2044  0.1496  0.2362
  246MPD1    C1 3729   0.011   1.443   9.314 -0.2198  0.6457 -0.2106
  246MPD1    C2 3730   0.066   1.326   9.267  0.0262  0.1906 -1.6215
  246MPD1    C3 3731   4.715   1.237   9.190  0.4461  0.3159 -0.0975
  246MPD1    C4 3732   4.580   1.272   9.163 -0.1739 -0.6712 -0.1301
  246MPD1    C5 3733   4.529   1.391   9.214  0.0509 -0.2134 -0.1357
  246MPD1     H 3734   0.171   1.308   9.284  0.7591  1.9857 -4.2823
  246MPD1    H1 3735   4.504   1.197   9.142  2.2561 -2.4671 -2.5526
  246MPD1    H2 3736   4.562   1.577   9.315  1.0644  1.1951 -2.1995
  246MPD1    H3 3737   4.423   1.413   9.209  0.6322  2.6873  0.6997
  246MPD1     N 3738   0.055   1.120   9.141 -0.3334 -0.3181  0.4748
  246MPD1    H5 3739   0.150   1.096   9.167  0.4656  0.3972 -1.7516
  246MPD1    N1 3740   0.091   1.541   9.380 -0.6688  0.4614 -0.0392
  246MPD1    H6 3741   0.171   1.503   9.430  0.3917  1.3615 -1.0534
  246MPD1    H7 3742   0.043   1.602   9.447 -2.6432 -1.2628  0.1240
  247MPD1     C 3743   4.559   0.648  15.715 -0.2850  0.1620  0.0729
  247MPD1    C1 3744   4.529   0.591  15.837 -0.1935  0.4432 -0.7899
  247MPD1    C2 3745   4.613   0.493  15.889 -0.2525 -0.4893 -0.0693
  247MPD1    C3 3746   0.009   0.463  15.819  0.5270  0.3146  0.1383
  247MPD1    C4 3747   0.033   0.517  15.699  0.4963 -0.4705  0.1962
  247MPD1    C5 3748   4.668   0.604  15.643  0.1383 -0.1691 -0.2858
  247MPD1     H 3749   4.584   0.437  15.977 -0.3081  0.7689  0.6964
  247MPD1    H1 3750   0.114   0.480  15.638 -0.0830 -2.9519  0.9314
  247MPD1    H2 3751   4.497   0.726  15.673  2.0165  1.6031 -0.6590
  247MPD1    H3 3752   4.698   0.642  15.546  0.0376 -0.0779 -0.2810
  247MPD1     N 3753   0.109   0.374  15.855 -0.2272  0.4085  0.3427
  247MPD1    H5 3754   0.190   0.358  15.796 -0.7088 -0.0494 -0.2027
  247MPD1    N1 3755   4.419   0.636  15.912 -0.4739 -0.3194  0.5738
  247MPD1    H6 3756   4.344   0.651  15.845 -0.1470  1.3101  0.5579
  247MPD1    H7 3757   4.399   0.571  15.988  0.2295 -0.3687  0.7185
  248MPD1     C 3758   1.119   0.185   1.306  0.0550  0.6392  0.3759
  248MPD1    C1 3759   1.121   0.171   1.171  0.2413  0.1648  0.1809
  248MPD1    C2 3760   1.009   0.205   1.099 -0.0185 -0.1517  0.0465
  248MPD1    C3 3761   0.894   0.252   1.163 -0.0596 -0.5800  0.6870
  248MPD1    C4 3762   0.887   0.244   1.299  0.9194  0.1513  0.3060
  248MPD1    C5 3763   0.999   0.211   1.371 -1.3708 -0.1090  0.3416
  248MPD1     H 3764   1.001   0.211   0.991 -2.6359 -0.3518  0.2294
  248MPD1    H1 3765   0.800   0.275   1.356  0.7486 -1.0371  0.7043
  248MPD1    H2 3766   1.203   0.159   1.369 -0.1462  0.3841  0.5408
  248MPD1    H3 3767   0.997   0.206   1.480 -1.4156 -0.8797  0.3097
  248MPD1     N 3768   0.784   0.297   1.090  0.1528  1.0973  0.5520
  248MPD1    H5 3769   0.788   0.302   0.989  0.7382 -0.5797  0.4944
  248MPD1    N1 3770   1.243   0.153   1.110 -0.4000  0.2721  0.4178
  248MPD1    H6 3771   1.232   0.086   1.034 -3.7162 -1.4835  2.4322
  248MPD1    H7 3772   1.311   0.116   1.176 -1.6208  1.0431  2.1189
  249MPD1     C 3773   1.685   3.692   9.823  0.9908 -0.2052  0.6996
  249MPD1    C1 3774   1.813   3.715   9.877  0.4002 -0.9631 -0.1773
  249MPD1    C2 3775   1.892   3.809   9.817  0.0805 -0.0745 -1.0028
  249MPD1    C3 3776   1.852   3.887   9.707 -0.3752 -0.5500  0.0310
  249MPD1    C4 3777   1.733   3.853   9.648  0.4220 -0.0657  0.6144
  249MPD1    C5 3778   1.651   3.759   9.705  0.0201 -0.0664  0.1072
  249MPD1     H 3779   1.979   3.843   9.871  0.2701  0.2884 -1.5310
  249MPD1    H1 3780   1.688   3.910   9.567 -0.6959 -1.1896  0.4410
  249MPD1    H2 3781   1.626   3.611   9.865  0.1767  0.5347  0.9822
  249MPD1    H3 3782   1.564   3.725   9.650  0.7589 -0.0613 -1.0692
  249MPD1     N 3783   1.937   3.981   9.650  0.8423 -0.5533  0.1950
  249MPD1    H5 3784   2.014   4.010   9.710  0.3372 -2.5561  1.8399
  249MPD1    N1 3785   1.848   3.656  10.001 -0.2427 -0.4874 -0.2872
  249MPD1    H6 3786   1.922   3.700  10.055 -0.1491  2.6745 -3.0067
  249MPD1    H7 3787   1.772   3.647  10.068  0.9292 -2.5645  0.7346
  250MPD2     C 3788   4.107   3.361  12.660  0.8523 -0.7020  0.6193
  250MPD2    C1 3789   4.033   3.449  12.739 -0.3301 -0.1844 -0.9633
  250MPD2    C2 3790   3.910   3.405  12.796 -0.0246  0.0826  0.2594
  250MPD2    C3 3791   3.858   3.276  12.767  0.0368 -0.0346  0.0846
  250MPD2    C4 3792   3.938   3.189  12.683  0.4257 -0.4419 -0.8019
  250MPD2    C5 3793   4.057   3.235  12.635  0.3925  0.4387  0.4821
  250MPD2     H 3794   3.861   3.468  12.869  2.3030  0.2244  1.7065
  250MPD2    H1 3795   3.910   3.085  12.667  0.1887 -0.3400 -1.0693
  250MPD2    H2 3796   4.205   3.380  12.618  0.1083  0.2278 -0.6667
  250MPD2    H3 3797   4.106   3.168  12.566 -0.1169  1.8749 -1.2829
  250MPD2     N 3798   3.747   3.224  12.833  0.1553 -0.7886  0.3266
  250MPD2    H5 3799   3.729   3.125  12.824 -0.5667 -0.9028  2.9607
  250MPD2    N1 3800   4.083   3.579  12.755  0.1081 -0.2486  0.1077
  250MPD2    H7 3801   4.178   3.591  12.722  0.5449  1.5515  1.9894
  251TMC3    C1 3802   4.061   3.819  12.782 -0.4933  0.9829  0.1061
  251TMC3    C2 3803   3.973   3.919  12.818 -0.0455 -0.5810 -0.7630
  251TMC3    C3 3804   4.026   4.025  12.883 -0.2106 -0.0079  0.5698
  251TMC3    C4 3805   4.192   3.833  12.793 -0.1762  0.1418 -0.8320
  251TMC3    C5 3806   4.241   3.944  12.867  0.5341  0.1022 -0.4574
  251TMC3    C6 3807   4.159   4.036  12.918 -0.1212  0.1977  0.5379
  251TMC3     C 3808   4.000   3.684  12.800 -0.4648 -0.1248 -0.6476
  251TMC3     O 3809   3.885   3.685  12.845  0.0634  0.5983  0.2026
  251TMC3     H 3810   3.869   3.912  12.789 -0.2423 -0.4467 -0.0721
  251TMC3    H1 3811   4.257   3.751  12.764  0.7900  0.5483  0.2021
  251TMC3    H2 3812   4.189   4.120  12.981  0.5302 -0.2237  0.7912
  251TMC3    C7 3813   4.374   3.934  12.908  0.0907 -0.5501 -0.0621
  251TMC3    C8 3814   3.933   4.130  12.922  0.1598  0.1748  0.2299
  251TMC3    O1 3815   4.442   3.843  12.865 -0.0433  0.1436 -0.3540
  251TMC3    O2 3816   3.975   4.242  12.946  0.4457 -0.4666  0.4028
  252TMC3    C1 3817   4.210   0.161   9.188 -0.2563  1.5174  0.1155
  252TMC3    C2 3818   4.287   0.273   9.213 -0.6344 -0.0261 -0.5958
  252TMC3    C3 3819   4.396   0.250   9.296 -0.0785 -0.2775  0.2360
  252TMC3    C4 3820   4.224   0.048   9.257 -0.1708 -0.2972 -0.2097
  252TMC3    C5 3821   4.316   0.040   9.352  0.7470  0.1614  0.9547
  252TMC3    C6 3822   4.412   0.136   9.370  0.4899  0.3084 -0.3489
  252TMC3     C 3823   4.107   0.168   9.080 -0.2355 -0.4104 -0.5572
  252TMC3     O 3824   4.069   0.061   9.034  0.7320 -0.0960 -0.3051
  252TMC3     H 3825   4.290   0.355   9.142 -0.7202  1.0099  0.5902
  252TMC3    H1 3826   4.148   4.690   9.249  0.8495 -1.3643  0.3790
  252TMC3    H2 3827   4.497   0.113   9.433 -0.7099  0.3452  1.2950
  252TMC3    C7 3828   4.316   4.651   9.454 -0.3036  0.6614 -0.1064
  252TMC3    C8 3829   4.488   0.358   9.337  0.0947  0.5190 -0.1470
  252TMC3    O1 3830   4.383   4.661   9.556 -0.8278  0.5301  0.2723
  252TMC3    O2 3831   4.585   0.324   9.405  0.0577 -0.1085 -0.3001
  253MPD2     C 3832   0.645   4.447  16.089  0.3900  0.3491 -0.6153
  253MPD2    C1 3833   0.529   4.371  16.084 -0.7086  0.6117  0.6045
  253MPD2    C2 3834   0.501   4.296  16.190  0.9162  0.0866  0.0380
  253MPD2    C3 3835   0.587   4.291  16.303 -0.4706  0.3459  0.1217
  253MPD2    C4 3836   0.698   4.375  16.304 -0.0921 -0.3544  0.6922
  253MPD2    C5 3837   0.724   4.451  16.194 -0.1820 -0.6445  0.0706
  253MPD2     H 3838   0.405   4.245  16.187  1.5703 -1.2255  1.2904
  253MPD2    H1 3839   0.768   4.381  16.386 -3.8854  2.5812  3.7267
  253MPD2    H2 3840   0.675   4.512  16.008  2.3132  0.8269  0.4698
  253MPD2    H3 3841   0.810   4.518  16.193 -2.0319  1.6875 -0.9235
  253MPD2     N 3842   0.551   4.205  16.409 -0.4187 -1.0330  0.5628
  253MPD2    H5 3843   0.615   4.211  16.487  0.5516  0.6370 -0.3408
  253MPD2    N1 3844   0.454   4.359  15.968 -1.3339  0.4944  0.2620
  253MPD2    H7 3845   0.380   4.289  15.965  0.2668 -1.1738 -0.1899
  254TMC3    C1 3846   0.387   4.103  16.550 -0.5458 -0.7063 -0.7658
  254TMC3    C2 3847   0.256   4.103  16.567  0.5179 -0.8525  0.1355
  254TMC3    C3 3848   0.206   4.069  16.692  0.7246  0.8881 -0.3888
  254TMC3    C4 3849   0.480   4.051  16.646  0.1084  0.6844  0.1756
  254TMC3    C5 3850   0.426   4.032  16.771  0.4348  0.3790 -0.3538
  254TMC3    C6 3851   0.291   4.028  16.799  0.1377 -0.5483 -0.6866
  254TMC3     C 3852   0.440   4.121  16.418  0.4906 -0.9645  0.4134
  254TMC3     O 3853   0.360   4.092  16.332 -0.5483 -0.0377 -0.1541
  254TMC3     H 3854   0.196   4.164  16.501 -1.2919 -2.0685  0.6648
  254TMC3    H1 3855   0.585   4.037  16.621 -0.2191 -2.9213  0.9532
  254TMC3    H2 3856   0.252   4.019  16.900 -2.1300 -0.3596 -1.5535
  254TMC3    C7 3857   0.519   3.999  16.874 -0.2528  0.1873 -0.1193
  254TMC3    C8 3858   0.072   4.104  16.716 -0.1469 -0.0813 -0.5952
  254TMC3    O1 3859   0.466   3.944  16.971 -0.5727 -0.1776 -0.4487
  254TMC3    O2 3860   0.042   4.111  16.834 -0.9670  0.0121 -0.2503
  255MPD2     C 3861   4.342   2.068  10.930  0.8618  0.5407  0.3425
  255MPD2    C1 3862   4.285   2.073  10.808  0.3255  0.2767 -0.8841
  255MPD2    C2 3863   4.320   1.977  10.713 -0.5019  0.1156 -0.0509
  255MPD2    C3 3864   4.415   1.878  10.743 -0.4148  0.2537 -0.3287
  255MPD2    C4 3865   4.483   1.893  10.856 -0.0356 -0.4687 -0.0502
  255MPD2    C5 3866   4.450   1.990  10.950 -0.0526  0.0131 -0.6633
  255MPD2     H 3867   4.282   1.986  10.612 -1.4587 -0.0692  0.2921
  255MPD2    H1 3868   4.560   1.820  10.881  1.0864 -0.0614 -2.3278
  255MPD2    H2 3869   4.315   2.141  11.006  1.9964 -2.5085  3.6306
  255MPD2    H3 3870   4.511   1.992  11.040 -1.5531  3.3387  0.2980
  255MPD2     N 3871   4.436   1.789  10.634  0.1070  0.8548  0.0410
  255MPD2    H5 3872   4.388   1.819  10.550  2.0529  0.9738 -1.0312
  255MPD2    N1 3873   4.188   2.173  10.790  0.4503  0.5973  0.5761
  255MPD2    H7 3874   4.167   2.242  10.862  2.0661  1.0773  0.5953
  256TMC3    C1 3875   4.006   2.278  10.698  0.4654 -0.7605  0.0412
  256TMC3    C2 3876   4.049   2.402  10.741  0.7232  0.2266 -0.6248
  256TMC3    C3 3877   3.957   2.501  10.741 -0.2095 -0.5247 -0.1010
  256TMC3    C4 3878   3.875   2.254  10.663 -0.0455 -0.7482 -0.2670
  256TMC3    C5 3879   3.783   2.357  10.661  0.2340  0.3122 -0.0470
  256TMC3    C6 3880   3.829   2.475  10.700  0.0566 -0.0940  0.0629
  256TMC3     C 3881   4.099   2.171  10.690 -0.1368 -0.1231 -0.0157
  256TMC3     O 3882   4.110   2.103  10.590 -0.7077  0.0671 -0.2820
  256TMC3     H 3883   4.155   2.419  10.754  0.9966 -0.6973 -1.5962
  256TMC3    H1 3884   3.848   2.152  10.637 -0.2398 -0.0014 -2.9488
  256TMC3    H2 3885   3.759   2.558  10.703  1.3685  1.0555 -1.2853
  256TMC3    C7 3886   3.710   2.349  10.534  0.5693 -0.2396 -0.7671
  256TMC3    C8 3887   4.006   2.624  10.706  0.3538 -0.4258 -0.0749
  256TMC3    O1 3888   3.670   2.238  10.492 -0.3811 -0.1615 -0.1239
  256TMC3    O2 3889   3.950   2.719  10.764 -0.2274  0.8192  0.5903
  257MPD2     C 3890   2.834   3.953  13.357 -0.2858 -0.2236 -0.4372
  257MPD2    C1 3891   2.817   3.863  13.257 -0.3521 -0.3735 -0.8068
  257MPD2    C2 3892   2.845   3.727  13.279 -0.1035  0.1201 -0.5896
  257MPD2    C3 3893   2.889   3.685  13.408  0.0817  0.2688  0.2812
  257MPD2    C4 3894   2.904   3.775  13.511  0.3666 -0.4620  0.3467
  257MPD2    C5 3895   2.881   3.908  13.476  0.2663  0.3273  0.1759
  257MPD2     H 3896   2.827   3.661  13.195  0.7965 -1.8647  0.7873
  257MPD2    H1 3897   2.938   3.754  13.612  1.9929 -0.2645 -0.1631
  257MPD2    H2 3898   2.829   4.060  13.341 -1.3005 -0.3394 -0.8559
  257MPD2    H3 3899   2.892   3.980  13.557 -2.1840  2.4772 -1.3802
  257MPD2     N 3900   2.911   3.547  13.427 -0.3709 -0.0561  0.0426
  257MPD2    H5 3901   2.884   3.483  13.353  0.6687  1.9062 -2.0625
  257MPD2    N1 3902   2.793   3.914  13.128  0.4495 -0.3640  0.1710
  257MPD2    H7 3903   2.792   4.015  13.117  0.9574 -0.2975  0.7445
  258TMC3    C1 3904   2.988   3.352  13.517 -1.0534  0.1546 -0.5092
  258TMC3    C2 3905   3.049   3.327  13.392  0.2441 -0.0679  0.2733
  258TMC3    C3 3906   3.101   3.200  13.367 -0.8680 -0.2697 -0.8587
  258TMC3    C4 3907   2.992   3.260  13.621  0.2953  0.4026 -0.4880
  258TMC3    C5 3908   3.050   3.138  13.598  0.1282  0.6108 -0.1822
  258TMC3    C6 3909   3.099   3.107  13.472  0.4425 -0.1721  0.4821
  258TMC3     C 3910   2.950   3.486  13.544  0.0110  0.4724  0.0605
  258TMC3     O 3911   2.966   3.527  13.658  0.5027 -0.0323  0.2929
  258TMC3     H 3912   3.071   3.398  13.314 -0.8051 -1.3691 -1.2163
  258TMC3    H1 3913   2.948   3.288  13.716  1.9270  0.9176  0.1150
  258TMC3    H2 3914   3.151   3.013  13.462  0.9103 -0.1534  2.7775
  258TMC3    C7 3915   3.082   3.057  13.711 -0.1324  0.1009  0.0277
  258TMC3    C8 3916   3.116   3.165  13.228 -0.0076 -0.0580 -0.2983
  258TMC3    O1 3917   3.086   3.114  13.821 -0.2030 -0.1370  0.2477
  258TMC3    O2 3918   3.055   3.232  13.148 -0.0777 -0.1167 -0.5706
  259MPD2     C 3919   1.141   0.839   1.398 -0.0397  0.0263  0.2137
  259MPD2    C1 3920   1.225   0.733   1.391  0.2452  0.1245  0.5948
  259MPD2    C2 3921   1.315   0.727   1.283 -1.0071  0.1392  0.0002
  259MPD2    C3 3922   1.331   0.830   1.194 -0.6746  0.8839  0.3797
  259MPD2    C4 3923   1.241   0.929   1.200 -0.2841  0.1550  0.0046
  259MPD2    C5 3924   1.139   0.927   1.294 -0.1666  0.2699  0.0139
  259MPD2     H 3925   1.379   0.639   1.279  0.2985  1.2216 -2.8428
  259MPD2    H1 3926   1.252   1.018   1.139 -0.0427  0.2131  0.1331
  259MPD2    H2 3927   1.061   0.839   1.471  1.3301 -0.7003  1.7312
  259MPD2    H3 3928   1.076   1.014   1.308  0.2073  0.6957 -0.9760
  259MPD2     N 3929   1.434   0.821   1.101  0.0423 -0.5280  0.3246
  259MPD2    H5 3930   1.478   0.730   1.093  2.7446  0.7500  0.6683
  259MPD2    N1 3931   1.205   0.628   1.489  0.0537 -0.2674  0.0495
  259MPD2    H7 3932   1.132   0.623   1.559 -0.3368  0.0819 -0.3287
  260TMC3    C1 3933   1.544   0.898   0.905  0.6668 -0.6497 -0.1323
  260TMC3    C2 3934   1.643   0.982   0.861 -0.1839  0.6176 -0.4725
  260TMC3    C3 3935   1.723   0.938   0.759 -0.8219  0.0035 -0.6619
  260TMC3    C4 3936   1.526   0.771   0.853 -0.5417 -0.4296  0.1790
  260TMC3    C5 3937   1.622   0.727   0.758  0.2077 -0.1917  0.2006
  260TMC3    C6 3938   1.717   0.810   0.711 -0.5215  0.0478 -0.1469
  260TMC3     C 3939   1.472   0.932   1.028  0.2778 -0.0905 -0.9658
  260TMC3     O 3940   1.452   1.053   1.044  0.3711  0.5572  0.3784
  260TMC3     H 3941   1.651   1.081   0.903  0.7713  0.7765 -1.0340
  260TMC3    H1 3942   1.435   0.718   0.878  1.1705 -2.8034  1.4030
  260TMC3    H2 3943   1.779   0.768   0.633  0.1864 -0.2071  0.5497
  260TMC3    C7 3944   1.600   0.607   0.687  0.3089  0.4377 -0.2263
  260TMC3    C8 3945   1.788   1.041   0.679 -0.3421  0.1859  0.4142
  260TMC3    O1 3946   1.681   0.576   0.600 -0.0479 -0.1288 -0.0047
  260TMC3    O2 3947   1.735   1.150   0.686  0.6238 -0.4253 -0.3770
  261MPD2     C 3948   3.091   3.299  12.490 -0.1709 -0.3142  0.3543
  261MPD2    C1 3949   3.204   3.350  12.548 -0.3030 -0.3738 -0.1178
  261MPD2    C2 3950   3.258   3.479  12.514  0.2363 -0.3173 -0.3287
  261MPD2    C3 3951   3.195   3.548  12.418  0.4773 -0.7554 -0.0155
  261MPD2    C4 3952   3.082   3.493  12.353 -0.5407 -0.1141 -0.4763
  261MPD2    C5 3953   3.034   3.372  12.393  0.3598  0.2875 -0.4193
  261MPD2     H 3954   3.355   3.508  12.554 -0.1389 -0.4213  0.6655
  261MPD2    H1 3955   3.030   3.543  12.272  1.7345  1.2416 -1.0957
  261MPD2    H2 3956   3.061   3.197  12.512 -0.8425 -0.1976 -0.0314
  261MPD2    H3 3957   2.948   3.340  12.336  0.6795 -0.9253 -0.2092
  261MPD2     N 3958   3.244   3.670  12.388 -0.3381 -0.1781 -0.0142
  261MPD2    H5 3959   3.318   3.709  12.446  0.1986 -3.7045  1.6348
  261MPD2    N1 3960   3.275   3.287  12.647  0.4920 -0.0925  0.5237
  261MPD2    H7 3961   3.359   3.340  12.669  1.1935 -0.1280 -2.0455
  262TMC3    C1 3962   3.300   3.865  12.273 -0.5404  0.0008  0.7401
  262TMC3    C2 3963   3.259   3.972  12.204  0.9259 -0.0146 -0.3487
  262TMC3    C3 3964   3.345   4.050  12.129 -0.1890  0.5187 -0.1607
  262TMC3    C4 3965   3.436   3.835  12.275 -0.0640 -0.6335  0.5484
  262TMC3    C5 3966   3.518   3.913  12.202 -0.0841 -1.0414 -0.3552
  262TMC3    C6 3967   3.475   4.019  12.129  0.4195  0.3090  0.2421
  262TMC3     C 3968   3.200   3.759  12.300  0.0564 -0.8394  0.0245
  262TMC3     O 3969   3.090   3.764  12.247  0.0962  0.0832 -0.1761
  262TMC3     H 3970   3.159   4.009  12.223  0.8817 -1.4973  2.2060
  262TMC3    H1 3971   3.485   3.747  12.316  0.2816  0.1348  1.7782
  262TMC3    H2 3972   3.546   4.089  12.085  1.6842 -1.4909 -0.5850
  262TMC3    C7 3973   3.643   3.848  12.158  0.3882  0.6470 -0.8146
  262TMC3    C8 3974   3.314   4.189  12.088 -0.2198 -0.5021 -0.4112
  262TMC3    O1 3975   3.700   3.769  12.237  0.8134  0.1778  0.5311
  262TMC3    O2 3976   3.409   4.266  12.074  0.5678 -0.8377 -0.4169
  263MPD2     C 3977   0.298   2.881  10.772 -0.0895  0.1328 -0.2447
  263MPD2    C1 3978   0.273   3.004  10.829  0.0275 -0.5049 -0.3850
  263MPD2    C2 3979   0.249   3.115  10.748 -0.3958 -0.0402  0.1631
  263MPD2    C3 3980   0.257   3.105  10.613 -0.0339  0.0922 -0.6298
  263MPD2    C4 3981   0.276   2.978  10.560  0.0123  0.0349  0.2377
  263MPD2    C5 3982   0.291   2.866  10.637  0.0665  0.2936 -0.0554
  263MPD2     H 3983   0.239   3.212  10.797 -0.9329 -0.3841  0.7380
  263MPD2    H1 3984   0.279   2.973  10.451  1.6640  0.8556  0.2399
  263MPD2    H2 3985   0.308   2.796  10.838 -0.7697  0.7880  0.6899
  263MPD2    H3 3986   0.316   2.769  10.594  2.0490  0.6262  0.3521
  263MPD2     N 3987   0.250   3.230  10.540  0.6153 -0.7652 -0.7039
  263MPD2    H5 3988   0.217   3.308  10.595  2.9001 -0.4351  0.1960
  263MPD2    N1 3989   0.288   3.017  10.976 -0.8212  0.2392  0.0170
  263MPD2    H7 3990   0.315   2.933  11.025  2.5537  2.7605  2.4330
  264TMC3    C1 3991   0.289   3.369  10.349  0.2618 -0.9900 -0.2665
  264TMC3    C2 3992   0.220   3.477  10.398 -0.4757 -0.0122 -0.0869
  264TMC3    C3 3993   0.261   3.603  10.359 -0.0210 -0.9650 -0.2563
  264TMC3    C4 3994   0.394   3.380  10.260 -0.3466 -0.3530  0.6021
  264TMC3    C5 3995   0.421   3.509  10.215 -0.5877  0.0175  0.5549
  264TMC3    C6 3996   0.365   3.621  10.271 -0.5050 -0.0815 -0.0479
  264TMC3     C 3997   0.295   3.235  10.411  0.2451  0.8725 -0.6293
  264TMC3     O 3998   0.346   3.150  10.338  0.1527 -0.1809 -0.4428
  264TMC3     H 3999   0.142   3.466  10.473  0.4203  0.7220  0.9580
  264TMC3    H1 4000   0.441   3.293  10.217 -1.1016 -0.0709 -0.8231
  264TMC3    H2 4001   0.386   3.724  10.247 -0.2207 -0.1908 -0.2675
  264TMC3    C7 4002   0.553   3.523  10.160 -0.0540 -0.2350 -0.5921
  264TMC3    C8 4003   0.233   3.721  10.435  0.5359  0.7059  0.1549
  264TMC3    O1 4004   0.625   3.423  10.157  0.3385  0.1382 -0.1698
  264TMC3    O2 4005   0.329   3.798  10.442 -0.0429  0.3401  0.2113
  265MPD2     C 4006   1.966   3.559  15.609 -0.4884 -0.1306  0.5263
  265MPD2    C1 4007   2.031   3.665  15.552 -0.3981 -0.0294 -0.2014
  265MPD2    C2 4008   2.108   3.645  15.442 -0.2318  0.2007  0.0141
  265MPD2    C3 4009   2.109   3.522  15.377  1.2125  0.7372  0.2975
  265MPD2    C4 4010   2.046   3.414  15.436 -0.9801 -0.1831  0.9027
  265MPD2    C5 4011   1.974   3.436  15.550  0.6453  0.4966  0.3669
  265MPD2     H 4012   2.159   3.723  15.387 -1.4630  1.0082  0.0091
  265MPD2    H1 4013   2.043   3.314  15.394  0.8745 -0.6808  1.9444
  265MPD2    H2 4014   1.901   3.573  15.694  0.2882 -2.0040  1.4226
  265MPD2    H3 4015   1.907   3.360  15.589 -1.6052  1.1462 -2.2548
  265MPD2     N 4016   2.176   3.496  15.254  0.0019 -0.0828  0.4781
  265MPD2    H5 4017   2.170   3.396  15.237  2.4501 -0.2337  0.4408
  265MPD2    N1 4018   2.010   3.790  15.617  0.5299  0.4224 -0.1334
  265MPD2    H7 4019   1.973   3.797  15.711  1.1850  0.3381  0.1291
  266TMC3    C1 4020   1.966   4.015  15.639 -0.5664 -0.4647 -0.1523
  266TMC3    C2 4021   1.972   3.998  15.771  0.4495  0.7996  0.4839
  266TMC3    C3 4022   1.920   4.109  15.844  0.6321 -0.2165 -0.0227
  266TMC3    C4 4023   1.911   4.127  15.568  0.4390 -0.3581 -0.5067
  266TMC3    C5 4024   1.885   4.238  15.646  0.4763  0.0717 -0.7425
  266TMC3    C6 4025   1.877   4.226  15.781 -0.3434  0.2182  0.5153
  266TMC3     C 4026   2.020   3.914  15.553 -0.0458  0.9777 -0.1466
  266TMC3     O 4027   2.051   3.948  15.436 -0.3104  0.1335 -0.3522
  266TMC3     H 4028   2.001   3.913  15.833  1.4941  2.3387  2.0925
  266TMC3    H1 4029   1.907   4.130  15.460  0.9502 -0.1177 -0.5149
  266TMC3    H2 4030   1.865   4.316  15.840 -2.1604 -0.6560  1.4796
  266TMC3    C7 4031   1.779   4.326  15.594  0.5263 -0.5364 -0.2277
  266TMC3    C8 4032   1.970   4.110  15.981 -0.0012  0.0813 -0.2553
  266TMC3    O1 4033   1.785   4.346  15.473 -0.1273  0.2647  0.7875
  266TMC3    O2 4034   2.041   4.018  16.016 -0.0088  0.2152 -0.3012
  267MPD2     C 4035   3.971   0.223   0.268 -1.0044  0.2992 -0.2823
  267MPD2    C1 4036   4.060   0.290   0.184 -0.2577  0.8054  0.5876
  267MPD2    C2 4037   4.010   0.347   0.066 -0.1900  0.4560  0.2358
  267MPD2    C3 4038   3.873   0.353   0.038  0.1793 -0.4343  0.3554
  267MPD2    C4 4039   3.794   0.273   0.118  0.5656 -0.3767  1.2193
  267MPD2    C5 4040   3.838   0.209   0.226  0.7659  0.3689 -0.4921
  267MPD2     H 4041   4.079   0.403   0.004  0.3737  0.1887  0.6145
  267MPD2    H1 4042   3.688   0.259   0.095  0.4027  1.7832  0.6308
  267MPD2    H2 4043   3.994   0.185   0.367 -0.2551 -1.6905 -1.2117
  267MPD2    H3 4044   3.769   0.153   0.288  1.3418  2.0545  1.6889
  267MPD2     N 4045   3.821   0.411  17.598 -0.6498 -0.2780  0.7086
  267MPD2    H5 4046   3.730   0.377  17.570  0.0954  0.0018 -2.0875
  267MPD2    N1 4047   4.194   0.296   0.231  0.4583  0.1421  0.7497
  267MPD2    H7 4048   4.205   0.265   0.327 -0.5346  1.5667  1.3187
  268TMC3    C1 4049   4.409   0.380   0.267 -0.1594 -0.6661 -0.0810
  268TMC3    C2 4050   4.484   0.490   0.255  0.1582  0.4963  0.2674
  268TMC3    C3 4051   4.593   0.498   0.347  0.1915  0.3557 -0.7769
  268TMC3    C4 4052   4.442   0.274   0.350 -0.3243  0.7889  0.1825
  268TMC3    C5 4053   4.549   0.286   0.432  0.0583 -0.0990  0.3175
  268TMC3    C6 4054   4.625   0.399   0.437 -0.7184  0.4382 -0.1189
  268TMC3     C 4055   4.295   0.374   0.179  0.9534 -0.0936 -0.2946
  268TMC3     O 4056   4.280   0.458   0.091  0.9761 -0.1446  0.6743
  268TMC3     H 4057   4.455   0.568   0.186  0.0328  1.9050  1.9153
  268TMC3    H1 4058   4.394   0.180   0.326  2.7331 -0.1813 -2.1657
  268TMC3    H2 4059   4.711   0.404   0.503  0.9220 -0.2989 -2.2320
  268TMC3    C7 4060   4.554   0.183   0.531 -0.0159 -0.0830  0.1399
  268TMC3    C8 4061   4.662   0.624   0.357 -0.4864  0.7156 -0.5472
  268TMC3    O1 4062   4.454   0.118   0.545 -0.0936 -0.3733  0.3721
  268TMC3    O2 4063   0.005   0.643   0.458 -0.1716  0.3036 -0.4488
  269MPD2     C 4064   4.109   4.009  15.624 -0.9002  0.1735 -0.4622
  269MPD2    C1 4065   3.973   4.039  15.618  0.2921 -0.4697 -0.2388
  269MPD2    C2 4066   3.938   4.167  15.592 -1.2136 -0.4124  0.0124
  269MPD2    C3 4067   4.030   4.265  15.585  0.3792 -0.3200 -0.5103
  269MPD2    C4 4068   4.162   4.236  15.596 -0.2456  0.1987  0.7692
  269MPD2    C5 4069   4.204   4.105  15.609  0.5172  0.5014  0.1425
  269MPD2     H 4070   3.834   4.198  15.585 -0.7985  1.3803  1.9595
  269MPD2    H1 4071   4.228   4.323  15.598 -0.9692  0.7622  0.2877
  269MPD2    H2 4072   4.147   3.912  15.655  0.6450  0.9172  0.0185
  269MPD2    H3 4073   4.309   4.080  15.615  0.5540  0.3375 -1.2028
  269MPD2     N 4074   3.981   4.397  15.561  0.3286 -0.2489  0.3738
  269MPD2    H5 4075   3.882   4.406  15.539 -0.0769 -2.3507  1.3659
  269MPD2    N1 4076   3.881   3.938  15.648 -0.5818  0.0325 -0.1540
  269MPD2    H7 4077   3.921   3.851  15.681 -2.2098 -0.4830  0.4455
  270TMC3    C1 4078   3.683   3.810  15.615 -0.5840 -0.0007  0.2487
  270TMC3    C2 4079   3.617   3.762  15.505  0.0115  0.0895  0.4096
  270TMC3    C3 4080   3.580   3.632  15.510  0.1152 -0.9667  0.5419
  270TMC3    C4 4081   3.698   3.751  15.737  0.3899  0.2569  0.4232
  270TMC3    C5 4082   3.632   3.630  15.741  0.2107 -0.0203 -0.1527
  270TMC3    C6 4083   3.579   3.573  15.631 -0.5200 -0.3120  0.2421
  270TMC3     C 4084   3.753   3.931  15.591 -0.9930  0.6580 -0.3497
  270TMC3     O 4085   3.710   4.006  15.507 -0.3879  0.2464 -0.0030
  270TMC3     H 4086   3.634   3.813  15.411 -0.5587 -0.6874 -0.1191
  270TMC3    H1 4087   3.738   3.788  15.831  0.4532  0.8325  0.1718
  270TMC3    H2 4088   3.555   3.467  15.635  0.7378 -0.5851  0.5508
  270TMC3    C7 4089   3.697   3.532  15.833  0.3722 -0.9894  0.2025
  270TMC3    C8 4090   3.665   3.551  15.422  0.2840  0.7714  0.2843
  270TMC3    O1 4091   3.811   3.557  15.875  0.1193  0.0389 -0.2962
  270TMC3    O2 4092   3.754   3.614  15.369 -0.0168 -0.2129  0.0317
  271MPD2     C 4093   3.438   3.783  13.918 -0.6011  0.5327 -0.1943
  271MPD2    C1 4094   3.360   3.748  14.027 -0.8356  0.1156  0.3718
  271MPD2    C2 4095   3.233   3.797  14.036 -0.1227  0.2503 -0.3430
  271MPD2    C3 4096   3.181   3.873  13.935 -0.0982 -0.5148 -0.1772
  271MPD2    C4 4097   3.264   3.890  13.821  0.2298 -0.1368  0.1444
  271MPD2    C5 4098   3.385   3.847  13.810 -0.8256 -0.2029 -0.2548
  271MPD2     H 4099   3.183   3.791  14.132  0.4512  1.6144  0.0440
  271MPD2    H1 4100   3.224   3.962  13.751  0.9223  1.1092  1.0133
  271MPD2    H2 4101   3.538   3.744  13.907 -0.9602 -0.7765  1.1485
  271MPD2    H3 4102   3.439   3.862  13.717  0.7203  0.5966  0.7740
  271MPD2     N 4103   3.051   3.932  13.940  0.6024 -0.0217 -0.0347
  271MPD2    H5 4104   3.026   3.996  13.865  1.4241 -1.0650 -1.1882
  271MPD2    N1 4105   3.413   3.677  14.138 -0.3242 -0.4137 -0.0083
  271MPD2    H7 4106   3.344   3.648  14.206 -0.2915  0.9035  0.5923
  272TMC3    C1 4107   3.545   3.516  14.244 -0.4752 -0.0364 -0.2833
  272TMC3    C2 4108   3.640   3.422  14.225  0.3080  0.5174 -0.3669
  272TMC3    C3 4109   3.713   3.380  14.339 -0.6524  0.1525  0.3687
  272TMC3    C4 4110   3.503   3.558  14.369 -0.3730 -0.6843 -0.2137
  272TMC3    C5 4111   3.565   3.498  14.481 -0.6918  0.2086 -0.7509
  272TMC3    C6 4112   3.665   3.407  14.465 -0.8953  0.4707 -0.2107
  272TMC3     C 4113   3.519   3.588  14.123  0.3410  0.0519 -0.9406
  272TMC3     O 4114   3.601   3.573  14.034 -0.3011  0.1798 -0.7608
  272TMC3     H 4115   3.687   3.409  14.128 -1.5446  2.7864 -1.5693
  272TMC3    H1 4116   3.425   3.632  14.382 -0.7574 -0.8285 -1.6521
  272TMC3    H2 4117   3.723   3.369  14.548 -1.9312 -1.7572 -0.5201
  272TMC3    C7 4118   3.535   3.550  14.611 -0.1793 -0.0899  0.1387
  272TMC3    C8 4119   3.817   3.288  14.318 -0.4735 -0.3139  0.2646
  272TMC3    O1 4120   3.426   3.611  14.624 -0.0842  0.1894 -0.3749
  272TMC3    O2 4121   3.833   3.262  14.199 -0.7408  0.4205 -0.5874
  273MPD2     C 4122   0.654   1.987  11.745 -0.7350  0.6217  0.1207
  273MPD2    C1 4123   0.755   2.081  11.744 -0.0180 -0.0570 -0.3354
  273MPD2    C2 4124   0.805   2.112  11.621  0.4929 -0.0068  0.2570
  273MPD2    C3 4125   0.770   2.051  11.505  0.0278  0.1711 -0.4952
  273MPD2    C4 4126   0.685   1.945  11.516 -0.7238 -0.4838 -0.3690
  273MPD2    C5 4127   0.630   1.914  11.631 -0.2660  0.3875 -0.2172
  273MPD2     H 4128   0.872   2.198  11.614  1.5933 -0.8185  0.8277
  273MPD2    H1 4129   0.658   1.890  11.426  0.5409  0.8735 -1.5898
  273MPD2    H2 4130   0.604   1.971  11.840  0.8992 -0.6333  0.7614
  273MPD2    H3 4131   0.555   1.836  11.634  0.3500 -0.2997 -2.6835
  273MPD2     N 4132   0.825   2.068  11.374  0.5276 -0.1266  0.5113
  273MPD2    H5 4133   0.807   2.002  11.299 -1.4749  1.6092 -0.5492
  273MPD2    N1 4134   0.790   2.149  11.861  0.2815  0.0382  0.4798
  273MPD2    H7 4135   0.757   2.108  11.947  1.2044 -1.5094  0.1042
  274TMC3    C1 4136   0.933   2.196  11.195 -0.7262 -1.0657 -0.1055
  274TMC3    C2 4137   0.822   2.171  11.120  0.4224 -0.0470 -0.2685
  274TMC3    C3 4138   0.795   2.248  11.013  0.2548  0.3513  0.2709
  274TMC3    C4 4139   0.997   2.315  11.173 -0.6028 -0.3472  0.3923
  274TMC3    C5 4140   0.963   2.402  11.071 -0.8586  0.5092  0.3684
  274TMC3    C6 4141   0.857   2.369  10.994  0.3653 -0.5293 -0.0322
  274TMC3     C 4142   0.908   2.172  11.336  0.0974 -0.1493  0.5347
  274TMC3     O 4143   0.960   2.250  11.414 -0.0820 -0.2225  0.3807
  274TMC3     H 4144   0.757   2.085  11.135  0.2012 -0.1925 -2.1002
  274TMC3    H1 4145   1.070   2.345  11.248  1.6644 -1.4730 -1.3781
  274TMC3    H2 4146   0.828   2.430  10.909 -1.7970 -0.4315  0.7706
  274TMC3    C7 4147   0.955   2.540  11.104 -0.3696 -0.3023 -0.0110
  274TMC3    C8 4148   0.660   2.223  10.957 -0.1320  0.3021  0.0331
  274TMC3    O1 4149   0.881   2.618  11.040  0.4672 -0.1781 -0.2331
  274TMC3    O2 4150   0.583   2.146  11.013  0.7887 -0.1090 -0.3828
  275MPD2     C 4151   0.273   4.678  14.186  0.2216  0.2776 -0.5581
  275MPD2    C1 4152   0.262   4.587  14.293 -1.2106 -0.4200 -0.0040
  275MPD2    C2 4153   0.151   4.507  14.307  0.4590  0.2409 -0.1019
  275MPD2    C3 4154   0.041   4.525  14.226  0.2441 -0.4362 -0.1765
  275MPD2    C4 4155   0.051   4.621  14.118  0.2752  0.2864  0.0288
  275MPD2    C5 4156   0.167   4.692  14.098 -0.0655 -0.1096 -0.2944
  275MPD2     H 4157   0.141   4.464  14.406 -2.1363  0.4432 -0.2752
  275MPD2    H1 4158   4.683   4.642  14.057  0.9644  0.6228 -0.8237
  275MPD2    H2 4159   0.363   0.019  14.177 -0.4214  1.3140  0.0863
  275MPD2    H3 4160   0.167   0.044  14.016 -0.1890  1.2172  0.8536
  275MPD2     N 4161   4.635   4.475  14.251 -0.1251 -0.3549 -0.0278
  275MPD2    H5 4162   4.555   4.523  14.210  0.6763 -0.4732 -1.6874
  275MPD2    N1 4163   0.347   4.599  14.400 -0.2031  0.1268 -0.1932
  275MPD2    H7 4164   0.314   4.538  14.474 -0.6880  1.4553  0.6864
  276TMC3    C1 4165   0.521   4.663  14.554  0.3129  0.4779  0.2878
  276TMC3    C2 4166   0.441   4.600  14.646 -0.0459  0.5079 -0.4176
  276TMC3    C3 4167   0.422   4.650  14.770 -0.2075  0.0500 -0.3083
  276TMC3    C4 4168   0.597   0.051  14.594 -0.0082  0.0002 -0.0959
  276TMC3    C5 4169   0.586   0.088  14.731  0.9899 -0.4518 -0.3623
  276TMC3    C6 4170   0.491   0.039  14.813 -0.4415 -0.2085  0.2976
  276TMC3     C 4171   0.472   4.666  14.415  0.4771  0.0737 -0.2909
  276TMC3     O 4172   0.531   0.016  14.333 -0.2501  0.0047  0.3286
  276TMC3     H 4173   0.375   4.517  14.624  0.5616 -0.6654  2.2109
  276TMC3    H1 4174   0.654   0.112  14.524  1.7622 -0.8603  0.6131
  276TMC3    H2 4175   0.482   0.081  14.913  0.8158 -1.4651  0.9394
  276TMC3    C7 4176   0.652   0.203  14.778  0.1089  0.5752  1.1911
  276TMC3    C8 4177   0.287   4.637  14.819  0.1111 -0.1841 -0.1549
  276TMC3    O1 4178   0.604   0.262  14.874  0.3511 -0.4369  0.3279
  276TMC3    O2 4179   0.210   4.578  14.745  0.5785  0.0675 -0.7266
  277MPD2     C 4180   2.134   3.753  13.567 -0.0078 -0.0438  1.0928
  277MPD2    C1 4181   1.998   3.748  13.570  0.0278  0.3683 -0.0171
  277MPD2    C2 4182   1.934   3.702  13.684 -0.3614 -0.2224  0.1974
  277MPD2    C3 4183   2.013   3.640  13.782  0.4568 -0.0886 -0.1598
  277MPD2    C4 4184   2.149   3.651  13.788 -0.0146  0.0803 -0.5278
  277MPD2    C5 4185   2.207   3.718  13.681 -0.2105  0.0924 -0.2451
  277MPD2     H 4186   1.826   3.687  13.690 -0.7271  1.2308 -2.7145
  277MPD2    H1 4187   2.211   3.621  13.872  0.0176 -2.6032 -1.4970
  277MPD2    H2 4188   2.184   3.813  13.492 -0.2481 -0.9268  0.2339
  277MPD2    H3 4189   2.313   3.735  13.691 -0.5751  2.2313 -0.0573
  277MPD2     N 4190   1.938   3.569  13.877  0.2392 -0.4512  0.9873
  277MPD2    H5 4191   1.837   3.583  13.882 -0.0150 -2.0838  0.5231
  277MPD2    N1 4192   1.929   3.793  13.457  0.4403  0.1244 -0.2092
  277MPD2    H7 4193   1.991   3.818  13.380  0.3207  0.8457 -0.0680
  278TMC3    C1 4194   1.902   3.404  14.041  0.5022 -0.2077  0.4553
  278TMC3    C2 4195   1.902   3.268  14.053  0.1976 -0.2492  0.6448
  278TMC3    C3 4196   1.786   3.206  14.067  0.7145  0.3995 -0.5797
  278TMC3    C4 4197   1.794   3.481  14.067  0.0101  0.4558  0.1193
  278TMC3    C5 4198   1.676   3.412  14.087 -0.0262 -1.1258 -0.7701
  278TMC3    C6 4199   1.664   3.276  14.076  0.0170  0.1404 -0.3298
  278TMC3     C 4200   1.998   3.466  13.948 -0.2872 -0.5009  0.0985
  278TMC3     O 4201   2.104   3.410  13.928 -0.5230  0.6857 -0.4884
  278TMC3     H 4202   1.983   3.209  14.011  0.6130  0.5356  0.3494
  278TMC3    H1 4203   1.808   3.588  14.082 -2.8995  1.0407 -1.3429
  278TMC3    H2 4204   1.571   3.227  14.104  0.1201  2.0951  3.3572
  278TMC3    C7 4205   1.562   3.494  14.113  0.2008  0.0699 -0.0643
  278TMC3    C8 4206   1.787   3.065  14.029  0.1958 -0.8947 -0.3231
  278TMC3    O1 4207   1.582   3.605  14.156  0.0563  0.7511  0.9195
  278TMC3    O2 4208   1.891   3.004  14.053  0.3621 -0.1618  0.0887
  279MPD2     C 4209   1.306   4.108   0.658  0.2785 -0.1659  0.1362
  279MPD2    C1 4210   1.251   3.995   0.600 -0.3297 -1.2218 -0.2482
  279MPD2    C2 4211   1.324   3.924   0.508  0.0856 -0.1980 -0.0979
  279MPD2    C3 4212   1.449   3.975   0.467  0.5811 -0.4032  0.5240
  279MPD2    C4 4213   1.497   4.082   0.524 -0.0977  0.0936 -0.3792
  279MPD2    C5 4214   1.432   4.150   0.626 -0.5074  0.1875  0.3620
  279MPD2     H 4215   1.292   3.831   0.462 -0.5945 -0.8008  1.6380
  279MPD2    H1 4216   1.590   4.132   0.502 -0.1365  0.6409  0.6915
  279MPD2    H2 4217   1.246   4.159   0.733  1.7426  2.0200 -0.1916
  279MPD2    H3 4218   1.471   4.245   0.661  1.6997 -0.2036 -0.9742
  279MPD2     N 4219   1.532   3.921   0.366 -0.6481  0.1487  0.4445
  279MPD2    H5 4220   1.616   3.968   0.333 -0.7087 -1.1744 -1.6388
  279MPD2    N1 4221   1.116   3.962   0.641 -0.6900  0.0770 -0.0499
  279MPD2    H7 4222   1.069   4.036   0.693 -0.4858  1.2308 -1.5351
  280TMC3    C1 4223   0.889   3.901   0.599  0.2096 -0.1188 -0.4007
  280TMC3    C2 4224   0.786   3.815   0.606 -0.5161  1.0125  0.2847
  280TMC3    C3 4225   0.654   3.847   0.583  0.3072 -0.0705  0.7020
  280TMC3    C4 4226   0.864   4.028   0.554  0.1128  0.4181 -0.3373
  280TMC3    C5 4227   0.738   4.064   0.535  0.2125  0.2849  0.2377
  280TMC3    C6 4228   0.625   3.980   0.554 -0.3266 -0.0473  0.1422
  280TMC3     C 4229   1.033   3.864   0.583 -0.1443  0.0227  0.2965
  280TMC3     O 4230   1.054   3.760   0.525 -0.8190 -0.2782 -0.0427
  280TMC3     H 4231   0.829   3.716   0.620 -2.0145  0.4210  0.6834
  280TMC3    H1 4232   0.945   4.099   0.540 -1.3410  2.0554 -0.3946
  280TMC3    H2 4233   0.520   3.996   0.533 -0.3603 -0.5463 -0.0684
  280TMC3    C7 4234   0.716   4.194   0.474  0.2576  0.3583  0.6022
  280TMC3    C8 4235   0.560   3.741   0.572 -0.0919 -0.9590 -0.0218
  280TMC3    O1 4236   0.813   4.252   0.427  0.4109 -0.6266  0.2287
  280TMC3    O2 4237   0.445   3.760   0.534  0.1490  0.0914 -0.3707
  281TMC3    C1 4238   4.611   3.525  13.411  0.0509 -0.1169  0.4681
  281TMC3    C2 4239   4.697   3.614  13.355  0.6747  0.2983  0.0398
  281TMC3    C3 4240   0.031   3.591  13.226  1.4652 -0.5984  0.0491
  281TMC3    C4 4241   4.603   3.397  13.358 -0.1533 -0.1909 -0.1561
  281TMC3    C5 4242   4.662   3.374  13.237  0.2186  0.1695  0.5114
  281TMC3    C6 4243   4.719   3.473  13.160  0.1032 -0.6554  0.1724
  281TMC3     C 4244   4.507   3.567  13.507 -0.3840 -0.1542 -0.2183
  281TMC3     O 4245   4.430   3.479  13.549  0.1360 -0.0969  0.0695
  281TMC3     H 4246   4.714   3.712  13.397  0.6108  0.1489  0.4085
  281TMC3    H1 4247   4.533   3.328  13.403 -2.8126  2.4217 -0.2461
  281TMC3    H2 4248   0.056   3.456  13.069  0.8941  0.7506  0.3942
  281TMC3    C7 4249   4.622   3.258  13.161 -0.0269  0.4542 -0.1213
  281TMC3    C8 4250   0.055   3.705  13.145  0.2357 -0.2007 -0.0681
  281TMC3    O1 4251   4.639   3.266  13.039  0.2007  0.4525  0.6511
  281TMC3    O2 4252   0.044   3.686  13.024  0.2667 -0.6156  0.6866
  282MPD2     C 4253   1.568   0.721  14.993 -0.2185  0.3286 -0.1002
  282MPD2    C1 4254   1.476   0.823  15.020  0.1877  0.1999 -0.2643
  282MPD2    C2 4255   1.433   0.904  14.914  0.3868 -0.1593  0.0540
  282MPD2    C3 4256   1.468   0.873  14.785  0.3778 -0.1698  0.5033
  282MPD2    C4 4257   1.542   0.763  14.757 -0.5999  0.4648  1.2979
  282MPD2    C5 4258   1.594   0.687  14.863  1.2280 -0.2617  0.4619
  282MPD2     H 4259   1.354   0.977  14.925  1.8252  1.2143  1.2198
  282MPD2    H1 4260   1.573   0.747  14.655  2.1406 -1.8897  2.4786
  282MPD2    H2 4261   1.628   0.670  15.068  0.6940  1.6521  0.0899
  282MPD2    H3 4262   1.662   0.603  14.850  0.6386 -0.9449  1.7186
  282MPD2     N 4263   1.410   0.948  14.675  0.2609 -0.4219  0.0812
  282MPD2    H5 4264   1.389   1.043  14.702  0.8830 -0.1004 -0.5560
  282MPD2    N1 4265   1.444   0.872  15.153 -0.4574  0.1288  0.3068
  282MPD2    H7 4266   1.392   0.958  15.162  0.3157  0.2116  3.7251
  283TMC3    C1 4267   1.403   0.854  15.377 -0.0769 -0.0441 -0.3761
  283TMC3    C2 4268   1.414   0.992  15.395 -0.4964  0.0593  0.1524
  283TMC3    C3 4269   1.382   1.036  15.523  0.1895 -0.0037 -0.2998
  283TMC3    C4 4270   1.346   0.769  15.468 -0.3105  0.3242  0.3157
  283TMC3    C5 4271   1.315   0.821  15.596  0.2663 -0.3138  0.2524
  283TMC3    C6 4272   1.324   0.957  15.621  0.1694  1.0704  0.0503
  283TMC3     C 4273   1.463   0.790  15.261  0.0253  0.1447  0.1166
  283TMC3     O 4274   1.471   0.668  15.257 -0.3349  0.4959  0.0456
  283TMC3     H 4275   1.479   1.053  15.333 -1.2508 -0.1383 -0.8459
  283TMC3    H1 4276   1.338   0.665  15.439  1.4187  1.2042 -3.3707
  283TMC3    H2 4277   1.299   0.999  15.718 -2.1408  2.0879 -0.9854
  283TMC3    C7 4278   1.216   0.749  15.681 -1.0088  0.3268  0.2520
  283TMC3    C8 4279   1.357   1.176  15.562 -0.6537 -0.0504 -0.1248
  283TMC3    O1 4280   1.117   0.803  15.722  0.7225 -0.0056 -0.2095
  283TMC3    O2 4281   1.286   1.204  15.656  0.7081  0.0236 -0.3126
  284MPD2     C 4282   0.413   0.312  12.012  0.5345 -0.6272  0.2006
  284MPD2    C1 4283   0.447   0.193  11.959  0.0622  0.4588  0.4376
  284MPD2    C2 4284   0.369   0.080  11.999 -0.1925 -0.1486  0.0958
  284MPD2    C3 4285   0.261   0.093  12.086  0.2547 -0.3361  0.4052
  284MPD2    C4 4286   0.234   0.217  12.135 -0.5576 -0.4786  0.1182
  284MPD2    C5 4287   0.308   0.323  12.095 -0.0187 -0.2474 -0.2206
  284MPD2     H 4288   0.391   4.707  11.945 -1.7489  0.2786 -1.2417
  284MPD2    H1 4289   0.156   0.231  12.208 -0.2741 -0.7363  0.4714
  284MPD2    H2 4290   0.452   0.407  11.978 -1.3891 -0.7019 -2.2353
  284MPD2    H3 4291   0.305   0.417  12.150  0.1139 -0.6763  0.5228
  284MPD2     N 4292   0.175   4.708  12.125  0.3112 -0.2844 -0.5888
  284MPD2    H5 4293   0.084   0.018  12.159  0.9681  1.4497 -0.3392
  284MPD2    N1 4294   0.541   0.178  11.858 -0.3374 -0.5557  0.4019
  284MPD2    H7 4295   0.527   0.091  11.809  1.1558  0.4389 -1.8035
  285TMC3    C1 4296   0.695   0.243  11.701  0.4097  0.3618  0.3161
  285TMC3    C2 4297   0.624   0.172  11.602  0.4890 -0.0772  0.3822
  285TMC3    C3 4298   0.668   0.179  11.471  0.3109  0.1906 -0.4571
  285TMC3    C4 4299   0.805   0.317  11.671 -0.5207  0.2957 -0.7874
  285TMC3    C5 4300   0.849   0.320  11.539 -0.6758 -0.3123  0.4662
  285TMC3    C6 4301   0.780   0.254  11.443  0.3737 -0.1581  0.2903
  285TMC3     C 4302   0.636   0.269  11.830  0.2281  0.1384  0.2799
  285TMC3     O 4303   0.677   0.360  11.903  0.1181  0.6022 -0.7279
  285TMC3     H 4304   0.527   0.129  11.625  0.2297  1.1296  1.5695
  285TMC3    H1 4305   0.864   0.375  11.741 -1.3292 -0.0595  0.1973
  285TMC3    H2 4306   0.804   0.268  11.338 -2.9958 -0.6440 -0.5488
  285TMC3    C7 4307   0.916   0.446  11.507  0.7768  0.0888 -0.3631
  285TMC3    C8 4308   0.604   0.095  11.368 -0.0597  0.7953  0.4252
  285TMC3    O1 4309   0.888   0.543  11.578 -0.2701  0.1522 -0.1519
  285TMC3    O2 4310   0.661   0.086  11.259  0.5453 -0.0412 -0.0137
  286MPD2     C 4311   4.687   3.431   1.868  0.0002  0.3617 -0.6286
  286MPD2    C1 4312   4.628   3.395   1.755  0.7579  0.5502  0.0906
  286MPD2    C2 4313   4.712   3.335   1.662 -0.6876  0.8174 -0.3009
  286MPD2    C3 4314   0.121   3.292   1.691 -0.4216 -0.1987  0.1587
  286MPD2    C4 4315   0.177   3.331   1.815  0.1842  0.8345  0.3720
  286MPD2    C5 4316   0.098   3.406   1.900 -0.4969  0.1077  0.0901
  286MPD2     H 4317   4.666   3.306   1.569 -0.2844 -1.8650  0.3105
  286MPD2    H1 4318   0.283   3.321   1.838  0.0022  0.4967  1.0775
  286MPD2    H2 4319   4.629   3.481   1.944 -0.8450 -0.8473 -0.4796
  286MPD2    H3 4320   0.141   3.451   1.989 -1.8841  0.9707  0.3296
  286MPD2     N 4321   0.203   3.213   1.601 -0.0489 -0.3000  0.2438
  286MPD2    H5 4322   0.299   3.199   1.630 -0.2419 -3.0039 -0.4867
  286MPD2    N1 4323   4.491   3.427   1.730 -0.2855 -0.7519  0.2716
  286MPD2    H7 4324   4.462   3.403   1.636  0.5494 -0.2235 -0.1311
  287TMC3    C1 4325   0.289   3.139   1.395 -0.1173  0.4018 -0.8663
  287TMC3    C2 4326   0.274   3.138   1.259 -0.1422  0.4233 -0.1044
  287TMC3    C3 4327   0.386   3.088   1.195 -0.5191 -0.2401 -0.5752
  287TMC3    C4 4328   0.407   3.108   1.465 -0.6201  0.2596 -0.0869
  287TMC3    C5 4329   0.515   3.070   1.388 -0.3223  0.2221  0.0227
  287TMC3    C6 4330   0.505   3.059   1.255 -0.4342 -0.0922 -0.1978
  287TMC3     C 4331   0.177   3.188   1.473 -0.3103  0.0634  0.1128
  287TMC3     O 4332   0.076   3.209   1.412 -0.2529  0.0349 -0.2751
  287TMC3     H 4333   0.184   3.176   1.211  0.5050  0.5180 -1.2458
  287TMC3    H1 4334   0.417   3.108   1.572  0.3156 -0.1777 -0.1770
  287TMC3    H2 4335   0.587   3.021   1.195  1.2777 -1.7482  3.2054
  287TMC3    C7 4336   0.652   3.079   1.443 -0.4087 -0.1682  0.0253
  287TMC3    C8 4337   0.371   3.052   1.054 -0.4575  0.4576  0.6194
  287TMC3    O1 4338   0.653   3.155   1.539  0.9467 -0.0874 -0.7062
  287TMC3    O2 4339   0.475   3.024   0.998  0.0813  0.4355 -0.1537
  288TMC3    C1 4340   2.465   3.312  14.360  0.2782  0.1699 -0.8260
  288TMC3    C2 4341   2.329   3.323  14.399 -0.1394 -0.0833  0.1140
  288TMC3    C3 4342   2.250   3.401  14.323 -0.6675  0.0972 -0.6673
  288TMC3    C4 4343   2.513   3.373  14.245  0.1217  0.3416 -0.1398
  288TMC3    C5 4344   2.423   3.443  14.174 -0.1702 -0.0739  0.3188
  288TMC3    C6 4345   2.295   3.463  14.209  0.5313 -0.0876  0.0375
  288TMC3     C 4346   2.554   3.243  14.445 -0.1317 -0.9321 -0.0007
  288TMC3     O 4347   2.516   3.235  14.563 -0.3520 -0.0762 -0.6651
  288TMC3     H 4348   2.286   3.278  14.487 -0.4849 -0.3361 -0.1814
  288TMC3    H1 4349   2.620   3.374  14.229 -0.2134 -1.1908 -2.4989
  288TMC3    H2 4350   2.233   3.530  14.151 -0.6226 -0.5177  0.7709
  288TMC3    C7 4351   2.466   3.510  14.054 -0.5884 -0.2962 -0.1290
  288TMC3    C8 4352   2.124   3.456  14.366 -0.6230  0.5326  0.1250
  288TMC3    O1 4353   2.420   3.623  14.043  0.2199  0.3289  0.1592
  288TMC3    O2 4354   2.075   3.548  14.298 -0.3032 -0.1463  0.0528
  289MPD2     C 4355   2.436   2.407  14.636  0.0394  0.5380 -0.0673
  289MPD2    C1 4356   2.409   2.510  14.556  0.2652 -0.2491  0.1439
  289MPD2    C2 4357   2.280   2.551  14.545  0.2261  0.3786 -0.4806
  289MPD2    C3 4358   2.179   2.488  14.617 -0.3859  0.9493 -0.2054
  289MPD2    C4 4359   2.212   2.393  14.711 -0.7111  0.5964 -0.6956
  289MPD2    C5 4360   2.338   2.347  14.715 -0.4889  0.3783  0.5444
  289MPD2     H 4361   2.260   2.645  14.495 -0.9270  0.6158  0.4274
  289MPD2    H1 4362   2.142   2.356  14.785  1.1416  1.4903  1.4983
  289MPD2    H2 4363   2.539   2.378  14.652 -0.7794 -2.0497  0.4954
  289MPD2    H3 4364   2.365   2.279  14.794 -0.0467  0.3028  0.3279
  289MPD2     N 4365   2.039   2.526  14.616  0.3877  0.2571 -0.5603
  289MPD2    H5 4366   1.972   2.468  14.667 -2.2302  3.7250 -0.0611
  289MPD2    N1 4367   2.515   2.581  14.502  0.1082  0.4071  0.6997
  289MPD2    H7 4368   2.606   2.544  14.528 -1.0524 -1.1886  2.4589
  290TMC3    C1 4369   1.848   2.653  14.571  0.0276 -0.0859  0.3112
  290TMC3    C2 4370   1.805   2.780  14.546  0.0537  0.1375 -0.1992
  290TMC3    C3 4371   1.672   2.812  14.527  0.8327  0.3324  0.7855
  290TMC3    C4 4372   1.762   2.548  14.569 -0.7481  0.3638  0.0065
  290TMC3    C5 4373   1.629   2.580  14.536 -0.1821 -0.2943  0.2395
  290TMC3    C6 4374   1.580   2.706  14.506 -0.1461  0.3574  0.0682
  290TMC3     C 4375   1.984   2.621  14.532 -0.5348 -0.3140  0.1481
  290TMC3     O 4376   2.047   2.686  14.448  0.4228 -0.1263  0.2818
  290TMC3     H 4377   1.874   2.861  14.525  2.7756 -1.6482  1.8404
  290TMC3    H1 4378   1.793   2.444  14.569  0.3348  0.6794  1.0007
  290TMC3    H2 4379   1.474   2.725  14.504 -0.1230  0.4323 -0.6018
  290TMC3    C7 4380   1.528   2.479  14.514  0.6879 -0.4809 -0.6027
  290TMC3    C8 4381   1.639   2.932  14.456 -0.1175  0.3549  0.1218
  290TMC3    O1 4382   1.411   2.513  14.485  0.2464  0.0356  0.1262
  290TMC3    O2 4383   1.640   3.045  14.511  0.4510 -0.3232 -0.7937
  291MPD2     C 4384   1.119   1.081   0.740  0.7454  0.2112 -0.1998
  291MPD2    C1 4385   1.031   1.079   0.629 -0.4686 -0.0027 -0.3196
  291MPD2    C2 4386   1.075   1.139   0.507 -0.6859 -0.4603  0.5666
  291MPD2    C3 4387   1.198   1.200   0.493 -0.4931  0.0361 -0.1874
  291MPD2    C4 4388   1.283   1.193   0.605  0.6159 -0.0424  0.2084
  291MPD2    C5 4389   1.239   1.144   0.726 -0.5594 -0.2701 -0.7065
  291MPD2     H 4390   1.004   1.148   0.425 -0.0057 -0.8251 -0.0581
  291MPD2    H1 4391   1.378   1.244   0.611 -0.0346  1.1276  0.6640
  291MPD2    H2 4392   1.089   1.042   0.837  0.3307 -0.4175 -0.5802
  291MPD2    H3 4393   1.299   1.141   0.816  0.5374  1.6562 -1.3639
  291MPD2     N 4394   1.239   1.266   0.376  0.3118 -0.4809 -0.1852
  291MPD2    H5 4395   1.336   1.296   0.379  0.2488 -0.2535 -0.3716
  291MPD2    N1 4396   0.898   1.041   0.645 -0.0169 -0.0861  0.3685
  291MPD2    H7 4397   0.842   1.061   0.563  0.6170  0.4769  0.0848
  292TMC3    C1 4398   0.694   0.958   0.726 -0.3430  0.4564 -0.1030
  292TMC3    C2 4399   0.621   0.911   0.834 -0.2359  0.7551  0.0418
  292TMC3    C3 4400   0.490   0.877   0.799  0.3382 -0.5802  0.4776
  292TMC3    C4 4401   0.641   0.964   0.598 -0.1299  0.5940 -0.2542
  292TMC3    C5 4402   0.513   0.929   0.579 -0.2424  0.2084  0.6596
  292TMC3    C6 4403   0.426   0.889   0.679  0.0464  0.9352 -0.1305
  292TMC3     C 4404   0.833   0.995   0.753  0.0982  0.4290 -0.3366
  292TMC3     O 4405   0.873   0.971   0.868  0.0482  0.0008 -0.1342
  292TMC3     H 4406   0.668   0.912   0.931 -0.4248 -1.3842  0.1483
  292TMC3    H1 4407   0.694   1.013   0.518  0.6531  1.9113  1.0641
  292TMC3    H2 4408   0.325   0.855   0.658  0.7578  0.9215 -3.4207
  292TMC3    C7 4409   0.466   0.919   0.440  0.1700 -0.5876 -0.0984
  292TMC3    C8 4410   0.410   0.824   0.899 -0.1803 -0.1105  0.1172
  292TMC3    O1 4411   0.491   1.000   0.348 -0.1189  0.1265 -0.4011
  292TMC3    O2 4412   0.459   0.764   0.997  0.1578 -0.2903  0.4274
  293MPD2     C 4413   3.048   3.853  12.595  0.2149  0.2238 -0.3938
  293MPD2    C1 4414   2.975   3.753  12.654  0.1495 -0.0124  0.5522
  293MPD2    C2 4415   2.992   3.728  12.792 -0.2734 -0.1889  0.4251
  293MPD2    C3 4416   3.075   3.815  12.866 -0.1076  0.4783 -0.9375
  293MPD2    C4 4417   3.147   3.909  12.798 -0.1683 -0.3895  0.8115
  293MPD2    C5 4418   3.133   3.931  12.665  0.4484  0.1806 -0.1701
  293MPD2     H 4419   2.929   3.658  12.846 -1.5174  0.5996  0.0142
  293MPD2    H1 4420   3.219   3.974  12.846  1.3306 -0.0061 -1.9167
  293MPD2    H2 4421   3.028   3.882  12.492 -3.2068 -0.2176  0.1253
  293MPD2    H3 4422   3.197   4.005  12.618  0.1329  0.8158  0.4075
  293MPD2     N 4423   3.093   3.800  13.005 -0.0292  0.7154  0.7734
  293MPD2    H5 4424   3.081   3.707  13.044  0.7719  0.6088  0.7699
  293MPD2    N1 4425   2.883   3.691  12.570  0.1440 -0.3792  0.1933
  293MPD2    H7 4426   2.858   3.738  12.484 -0.3288  1.7254  1.4939
  294TMC3    C1 4427   2.708   3.555  12.491  0.3306  0.1319 -0.0935
  294TMC3    C2 4428   2.585   3.521  12.539  0.0192  0.1070  0.0151
  294TMC3    C3 4429   2.489   3.489  12.445 -0.1249 -0.1157  0.1627
  294TMC3    C4 4430   2.737   3.560  12.359  0.2852 -0.5714 -1.3737
  294TMC3    C5 4431   2.640   3.534  12.266  0.0100 -0.3564  0.5718
  294TMC3    C6 4432   2.518   3.491  12.312 -0.3100 -0.1336  0.0809
  294TMC3     C 4433   2.807   3.587  12.598  0.5782  0.1720  0.0062
  294TMC3     O 4434   2.792   3.534  12.704 -0.0174 -0.4758  0.1410
  294TMC3     H 4435   2.571   3.507  12.645 -1.7569 -1.0671 -0.3653
  294TMC3    H1 4436   2.838   3.589  12.331  0.9896 -0.6295  1.1143
  294TMC3    H2 4437   2.442   3.470  12.238 -0.3897  1.8624 -0.3950
  294TMC3    C7 4438   2.680   3.450  12.158 -0.2880  0.6943  0.2616
  294TMC3    C8 4439   2.443   3.359  12.478 -0.3340 -0.3932  0.0452
  294TMC3    O1 4440   2.609   3.350  12.151 -0.0248  0.3377 -0.4686
  294TMC3    O2 4441   2.403   3.337  12.591  1.3931  0.5888  0.0758
  295MPD2     C 4442   3.774   2.394   0.652  0.2400 -0.0182 -0.0552
  295MPD2    C1 4443   3.661   2.319   0.617  0.6740 -0.4350  0.2542
  295MPD2    C2 4444   3.539   2.363   0.662  0.4128  0.4020  0.3597
  295MPD2    C3 4445   3.531   2.488   0.731  0.4655  0.2490 -0.7626
  295MPD2    C4 4446   3.643   2.565   0.744  0.0697 -0.1806  0.1765
  295MPD2    C5 4447   3.764   2.521   0.710  0.0185  0.2434  0.0338
  295MPD2     H 4448   3.451   2.309   0.631  0.7232  0.1854 -0.1589
  295MPD2    H1 4449   3.644   2.661   0.795 -2.3185 -0.0043 -0.1086
  295MPD2    H2 4450   3.873   2.362   0.621 -0.3036 -1.8002  0.0255
  295MPD2    H3 4451   3.850   2.586   0.718  0.2744 -0.2154  1.0890
  295MPD2     N 4452   3.400   2.532   0.782  0.0504  0.8814 -0.1790
  295MPD2    H5 4453   3.397   2.626   0.820 -1.5060  2.0105 -3.1194
  295MPD2    N1 4454   3.664   2.197   0.544 -0.0555  0.1968 -0.3238
  295MPD2    H7 4455   3.575   2.153   0.523  0.3671 -0.6183 -0.4110
  296TMC3    C1 4456   3.164   2.532   0.815 -0.3662 -0.4253  0.3462
  296TMC3    C2 4457   3.163   2.667   0.853 -0.3679 -0.6214  0.1360
  296TMC3    C3 4458   3.046   2.724   0.864  0.6400  0.9933  0.4840
  296TMC3    C4 4459   3.047   2.483   0.767 -0.0262 -0.2647  0.1725
  296TMC3    C5 4460   2.929   2.548   0.769 -0.3564  0.1716  0.5343
  296TMC3    C6 4461   2.923   2.670   0.827 -0.2806  0.6529 -0.5442
  296TMC3     C 4462   3.288   2.455   0.801  0.2629 -0.0614 -0.5406
  296TMC3     O 4463   3.271   2.334   0.784  0.1103 -0.5869 -0.1226
  296TMC3     H 4464   3.256   2.698   0.898  0.0597  1.7017 -2.3106
  296TMC3    H1 4465   3.049   2.380   0.735  2.5655 -0.5358  1.2270
  296TMC3    H2 4466   2.829   2.723   0.829 -1.7532 -1.9407 -0.8057
  296TMC3    C7 4467   2.809   2.482   0.736  0.0179  0.0031  0.2336
  296TMC3    C8 4468   3.037   2.855   0.926 -0.7821 -0.0324  0.0203
  296TMC3    O1 4469   2.806   2.422   0.632  0.3213  0.5647  0.6679
  296TMC3    O2 4470   2.926   2.897   0.961  0.7011 -0.1181 -0.5285
  297MPD2     C 4471   0.482   4.484  16.765  0.1252  0.0200 -0.7635
  297MPD2    C1 4472   0.449   4.538  16.644 -0.3597 -0.4859 -0.1791
  297MPD2    C2 4473   0.549   4.596  16.569 -0.5466  0.7638  0.7525
  297MPD2    C3 4474   0.681   4.600  16.623  0.0520  0.2066  1.0334
  297MPD2    C4 4475   0.710   4.545  16.741 -0.1108 -0.1724 -0.7279
  297MPD2    C5 4476   0.606   4.490  16.813  0.1517  0.5481  0.0989
  297MPD2     H 4477   0.535   4.637  16.469  0.9281  0.9994  0.6458
  297MPD2    H1 4478   0.807   4.548  16.790 -0.7490  1.7100  0.4265
  297MPD2    H2 4479   0.415   4.413  16.810 -0.9340  0.8483 -1.0290
  297MPD2    H3 4480   0.616   4.438  16.907 -1.4268  1.9287  1.0285
  297MPD2     N 4481   0.776   4.666  16.542  0.8240 -0.2899  0.3723
  297MPD2    H5 4482   0.739   4.708  16.458  0.2582  0.8715  1.1979
  297MPD2    N1 4483   0.327   4.516  16.580  0.6715  0.4835  0.3144
  297MPD2    H7 4484   0.323   4.551  16.484 -1.1561  0.7010  0.4796
  298TMC3    C1 4485   0.095   4.498  16.570 -0.3840  0.0034  0.0993
  298TMC3    C2 4486   0.097   4.452  16.443 -0.2957  0.5881 -0.4921
  298TMC3    C3 4487   4.699   4.470  16.375  0.5300 -0.8247 -0.2148
  298TMC3    C4 4488   4.711   4.568  16.628  0.2637 -0.6353 -0.0568
  298TMC3    C5 4489   4.592   4.567  16.564  0.1796  0.2282  0.0688
  298TMC3    C6 4490   4.585   4.507  16.438 -0.0035 -0.0146  0.7129
  298TMC3     C 4491   0.215   4.494  16.650 -0.2389  0.3334 -0.3657
  298TMC3     O 4492   0.194   4.473  16.769  0.1438  0.4136  0.0490
  298TMC3     H 4493   0.188   4.409  16.402  0.5088  0.4081  1.4695
  298TMC3    H1 4494   0.011   4.621  16.721  0.0479 -2.5939  1.1234
  298TMC3    H2 4495   4.488   4.493  16.393  0.8921  0.6858 -1.4192
  298TMC3    C7 4496   4.479   4.624  16.629 -0.1009  0.0170  0.8507
  298TMC3    C8 4497   4.687   4.369  16.278 -0.1014 -0.1017 -0.1334
  298TMC3    O1 4498   4.485   4.669  16.742 -0.0091  0.3321  0.3153
  298TMC3    O2 4499   0.053   4.283  16.266  0.0205 -0.2098  0.4777
  299MPD2     C 4500   1.595   4.006  10.805 -0.5779  0.8262  0.0193
  299MPD2    C1 4501   1.608   4.130  10.741 -0.1217 -0.4890  0.2275
  299MPD2    C2 4502   1.585   4.136  10.601  0.8694 -0.1101  0.4687
  299MPD2    C3 4503   1.531   4.025  10.532  0.6976  0.6011 -0.0708
  299MPD2    C4 4504   1.515   3.904  10.599  0.6317 -0.0074 -0.1539
  299MPD2    C5 4505   1.550   3.898  10.732  0.4945 -0.3161  0.2076
  299MPD2     H 4506   1.591   4.232  10.551  0.8954 -1.2878 -1.7901
  299MPD2    H1 4507   1.460   3.823  10.553 -0.9554  1.6057 -1.0497
  299MPD2    H2 4508   1.618   4.001  10.911 -0.3090  0.5008 -0.0545
  299MPD2    H3 4509   1.540   3.803  10.783  1.5648  0.0543  1.1147
  299MPD2     N 4510   1.485   4.026  10.398  0.2571  0.5194 -0.3112
  299MPD2    H5 4511   1.424   3.950  10.369  2.4771 -0.8016 -1.5221
  299MPD2    N1 4512   1.658   4.239  10.809  0.2015  0.2772 -0.0221
  299MPD2    H7 4513   1.705   4.219  10.897 -1.7246 -0.1026  0.9319
  300TMC3    C1 4514   1.419   4.109  10.197  0.4653 -0.6996 -0.4988
  300TMC3    C2 4515   1.347   4.223  10.152  0.4472 -0.1864  0.0429
  300TMC3    C3 4516   1.222   4.202  10.089 -0.0567  0.3175  0.0553
  300TMC3    C4 4517   1.369   3.981  10.173 -0.2303 -0.3735 -0.1562
  300TMC3    C5 4518   1.242   3.969  10.122 -0.6195 -0.2910 -0.7326
  300TMC3    C6 4519   1.171   4.073  10.065  0.2280  0.2169 -0.2715
  300TMC3     C 4520   1.515   4.127  10.309  0.5700  0.1691 -0.1494
  300TMC3     O 4521   1.570   4.232  10.323  0.0025 -0.9610  0.4462
  300TMC3     H 4522   1.376   4.319  10.194  2.7583 -1.5060  1.4312
  300TMC3    H1 4523   1.419   3.893  10.211 -1.7316  0.0291  2.7568
  300TMC3    H2 4524   1.074   4.053  10.021  0.2182  1.1918 -0.6879
  300TMC3    C7 4525   1.158   3.884  10.203  0.4222  0.1696  0.1045
  300TMC3    C8 4526   1.132   4.310  10.107 -0.2232  0.0464 -0.3810
  300TMC3    O1 4527   1.204   3.774  10.231 -0.6817 -0.1840 -0.0638
  300TMC3    O2 4528   1.189   4.415  10.137  0.3132  0.2531  0.1845
  301MPD2     C 4529   3.330   1.600   1.437 -0.0618 -0.2522  0.2083
  301MPD2    C1 4530   3.277   1.465   1.434 -0.5573  0.0107  0.1455
  301MPD2    C2 4531   3.355   1.368   1.375  0.0316  0.0994  0.6020
  301MPD2    C3 4532   3.476   1.395   1.319 -0.2181 -0.1965 -0.3832
  301MPD2    C4 4533   3.521   1.527   1.316  0.2123 -0.4345 -1.1930
  301MPD2    C5 4534   3.450   1.626   1.379 -0.7464  0.4291 -0.4130
  301MPD2     H 4535   3.317   1.268   1.362  1.5084 -0.3361 -0.4001
  301MPD2    H1 4536   3.620   1.550   1.279  0.6953 -1.5855 -0.6292
  301MPD2    H2 4537   3.276   1.686   1.472 -0.3233 -1.2450  2.2165
  301MPD2    H3 4538   3.482   1.729   1.384 -1.6137  0.4309  5.2688
  301MPD2     N 4539   3.559   1.305   1.257 -0.3886  0.0184  0.2276
  301MPD2    H5 4540   3.626   1.330   1.185 -0.6721  0.9044  0.2720
  301MPD2    N1 4541   3.150   1.418   1.475 -0.4958  0.0563 -0.6496
  301MPD2    H7 4542   3.121   1.325   1.447  2.8963 -1.5492  1.2146
  302TMC3    C1 4543   3.598   1.098   1.167  0.3873  0.1090 -0.1265
  302TMC3    C2 4544   3.602   0.968   1.211 -0.8780  0.4684 -0.0546
  302TMC3    C3 4545   3.552   0.869   1.128 -0.1493 -0.2756 -0.6802
  302TMC3    C4 4546   3.536   1.133   1.051  0.6045 -0.5257  0.4952
  302TMC3    C5 4547   3.485   1.035   0.977 -0.5076  1.0024  0.0092
  302TMC3    C6 4548   3.490   0.904   1.007  0.2713 -0.1454 -0.3025
  302TMC3     C 4549   3.549   1.170   1.280  0.5255 -0.1333 -0.6965
  302TMC3     O 4550   3.490   1.111   1.370 -0.2566 -0.5807 -0.2446
  302TMC3     H 4551   3.649   0.940   1.305  3.0751 -1.1287 -2.4922
  302TMC3    H1 4552   3.529   1.238   1.024 -0.1525 -0.6297  0.2871
  302TMC3    H2 4553   3.443   0.824   0.950 -0.4586 -0.3854  0.6390
  302TMC3    C7 4554   3.377   1.081   0.885 -1.1479  0.4280 -0.4411
  302TMC3    C8 4555   3.486   0.753   1.189 -0.3836  0.2833  0.2631
  302TMC3    O1 4556   3.385   1.191   0.831  0.0193  0.0286  0.1487
  302TMC3    O2 4557   3.439   0.662   1.119 -0.3778  0.1267  0.5800
  303MPD2     C 4558   3.918   3.397  10.722 -0.7541  0.0423 -0.5845
  303MPD2    C1 4559   3.814   3.306  10.735 -0.1543 -0.3311 -0.5471
  303MPD2    C2 4560   3.773   3.233  10.621  0.6650  0.0849 -0.1097
  303MPD2    C3 4561   3.816   3.263  10.489  0.2535 -0.6887 -0.4063
  303MPD2    C4 4562   3.904   3.369  10.482 -0.6586  0.1879  0.2466
  303MPD2    C5 4563   3.961   3.432  10.597  0.1834  0.3523  0.5861
  303MPD2     H 4564   3.703   3.152  10.632  0.4452  0.2053 -0.6701
  303MPD2    H1 4565   3.957   3.395  10.392  1.1832  1.7689  1.7876
  303MPD2    H2 4566   3.963   3.442  10.809 -3.0519  3.3604 -1.1215
  303MPD2    H3 4567   4.033   3.512  10.586  1.0985 -0.6575 -0.7340
  303MPD2     N 4568   3.773   3.197  10.371  0.5223 -0.4157  0.4391
  303MPD2    H5 4569   3.783   3.249  10.284  0.4744 -0.2362  0.5418
  303MPD2    N1 4570   3.749   3.283  10.864 -0.2572  0.0223  0.4303
  303MPD2    H7 4571   3.788   3.332  10.944 -0.5318 -0.6967  1.0045
  304TMC3    C1 4572   3.598   3.213  11.028  0.7702 -0.5087 -0.4666
  304TMC3    C2 4573   3.475   3.188  11.071  0.2602 -0.0843 -0.1852
  304TMC3    C3 4574   3.454   3.120  11.191 -0.3126 -0.0129  0.5573
  304TMC3    C4 4575   3.708   3.161  11.100  0.2318  0.2671  0.7484
  304TMC3    C5 4576   3.692   3.075  11.208 -0.3837  0.3536 -0.0879
  304TMC3    C6 4577   3.562   3.059  11.254 -0.3810 -0.0328  0.4497
  304TMC3     C 4578   3.628   3.221  10.885  0.0686 -0.2833 -0.4523
  304TMC3     O 4579   3.550   3.177  10.804  0.0850 -0.9020  0.1649
  304TMC3     H 4580   3.386   3.218  11.015  0.2977  0.2540 -0.0600
  304TMC3    H1 4581   3.804   3.145  11.053 -1.3548  2.3890 -3.2739
  304TMC3    H2 4582   3.543   3.001  11.343  0.1323  0.3948  0.8382
  304TMC3    C7 4583   3.771   2.952  11.195 -0.5538  0.2533  0.0910
  304TMC3    C8 4584   3.357   3.015  11.174  0.0570 -0.3728  0.6034
  304TMC3    O1 4585   3.892   2.948  11.182 -0.2555 -0.3036 -0.3115
  304TMC3    O2 4586   3.396   2.901  11.200  0.3235 -0.7187  0.2228
  305MPD2     C 4587   1.338   0.475  13.762 -0.0147  0.2159  0.8715
  305MPD2    C1 4588   1.426   0.568  13.721  0.1607 -0.3875 -0.9030
  305MPD2    C2 4589   1.462   0.572  13.585 -0.0260  0.3639 -0.2531
  305MPD2    C3 4590   1.413   0.476  13.499 -0.3982  0.3896  0.4498
  305MPD2    C4 4591   1.338   0.374  13.544 -0.3257 -1.4542  0.0438
  305MPD2    C5 4592   1.293   0.376  13.675  0.0361 -0.1910 -0.2237
  305MPD2     H 4593   1.539   0.643  13.555 -1.2940  1.2717 -1.3165
  305MPD2    H1 4594   1.291   0.312  13.469 -3.0057  0.6991 -0.0647
  305MPD2    H2 4595   1.307   0.471  13.865 -1.3675 -2.2065  0.3619
  305MPD2    H3 4596   1.236   0.295  13.718 -0.3964  0.7324  0.9356
  305MPD2     N 4597   1.457   0.462  13.363 -0.3294  0.4196 -0.2430
  305MPD2    H5 4598   1.430   0.380  13.311  0.8601  0.6870 -1.2874
  305MPD2    N1 4599   1.482   0.653  13.820 -0.4051  0.8934 -0.0686
  305MPD2    H7 4600   1.474   0.623  13.917 -0.4670  1.3104  0.0561
  306TMC3    C1 4601   1.615   0.836  13.900  0.5690  0.3416  0.4867
  306TMC3    C2 4602   1.667   0.747  13.990 -0.1578 -0.3951 -0.1131
  306TMC3    C3 4603   1.757   0.799  14.080  1.1221 -0.6138  0.2513
  306TMC3    C4 4604   1.630   0.967  13.906 -0.6372 -0.2116 -0.2963
  306TMC3    C5 4605   1.717   1.014  14.003 -0.5905 -0.3650 -0.6206
  306TMC3    C6 4606   1.792   0.929  14.077  0.6413 -0.0539  0.7728
  306TMC3     C 4607   1.536   0.777  13.789 -0.1784 -0.0028  0.0637
  306TMC3     O 4608   1.497   0.858  13.706  0.1177 -0.8315  0.0698
  306TMC3     H 4609   1.634   0.644  13.998  0.8941 -0.8896 -2.0167
  306TMC3    H1 4610   1.572   1.026  13.836 -2.1264  0.3046  1.3955
  306TMC3    H2 4611   1.881   0.959  14.131  1.3196  2.4711 -1.7751
  306TMC3    C7 4612   1.659   1.124  14.085  0.2294 -0.1260 -0.1828
  306TMC3    C8 4613   1.778   0.740  14.208  0.2180 -0.2849 -0.2338
  306TMC3    O1 4614   1.541   1.153  14.067 -0.2218 -0.3206  0.3669
  306TMC3    O2 4615   1.806   0.624  14.207 -0.3660 -0.4667  0.0588
  307MPD2     C 4616   3.359   2.851   0.588 -0.4480 -0.4135 -0.4374
  307MPD2    C1 4617   3.340   2.982   0.612 -0.1127  0.2564 -0.2419
  307MPD2    C2 4618   3.207   3.024   0.620 -0.0232  0.4015  0.6366
  307MPD2    C3 4619   3.100   2.943   0.602 -0.8795  0.1611 -0.1863
  307MPD2    C4 4620   3.118   2.811   0.569  0.6933  0.4533  0.1774
  307MPD2    C5 4621   3.252   2.773   0.567  0.0192  0.4360  0.5083
  307MPD2     H 4622   3.182   3.128   0.635  1.6173  0.6617  1.5557
  307MPD2    H1 4623   3.038   2.745   0.537  0.4703  0.8995 -0.1851
  307MPD2    H2 4624   3.455   2.802   0.576  0.5682  1.1650  1.2642
  307MPD2    H3 4625   3.274   2.670   0.542 -0.3348 -0.1055  2.4603
  307MPD2     N 4626   2.969   2.998   0.625  0.0256  0.6543 -0.0182
  307MPD2    H5 4627   2.976   3.096   0.648 -1.4302  0.7684 -0.1028
  307MPD2    N1 4628   3.447   3.072   0.606  0.4999  0.4816  0.9164
  307MPD2    H7 4629   3.424   3.170   0.591 -0.2075  0.2442  0.4337
  308TMC3    C1 4630   2.579   3.171   0.509 -0.3002  0.0007 -0.2497
  308TMC3    C2 4631   2.578   3.262   0.611  0.7373 -0.0013 -0.4003
  308TMC3    C3 4632   2.674   3.229   0.707  0.2280  0.0261  0.2436
  308TMC3    C4 4633   2.644   3.050   0.519  0.1667  0.1891 -0.4748
  308TMC3    C5 4634   2.731   3.024   0.617  0.0286  0.5414  0.5924
  308TMC3    C6 4635   2.745   3.115   0.714 -0.2521 -0.3109  0.4953
  308TMC3     C 4636   2.502   3.199   0.386 -0.1478 -0.2841 -0.8945
  308TMC3     O 4637   2.477   3.113   0.306  0.3155 -0.2940  0.4709
  308TMC3     H 4638   2.518   3.353   0.614  0.0031 -0.4326 -1.9876
  308TMC3    H1 4639   2.630   2.983   0.435 -0.4408 -1.4862  0.9712
  308TMC3    H2 4640   2.820   3.109   0.792 -0.2144  0.5569  0.5306
  308TMC3    C7 4641   2.844   2.944   0.584 -0.1824  0.2114 -0.0951
  308TMC3    C8 4642   2.692   3.316   0.818 -0.1897 -0.2532  0.5862
  308TMC3    O1 4643   2.814   2.858   0.500  0.4712  0.3463  0.3767
  308TMC3    O2 4644   2.727   3.276   0.926  0.3185 -0.1618  0.1455
  309MPD2     C 4645   2.864   4.158  16.958 -0.9752  1.1424 -0.7710
  309MPD2    C1 4646   2.864   4.256  16.851  0.2972 -0.8281 -0.0689
  309MPD2    C2 4647   2.777   4.358  16.860  0.0074 -0.2984  0.7050
  309MPD2    C3 4648   2.686   4.369  16.970  0.3492 -0.6778 -0.3974
  309MPD2    C4 4649   2.691   4.268  17.070 -0.4450 -0.8285  0.2451
  309MPD2    C5 4650   2.779   4.164  17.060 -0.2683 -0.2448 -0.3014
  309MPD2     H 4651   2.769   4.434  16.783  0.4414 -0.8047  0.1658
  309MPD2    H1 4652   2.619   4.258  17.150 -1.1981  0.5208 -0.2567
  309MPD2    H2 4653   2.934   4.076  16.948 -0.8869  1.1182  0.0672
  309MPD2    H3 4654   2.770   4.086  17.134  2.3628  0.6362  0.9539
  309MPD2     N 4655   2.582   4.474  16.979  0.0738  0.4484  0.2033
  309MPD2    H5 4656   2.522   4.469  17.061 -0.3727 -0.6360 -0.1812
  309MPD2    N1 4657   2.951   4.250  16.739 -0.0387 -0.2771  0.7502
  309MPD2    H7 4658   2.931   4.332  16.683  0.8332 -0.1760  0.5929
  310TMC3    C1 4659   3.113   4.177  16.581 -0.0233 -0.1711  0.0159
  310TMC3    C2 4660   3.033   4.224  16.479 -0.2010 -0.0138 -0.3580
  310TMC3    C3 4661   3.075   4.200  16.350  0.6167  0.9902 -0.1216
  310TMC3    C4 4662   3.228   4.106  16.559 -0.1570 -0.4852 -0.0986
  310TMC3    C5 4663   3.274   4.102  16.432 -0.1682  0.2577 -0.1223
  310TMC3    C6 4664   3.201   4.151  16.327 -0.0732  0.0553 -0.7019
  310TMC3     C 4665   3.047   4.157  16.707 -0.0660 -0.4954  0.6247
  310TMC3     O 4666   3.087   4.064  16.773 -0.4984  0.6362 -0.3997
  310TMC3     H 4667   2.932   4.259  16.494  0.1592  0.1230  1.8233
  310TMC3    H1 4668   3.292   4.073  16.639 -1.9990  1.7821  2.3364
  310TMC3    H2 4669   3.240   4.160  16.226 -0.0449  1.2025 -0.5958
  310TMC3    C7 4670   3.411   4.058  16.413 -0.1027 -0.2781  0.3248
  310TMC3    C8 4671   3.033   4.289  16.245 -0.3280  0.3868 -0.0976
  310TMC3    O1 4672   3.483   4.055  16.512  0.5379  0.1626 -0.1244
  310TMC3    O2 4673   3.031   4.247  16.129  0.3221 -0.3016 -0.1170
  311MPD2     C 4674   1.058   0.473  12.544  0.2931 -0.6666 -0.4569
  311MPD2    C1 4675   1.009   0.597  12.499 -0.9519 -0.0833 -0.4963
  311MPD2    C2 4676   0.881   0.633  12.531  0.8650 -0.5634  0.1148
  311MPD2    C3 4677   0.803   0.551  12.609 -0.0641  0.0354 -0.4610
  311MPD2    C4 4678   0.846   0.427  12.651 -0.5717 -0.3915 -0.0631
  311MPD2    C5 4679   0.974   0.391  12.622  0.2664 -0.2878  0.2817
  311MPD2     H 4680   0.843   0.729  12.497  0.3561  0.1410  2.6497
  311MPD2    H1 4681   0.789   0.359  12.713 -1.1410 -0.3592 -0.5518
  311MPD2    H2 4682   1.160   0.442  12.529  0.6276  0.2482 -0.0604
  311MPD2    H3 4683   1.012   0.305  12.675 -0.6585 -0.1958  1.1041
  311MPD2     N 4684   0.669   0.605  12.633  0.8241 -0.1175  0.2994
  311MPD2    H5 4685   0.649   0.696  12.592 -0.1096 -0.0443  0.9253
  311MPD2    N1 4686   1.088   0.684  12.419 -0.4974  0.0830 -0.2148
  311MPD2    H7 4687   1.051   0.774  12.391  1.2665  0.4813 -1.2376
  312TMC3    C1 4688   0.474   0.647  12.765 -0.9041  0.0367  0.6231
  312TMC3    C2 4689   0.351   0.593  12.806 -0.3391 -0.3913  0.0304
  312TMC3    C3 4690   0.253   0.680  12.855  0.2415  0.2391 -0.0273
  312TMC3    C4 4691   0.498   0.777  12.770  0.1272  0.1427 -0.0304
  312TMC3    C5 4692   0.403   0.857  12.835 -0.7399  0.0649  0.1612
  312TMC3    C6 4693   0.284   0.810  12.882 -0.2086 -0.4292 -1.1234
  312TMC3     C 4694   0.575   0.556  12.714  0.1397  0.6432  0.2901
  312TMC3     O 4695   0.556   0.438  12.742  0.0735 -0.0516  0.1340
  312TMC3     H 4696   0.333   0.486  12.806 -1.5135 -0.1977 -1.5916
  312TMC3    H1 4697   0.597   0.813  12.745 -0.1346 -0.4462 -1.8613
  312TMC3    H2 4698   0.215   0.880  12.926 -0.3166 -0.5946 -1.0319
  312TMC3    C7 4699   0.472   0.957  12.914  0.2858  0.3822  0.0900
  312TMC3    C8 4700   0.117   0.639  12.829  0.3147  0.6375 -0.0052
  312TMC3    O1 4701   0.558   1.019  12.849  0.0904 -0.1854 -0.8758
  312TMC3    O2 4702   0.102   0.520  12.808  0.0422  0.3201  0.2578
  313MPD2     C 4703   0.148   4.518  10.858 -0.3548  0.1948 -0.8716
  313MPD2    C1 4704   0.173   4.536  10.726 -0.5379  0.0565  0.2846
  313MPD2    C2 4705   0.099   4.464  10.639 -0.0752  0.2983 -0.3926
  313MPD2    C3 4706   4.710   4.392  10.676  0.8602 -0.9304  0.2073
  313MPD2    C4 4707   4.694   4.369  10.813 -0.2680 -0.3376 -0.2755
  313MPD2    C5 4708   0.048   4.441  10.903 -0.0525  0.7689 -1.1883
  313MPD2     H 4709   0.121   4.458  10.533 -1.4828 -1.1390 -0.6044
  313MPD2    H1 4710   4.614   4.306  10.851 -1.6187  1.3150 -0.3405
  313MPD2    H2 4711   0.214   4.564  10.931  0.0566 -0.7819 -0.6390
  313MPD2    H3 4712   0.027   4.436  11.010  1.8454 -2.5552 -0.9877
  313MPD2     N 4713   4.642   4.324  10.575 -0.6793  0.9624  0.1495
  313MPD2    H5 4714   4.670   4.338  10.479  0.3409 -1.3136  0.1262
  313MPD2    N1 4715   0.285   4.599  10.672 -0.6759  0.1398  0.8888
  313MPD2    H7 4716   0.288   4.599  10.571  0.8862  0.4591  0.9389
  314TMC3    C1 4717   0.454   0.033  10.645  0.1969 -0.0987  0.2893
  314TMC3    C2 4718   0.526   0.137  10.692 -0.4708 -0.3000  0.2764
  314TMC3    C3 4719   0.605   0.213  10.610 -0.2797  0.1876 -0.1194
  314TMC3    C4 4720   0.468   0.004  10.517  0.0686  0.0987  0.1658
  314TMC3    C5 4721   0.540   0.085  10.431 -0.3539 -0.6475 -0.6405
  314TMC3    C6 4722   0.620   0.187  10.476  0.0742  0.0163  0.1297
  314TMC3     C 4723   0.379   4.681  10.745 -0.2806 -0.2322 -0.5671
  314TMC3     O 4724   0.388   4.695  10.862  0.2804  0.4719  0.4140
  314TMC3     H 4725   0.510   0.152  10.799  1.2590 -1.1665  0.6566
  314TMC3    H1 4726   0.428   4.631  10.476  0.4076  0.2851 -0.5799
  314TMC3    H2 4727   0.689   0.236  10.408  2.2038 -0.6949  1.7928
  314TMC3    C7 4728   0.547   0.054  10.286  0.2515 -0.1109  0.1717
  314TMC3    C8 4729   0.709   0.297  10.666 -0.0152 -0.5443 -0.1600
  314TMC3    O1 4730   0.524   4.657  10.258 -0.4724 -0.7748 -0.2272
  314TMC3    O2 4731   0.766   0.371  10.588  0.1970 -0.1410  0.3031
  315MPD2     C 4732   4.313   3.985   0.426 -0.9086  0.2902 -0.7667
  315MPD2    C1 4733   4.450   4.006   0.456  0.2397  0.3423 -0.3737
  315MPD2    C2 4734   4.499   4.133   0.461  1.6358  0.6228  0.5318
  315MPD2    C3 4735   4.418   4.237   0.416  0.4232 -0.0585 -0.4867
  315MPD2    C4 4736   4.283   4.217   0.382  0.2021 -0.2530 -0.8023
  315MPD2    C5 4737   4.238   4.091   0.386  0.8128  0.2028  0.1700
  315MPD2     H 4738   4.604   4.142   0.485  1.2766 -1.4347  2.8050
  315MPD2    H1 4739   4.216   4.292   0.341 -0.0733  0.4229  0.8462
  315MPD2    H2 4740   4.273   3.885   0.416 -1.8429  0.5648  0.2261
  315MPD2    H3 4741   4.133   4.078   0.363  0.8312 -0.3163  0.3734
  315MPD2     N 4742   4.485   4.365   0.399  0.2890  0.3625 -0.2291
  315MPD2    H5 4743   4.586   4.365   0.407  0.3628  0.9468 -1.1361
  315MPD2    N1 4744   4.540   3.901   0.491 -0.0646  0.3340 -0.4363
  315MPD2    H7 4745   4.630   3.940   0.519  0.4632 -0.2872 -1.2669
  316TMC3    C1 4746   4.520   4.582   0.317  0.2923  0.2455 -0.1106
  316TMC3    C2 4747   4.649   4.554   0.341 -0.2672 -0.2685 -0.9788
  316TMC3    C3 4748   0.018   4.608   0.253 -0.7029  0.8453  0.4208
  316TMC3    C4 4749   4.473   4.651   0.206 -1.0108 -0.4060  0.2098
  316TMC3    C5 4750   4.561   4.705   0.127 -0.1934  0.1147  0.7355
  316TMC3    C6 4751   4.695   4.690   0.147  0.4105 -0.2287 -0.5521
  316TMC3     C 4752   4.423   4.482   0.365  0.5144 -0.1039  0.3153
  316TMC3     O 4753   4.305   4.503   0.365  0.0509 -0.2542  0.0518
  316TMC3     H 4754   4.681   4.514   0.436  0.6993  2.4126 -0.1889
  316TMC3    H1 4755   4.367   4.654   0.182 -1.0658  4.3655  1.0270
  316TMC3    H2 4756   0.044   0.014   0.074 -0.0642  3.2134  1.0531
  316TMC3    C7 4757   4.501   0.058   0.013  0.7378 -0.1627  0.9385
  316TMC3    C8 4758   0.164   4.613   0.281 -0.4242 -0.3307  0.4659
  316TMC3    O1 4759   4.382   0.093   0.018  0.7281  0.0116  0.2467
  316TMC3    O2 4760   0.219   4.700   0.220 -0.3537  0.4797 -0.6588
  317MPD2     C 4761   1.894   2.797  13.097  0.0706  0.4350 -0.6550
  317MPD2    C1 4762   1.909   2.680  13.019 -0.5696  0.5100  0.0062
  317MPD2    C2 4763   1.956   2.572  13.093 -0.4397  0.0822 -0.0778
  317MPD2    C3 4764   2.008   2.580  13.225 -0.2209  0.4526 -0.2934
  317MPD2    C4 4765   1.994   2.697  13.292  0.2050 -0.2998  0.2714
  317MPD2    C5 4766   1.937   2.802  13.228  0.6114  0.7164  0.6216
  317MPD2     H 4767   1.972   2.478  13.041 -1.1255  0.4213 -0.9015
  317MPD2    H1 4768   2.016   2.707  13.398  0.7806  1.2533  0.0053
  317MPD2    H2 4769   1.855   2.887  13.051 -2.6043 -0.3653  0.0551
  317MPD2    H3 4770   1.913   2.895  13.278 -1.5407 -0.3744  1.6541
  317MPD2     N 4771   2.076   2.469  13.271 -0.4606 -0.1263  0.4335
  317MPD2    H5 4772   2.065   2.383  13.219 -0.6115 -0.0801  0.3883
  317MPD2    N1 4773   1.877   2.666  12.884 -0.2113  0.1099  0.2311
  317MPD2    H7 4774   1.876   2.576  12.837  1.5494 -0.0764  0.5613
  318TMC3    C1 4775   2.205   2.340  13.424  0.5795  0.1990  0.6208
  318TMC3    C2 4776   2.133   2.233  13.381 -0.4062  0.2827  0.1450
  318TMC3    C3 4777   2.172   2.111  13.427  0.3409 -0.1837  1.1009
  318TMC3    C4 4778   2.300   2.331  13.515 -0.1065 -0.0493  0.0864
  318TMC3    C5 4779   2.343   2.205  13.543 -0.6416 -0.2176 -0.0932
  318TMC3    C6 4780   2.282   2.096  13.507 -0.4398  0.3642 -0.3762
  318TMC3     C 4781   2.156   2.472  13.387  0.6240 -0.2321  0.4384
  318TMC3     O 4782   2.217   2.567  13.436  0.9630 -0.0614 -0.2961
  318TMC3     H 4783   2.032   2.250  13.346 -0.3824 -0.6289 -0.3774
  318TMC3    H1 4784   2.342   2.424  13.554 -0.6281  0.5490 -0.7763
  318TMC3    H2 4785   2.304   2.005  13.562 -0.7885  0.0853 -0.7061
  318TMC3    C7 4786   2.414   2.198  13.673  0.5842 -0.3891  0.4973
  318TMC3    C8 4787   2.070   2.004  13.429  0.7294 -0.3006 -0.1564
  318TMC3    O1 4788   2.403   2.293  13.754 -0.7644 -0.1772  0.1338
  318TMC3    O2 4789   2.065   1.935  13.531  0.4258 -0.4017 -0.4425
  319MPD2     C 4790   2.837   3.729  16.820 -0.6806 -0.1190 -0.0991
  319MPD2    C1 4791   2.738   3.628  16.792 -0.2783 -0.3095 -0.0530
  319MPD2    C2 4792   2.660   3.646  16.679 -0.7224  0.2533 -0.0459
  319MPD2    C3 4793   2.669   3.757  16.599 -1.1296 -0.3176 -0.0989
  319MPD2    C4 4794   2.763   3.851  16.629 -0.2758 -0.1125 -0.4821
  319MPD2    C5 4795   2.849   3.829  16.733  0.0746 -0.4732  0.0161
  319MPD2     H 4796   2.592   3.566  16.655  3.4129 -2.9479 -1.2101
  319MPD2    H1 4797   2.788   3.933  16.563  1.8982 -0.8932 -0.6389
  319MPD2    H2 4798   2.894   3.718  16.912 -0.3201  1.5628 -0.1326
  319MPD2    H3 4799   2.928   3.903  16.744 -0.8728  0.2908  1.7691
  319MPD2     N 4800   2.588   3.774  16.486 -0.2227 -0.1932  0.6370
  319MPD2    H5 4801   2.620   3.845  16.421 -5.3175  0.6378 -0.9177
  319MPD2    N1 4802   2.722   3.507  16.870  0.2939 -0.0491 -0.5070
  319MPD2    H7 4803   2.649   3.440  16.849  1.2541 -0.4629 -2.5674
  320TMC3    C1 4804   2.405   3.756  16.332 -0.7035 -0.3641 -0.3751
  320TMC3    C2 4805   2.454   3.861  16.264  0.4328  0.4932 -0.4348
  320TMC3    C3 4806   2.384   3.895  16.149  0.0687  0.3693 -0.3104
  320TMC3    C4 4807   2.300   3.680  16.286 -0.0777 -0.3364 -0.7032
  320TMC3    C5 4808   2.231   3.714  16.174  0.0956  0.1035 -0.6158
  320TMC3    C6 4809   2.284   3.816  16.099  0.4931 -0.2806 -0.0632
  320TMC3     C 4810   2.475   3.699  16.452 -0.4449 -0.3010  0.3263
  320TMC3     O 4811   2.409   3.626  16.524 -0.2971 -0.2849  0.6942
  320TMC3     H 4812   2.517   3.937  16.308 -1.0266  1.3525  0.1772
  320TMC3    H1 4813   2.279   3.587  16.336  1.2636 -0.1815  0.1576
  320TMC3    H2 4814   2.241   3.840  16.002  0.3546 -1.2707 -0.2477
  320TMC3    C7 4815   2.174   3.604  16.088 -0.0900 -0.9477 -0.6346
  320TMC3    C8 4816   2.398   4.026  16.099  0.2247 -0.3662 -0.6963
  320TMC3    O1 4817   2.166   3.630  15.964 -0.2553  0.1333 -0.3413
  320TMC3    O2 4818   2.406   4.105  16.193  0.2890 -0.4627  0.5813
  321TMC3    C1 4819   2.743   3.359  17.052 -0.5764  0.2629  0.3323
  321TMC3    C2 4820   2.625   3.309  17.011 -0.5876 -0.5686 -0.4902
  321TMC3    C3 4821   2.544   3.254  17.113  1.0220  0.3369  0.2173
  321TMC3    C4 4822   2.804   3.334  17.173  0.9795  0.5201 -0.5793
  321TMC3    C5 4823   2.725   3.276  17.273  0.5533  0.3819  0.6103
  321TMC3    C6 4824   2.595   3.247  17.245  0.2027  0.5073  0.2514
  321TMC3     C 4825   2.801   3.470  16.976 -0.3729  0.1882  0.1031
  321TMC3     O 4826   2.906   3.516  17.018 -0.2130  0.1609 -0.0442
  321TMC3     H 4827   2.572   3.337  16.921 -3.4831 -0.3953  1.2717
  321TMC3    H1 4828   2.902   3.375  17.196  0.9967  0.7500 -1.0655
  321TMC3    H2 4829   2.532   3.206  17.324  0.0134 -1.0430 -0.7006
  321TMC3    C7 4830   2.778   3.199  17.377  0.8923  0.5949  0.1648
  321TMC3    C8 4831   2.478   3.140  17.067 -0.1437  0.3008  0.0742
  321TMC3    O1 4832   2.698   3.132  17.443  0.2951  0.0903 -0.4328
  321TMC3    O2 4833   2.386   3.139  16.987 -0.1190  0.3633  0.1892
  322MPD2     C 4834   1.746   0.194  13.272 -1.0821  0.3510 -0.0157
  322MPD2    C1 4835   1.707   0.172  13.399  0.3126  0.0118 -0.1053
  322MPD2    C2 4836   1.666   0.042  13.431 -0.3799  0.0519  1.0013
  322MPD2    C3 4837   1.650   4.662  13.334 -0.3892 -0.4766  0.0940
  322MPD2    C4 4838   1.679   4.697  13.203  0.6389 -0.0423 -0.3207
  322MPD2    C5 4839   1.726   0.099  13.174  0.3956  0.2642  0.4602
  322MPD2     H 4840   1.677   0.009  13.534  2.2458  0.4318  0.8432
  322MPD2    H1 4841   1.685   4.620  13.128 -3.5856  1.4783 -2.2493
  322MPD2    H2 4842   1.806   0.283  13.260  1.5483 -1.1410  1.9547
  322MPD2    H3 4843   1.765   0.119  13.075 -0.8382 -0.4831 -0.1747
  322MPD2     N 4844   1.615   4.527  13.375 -1.0073  0.2002 -0.1223
  322MPD2    H5 4845   1.613   4.501  13.473  0.8978  1.7802  0.3345
  322MPD2    N1 4846   1.726   0.268  13.502  0.1885  0.0987 -0.4292
  322MPD2    H7 4847   1.765   0.359  13.479  1.1960 -0.6092 -1.5168
  323TMC3    C1 4848   1.721   0.340  13.724  0.0777  1.1028  0.4214
  323TMC3    C2 4849   1.853   0.366  13.719 -0.3885  0.5002 -0.7694
  323TMC3    C3 4850   1.910   0.418  13.835  0.0633 -0.0334 -0.0290
  323TMC3    C4 4851   1.650   0.349  13.841 -0.6472  0.0204  0.0628
  323TMC3    C5 4852   1.716   0.378  13.954 -0.5744 -0.6332 -0.1365
  323TMC3    C6 4853   1.844   0.426  13.956 -0.4384  0.8644  0.2178
  323TMC3     C 4854   1.667   0.254  13.624 -0.7146  0.0736  0.5855
  323TMC3     O 4855   1.578   0.176  13.661  0.5001 -0.1919  0.1744
  323TMC3     H 4856   1.917   0.337  13.636  1.0167 -1.0050  0.8310
  323TMC3    H1 4857   1.545   0.322  13.842 -0.5561 -0.3303  1.0068
  323TMC3    H2 4858   1.891   0.447  14.052 -1.3127 -2.8040  1.4505
  323TMC3    C7 4859   1.666   0.319  14.070  0.0520  0.2083  0.3616
  323TMC3    C8 4860   2.044   0.471  13.833  0.2181  0.0216 -0.0014
  323TMC3    O1 4861   1.605   0.214  14.057 -0.0076 -0.1968  0.2478
  323TMC3    O2 4862   2.097   0.487  13.942 -0.6515  0.3238 -0.1246
  324MPD2     C 4863   3.711   0.759  14.183 -0.1011  0.2236  0.0725
  324MPD2    C1 4864   3.732   0.898  14.189 -0.3524 -0.1568 -0.1772
  324MPD2    C2 4865   3.634   0.978  14.141 -0.0910  0.2595 -0.5335
  324MPD2    C3 4866   3.505   0.929  14.112  0.1644 -0.8460 -0.3471
  324MPD2    C4 4867   3.486   0.796  14.120  0.2974  0.5360  0.3094
  324MPD2    C5 4868   3.587   0.717  14.155  1.3254  0.0596  0.7687
  324MPD2     H 4869   3.656   1.084  14.144  0.0517  0.1623  1.8987
  324MPD2    H1 4870   3.386   0.760  14.100  1.1588 -1.7947  0.2471
  324MPD2    H2 4871   3.782   0.684  14.215 -1.3773 -2.0479 -2.3865
  324MPD2    H3 4872   3.567   0.611  14.166 -1.5228  0.4368 -0.8813
  324MPD2     N 4873   3.393   1.009  14.081  0.4379 -0.2314  0.3555
  324MPD2    H5 4874   3.297   0.974  14.077 -0.5220  2.4977 -0.5239
  324MPD2    N1 4875   3.843   0.958  14.241 -0.1160 -0.0201 -0.7883
  324MPD2    H7 4876   3.843   1.059  14.243  0.7085 -0.0438  0.7428
  325TMC3    C1 4877   3.284   1.221  14.030 -0.0087 -0.3125 -0.2327
  325TMC3    C2 4878   3.175   1.159  13.976 -0.3097  0.2631  0.5896
  325TMC3    C3 4879   3.064   1.239  13.959  0.0849  0.1442  0.2805
  325TMC3    C4 4880   3.286   1.356  14.058 -0.6274  0.5363 -0.0234
  325TMC3    C5 4881   3.172   1.425  14.040 -0.1349 -0.7171 -0.4608
  325TMC3    C6 4882   3.054   1.370  13.998 -0.7885 -0.0137  0.3844
  325TMC3     C 4883   3.404   1.147  14.052 -0.5026 -0.3847 -0.5788
  325TMC3     O 4884   3.505   1.220  14.039  0.2587  0.2333  0.3907
  325TMC3     H 4885   3.170   1.061  13.931 -2.4714 -0.2535  1.9434
  325TMC3    H1 4886   3.373   1.406  14.098 -1.0252 -0.6676  2.2966
  325TMC3    H2 4887   2.977   1.445  13.985 -0.1724  0.7182  0.9643
  325TMC3    C7 4888   3.202   1.564  14.027  0.1563 -0.4483  0.1843
  325TMC3    C8 4889   2.964   1.192  13.868 -0.4361 -0.5237  0.5712
  325TMC3    O1 4890   3.315   1.593  13.987 -0.2535  0.2723  1.0696
  325TMC3    O2 4891   2.998   1.125  13.773 -0.0168 -0.0869  0.0453
  326MPD2     C 4892   0.366   2.335  11.184  0.9846  0.3514  0.1902
  326MPD2    C1 4893   0.320   2.371  11.062  0.3938  0.1205  0.1310
  326MPD2    C2 4894   0.390   2.457  10.983  0.3455  0.2618  0.8035
  326MPD2    C3 4895   0.512   2.508  11.031 -0.2157 -0.6890 -0.1920
  326MPD2    C4 4896   0.555   2.478  11.163  0.2168 -0.1087  0.1640
  326MPD2    C5 4897   0.478   2.392  11.233  0.1932  0.2930  0.1668
  326MPD2     H 4898   0.346   2.495  10.892  2.5016 -0.8456 -0.7041
  326MPD2    H1 4899   0.639   2.534  11.202  1.4196 -0.0910 -2.4375
  326MPD2    H2 4900   0.306   2.261  11.237  1.4127  0.9412  1.4866
  326MPD2    H3 4901   0.512   2.366  11.333 -0.7871 -1.4043  0.0627
  326MPD2     N 4902   0.585   2.600  10.953 -0.2665  0.2664  0.2746
  326MPD2    H5 4903   0.666   2.645  10.995  0.5345 -0.6497 -0.2978
  326MPD2    N1 4904   0.197   2.318  11.007 -0.2558 -0.1747  0.1051
  326MPD2    H7 4905   0.155   2.368  10.930  2.0434 -0.2015 -1.1653
  327TMC3    C1 4906   0.027   2.172  10.973 -0.3887 -0.6576  0.1665
  327TMC3    C2 4907   4.669   2.279  10.941 -0.2514 -0.1740  0.2985
  327TMC3    C3 4908   4.604   2.275  10.821  0.9668  0.6724  0.3866
  327TMC3    C4 4909   0.054   2.074  10.880  0.1812 -0.8180  0.5242
  327TMC3    C5 4910   0.002   2.093  10.755  0.0916 -0.0614  0.6571
  327TMC3    C6 4911   4.629   2.183  10.727 -0.2599  0.5054 -0.0471
  327TMC3     C 4912   0.136   2.203  11.056  0.0012  0.1387  0.3956
  327TMC3     O 4913   0.186   2.105  11.106  0.8173  0.6206 -0.2499
  327TMC3     H 4914   4.662   2.366  11.005 -3.1694  1.3704 -2.1324
  327TMC3    H1 4915   0.117   1.989  10.904  0.3270 -1.1578 -1.0721
  327TMC3    H2 4916   4.588   2.189  10.627 -1.1090 -0.6659  0.2324
  327TMC3    C7 4917   0.110   2.102  10.657 -0.4582 -0.0398  0.4930
  327TMC3    C8 4918   4.510   2.380  10.785 -0.2770  0.3128  0.4201
  327TMC3    O1 4919   0.089   2.159  10.552  0.0182 -0.4179 -0.2612
  327TMC3    O2 4920   4.489   2.403  10.665 -1.2146 -0.1587  0.5528
  328MPD2     C 4921   1.823   2.186  16.989  0.6391 -0.6418 -0.8008
  328MPD2    C1 4922   1.762   2.085  16.920  0.6296 -0.5647  0.4644
  328MPD2    C2 4923   1.647   2.107  16.844  0.1250 -0.3373  0.4065
  328MPD2    C3 4924   1.602   2.239  16.838  0.4911  0.2739 -0.2738
  328MPD2    C4 4925   1.670   2.340  16.897 -0.6759  0.2400  0.2214
  328MPD2    C5 4926   1.781   2.315  16.976  1.2181 -0.3480 -0.0921
  328MPD2     H 4927   1.586   2.029  16.797  0.0792 -1.3765  2.1939
  328MPD2    H1 4928   1.618   2.435  16.892  1.5084  1.3843 -0.6757
  328MPD2    H2 4929   1.903   2.172  17.061 -0.5143 -0.0596  0.6060
  328MPD2    H3 4930   1.820   2.395  17.037  1.4396 -0.5565  0.0433
  328MPD2     N 4931   1.483   2.280  16.767  0.6332 -0.1023  0.4373
  328MPD2    H5 4932   1.462   2.379  16.770 -1.5612 -0.5490 -0.3509
  328MPD2    N1 4933   1.821   1.962  16.921  0.2788 -1.2017 -0.6757
  328MPD2    H7 4934   1.790   1.895  16.852 -1.3759 -1.6532  0.5125
  329TMC3    C1 4935   1.951   1.779  16.994  0.6701  0.4995 -0.4859
  329TMC3    C2 4936   1.997   1.717  17.114  0.1236 -0.5199  0.6142
  329TMC3    C3 4937   2.064   1.600  17.088 -0.8582 -0.3641  0.0502
  329TMC3    C4 4938   1.969   1.731  16.867 -0.3643  0.6775  0.6972
  329TMC3    C5 4939   2.025   1.611  16.856 -0.4256 -0.2864 -0.2313
  329TMC3    C6 4940   2.061   1.538  16.964  0.3786  0.0183  0.2492
  329TMC3     C 4941   1.906   1.915  17.016 -0.8335  0.0775  0.0330
  329TMC3     O 4942   1.945   1.961  17.124 -0.0015  0.3208 -0.2848
  329TMC3     H 4943   1.995   1.764  17.211  1.1280  1.6416 -0.4231
  329TMC3    H1 4944   1.953   1.800  16.785  2.3088 -1.2480 -1.4027
  329TMC3    H2 4945   2.090   1.433  16.957  1.8078  0.5391 -1.5554
  329TMC3    C7 4946   2.034   1.548  16.731 -0.1780 -0.7976 -0.1671
  329TMC3    C8 4947   2.071   1.517  17.206 -0.2459  0.3981  0.2291
  329TMC3    O1 4948   2.100   1.446  16.712  0.2050  0.6028 -0.0478
  329TMC3    O2 4949   2.155   1.431  17.211  0.0149  0.4602 -0.2115
  330TMC3    C1 4950   0.598   1.523   9.834  0.4756  0.6151 -0.1670
  330TMC3    C2 4951   0.465   1.495   9.802  0.5384 -0.4183 -0.7182
  330TMC3    C3 4952   0.430   1.366   9.781 -0.3402  0.3255  0.3836
  330TMC3    C4 4953   0.690   1.423   9.855 -0.3521  0.3308  0.3642
  330TMC3    C5 4954   0.645   1.296   9.843 -1.0693  0.2974  0.3223
  330TMC3    C6 4955   0.516   1.259   9.801 -0.0937  0.2324 -0.2248
  330TMC3     C 4956   0.641   1.656   9.872 -0.3585 -0.4282  0.0975
  330TMC3     O 4957   0.736   1.665   9.946 -0.4999 -0.4402  0.5342
  330TMC3     H 4958   0.383   1.566   9.798  1.7171  1.1019  1.6605
  330TMC3    H1 4959   0.791   1.450   9.886 -0.2389 -0.0086  0.2957
  330TMC3    H2 4960   0.483   1.159   9.777  2.8578 -0.7729 -0.1845
  330TMC3    C7 4961   0.749   1.195   9.846  0.5153 -0.1969  0.0891
  330TMC3    C8 4962   0.303   1.342   9.723 -0.3080  0.0522 -0.3867
  330TMC3    O1 4963   0.855   1.226   9.901 -0.1485 -0.6118 -0.5249
  330TMC3    O2 4964   0.266   1.427   9.647  0.3847  0.5688  0.6092
  331MPD2     C 4965   2.789   0.538  12.983 -0.1029 -0.3204  0.3763
  331MPD2    C1 4966   2.929   0.527  12.960  0.4053 -0.2408  0.7304
  331MPD2    C2 4967   2.969   0.411  12.885 -0.0755  0.7758  0.3789
  331MPD2    C3 4968   2.880   0.310  12.853  0.4814  0.1300 -0.3586
  331MPD2    C4 4969   2.752   0.322  12.890 -0.2903  0.3687  0.3146
  331MPD2    C5 4970   2.706   0.440  12.950 -0.7928 -0.0285 -0.2136
  331MPD2     H 4971   3.069   0.386  12.851 -0.4296  1.1395 -0.9338
  331MPD2    H1 4972   2.679   0.245  12.870 -1.1070  1.2543 -0.0902
  331MPD2    H2 4973   2.744   0.627  13.025 -0.1378  0.2075 -0.7841
  331MPD2    H3 4974   2.604   0.452  12.984 -0.4313  2.0944  0.0962
  331MPD2     N 4975   2.918   0.198  12.779 -0.0352  0.0785  0.1673
  331MPD2    H5 4976   3.018   0.191  12.764 -0.0011  0.4393  0.2179
  331MPD2    N1 4977   3.006   0.640  12.974  0.5825  0.7459 -0.1043
  331MPD2    H7 4978   2.974   0.722  13.024  1.1057  1.9739 -1.7918
  332TMC3    C1 4979   2.928   0.066  12.601 -0.1726  0.1566 -0.0274
  332TMC3    C2 4980   2.930   0.121  12.476  0.2795 -0.0185 -0.4057
  332TMC3    C3 4981   3.050   0.131  12.413  0.5820 -0.5857  0.0464
  332TMC3    C4 4982   3.037   0.008  12.659 -0.0391  0.2330  0.3500
  332TMC3    C5 4983   3.154   0.012  12.594  0.3000  0.1475  0.3982
  332TMC3    C6 4984   3.164   0.076  12.469 -0.5843 -0.4758 -0.2710
  332TMC3     C 4985   2.838   0.127  12.695  0.2551  0.4581  0.4106
  332TMC3     O 4986   2.717   0.140  12.665  0.0453 -0.1679  0.0927
  332TMC3     H 4987   2.838   0.164  12.437  1.6940  0.9131 -2.7092
  332TMC3    H1 4988   3.026   4.695  12.762  0.0918  0.0224  0.2976
  332TMC3    H2 4989   3.260   0.096  12.423  0.0728 -1.5910  0.6442
  332TMC3    C7 4990   3.271   4.669  12.659  0.3995 -0.3317 -0.0087
  332TMC3    C8 4991   3.042   0.187  12.274  0.7628 -0.4136  0.7411
  332TMC3    O1 4992   3.232   4.598  12.752 -0.3980 -0.4624  0.0915
  332TMC3    O2 4993   2.931   0.201  12.223  0.1658 -0.0888  0.7025
  333MPD2     C 4994   3.356   0.849  11.006  0.5690  0.0029  1.1058
  333MPD2    C1 4995   3.429   0.740  10.978  0.0698  0.2109 -0.5188
  333MPD2    C2 4996   3.398   0.615  11.033  0.1714 -0.4979  0.4009
  333MPD2    C3 4997   3.293   0.611  11.124  0.3147 -0.5780 -0.1232
  333MPD2    C4 4998   3.226   0.722  11.151  0.9957 -0.2367 -0.5254
  333MPD2    C5 4999   3.246   0.839  11.089  0.0041  0.0108 -0.1616
  333MPD2     H 5000   3.447   0.527  10.993  1.4817  0.3077  0.2641
  333MPD2    H1 5001   3.144   0.723  11.222  2.4052 -0.7999  1.1282
  333MPD2    H2 5002   3.378   0.946  10.964 -0.8836  0.0116  0.3554
  333MPD2    H3 5003   3.196   0.933  11.112 -1.8223 -1.0629  0.2674
  333MPD2     N 5004   3.252   0.486  11.180  0.0389  0.4909  0.2346
  333MPD2    H5 5005   3.285   0.402  11.133  0.3055  0.1258  1.0816
  333MPD2    N1 5006   3.533   0.759  10.880  0.4097  0.0640  0.3487
  333MPD2    H7 5007   3.549   0.849  10.836 -3.5558  1.1335  1.0624
  334TMC3    C1 5008   3.708   0.715  10.742  0.1799  0.5182  0.0181
  334TMC3    C2 5009   3.835   0.659  10.751 -0.3635 -0.2136  0.2747
  334TMC3    C3 5010   3.938   0.712  10.671 -0.1534  0.1137 -0.0037
  334TMC3    C4 5011   3.674   0.807  10.648  0.1038  0.0368  0.2975
  334TMC3    C5 5012   3.777   0.848  10.563 -0.2292 -0.0015  0.1261
  334TMC3    C6 5013   3.904   0.812  10.583 -0.1822  0.3206  0.3274
  334TMC3     C 5014   3.610   0.660  10.827  0.6574  0.6245  0.4738
  334TMC3     O 5015   3.636   0.549  10.878 -0.2583 -0.2431 -0.1471
  334TMC3     H 5016   3.858   0.583  10.825 -0.8303 -1.5379 -0.9391
  334TMC3    H1 5017   3.574   0.848  10.654  0.3326  0.7312 -0.7246
  334TMC3    H2 5018   3.967   0.843  10.499  1.0063 -1.6079  0.5102
  334TMC3    C7 5019   3.755   0.975  10.492 -0.0070  0.1881 -0.1609
  334TMC3    C8 5020   4.075   0.682  10.699 -0.4768 -0.7114  0.0522
  334TMC3    O1 5021   3.664   0.982  10.414  0.6704  0.2125  0.3162
  334TMC3    O2 5022   4.095   0.576  10.760 -0.2662 -0.3100  0.4130
  335TMC3    C1 5023   3.291   2.282  17.396 -0.2318  0.5212  0.5923
  335TMC3    C2 5024   3.197   2.247  17.311 -0.2576  0.2687 -0.4451
  335TMC3    C3 5025   3.132   2.351  17.252 -0.4876 -0.0323  0.7121
  335TMC3    C4 5026   3.334   2.412  17.411  0.1095 -0.8600  0.2110
  335TMC3    C5 5027   3.267   2.511  17.355 -0.0127  0.2346 -0.8633
  335TMC3    C6 5028   3.161   2.482  17.275 -0.0005  0.3431 -0.6533
  335TMC3     C 5029   3.399   2.183  17.429  0.1701 -0.6697  0.0339
  335TMC3     O 5030   3.419   2.092  17.354  0.0772  0.1678  0.5824
  335TMC3     H 5031   3.171   2.145  17.284  3.7633 -1.1365  0.9584
  335TMC3    H1 5032   3.413   2.431  17.483  0.4324  1.7881 -0.8516
  335TMC3    H2 5033   3.121   2.557  17.208  3.4388  2.5101 -0.3072
  335TMC3    C7 5034   3.352   2.610  17.293  1.0827 -0.3419  0.4956
  335TMC3    C8 5035   3.037   2.327  17.140  0.1736 -0.2680  0.1467
  335TMC3    O1 5036   3.340   2.612  17.170 -0.5359  0.4583 -0.3137
  335TMC3    O2 5037   3.025   2.418  17.060 -0.3147  0.4678 -0.2883
  336MPD2     C 5038   2.477   0.378  16.074  0.3567 -0.0012 -0.3775
  336MPD2    C1 5039   2.460   0.290  15.970 -0.0242 -0.4238 -0.1095
  336MPD2    C2 5040   2.511   0.158  15.984 -0.6099 -0.1137  0.0818
  336MPD2    C3 5041   2.573   0.117  16.103 -0.1672 -0.3032  0.0995
  336MPD2    C4 5042   2.588   0.207  16.207  0.5142 -0.2525  0.0005
  336MPD2    C5 5043   2.542   0.335  16.188 -0.0218  0.4019 -0.4121
  336MPD2     H 5044   2.490   0.089  15.903  1.4680 -1.5017  0.7557
  336MPD2    H1 5045   2.620   0.180  16.307  2.2690 -2.2675 -1.1173
  336MPD2    H2 5046   2.466   0.485  16.075  1.7168  0.1290  0.7649
  336MPD2    H3 5047   2.557   0.415  16.260  0.2173 -1.1547  1.2805
  336MPD2     N 5048   2.612   4.702  16.128 -0.5402 -0.1340 -0.3003
  336MPD2    H5 5049   2.681   4.689  16.202 -1.5637  0.6835  0.8044
  336MPD2    N1 5050   2.384   0.317  15.859 -0.4372 -0.5269 -0.2960
  336MPD2    H7 5051   2.375   0.242  15.791  1.7024  0.4648 -1.6511
  337TMC3    C1 5052   2.265   0.441  15.701  0.0455 -0.4880  0.5448
  337TMC3    C2 5053   2.183   0.331  15.669 -0.6734  0.3969  0.2112
  337TMC3    C3 5054   2.095   0.344  15.564 -0.6483  0.1421 -0.8748
  337TMC3    C4 5055   2.248   0.567  15.649  0.3501  0.2826 -0.2700
  337TMC3    C5 5056   2.162   0.568  15.547  0.4317 -0.2352  0.6361
  337TMC3    C6 5057   2.090   0.463  15.495  0.8484 -0.5548 -0.8832
  337TMC3     C 5058   2.339   0.443  15.822  0.1336  0.4020 -0.2043
  337TMC3     O 5059   2.361   0.551  15.875 -0.2127 -0.1975 -0.0720
  337TMC3     H 5060   2.183   0.242  15.731  0.4211 -0.4120 -0.9512
  337TMC3    H1 5061   2.300   0.661  15.667  2.2568 -1.1045  1.4700
  337TMC3    H2 5062   2.024   0.482  15.411  0.8842  1.8698 -0.3582
  337TMC3    C7 5063   2.124   0.694  15.478  0.5364 -0.0140  0.4711
  337TMC3    C8 5064   1.965   0.288  15.596  0.5156  0.0079  0.0995
  337TMC3    O1 5065   2.114   0.798  15.544  0.1512  0.4185 -0.4579
  337TMC3    O2 5066   1.961   0.234  15.706  0.1564 -0.4934  0.5558
  338MPD2     C 5067   2.623   4.184   0.697 -1.2706  0.4321  0.5426
  338MPD2    C1 5068   2.581   4.284   0.612  0.1172  0.4795 -0.2093
  338MPD2    C2 5069   2.586   4.420   0.650  0.1162  0.6041 -0.4383
  338MPD2    C3 5070   2.629   4.459   0.772 -0.4862 -0.7623  0.2676
  338MPD2    C4 5071   2.673   4.359   0.861 -0.3783  0.1547 -0.2100
  338MPD2    C5 5072   2.661   4.223   0.821 -0.0354 -0.0506 -0.1446
  338MPD2     H 5073   2.557   4.495   0.577 -2.0077  0.6038  0.4171
  338MPD2    H1 5074   2.711   4.368   0.962  1.7765 -1.4371 -0.8866
  338MPD2    H2 5075   2.604   4.078   0.685  1.0281 -0.0761  1.5167
  338MPD2    H3 5076   2.681   4.148   0.897  2.2267  1.2439  0.5523
  338MPD2     N 5077   2.619   4.593   0.812  0.0230  0.5793 -0.4419
  338MPD2    H5 5078   2.592   4.656   0.737  1.7296  1.1100 -0.5997
  338MPD2    N1 5079   2.530   4.247   0.489 -0.1136 -0.1043  0.7091
  338MPD2    H7 5080   2.505   4.324   0.427 -0.9742 -0.7701  0.2264
  339TMC3    C1 5081   2.615   0.057   0.956  0.0733  0.1004  0.3102
  339TMC3    C2 5082   2.553   0.098   1.074 -0.2368  0.0686 -0.1889
  339TMC3    C3 5083   2.465   0.196   1.055  0.2332  0.6301 -0.2099
  339TMC3    C4 5084   2.622   0.125   0.838 -0.3324 -0.1397 -0.2223
  339TMC3    C5 5085   2.556   0.244   0.842  0.9836 -0.0944  0.2440
  339TMC3    C6 5086   2.468   0.272   0.943 -0.1040 -0.4206 -0.3570
  339TMC3     C 5087   2.635   4.635   0.941  0.6809 -0.1788 -0.1023
  339TMC3     O 5088   2.646   4.575   1.047  0.9248  0.5996 -0.0848
  339TMC3     H 5089   2.534   0.030   1.156 -1.1434  1.2880  0.6121
  339TMC3    H1 5090   2.688   0.101   0.756 -0.5620 -2.4613  0.2469
  339TMC3    H2 5091   2.406   0.360   0.938 -1.6374 -1.4446  0.5755
  339TMC3    C7 5092   2.598   0.347   0.747 -0.1894  0.1280  0.0787
  339TMC3    C8 5093   2.353   0.222   1.146  0.3484  0.3451 -0.2468
  339TMC3    O1 5094   2.509   0.421   0.714 -0.0957 -0.2680  0.4039
  339TMC3    O2 5095   2.285   0.321   1.124 -0.0507 -0.1651  1.1322
  340MPD2     C 5096   3.700   2.545  10.055 -0.1565  0.7184  0.0320
  340MPD2    C1 5097   3.631   2.428  10.103  0.0752 -0.3139 -0.4010
  340MPD2    C2 5098   3.642   2.403  10.243 -0.2212  0.1936  0.0420
  340MPD2    C3 5099   3.715   2.482  10.328  0.7856  0.0262  0.9236
  340MPD2    C4 5100   3.773   2.593  10.278  0.2537  0.7041  0.1389
  340MPD2    C5 5101   3.772   2.626  10.145 -0.1504  0.1051 -0.0599
  340MPD2     H 5102   3.595   2.314  10.282  0.7556  0.2543  1.3501
  340MPD2    H1 5103   3.816   2.669  10.343  3.3313 -1.3551  0.5340
  340MPD2    H2 5104   3.690   2.569   9.950 -1.7166  1.9576  0.4611
  340MPD2    H3 5105   3.819   2.716  10.107 -2.1231  0.3523 -1.8875
  340MPD2     N 5106   3.744   2.458  10.463  0.5469 -0.1947 -0.8664
  340MPD2    H5 5107   3.795   2.532  10.511  0.5571  0.8347 -2.4552
  340MPD2    N1 5108   3.553   2.355  10.004 -0.2526 -0.3080 -0.2808
  340MPD2    H7 5109   3.574   2.376   9.907 -0.2629 -0.9722 -0.4295
  341TMC3    C1 5110   3.410   2.212   9.893 -0.3011 -0.0181  0.4335
  341TMC3    C2 5111   3.291   2.144   9.910 -0.4964 -0.0652 -0.1598
  341TMC3    C3 5112   3.275   2.018   9.850 -0.1926 -0.7390 -0.1203
  341TMC3    C4 5113   3.503   2.165   9.803  0.1963  0.3693 -0.8888
  341TMC3    C5 5114   3.484   2.034   9.752 -0.2433  0.0620 -0.0846
  341TMC3    C6 5115   3.366   1.966   9.772 -0.1259  0.5235  0.1690
  341TMC3     C 5116   3.458   2.258  10.021  0.7366 -0.8479  0.5226
  341TMC3     O 5117   3.415   2.209  10.120 -0.1554  0.0647  0.1219
  341TMC3     H 5118   3.222   2.184   9.983 -0.0446 -1.3114  0.9599
  341TMC3    H1 5119   3.599   2.217   9.800  0.7043 -0.4698  0.5216
  341TMC3    H2 5120   3.347   1.871   9.723  0.3308  0.3105  0.3966
  341TMC3    C7 5121   3.596   1.978   9.676  0.1154 -0.5056 -0.7892
  341TMC3    C8 5122   3.146   1.962   9.833  0.1546  0.4720 -0.3861
  341TMC3    O1 5123   3.700   2.044   9.648  0.2046  0.2430  0.3400
  341TMC3    O2 5124   3.140   1.842   9.816  0.5088  1.2145  0.5133
  342MPD2     C 5125   0.775   0.302  17.449 -0.3952 -0.4979 -0.2659
  342MPD2    C1 5126   0.761   0.340  17.315 -0.2523  0.0699  0.3240
  342MPD2    C2 5127   0.659   0.429  17.281 -0.4866 -0.3549 -0.4174
  342MPD2    C3 5128   0.592   0.495  17.384  0.0822  0.1326  0.2397
  342MPD2    C4 5129   0.607   0.457  17.514  0.0330  0.5035 -0.4462
  342MPD2    C5 5130   0.691   0.355  17.550  0.4489  0.7497  0.0450
  342MPD2     H 5131   0.643   0.459  17.178 -1.7133 -1.1267 -0.4572
  342MPD2    H1 5132   0.540   0.506  17.584  0.6581  1.4630 -0.5206
  342MPD2    H2 5133   0.862   0.246  17.481 -0.9799 -1.0199  0.4050
  342MPD2    H3 5134   0.704   0.327  17.654  0.7508  0.1838 -0.1450
  342MPD2     N 5135   0.505   0.606  17.361 -0.0215 -0.4797  0.4282
  342MPD2    H5 5136   0.471   0.646  17.447  2.6324  0.2129  1.1324
  342MPD2    N1 5137   0.844   0.285  17.211 -0.8958 -0.4202 -0.7110
  342MPD2    H7 5138   0.815   0.297  17.114 -2.9026 -0.4446 -0.1051
  343TMC3    C1 5139   1.006   0.166  17.104  0.0612 -0.7223  0.7777
  343TMC3    C2 5140   1.142   0.149  17.102 -0.0922  0.3102 -0.0057
  343TMC3    C3 5141   1.185   0.031  17.050  0.4818  0.9077  0.3817
  343TMC3    C4 5142   0.919   0.072  17.051 -0.0544  0.5205  0.6009
  343TMC3    C5 5143   0.967   4.665  17.013 -0.5695  0.3620 -0.1391
  343TMC3    C6 5144   1.105   4.649  17.003  0.4961  0.2690 -0.1093
  343TMC3     C 5145   0.966   0.226  17.232  0.5993 -0.2139 -0.4405
  343TMC3     O 5146   1.041   0.239  17.332  0.1011 -0.1752  0.0287
  343TMC3     H 5147   1.204   0.231  17.137  0.1711  0.6508 -1.2596
  343TMC3    H1 5148   0.811   0.082  17.057 -0.2870 -0.4922 -2.2430
  343TMC3    H2 5149   1.152   4.552  16.991 -0.0152  0.1551 -1.2368
  343TMC3    C7 5150   0.896   4.561  17.087  0.2041  0.1916  0.0192
  343TMC3    C8 5151   1.330   0.012  17.064  0.1362 -0.1149 -0.2302
  343TMC3    O1 5152   0.778   4.591  17.101  0.1417 -0.4133  0.5099
  343TMC3    O2 5153   1.388   0.104  17.124 -0.2849  0.0198  0.0169
  344MPD2     C 5154   1.840   0.366  10.831 -0.5433  0.3334 -0.3704
  344MPD2    C1 5155   1.813   0.257  10.753 -0.1041  0.4806 -0.0118
  344MPD2    C2 5156   1.834   0.256  10.613 -0.2148  0.2896  0.7548
  344MPD2    C3 5157   1.892   0.375  10.558 -0.6082  0.7232 -0.0214
  344MPD2    C4 5158   1.923   0.484  10.641 -0.2913 -0.0083 -0.1342
  344MPD2    C5 5159   1.883   0.475  10.773  0.0405  0.4073  0.0073
  344MPD2     H 5160   1.818   0.166  10.555 -2.1030  1.1726 -0.0729
  344MPD2    H1 5161   1.979   0.566  10.598  1.6450 -0.0251  2.4005
  344MPD2    H2 5162   1.831   0.363  10.939  1.3184 -0.9437 -0.2514
  344MPD2    H3 5163   1.913   0.560  10.833  1.3114  1.0624 -1.5545
  344MPD2     N 5164   1.956   0.372  10.435 -0.0705 -0.5545  0.3865
  344MPD2    H5 5165   2.018   0.446  10.404 -0.6179 -0.9064 -1.5605
  344MPD2    N1 5166   1.778   0.129  10.805 -0.7877  0.7456 -0.1293
  344MPD2    H7 5167   1.768   0.051  10.741 -1.2230  0.5926  0.1270
  345TMC3    C1 5168   2.011   0.290  10.228  0.0057 -0.5497 -0.4038
  345TMC3    C2 5169   2.141   0.281  10.254  0.3684 -0.0968  0.3587
  345TMC3    C3 5170   2.221   0.346  10.167  0.0192  0.1076  0.8224
  345TMC3    C4 5171   1.948   0.350  10.122 -0.7473  0.0830 -0.1989
  345TMC3    C5 5172   2.035   0.412  10.037  0.0741  0.2229  1.3241
  345TMC3    C6 5173   2.171   0.407  10.058  0.1703 -0.5753 -0.4359
  345TMC3     C 5174   1.922   0.279  10.339 -0.3130  0.1647  0.6442
  345TMC3     O 5175   1.832   0.196  10.333  0.0985 -0.3405 -0.5972
  345TMC3     H 5176   2.176   0.241  10.348  1.5348 -1.7495 -0.7817
  345TMC3    H1 5177   1.840   0.358  10.115 -0.9243 -2.5034 -0.6497
  345TMC3    H2 5178   2.238   0.467   9.998  0.8271  0.3016  1.1700
  345TMC3    C7 5179   1.991   0.524   9.952  0.4614 -0.1018  0.1417
  345TMC3    C8 5180   2.327   0.417  10.226 -0.3589 -0.0906 -0.1288
  345TMC3    O1 5181   2.077   0.602   9.921  0.1259 -0.6712  0.0385
  345TMC3    O2 5182   2.355   0.526  10.180  0.2739 -0.4309 -0.1960
  346MPD2     C 5183   2.042   1.971  14.501  0.5822  0.0288 -0.1393
  346MPD2    C1 5184   2.127   1.948  14.391  0.0744  0.7518  0.3413
  346MPD2    C2 5185   2.267   1.952  14.412  0.4906  0.2359  0.8801
  346MPD2    C3 5186   2.310   2.005  14.530 -0.1215 -0.3203 -0.4091
  346MPD2    C4 5187   2.222   2.033  14.636  0.2494 -0.4368 -0.3621
  346MPD2    C5 5188   2.088   2.015  14.624  0.0544  0.6024 -0.0287
  346MPD2     H 5189   2.336   1.935  14.330  1.2745  0.6495  1.4545
  346MPD2    H1 5190   2.262   2.063  14.733  0.2064 -0.9615 -0.1833
  346MPD2    H2 5191   1.936   1.950  14.501  0.1271  2.3696  0.6281
  346MPD2    H3 5192   2.023   2.036  14.708  0.0572 -0.6741  0.2858
  346MPD2     N 5193   2.452   2.023  14.540  1.2390 -0.4417 -0.2351
  346MPD2    H5 5194   2.501   2.031  14.452 -0.5383  0.9550 -1.0885
  346MPD2    N1 5195   2.080   1.910  14.264 -0.3724  0.0450  0.4331
  346MPD2    H7 5196   2.147   1.884  14.193  0.0333  1.4394  0.2930
  347TMC3    C1 5197   2.661   2.061  14.613 -0.0540  0.0604  0.2464
  347TMC3    C2 5198   2.702   2.084  14.485 -0.0373 -1.0019 -0.5118
  347TMC3    C3 5199   2.833   2.072  14.453  0.2826 -0.3988  0.1218
  347TMC3    C4 5200   2.739   2.022  14.709 -0.2392  0.1621 -0.1240
  347TMC3    C5 5201   2.875   2.007  14.676 -0.5404  0.2511  0.2561
  347TMC3    C6 5202   2.927   2.036  14.549  0.2613 -0.5128 -0.3244
  347TMC3     C 5203   2.523   2.066  14.646 -0.3862  0.2179  0.3693
  347TMC3     O 5204   2.493   2.078  14.763 -0.2029 -0.5663 -0.2693
  347TMC3     H 5205   2.642   2.134  14.410 -0.6465 -0.3468  0.4194
  347TMC3    H1 5206   2.709   2.017  14.813 -0.1784  0.6160 -0.0837
  347TMC3    H2 5207   3.028   2.021  14.514  1.2086 -0.7646  2.5451
  347TMC3    C7 5208   2.950   1.935  14.773  0.2900  0.3062 -0.6930
  347TMC3    C8 5209   2.845   2.018  14.320 -1.0099 -0.7135 -0.5355
  347TMC3    O1 5210   2.878   1.881  14.857  0.2848 -0.2140 -0.2603
  347TMC3    O2 5211   2.778   1.917  14.290  0.0349 -0.1040 -0.3427
  348MPD2     C 5212   0.917   1.617  11.984 -0.5463 -0.4191 -0.2918
  348MPD2    C1 5213   0.952   1.514  11.894  0.8000  0.5122 -0.0568
  348MPD2    C2 5214   0.969   1.545  11.764  0.0034 -0.0145  0.6057
  348MPD2    C3 5215   0.969   1.677  11.721  0.2807  0.3583 -0.3276
  348MPD2    C4 5216   0.925   1.774  11.801  0.4171 -0.0705 -0.1435
  348MPD2    C5 5217   0.892   1.746  11.932 -0.4298 -0.3894 -0.1959
  348MPD2     H 5218   0.997   1.469  11.693  0.0817 -0.9105  1.5975
  348MPD2    H1 5219   0.917   1.877  11.767  1.3102 -0.1076 -0.4549
  348MPD2    H2 5220   0.890   1.598  12.087  4.6614 -1.9081  0.7797
  348MPD2    H3 5221   0.849   1.825  11.993 -0.7259  1.4881 -2.8373
  348MPD2     N 5222   1.020   1.705  11.594  0.5530  0.0360  0.0008
  348MPD2    H5 5223   1.048   1.629  11.533  2.4271  0.4307  0.3853
  348MPD2    N1 5224   0.979   1.378  11.936 -0.2632  0.2058 -0.1135
  348MPD2    H7 5225   1.013   1.315  11.864 -1.3824 -1.6719  1.0084
  349TMC3    C1 5226   1.037   1.214  12.064  0.9357  0.5974 -0.8400
  349TMC3    C2 5227   0.951   1.107  12.070 -0.6007 -0.4387  0.0595
  349TMC3    C3 5228   1.008   0.985  12.050  0.3163  0.3203  0.2414
  349TMC3    C4 5229   1.167   1.210  12.018  0.1083  0.3520  0.0655
  349TMC3    C5 5230   1.215   1.083  11.992  0.0789  0.6457  0.6372
  349TMC3    C6 5231   1.139   0.971  12.018  0.3418  0.7732 -0.2880
  349TMC3     C 5232   0.969   1.334  12.060  0.8500  0.2097 -0.1330
  349TMC3     O 5233   0.903   1.369  12.155 -0.5233 -0.4123  0.0062
  349TMC3     H 5234   0.849   1.123  12.104 -1.0920  0.5280 -1.8514
  349TMC3    H1 5235   1.213   1.307  12.003  0.8244  0.0345  0.2540
  349TMC3    H2 5236   1.194   0.877  12.016 -0.8110  0.0971 -0.1586
  349TMC3    C7 5237   1.354   1.062  11.966  0.0251 -0.1755 -0.7290
  349TMC3    C8 5238   0.957   0.867  12.107 -0.5056 -0.1056  0.1939
  349TMC3    O1 5239   1.395   0.962  12.020 -0.4133 -0.7821 -0.2068
  349TMC3    O2 5240   1.036   0.783  12.147  0.5509 -0.5389 -0.8130
  350MPD2     C 5241   4.335   3.950   9.773  0.1421  0.6045 -0.1470
  350MPD2    C1 5242   4.392   3.837   9.827 -0.3517 -0.0342  0.2954
  350MPD2    C2 5243   4.482   3.843   9.931  0.9170  0.5181  0.0889
  350MPD2    C3 5244   4.507   3.963   9.989  0.1777 -0.5343  0.5777
  350MPD2    C4 5245   4.455   4.078   9.927 -0.5693  0.0692  0.4703
  350MPD2    C5 5246   4.370   4.068   9.824  0.4497 -0.0388 -0.9780
  350MPD2     H 5247   4.525   3.746   9.956 -0.4160  0.1037  0.7931
  350MPD2    H1 5248   4.477   4.179   9.960 -1.2711 -0.0872  1.4075
  350MPD2    H2 5249   4.254   3.936   9.702  1.9255 -1.3326 -1.7654
  350MPD2    H3 5250   4.318   4.155   9.785 -1.1342 -0.4628  0.2074
  350MPD2     N 5251   4.597   3.967  10.095 -0.1375 -0.0151 -0.0320
  350MPD2    H5 5252   4.639   3.879  10.122 -2.4669 -0.7526  1.2232
  350MPD2    N1 5253   4.352   3.708   9.782 -0.5180  0.1710  0.0941
  350MPD2    H7 5254   4.409   3.633   9.819  0.3047  1.4347  1.3729
  351TMC3    C1 5255   4.230   3.543   9.658  0.3365 -0.4777 -0.5941
  351TMC3    C2 5256   4.339   3.462   9.641  0.7792  0.0026 -0.6546
  351TMC3    C3 5257   4.309   3.333   9.635  0.6542  0.0932  0.7226
  351TMC3    C4 5258   4.103   3.496   9.658  0.2263  0.0143 -0.2037
  351TMC3    C5 5259   4.084   3.365   9.661 -0.4424 -0.2744 -0.3110
  351TMC3    C6 5260   4.187   3.279   9.636  0.3288 -0.2375  0.0684
  351TMC3     C 5261   4.245   3.682   9.694 -0.0309  0.1851 -0.0432
  351TMC3     O 5262   4.141   3.749   9.679  0.2888 -1.0361 -0.3093
  351TMC3     H 5263   4.439   3.502   9.624  1.0568 -0.2885  0.2739
  351TMC3    H1 5264   4.019   3.562   9.677 -0.0892 -0.1999 -0.8647
  351TMC3    H2 5265   4.172   3.172   9.623 -1.5807  0.0966 -0.3728
  351TMC3    C7 5266   3.951   3.321   9.638  0.1233  0.6127 -0.2665
  351TMC3    C8 5267   4.423   3.254   9.573 -0.0779 -0.4602  0.4049
  351TMC3    O1 5268   3.882   3.375   9.551 -0.2602  0.2774  0.0876
  351TMC3    O2 5269   4.396   3.163   9.495  0.1506 -0.3584 -0.3677
  352MPD2     C 5270   2.101   1.563   1.462  0.6209  0.2904 -0.4250
  352MPD2    C1 5271   2.210   1.646   1.438 -0.3659  0.1111  0.6417
  352MPD2    C2 5272   2.328   1.616   1.505 -0.1719  0.0369 -0.6468
  352MPD2    C3 5273   2.335   1.493   1.573  0.7289 -0.2555 -0.2497
  352MPD2    C4 5274   2.229   1.410   1.581 -0.3042 -0.5558  0.4639
  352MPD2    C5 5275   2.108   1.448   1.545 -0.2343  0.3899  0.2792
  352MPD2     H 5276   2.411   1.681   1.481  1.2501 -1.0142  1.4865
  352MPD2    H1 5277   2.239   1.312   1.626 -0.7253 -0.9950 -0.3990
  352MPD2    H2 5278   2.009   1.590   1.412  0.2495 -1.5792 -0.7407
  352MPD2    H3 5279   2.027   1.377   1.552  0.9555 -1.2043 -2.2076
  352MPD2     N 5280   2.462   1.448   1.622 -0.7512 -0.0367 -0.1411
  352MPD2    H5 5281   2.458   1.359   1.670 -3.0114 -0.6434 -1.4697
  352MPD2    N1 5282   2.182   1.754   1.353 -0.3396  0.6161 -0.5533
  352MPD2    H7 5283   2.088   1.747   1.315 -0.4321  0.7521 -0.3521
  353TMC3    C1 5284   2.707   1.429   1.621  0.5408  0.1493 -0.9302
  353TMC3    C2 5285   2.828   1.497   1.604  0.6679  0.6088 -0.0928
  353TMC3    C3 5286   2.936   1.424   1.566 -0.5881 -0.3503 -0.0332
  353TMC3    C4 5287   2.696   1.293   1.601  0.2568  0.2629  0.3363
  353TMC3    C5 5288   2.807   1.228   1.564  0.3933  0.3619 -0.5071
  353TMC3    C6 5289   2.934   1.288   1.548  0.3796 -0.5768 -0.6695
  353TMC3     C 5290   2.583   1.511   1.611 -0.0583  0.3201  0.0103
  353TMC3     O 5291   2.603   1.628   1.582 -0.3469  0.4653 -0.2043
  353TMC3     H 5292   2.835   1.605   1.612  0.0577  0.8624 -2.7670
  353TMC3    H1 5293   2.601   1.241   1.603 -0.4903  1.6414  0.8293
  353TMC3    H2 5294   3.022   1.228   1.527 -0.4831 -0.3068 -4.9621
  353TMC3    C7 5295   2.796   1.091   1.516  0.0027 -0.2131 -0.0361
  353TMC3    C8 5296   3.054   1.498   1.531  0.4758 -0.5989 -0.6652
  353TMC3    O1 5297   2.682   1.058   1.488 -0.9843  0.0232  0.1811
  353TMC3    O2 5298   3.066   1.612   1.573  0.5254  0.2294 -0.0096
  354TMC3    C1 5299   0.140   2.184  13.147 -0.0663  0.4165  0.7724
  354TMC3    C2 5300   0.067   2.286  13.102  0.2222  0.3322 -0.1120
  354TMC3    C3 5301   0.104   2.357  12.993  0.2374 -0.6445 -0.5664
  354TMC3    C4 5302   0.253   2.141  13.080 -0.3290  0.0986 -0.1507
  354TMC3    C5 5303   0.287   2.201  12.960 -0.1043  0.3403 -0.1385
  354TMC3    C6 5304   0.214   2.316  12.922  0.2635 -0.4653  0.0631
  354TMC3     C 5305   0.125   2.163  13.289 -0.2142  0.0673  0.0840
  354TMC3     O 5306   0.012   2.183  13.337 -0.0885  0.5108  0.1473
  354TMC3     H 5307   4.701   2.312  13.164 -0.6839  0.1314 -1.2753
  354TMC3    H1 5308   0.282   2.039  13.103 -0.1294  0.1416 -0.2098
  354TMC3    H2 5309   0.235   2.366  12.829  0.7774 -1.1721 -0.1996
  354TMC3    C7 5310   0.374   2.139  12.859  0.1203  0.0647  0.6886
  354TMC3    C8 5311   0.089   2.500  13.003  0.6938 -0.2014  0.2296
  354TMC3    O1 5312   0.369   2.022  12.820  1.0604 -0.1869 -0.4722
  354TMC3    O2 5313   0.092   2.551  13.116  0.3932 -0.8533  0.2918
  355MPD2     C 5314   4.518   3.339  11.392 -0.4771 -0.8232  0.3457
  355MPD2    C1 5315   4.601   3.370  11.285 -0.4031 -0.1738 -0.4866
  355MPD2    C2 5316   0.015   3.403  11.314  0.5217  0.3208 -0.3888
  355MPD2    C3 5317   0.059   3.400  11.450  0.1997 -0.1828 -0.4833
  355MPD2    C4 5318   4.693   3.370  11.550 -0.1911  0.9140  0.3249
  355MPD2    C5 5319   4.567   3.339  11.522  0.3458 -0.1152 -0.3726
  355MPD2     H 5320   0.089   3.406  11.235  2.9208  1.1724  1.8893
  355MPD2    H1 5321   4.717   3.373  11.656  1.7201  1.6790 -0.1280
  355MPD2    H2 5322   4.413   3.338  11.363 -0.4977 -3.4932  0.5189
  355MPD2    H3 5323   4.501   3.321  11.606 -1.5252 -1.6388 -2.1732
  355MPD2     N 5324   0.191   3.432  11.485 -0.1816 -0.1234 -0.1340
  355MPD2    H5 5325   0.214   3.420  11.583 -0.0143  2.3359  0.1071
  355MPD2    N1 5326   4.545   3.372  11.152 -0.7982  0.3308 -0.4480
  355MPD2    H7 5327   4.452   3.331  11.149 -2.0508  3.1101  0.8820
  356TMC3    C1 5328   0.408   3.515  11.456  0.7985  0.1973 -0.6726
  356TMC3    C2 5329   0.473   3.620  11.401 -0.8349 -0.2406 -0.1339
  356TMC3    C3 5330   0.581   3.675  11.459 -0.5363  0.4385  0.1046
  356TMC3    C4 5331   0.456   3.462  11.574  0.2050 -0.0720 -0.9774
  356TMC3    C5 5332   0.576   3.502  11.613 -0.4026  0.1859 -0.4039
  356TMC3    C6 5333   0.643   3.611  11.561 -0.4316  0.2548  0.1338
  356TMC3     C 5334   0.281   3.488  11.397 -0.6772  0.1123  0.1303
  356TMC3     O 5335   0.300   3.483  11.277 -0.1161  0.5489 -0.2643
  356TMC3     H 5336   0.426   3.677  11.321 -0.3997  0.8945  0.4209
  356TMC3    H1 5337   0.401   3.395  11.640 -0.0715  1.9651  0.8607
  356TMC3    H2 5338   0.747   3.622  11.585 -0.0404  0.2833 -1.5445
  356TMC3    C7 5339   0.633   3.431  11.730 -0.7659  0.0774 -0.6881
  356TMC3    C8 5340   0.661   3.750  11.367  0.2490  0.2048  0.6646
  356TMC3    O1 5341   0.620   3.308  11.738  0.1541 -0.1771  0.4509
  356TMC3    O2 5342   0.638   3.734  11.244 -0.4166  0.3417 -0.3443
  357MPD2     C 5343   4.158   2.569   0.907  0.1942 -0.7427  0.1319
  357MPD2    C1 5344   4.279   2.527   0.960 -0.2340 -1.2335  0.0559
  357MPD2    C2 5345   4.283   2.411   1.035 -0.1406  0.3126 -0.1438
  357MPD2    C3 5346   4.166   2.346   1.076 -0.3340 -0.0764  0.1349
  357MPD2    C4 5347   4.042   2.390   1.037  0.2490  0.2625 -0.8030
  357MPD2    C5 5348   4.040   2.494   0.941 -0.4730  0.1565 -0.0389
  357MPD2     H 5349   4.379   2.368   1.061 -0.6999  0.6693  2.5332
  357MPD2    H1 5350   3.949   2.341   1.065  1.3828 -1.3108  0.1696
  357MPD2    H2 5351   4.160   2.653   0.838 -1.3447  0.5348  1.6436
  357MPD2    H3 5352   3.944   2.535   0.911 -0.2694  2.9246  3.0219
  357MPD2     N 5353   4.172   2.240   1.167 -0.4533  0.6077  0.0512
  357MPD2    H5 5354   4.087   2.190   1.190  1.0688 -0.6606  3.0260
  357MPD2    N1 5355   4.396   2.592   0.909 -0.2725  0.7042  0.3157
  357MPD2    H7 5356   4.384   2.667   0.843 -0.2268  2.4898  2.3220
  358TMC3    C1 5357   4.637   2.624   0.905 -0.8277  0.1714  0.1849
  358TMC3    C2 5358   4.644   2.604   0.770  0.9070 -0.6050  0.7551
  358TMC3    C3 5359   0.047   2.597   0.708  0.0686 -0.0101  0.0836
  358TMC3    C4 5360   0.032   2.646   0.976  0.5789  0.1414  0.2533
  358TMC3    C5 5361   0.150   2.637   0.912  0.2556 -0.0720  0.3046
  358TMC3    C6 5362   0.162   2.598   0.783 -0.4317 -0.6730 -0.0811
  358TMC3     C 5363   4.516   2.584   0.978  0.6938 -0.3749 -0.1371
  358TMC3     O 5364   4.535   2.554   1.095  0.8498 -0.3756  0.1249
  358TMC3     H 5365   4.558   2.588   0.706  2.1090  1.5197 -1.3818
  358TMC3    H1 5366   0.021   2.685   1.076 -3.7078 -2.0059  0.6002
  358TMC3    H2 5367   0.255   2.618   0.730 -0.4431  2.0775  0.9235
  358TMC3    C7 5368   0.270   2.672   0.986  0.1011 -0.3271 -0.3963
  358TMC3    C8 5369   0.051   2.578   0.561 -0.9763 -0.4790  0.2196
  358TMC3    O1 5370   0.375   2.637   0.926 -0.3077  0.1132 -0.3213
  358TMC3    O2 5371   4.674   2.619   0.503 -0.5899 -0.1739  0.6744
  359MPD2     C 5372   0.497   2.554  12.413  0.1422  0.7558  0.2753
  359MPD2    C1 5373   0.520   2.437  12.346  0.5195  0.4742  0.2985
  359MPD2    C2 5374   0.444   2.327  12.375 -0.0048  0.3648 -0.6514
  359MPD2    C3 5375   0.335   2.327  12.462 -0.1840 -0.8415  0.4452
  359MPD2    C4 5376   0.308   2.448  12.513 -0.0481  0.3181 -0.5431
  359MPD2    C5 5377   0.382   2.564  12.492  0.3185 -0.6736 -0.5298
  359MPD2     H 5378   0.472   2.240  12.316 -1.2094 -0.6238  0.2264
  359MPD2    H1 5379   0.223   2.464  12.578  0.0512  2.2806 -0.8700
  359MPD2    H2 5380   0.564   2.638  12.402  0.3754  0.8230  2.2281
  359MPD2    H3 5381   0.368   2.656  12.548 -1.0794 -1.9198  1.2266
  359MPD2     N 5382   0.255   2.220  12.509  0.1338  0.2890  0.1324
  359MPD2    H5 5383   0.195   2.243  12.588 -1.3405  2.0397 -1.5170
  359MPD2    N1 5384   0.622   2.429  12.247  0.4286 -0.2917 -0.4669
  359MPD2    H7 5385   0.631   2.336  12.208  2.2830 -0.4152  0.2937
  360TMC3    C1 5386   0.821   2.474  12.132 -0.6603  0.2380  0.3263
  360TMC3    C2 5387   0.945   2.540  12.147  0.2676 -0.5828  0.0084
  360TMC3    C3 5388   1.053   2.485  12.077  0.1723 -1.0298 -0.0495
  360TMC3    C4 5389   0.807   2.353  12.062  0.6600 -0.0211 -0.0422
  360TMC3    C5 5390   0.921   2.303  12.004 -0.1877  0.3433  0.0672
  360TMC3    C6 5391   1.048   2.365  12.013 -0.3440  0.3198 -0.5191
  360TMC3     C 5392   0.718   2.522  12.218  0.0787 -0.7076 -0.5110
  360TMC3     O 5393   0.724   2.637  12.251 -0.5964  0.3354 -0.4130
  360TMC3     H 5394   0.950   2.637  12.195 -1.6375 -0.6127  0.2797
  360TMC3    H1 5395   0.707   2.312  12.049 -0.3779  1.7111  2.4476
  360TMC3    H2 5396   1.131   2.325  11.956  0.2961 -0.4686  0.9874
  360TMC3    C7 5397   0.899   2.234  11.873 -0.0268  0.2435  0.2236
  360TMC3    C8 5398   1.133   2.586  12.013  0.4525  0.9375  0.2690
  360TMC3    O1 5399   0.990   2.260  11.798 -0.2080  0.2415  0.5151
  360TMC3    O2 5400   1.084   2.702  12.014  0.0409  0.5743  0.1697
  361MPD2     C 5401   1.350   0.754  16.757 -0.1945  0.3210 -0.4749
  361MPD2    C1 5402   1.368   0.890  16.744  0.2037 -0.6641  0.0745
  361MPD2    C2 5403   1.488   0.952  16.784 -0.9242  0.6376  0.2676
  361MPD2    C3 5404   1.596   0.879  16.814  0.3827  0.5747 -0.0084
  361MPD2    C4 5405   1.585   0.741  16.820 -0.2993 -0.0326  0.3000
  361MPD2    C5 5406   1.462   0.685  16.793 -0.1254  0.0510  0.5036
  361MPD2     H 5407   1.494   1.060  16.776  0.9861  0.5047 -0.0490
  361MPD2    H1 5408   1.661   0.678  16.865  1.1652  0.2019 -1.8826
  361MPD2    H2 5409   1.256   0.704  16.736  0.5707 -1.7651  1.0400
  361MPD2    H3 5410   1.455   0.577  16.794  0.1770  0.0243 -0.2620
  361MPD2     N 5411   1.714   0.939  16.863 -0.3460  0.3996  0.5128
  361MPD2    H5 5412   1.793   0.890  16.903 -0.0396  0.1648 -0.3857
  361MPD2    N1 5413   1.258   0.969  16.708  0.7747 -0.2770  0.1504
  361MPD2    H7 5414   1.285   1.061  16.673  0.0819  0.2726  1.0659
  362TMC3    C1 5415   1.027   1.031  16.671  0.2730 -0.2157  0.8962
  362TMC3    C2 5416   0.902   1.055  16.733  0.2979  0.9430  0.0546
  362TMC3    C3 5417   0.812   1.157  16.695 -0.5388 -0.3389  0.2852
  362TMC3    C4 5418   1.052   1.103  16.559  0.1925  0.4752 -0.8533
  362TMC3    C5 5419   0.959   1.195  16.512  0.2560  0.3320 -0.1257
  362TMC3    C6 5420   0.843   1.224  16.581 -0.2036 -0.5617  0.3971
  362TMC3     C 5421   1.123   0.939  16.722 -0.4803  0.9331 -0.3789
  362TMC3     O 5422   1.070   0.851  16.788 -0.2599 -0.0754  0.6835
  362TMC3     H 5423   0.871   0.985  16.810 -1.4201 -1.3383 -2.6634
  362TMC3    H1 5424   1.146   1.094  16.506  1.1829 -1.2027  1.2000
  362TMC3    H2 5425   0.769   1.295  16.548 -1.5898 -1.6588  1.1515
  362TMC3    C7 5426   0.974   1.263  16.387 -0.5570  0.3147  0.5063
  362TMC3    C8 5427   0.695   1.190  16.761  0.4625 -0.3847  0.7383
  362TMC3    O1 5428   0.897   1.361  16.373 -0.2710  0.3561  0.1918
  362TMC3    O2 5429   0.620   1.094  16.787  0.1063  0.2017 -0.2424
  363TMC3    C1 5430   0.191   3.540   9.393  0.2440 -0.1850  0.3459
  363TMC3    C2 5431   0.278   3.521   9.501 -0.2355  0.3000  0.4282
  363TMC3    C3 5432   0.370   3.418   9.495  0.1187  0.1723 -0.3050
  363TMC3    C4 5433   0.192   3.447   9.292  0.5879  0.7849 -0.0510
  363TMC3    C5 5434   0.288   3.340   9.295  0.6728  0.0788 -0.2965
  363TMC3    C6 5435   0.383   3.324   9.397  0.2917  0.2954  0.3481
  363TMC3     C 5436   0.084   3.625   9.421 -0.1156  0.0306 -0.0957
  363TMC3     O 5437   0.062   3.654   9.536  0.3124 -0.4717  0.6240
  363TMC3     H 5438   0.292   3.607   9.565 -2.4272  0.7270  0.3440
  363TMC3    H1 5439   0.132   3.464   9.204 -2.1824 -0.3125  1.6217
  363TMC3    H2 5440   0.443   3.235   9.403  1.5579  1.0056 -1.7793
  363TMC3    C7 5441   0.316   3.272   9.172  0.2113  0.4097 -0.2022
  363TMC3    C8 5442   0.465   3.428   9.610  0.2931  0.4317  0.8511
  363TMC3    O1 5443   0.255   3.312   9.073 -0.0039 -0.5505 -0.0089
  363TMC3    O2 5444   0.428   3.503   9.702 -0.1042  0.0028  0.7485
  364MPD2     C 5445   4.236   2.804  10.927  0.1071 -0.2841  0.9773
  364MPD2    C1 5446   4.301   2.767  10.813  0.3571 -0.1319  0.3444
  364MPD2    C2 5447   4.371   2.650  10.801 -0.3365  0.4921  0.3120
  364MPD2    C3 5448   4.379   2.557  10.904  0.0153  0.0661 -0.1583
  364MPD2    C4 5449   4.312   2.593  11.022  0.2230 -1.0876  0.2065
  364MPD2    C5 5450   4.245   2.715  11.035  0.6761  0.1439  0.4259
  364MPD2     H 5451   4.425   2.628  10.709  0.2074 -0.0401  0.7591
  364MPD2    H1 5452   4.315   2.536  11.114  1.3745  0.7721  1.3068
  364MPD2    H2 5453   4.183   2.897  10.945 -0.5788 -0.7023  1.1081
  364MPD2    H3 5454   4.191   2.731  11.128  1.5581  1.9236  0.6289
  364MPD2     N 5455   4.454   2.436  10.900  0.4732 -0.3188 -0.0161
  364MPD2    H5 5456   4.473   2.386  10.986 -0.2749  0.6074  0.6958
  364MPD2    N1 5457   4.310   2.864  10.710  0.9758  0.0482  0.0207
  364MPD2    H7 5458   4.252   2.947  10.717  0.0784 -0.5706 -0.0160
  365TMC3    C1 5459   4.363   2.965  10.497 -0.4527  0.1227  0.2831
  365TMC3    C2 5460   4.380   2.951  10.365  0.4059 -0.3511 -0.0563
  365TMC3    C3 5461   4.376   3.059  10.282  0.5934  0.1567 -0.9554
  365TMC3    C4 5462   4.351   3.087  10.562  0.2393 -0.0635  0.6287
  365TMC3    C5 5463   4.360   3.198  10.477  0.1414 -0.3055 -1.2841
  365TMC3    C6 5464   4.367   3.181  10.341  0.2627  0.4959 -0.4994
  365TMC3     C 5465   4.362   2.846  10.581 -0.0964  0.5010  0.6856
  365TMC3     O 5466   4.410   2.746  10.529 -0.3183  0.1042 -0.5242
  365TMC3     H 5467   4.374   2.850  10.326  1.1908 -0.4364  0.0441
  365TMC3    H1 5468   4.357   3.092  10.671  1.2540 -2.7878  0.6948
  365TMC3    H2 5469   4.393   3.263  10.275  1.9668  0.7444  0.4899
  365TMC3    C7 5470   4.365   3.330  10.535 -0.1370  0.3476  0.3106
  365TMC3    C8 5471   4.393   3.048  10.140 -0.5701 -0.3175 -0.4955
  365TMC3    O1 5472   4.421   3.415  10.465  0.5598 -0.0463 -0.2080
  365TMC3    O2 5473   4.337   3.130  10.065  0.7278 -0.1390  0.5462
  366MPD2     C 5474   2.288   3.978  14.681  0.7313  0.0671 -0.0412
  366MPD2    C1 5475   2.321   3.989  14.818 -0.1578  0.3106 -0.0351
  366MPD2    C2 5476   2.450   4.021  14.850  0.0147 -0.1471 -0.6456
  366MPD2    C3 5477   2.547   4.043  14.742 -0.1395 -0.1441  1.3938
  366MPD2    C4 5478   2.500   4.042  14.613  0.3740 -0.3977 -0.1096
  366MPD2    C5 5479   2.370   4.017  14.581  0.3329  0.4370 -0.0217
  366MPD2     H 5480   2.490   4.024  14.951 -1.8129 -1.7051  0.1226
  366MPD2    H1 5481   2.563   4.071  14.528  0.2161  0.0709 -0.0677
  366MPD2    H2 5482   2.190   3.949  14.647 -0.4330  1.2279  2.3100
  366MPD2    H3 5483   2.335   4.024  14.479  1.1726 -0.9180 -0.4037
  366MPD2     N 5484   2.683   4.063  14.758  0.8698  0.4527 -0.6240
  366MPD2    H5 5485   2.734   4.051  14.671  2.1686 -1.3573  0.3838
  366MPD2    N1 5486   2.226   3.979  14.924 -0.0422  0.0078 -0.5412
  366MPD2    H7 5487   2.262   4.000  15.017 -0.8667  0.4213 -0.3178
  367TMC3    C1 5488   2.022   4.019  15.036  0.3285 -0.6107  0.2367
  367TMC3    C2 5489   2.094   4.074  15.138  0.0366  0.3219 -0.2744
  367TMC3    C3 5490   2.044   4.184  15.199  0.6056 -0.4878  0.3937
  367TMC3    C4 5491   1.893   4.062  15.021  0.2665 -0.8403  0.5624
  367TMC3    C5 5492   1.839   4.163  15.095  0.3120  0.3713 -0.4092
  367TMC3    C6 5493   1.917   4.240  15.182  0.2435  0.4101 -0.2039
  367TMC3     C 5494   2.087   3.976  14.917  0.9784 -0.3272  0.1511
  367TMC3     O 5495   2.017   3.937  14.824  0.3970 -0.3782 -0.0250
  367TMC3     H 5496   2.190   4.040  15.175  0.1736  1.7508  0.6841
  367TMC3    H1 5497   1.848   4.034  14.927 -0.0959  0.5708  0.3074
  367TMC3    H2 5498   1.885   4.335  15.224 -2.3918 -0.4702 -0.2052
  367TMC3    C7 5499   1.734   4.247  15.042 -0.6004 -0.3220  0.3819
  367TMC3    C8 5500   2.133   4.248  15.299 -0.6779  0.1740  0.1004
  367TMC3    O1 5501   1.734   4.364  15.060 -0.3774 -0.2451 -0.6021
  367TMC3    O2 5502   2.250   4.216  15.305  1.0999  0.0039  0.0001
  368MPD2     C 5503   3.336   1.534  13.183 -0.2822  0.0473  0.4693
  368MPD2    C1 5504   3.332   1.579  13.054 -0.4541  0.2182 -0.2666
  368MPD2    C2 5505   3.451   1.599  12.984 -0.2953 -0.8811 -0.4465
  368MPD2    C3 5506   3.572   1.569  13.039  0.3825  0.5474 -0.1626
  368MPD2    C4 5507   3.573   1.530  13.173 -0.0498 -0.1844 -0.5749
  368MPD2    C5 5508   3.459   1.506  13.246  0.3409 -0.2496 -0.5549
  368MPD2     H 5509   3.450   1.629  12.880  3.5128  0.7900  0.0132
  368MPD2    H1 5510   3.671   1.522  13.220 -0.4090  1.1921  0.4016
  368MPD2    H2 5511   3.239   1.519  13.230 -0.0719  0.4328  1.0232
  368MPD2    H3 5512   3.465   1.475  13.349  1.8126  0.3343 -0.4649
  368MPD2     N 5513   3.696   1.590  12.981  1.0139  0.2561  0.3747
  368MPD2    H5 5514   3.770   1.564  13.046  0.5464 -0.5630  0.5789
  368MPD2    N1 5515   3.205   1.615  13.004  0.5531 -0.2070 -0.5545
  368MPD2    H7 5516   3.124   1.580  13.055  3.9761 -1.5641  3.9074
  369TMC3    C1 5517   3.048   1.718  12.864  0.1316 -0.2776  0.1075
  369TMC3    C2 5518   3.005   1.830  12.796 -0.2609 -0.1134 -0.0717
  369TMC3    C3 5519   2.876   1.830  12.749  0.2201  0.3307  0.4871
  369TMC3    C4 5520   2.958   1.618  12.894  0.7237 -1.4408 -0.6820
  369TMC3    C5 5521   2.829   1.618  12.847  0.4363 -0.3809 -0.9679
  369TMC3    C6 5522   2.788   1.726  12.772 -0.4121  0.4002 -0.4304
  369TMC3     C 5523   3.184   1.695  12.892 -0.0574 -1.4711 -0.4077
  369TMC3     O 5524   3.264   1.754  12.821  0.8971  0.0331 -0.4250
  369TMC3     H 5525   3.063   1.922  12.799  1.4999 -1.2101 -0.9084
  369TMC3    H1 5526   2.997   1.524  12.930 -2.8515 -3.1911 -1.3807
  369TMC3    H2 5527   2.689   1.721  12.729 -0.1539 -0.1859 -0.9580
  369TMC3    C7 5528   2.756   1.497  12.871 -0.1026 -0.4104  0.0818
  369TMC3    C8 5529   2.870   1.876  12.605  0.3110  0.2436  0.4028
  369TMC3    O1 5530   2.793   1.437  12.971  0.0200 -0.2859 -0.3424
  369TMC3    O2 5531   2.767   1.866  12.543  0.4972  0.0067 -0.4835
  370TMC3    C1 5532   2.960   1.872  16.228  0.5177 -0.4488  0.6986
  370TMC3    C2 5533   2.906   1.836  16.351  0.4592 -0.2152  0.2722
  370TMC3    C3 5534   2.850   1.711  16.358 -0.1039 -0.3067  0.2558
  370TMC3    C4 5535   2.960   1.797  16.120 -0.0856  0.1598  0.1580
  370TMC3    C5 5536   2.907   1.669  16.134 -1.4222  0.1800  0.2033
  370TMC3    C6 5537   2.858   1.622  16.254 -0.0820  0.5875  0.8834
  370TMC3     C 5538   3.046   1.992  16.232  0.7711  0.7200  0.3294
  370TMC3     O 5539   3.054   2.053  16.129  0.0197  0.4413 -0.2351
  370TMC3     H 5540   2.922   1.887  16.444 -0.3467 -1.7655  1.2680
  370TMC3    H1 5541   3.000   1.842  16.030  2.0947  1.2290  1.6604
  370TMC3    H2 5542   2.797   1.532  16.257  1.5882 -0.5256  0.8901
  370TMC3    C7 5543   2.914   1.582  16.015  0.1731 -0.0435  0.2721
  370TMC3    C8 5544   2.810   1.654  16.485  0.0868  0.9990  0.0865
  370TMC3    O1 5545   2.929   1.635  15.905 -0.3971  0.1657 -0.3584
  370TMC3    O2 5546   2.805   1.533  16.493 -0.3157  0.1212  0.0885
  371TMC3    C1 5547   3.968   4.631  15.559 -0.1508  0.2747  0.2693
  371TMC3    C2 5548   3.862   4.618  15.651 -0.3838 -0.2076 -0.3511
  371TMC3    C3 5549   3.826   0.011  15.719 -0.2370 -0.2868  0.8873
  371TMC3    C4 5550   4.038   0.028  15.539 -0.6144 -0.2545  0.2831
  371TMC3    C5 5551   4.006   0.134  15.622 -0.5152 -0.0702  0.1154
  371TMC3    C6 5552   3.904   0.128  15.714  0.0184 -0.2957 -0.3671
  371TMC3     C 5553   4.051   4.515  15.534 -0.3998 -0.3994 -1.0204
  371TMC3     O 5554   4.173   4.542  15.536  0.3086  0.1160 -0.1225
  371TMC3     H 5555   3.802   4.527  15.657  0.6080 -0.9027 -0.9871
  371TMC3    H1 5556   4.137   0.032  15.496 -1.2777  1.2952 -1.0869
  371TMC3    H2 5557   3.880   0.214  15.776  1.7095  0.8177 -1.2689
  371TMC3    C7 5558   4.090   0.256  15.623  0.6280 -1.0898  0.7091
  371TMC3    C8 5559   3.741   4.702  15.831  0.8521 -0.6178 -0.3854
  371TMC3    O1 5560   4.065   0.332  15.716 -0.2186  0.0372 -0.2486
  371TMC3    O2 5561   3.738   4.595  15.894  0.0943 -0.4316 -0.1279
  372MPD2     C 5562   3.749   1.212  13.102 -0.3862 -0.7166 -0.0181
  372MPD2    C1 5563   3.860   1.140  13.134 -0.1971  0.2855  0.1068
  372MPD2    C2 5564   3.852   1.019  13.201  0.0700  0.3440 -0.8259
  372MPD2    C3 5565   3.733   0.964  13.229  0.2139 -1.0715 -0.8161
  372MPD2    C4 5566   3.619   1.034  13.188 -0.2226 -0.3891 -0.1534
  372MPD2    C5 5567   3.628   1.161  13.134  0.0028  0.0407 -0.1324
  372MPD2     H 5568   3.942   0.967  13.233 -1.6979 -0.8829  2.1165
  372MPD2    H1 5569   3.520   0.997  13.216  0.0883 -2.0652 -1.2727
  372MPD2    H2 5570   3.745   1.314  13.066  0.5751 -0.3479  0.9165
  372MPD2    H3 5571   3.532   1.210  13.124  0.7019  1.4005 -0.2619
  372MPD2     N 5572   3.726   0.844  13.303  0.6012 -0.4266 -0.0006
  372MPD2    H5 5573   3.808   0.785  13.303  1.1242  0.2968 -1.7488
  372MPD2    N1 5574   3.985   1.199  13.111  0.2044  0.3879  0.1197
  372MPD2    H7 5575   4.072   1.155  13.141 -2.2879 -2.6939  2.7990
  373TMC3    C1 5576   3.611   0.673  13.422 -0.3641 -0.6091  0.2302
  373TMC3    C2 5577   3.515   0.637  13.510  0.6992 -0.0379  0.4800
  373TMC3    C3 5578   3.522   0.524  13.573  0.2348 -0.7949 -0.0684
  373TMC3    C4 5579   3.720   0.587  13.395 -0.7398  0.0652 -0.5676
  373TMC3    C5 5580   3.713   0.464  13.456 -0.4653  0.0843 -0.1611
  373TMC3    C6 5581   3.611   0.425  13.537 -0.1577  0.1377 -0.3437
  373TMC3     C 5582   3.606   0.810  13.369 -0.0051  0.6259  0.0205
  373TMC3     O 5583   3.520   0.883  13.410 -0.3084 -0.5344 -0.6228
  373TMC3     H 5584   3.438   0.707  13.538  0.2713  0.6828 -2.4408
  373TMC3    H1 5585   3.801   0.614  13.327  1.0634  2.1844  2.4437
  373TMC3    H2 5586   3.608   0.331  13.590 -0.1099  0.2259 -0.1811
  373TMC3    C7 5587   3.825   0.385  13.484  0.8227  0.3685 -0.3181
  373TMC3    C8 5588   3.517   0.551  13.717 -0.4347  0.2065 -0.0536
  373TMC3    O1 5589   3.820   0.264  13.500 -0.6785  0.5362 -0.4355
  373TMC3    O2 5590   3.508   0.665  13.764  1.2931  0.3870 -0.2930
  374TMC3    C1 5591   4.526   1.178   9.995  0.4797 -0.3777 -0.3932
  374TMC3    C2 5592   4.620   1.279   9.969 -0.2060  0.2235 -0.3017
  374TMC3    C3 5593   4.581   1.387   9.891  0.4399  0.6194  0.6382
  374TMC3    C4 5594   4.399   1.192   9.942  0.5936 -0.5003 -0.8940
  374TMC3    C5 5595   4.365   1.299   9.865  0.0236  0.3312  0.4620
  374TMC3    C6 5596   4.456   1.396   9.833  0.8259 -0.3246 -0.4697
  374TMC3     C 5597   4.568   1.070  10.078  0.1847  0.1116 -0.3926
  374TMC3     O 5598   4.664   1.097  10.142 -0.1764  0.1994  0.5394
  374TMC3     H 5599   0.002   1.272  10.008 -1.3963 -1.3512  2.5535
  374TMC3    H1 5600   4.321   1.128   9.983  1.4272  1.5655  3.8541
  374TMC3    H2 5601   4.430   1.474   9.762 -0.8363 -0.6132 -0.1732
  374TMC3    C7 5602   4.249   1.292   9.780  0.1825  0.2658  0.1336
  374TMC3    C8 5603   4.681   1.480   9.846 -0.1757 -0.1584 -0.5667
  374TMC3    O1 5604   4.233   1.377   9.694  0.4986 -0.2694 -0.1433
  374TMC3    O2 5605   4.644   1.549   9.755 -0.5601  0.0900 -0.2705
  375MPD2     C 5606   4.228   2.520  16.663 -0.3161 -0.4777 -0.1983
  375MPD2    C1 5607   4.095   2.483  16.660 -0.2168 -0.4023 -0.0605
  375MPD2    C2 5608   4.061   2.350  16.657 -0.1479 -0.1153 -0.5690
  375MPD2    C3 5609   4.154   2.249  16.657 -0.0818  0.2196  0.1001
  375MPD2    C4 5610   4.289   2.287  16.641 -0.0805 -0.0954  0.0987
  375MPD2    C5 5611   4.319   2.421  16.644 -0.9610 -0.0660  0.2457
  375MPD2     H 5612   3.954   2.347  16.673 -0.1801 -1.0823 -0.9929
  375MPD2    H1 5613   4.366   2.211  16.651  0.2472  0.5439  2.4919
  375MPD2    H2 5614   4.268   2.620  16.669 -2.0495  0.4939 -4.7586
  375MPD2    H3 5615   4.423   2.454  16.643 -1.3132  1.0568  1.5847
  375MPD2     N 5616   4.128   2.115  16.676  0.0850 -0.4792  0.0432
  375MPD2    H5 5617   4.206   2.049  16.673  0.9023  0.5254 -0.9059
  375MPD2    N1 5618   3.991   2.582  16.669  0.0706  0.0570 -0.3046
  375MPD2    H7 5619   3.898   2.542  16.677 -1.0945  2.9867  0.8313
  376TMC3    C1 5620   4.023   1.913  16.660 -0.0398  0.7006 -0.9854
  376TMC3    C2 5621   4.130   1.873  16.736  0.2689  0.5769  0.3558
  376TMC3    C3 5622   4.212   1.774  16.685 -0.2324 -0.4659  0.2352
  376TMC3    C4 5623   3.984   1.844  16.547 -0.4529 -0.8681 -0.0389
  376TMC3    C5 5624   4.075   1.762  16.493 -0.3980  0.1703 -0.1973
  376TMC3    C6 5625   4.189   1.717  16.558  0.1104  0.3216  0.0308
  376TMC3     C 5626   4.009   2.058  16.646  0.3015  0.3691  0.3995
  376TMC3     O 5627   3.903   2.109  16.607  0.6164 -0.5517 -0.1173
  376TMC3     H 5628   4.163   1.924  16.826  2.4824 -1.9643  0.9689
  376TMC3    H1 5629   3.902   1.880  16.487  1.5756  5.5701  0.9598
  376TMC3    H2 5630   4.263   1.659  16.504 -0.0473 -0.8686  1.1089
  376TMC3    C7 5631   4.079   1.743  16.355 -0.1794  0.0097  0.2920
  376TMC3    C8 5632   4.345   1.810  16.714 -0.1793  0.3955 -0.0665
  376TMC3    O1 5633   4.184   1.735  16.295 -0.0872  0.5861  0.0094
  376TMC3    O2 5634   4.364   1.931  16.730  0.1279  0.3657  0.4305
  377MPD2     C 5635   2.400   1.782  12.233 -0.4365  0.0837 -0.6298
  377MPD2    C1 5636   2.447   1.704  12.336  0.4946  0.6157  0.4351
  377MPD2    C2 5637   2.361   1.665  12.445  0.0248 -0.9953  0.0427
  377MPD2    C3 5638   2.235   1.724  12.459  0.3460  0.9323 -0.0630
  377MPD2    C4 5639   2.192   1.806  12.358  0.2121  0.4722  0.5210
  377MPD2    C5 5640   2.274   1.840  12.251 -0.2974  0.3164 -0.2260
  377MPD2     H 5641   2.405   1.615  12.531 -0.0771  0.1584  0.7555
  377MPD2    H1 5642   2.099   1.862  12.361 -1.5267 -2.3712 -0.6741
  377MPD2    H2 5643   2.474   1.796  12.156 -0.9635  1.3786 -0.8880
  377MPD2    H3 5644   2.248   1.905  12.169 -1.4278 -0.6703 -0.6519
  377MPD2     N 5645   2.146   1.695  12.561 -0.8244 -0.1753  0.5784
  377MPD2    H5 5646   2.058   1.744  12.551 -2.0599 -2.3350  1.0523
  377MPD2    N1 5647   2.581   1.655  12.317 -0.3271 -1.0141  0.1600
  377MPD2    H7 5648   2.625   1.683  12.230  0.7048  1.1130  1.3759
  378TMC3    C1 5649   2.954   1.505  12.212 -0.3170 -0.2924 -0.0955
  378TMC3    C2 5650   2.831   1.555  12.236 -0.0366  0.4852  0.1110
  378TMC3    C3 5651   2.795   1.559  12.367 -0.2183 -0.1987  0.2459
  378TMC3    C4 5652   3.043   1.455  12.308 -0.1958 -0.3608 -0.4026
  378TMC3    C5 5653   3.006   1.469  12.444 -0.1730 -0.3685 -0.2586
  378TMC3    C6 5654   2.881   1.529  12.468  0.7453 -0.4013 -0.7060
  378TMC3     C 5655   3.010   1.536  12.076 -0.2928  0.6003 -0.2896
  378TMC3     O 5656   2.926   1.572  11.992  0.4682  0.2529  0.3488
  378TMC3     H 5657   2.779   1.605  12.154 -1.5105 -0.9658  0.1605
  378TMC3    H1 5658   3.140   1.413  12.282 -1.6764 -2.3194 -2.6386
  378TMC3    H2 5659   2.847   1.539  12.571 -3.2055  2.2747 -2.2668
  378TMC3    C7 5660   3.087   1.421  12.553  0.0336  0.1792 -0.4160
  378TMC3    C8 5661   2.655   1.588  12.406  0.6182  0.2976 -0.8560
  378TMC3    O1 5662   3.038   1.430  12.662 -0.5559  0.6153  0.5275
  378TMC3    O2 5663   2.635   1.562  12.519  0.6634  0.5088 -0.2921
  379MPD2     C 5664   2.939   0.052  16.099  0.5263  0.2815  0.0468
  379MPD2    C1 5665   2.950   4.660  16.022 -0.7183  0.3068 -0.3216
  379MPD2    C2 5666   2.979   4.541  16.081  0.8554  0.5138 -0.3035
  379MPD2    C3 5667   2.978   4.536  16.220  0.0892  0.5062  0.6134
  379MPD2    C4 5668   2.966   4.651  16.295 -0.1075  0.2151  0.4938
  379MPD2    C5 5669   2.950   0.048  16.235  0.0975  0.1911  0.1695
  379MPD2     H 5670   2.996   4.449  16.026  0.8664  1.2185 -1.4709
  379MPD2    H1 5671   2.964   4.652  16.403  0.3240 -0.8242  0.5145
  379MPD2    H2 5672   2.913   0.148  16.057 -3.0039 -0.4936  0.4531
  379MPD2    H3 5673   2.928   0.140  16.287  2.6553 -0.2025  1.9539
  379MPD2     N 5674   3.001   4.419  16.293 -0.0529  0.0125 -0.4797
  379MPD2    H5 5675   3.007   4.436  16.393  0.0588  1.2418 -0.6929
  379MPD2    N1 5676   2.927   4.684  15.882 -0.0369  0.4585  0.2320
  379MPD2    H7 5677   2.907   0.059  15.851  0.6701  0.9692  1.3248
  380TMC3    C1 5678   2.878   4.634  15.663  0.1545 -0.4599 -0.2684
  380TMC3    C2 5679   2.924   4.555  15.559  0.6654 -0.1429 -0.6054
  380TMC3    C3 5680   2.861   4.555  15.439  0.1818 -0.6527 -0.5354
  380TMC3    C4 5681   2.756   4.700  15.648  1.2078  0.6629 -0.1672
  380TMC3    C5 5682   2.688   4.696  15.532  0.0869  0.3615 -1.0859
  380TMC3    C6 5683   2.740   4.622  15.425 -1.1559 -0.3691  0.9757
  380TMC3     C 5684   2.928   4.584  15.789  0.2382 -0.3494  0.1861
  380TMC3     O 5685   2.962   4.466  15.796 -0.3059  0.4995  0.1774
  380TMC3     H 5686   3.015   4.498  15.577  0.5517 -0.5249 -1.2684
  380TMC3    H1 5687   2.704   0.032  15.728  0.0408  0.2666 -0.6722
  380TMC3    H2 5688   2.681   4.624  15.333 -0.0788  0.8256  0.3095
  380TMC3    C7 5689   2.547   4.712  15.552  0.1923  0.0760 -0.3650
  380TMC3    C8 5690   2.935   4.493  15.331 -0.2392  0.5555 -0.3825
  380TMC3    O1 5691   2.503   0.072  15.637  0.5200  0.2735 -0.5680
  380TMC3    O2 5692   3.029   4.419  15.352 -0.1517  0.1289 -0.0252
  381TMC3    C1 5693   2.705   0.959  16.367 -0.1338 -0.4815  0.5967
  381TMC3    C2 5694   2.789   1.060  16.325  0.2470 -0.1728  0.2214
  381TMC3    C3 5695   2.836   1.145  16.420  0.0649 -0.7083  0.4015
  381TMC3    C4 5696   2.663   0.943  16.504 -0.2529 -0.0325  0.4641
  381TMC3    C5 5697   2.702   1.043  16.584  0.4891  0.5497  0.2363
  381TMC3    C6 5698   2.805   1.132  16.550  0.2752  0.1898 -0.1352
  381TMC3     C 5699   2.715   0.834  16.298  0.2585  0.0820 -0.3181
  381TMC3     O 5700   2.690   0.731  16.361 -0.0802 -0.1491  0.3108
  381TMC3     H 5701   2.819   1.075  16.222 -0.3139  0.4661  0.1522
  381TMC3    H1 5702   2.596   0.864  16.537 -1.8138  0.3612 -1.7772
  381TMC3    H2 5703   2.858   1.183  16.630  0.9701 -0.7945  0.0380
  381TMC3    C7 5704   2.663   1.031  16.720 -0.2271  0.6688  0.1901
  381TMC3    C8 5705   2.972   1.170  16.396 -0.2018 -0.3221 -0.0030
  381TMC3    O1 5706   2.653   0.918  16.756 -0.0875 -0.2197  0.5254
  381TMC3    O2 5707   3.038   1.084  16.340  0.1666 -0.1336  0.2083
  382MPD2     C 5708   2.057   3.601  16.955  0.6347 -0.1783 -0.6908
  382MPD2    C1 5709   2.083   3.608  17.093 -0.0693  0.0451 -0.2647
  382MPD2    C2 5710   2.091   3.493  17.172  0.8091  0.2898 -0.5881
  382MPD2    C3 5711   2.058   3.371  17.119 -0.7682 -0.0456  0.0465
  382MPD2    C4 5712   2.030   3.361  16.987 -0.7353  0.1428 -0.4605
  382MPD2    C5 5713   2.034   3.471  16.911 -0.4343  0.0213 -0.5940
  382MPD2     H 5714   2.132   3.504  17.272 -0.7063 -1.7661  0.2551
  382MPD2    H1 5715   2.004   3.268  16.936  1.7458  0.2043 -1.8305
  382MPD2    H2 5716   2.039   3.680  16.883  1.6193  0.0610 -0.6675
  382MPD2    H3 5717   2.018   3.461  16.805 -2.0054 -2.0596 -0.1597
  382MPD2     N 5718   2.056   3.247  17.187  0.5991 -0.6542 -0.5685
  382MPD2    H5 5719   2.016   3.167  17.138  1.5719 -0.6459 -1.3597
  382MPD2    N1 5720   2.108   3.733  17.144  0.2116  0.8597 -0.1405
  382MPD2    H7 5721   2.119   3.737  17.245 -0.0939 -1.6150 -0.0022
  383TMC3    C1 5722   2.042   3.105  17.382 -0.2934  0.5563 -0.5893
  383TMC3    C2 5723   1.944   3.029  17.323 -0.5188  0.5373 -0.4719
  383TMC3    C3 5724   1.914   2.907  17.382 -0.1829 -0.7723  0.3689
  383TMC3    C4 5725   2.091   3.070  17.505 -0.4095 -0.2132 -0.3217
  383TMC3    C5 5726   2.046   2.957  17.565 -0.6443 -0.0214  0.9037
  383TMC3    C6 5727   1.956   2.873  17.508 -0.1059  0.1327 -0.2019
  383TMC3     C 5728   2.089   3.227  17.328 -0.2433  0.7127 -0.2480
  383TMC3     O 5729   2.168   3.297  17.394 -0.2455 -0.3960 -0.2605
  383TMC3     H 5730   1.892   3.062  17.233 -1.5479  1.0699  0.3184
  383TMC3    H1 5731   2.165   3.140  17.542  1.1075 -2.7609  1.4555
  383TMC3    H2 5732   1.922   2.784  17.560  2.2638  0.7522  2.4086
  383TMC3    C7 5733   2.073   2.936   0.025 -0.3543  0.4504  0.2004
  383TMC3    C8 5734   1.808   2.834  17.317 -0.4981  0.4475  0.4772
  383TMC3    O1 5735   2.064   2.827   0.083 -0.1751 -0.3794 -0.2613
  383TMC3    O2 5736   1.761   2.874  17.208 -0.2625 -0.2420  0.0800
  384MPD2     C 5737   3.724   4.228  11.901  0.7146 -0.2249 -0.1203
  384MPD2    C1 5738   3.780   4.289  12.013 -0.9018 -0.2850  0.0939
  384MPD2    C2 5739   3.917   4.283  12.017 -0.0642  0.2300  0.2422
  384MPD2    C3 5740   3.998   4.208  11.933 -0.4556  0.7215  0.1173
  384MPD2    C4 5741   3.929   4.141  11.827 -0.0367  1.0598 -0.0938
  384MPD2    C5 5742   3.800   4.157  11.814 -0.6754  0.1784  0.9136
  384MPD2     H 5743   3.971   4.326  12.101  0.8341 -0.2775 -0.0677
  384MPD2    H1 5744   3.978   4.086  11.748 -0.2127  0.0237  0.5171
  384MPD2    H2 5745   3.618   4.221  11.882  0.8425  1.5181 -1.5022
  384MPD2    H3 5746   3.754   4.116  11.725  0.9534 -0.4220  0.3527
  384MPD2     N 5747   4.136   4.175  11.951 -0.0242  0.3400  0.1864
  384MPD2    H5 5748   4.167   4.092  11.901 -1.6369 -0.1886  0.0699
  384MPD2    N1 5749   3.703   4.363  12.105  0.3238  0.1858 -0.0311
  384MPD2    H7 5750   3.604   4.342  12.103  0.3257  0.3221 -1.7296
  385TMC3    C1 5751   4.339   4.170  12.085  0.2085 -0.5629  0.6068
  385TMC3    C2 5752   4.380   4.055  12.029 -0.4165 -0.0180  0.2255
  385TMC3    C3 5753   4.455   3.970  12.112 -0.2333  0.0735  0.3604
  385TMC3    C4 5754   4.385   4.210  12.211  0.5747  0.2344 -0.0616
  385TMC3    C5 5755   4.445   4.118  12.295 -1.3774  0.1582  0.2783
  385TMC3    C6 5756   4.481   3.999  12.238 -0.0396  0.0483  0.0183
  385TMC3     C 5757   4.221   4.245  12.038 -0.2897 -0.0120  0.6160
  385TMC3     O 5758   4.207   4.358  12.074  0.4604 -0.8366  0.5966
  385TMC3     H 5759   4.354   4.026  11.928 -0.6898 -0.1677  0.3408
  385TMC3    H1 5760   4.360   4.306  12.254  0.2568  0.3497 -0.4994
  385TMC3    H2 5761   4.538   3.923  12.291  0.2417 -1.0769 -1.8863
  385TMC3    C7 5762   4.362   4.101  12.407 -0.3908  0.3210 -0.2013
  385TMC3    C8 5763   4.432   3.827  12.104 -1.0334 -0.1896  0.3619
  385TMC3    O1 5764   4.350   4.197  12.486 -0.1011 -0.0503 -0.1732
  385TMC3    O2 5765   4.385   3.779  12.204 -0.9748 -0.4118 -0.0781
  386TMC3    C1 5766   3.725   1.566  11.913 -0.2728 -0.2248  0.3742
  386TMC3    C2 5767   3.825   1.526  11.826  0.1086  0.2496  0.6167
  386TMC3    C3 5768   3.804   1.549  11.695 -0.2939 -0.0155  0.3235
  386TMC3    C4 5769   3.611   1.633  11.881 -0.3625 -0.2134  0.9524
  386TMC3    C5 5770   3.596   1.658  11.749  0.1778 -0.0890 -0.6482
  386TMC3    C6 5771   3.688   1.607  11.654  0.1387 -0.1392  0.5684
  386TMC3     C 5772   3.745   1.537  12.053  0.0451  0.0132 -0.1517
  386TMC3     O 5773   3.650   1.536  12.127 -0.0754  0.8786  0.4444
  386TMC3     H 5774   3.908   1.465  11.860  0.8055  1.2278  0.6698
  386TMC3    H1 5775   3.535   1.666  11.951 -1.6233 -3.1439  0.9533
  386TMC3    H2 5776   3.673   1.612  11.546  0.0662  1.8054  0.6598
  386TMC3    C7 5777   3.511   1.772  11.709  0.0531 -0.1853  0.2994
  386TMC3    C8 5778   3.884   1.497  11.587 -0.3589  0.3613  0.3306
  386TMC3    O1 5779   3.434   1.818  11.792  0.0833  0.1397  0.0171
  386TMC3    O2 5780   3.826   1.492  11.479  0.3368  0.8889  0.3475
  387MPD2     C 5781   1.732   2.084   9.611  0.4366  1.2082  0.7277
  387MPD2    C1 5782   1.861   2.048   9.634  0.0754 -0.1990  0.1333
  387MPD2    C2 5783   1.894   1.918   9.616  0.0097 -0.9984  0.1183
  387MPD2    C3 5784   1.803   1.820   9.580 -0.5559  0.0870 -0.2860
  387MPD2    C4 5785   1.676   1.858   9.558 -0.4662  0.5839 -0.9311
  387MPD2    C5 5786   1.647   1.990   9.573  0.4697 -0.8854 -0.2611
  387MPD2     H 5787   1.996   1.900   9.648 -0.1700 -1.1781  0.5854
  387MPD2    H1 5788   1.603   1.793   9.512 -0.5288 -0.0333  0.0261
  387MPD2    H2 5789   1.708   2.190   9.618 -3.3099  0.4821 -1.0859
  387MPD2    H3 5790   1.545   2.023   9.558  0.1184 -2.2319 -0.8804
  387MPD2     N 5791   1.845   1.681   9.575 -0.3010 -0.0200 -0.2217
  387MPD2    H5 5792   1.944   1.667   9.593 -0.7270  0.5694  2.6258
  387MPD2    N1 5793   1.956   2.129   9.697  0.2989  0.5574  0.1288
  387MPD2    H7 5794   2.048   2.087   9.711  0.8220  1.6490 -0.0330
  388TMC3    C1 5795   2.040   2.271   9.852 -0.1682  0.1278  0.2191
  388TMC3    C2 5796   2.069   2.395   9.887  0.2604 -0.0969  0.6673
  388TMC3    C3 5797   2.152   2.408   9.996  0.3313  0.0921  0.1831
  388TMC3    C4 5798   2.079   2.164   9.927 -0.3908  0.1138 -0.0371
  388TMC3    C5 5799   2.167   2.175  10.031  0.4920 -0.2525  0.4553
  388TMC3    C6 5800   2.208   2.298  10.063 -0.2256 -0.2049 -0.7068
  388TMC3     C 5801   1.943   2.252   9.745  0.4582 -0.2655  0.2112
  388TMC3     O 5802   1.869   2.342   9.711  0.6452 -0.0228  0.7979
  388TMC3     H 5803   2.015   2.471   9.832 -0.0181 -1.1617 -0.5519
  388TMC3    H1 5804   2.040   2.065   9.911  0.8685 -0.0128 -2.2929
  388TMC3    H2 5805   2.274   2.313  10.148 -0.7265  1.8026 -0.6651
  388TMC3    C7 5806   2.232   2.057  10.089  0.5444 -0.1068  0.0676
  388TMC3    C8 5807   2.216   2.533  10.034  0.2942  0.1066 -0.3564
  388TMC3    O1 5808   2.250   2.060  10.209 -0.1056 -0.2796  0.1288
  388TMC3    O2 5809   2.323   2.526  10.094 -0.0378  0.3543  0.2835
  389MPD2     C 5810   1.141   0.159  11.292 -0.0557  0.2219  0.3991
  389MPD2    C1 5811   1.051   0.083  11.227 -0.1133 -0.8142 -0.5236
  389MPD2    C2 5812   0.985   4.707  11.296  0.4704  0.0282  0.1828
  389MPD2    C3 5813   0.983   4.696  11.431 -0.3991 -0.8220  0.2063
  389MPD2    C4 5814   1.072   0.063  11.505  0.2558 -0.1794 -0.7466
  389MPD2    C5 5815   1.150   0.146  11.436 -0.6605  0.3546  0.1191
  389MPD2     H 5816   0.898   4.658  11.253 -0.6875  0.8885  1.5443
  389MPD2    H1 5817   1.084   0.065  11.612 -1.3331  0.8562 -0.5888
  389MPD2    H2 5818   1.216   0.224  11.248  0.7996 -0.5751  0.6982
  389MPD2    H3 5819   1.229   0.195  11.491 -0.5047 -1.1630  1.2541
  389MPD2     N 5820   0.887   4.619  11.500 -0.2125  0.1031  0.3616
  389MPD2    H5 5821   0.898   4.615  11.601 -0.8907  0.0248  0.4346
  389MPD2    N1 5822   1.036   0.087  11.087 -0.2166 -0.2754  0.3451
  389MPD2    H7 5823   1.085   0.168  11.049 -0.4967  0.4043  1.4313
  390TMC3    C1 5824   0.739   4.444  11.541  0.3440  0.3377 -0.3132
  390TMC3    C2 5825   0.694   4.315  11.509 -0.0485 -0.4719  0.5663
  390TMC3    C3 5826   0.586   4.259  11.565  0.1255 -0.6958  0.1553
  390TMC3    C4 5827   0.670   4.510  11.634  0.3346  0.5379 -0.0900
  390TMC3    C5 5828   0.550   4.451  11.677  0.2727  0.2542  0.1795
  390TMC3    C6 5829   0.507   4.327  11.646  0.3676  0.3296  0.0215
  390TMC3     C 5830   0.809   4.525  11.445 -0.1675  0.0523 -0.3157
  390TMC3     O 5831   0.809   4.476  11.335  0.2123  0.3274 -0.0871
  390TMC3     H 5832   0.752   4.259  11.436 -1.3187  1.2640 -1.7650
  390TMC3    H1 5833   0.708   4.602  11.675 -0.8088  0.4810  1.1126
  390TMC3    H2 5834   0.424   4.279  11.697 -0.1150  0.3056 -0.7917
  390TMC3    C7 5835   0.459   4.548  11.726  0.1462 -0.2284  0.9200
  390TMC3    C8 5836   0.535   4.131  11.503 -0.9633  0.2300 -0.2945
  390TMC3    O1 5837   0.505   4.657  11.755 -0.5597  0.1270  0.0061
  390TMC3    O2 5838   0.540   4.127  11.380 -0.2236 -0.2372 -0.2714
  391MPD2     C 5839   0.935   1.374  11.069  0.4420  0.4211 -0.4158
  391MPD2    C1 5840   0.958   1.505  11.030  0.7670  0.4992 -0.6560
  391MPD2    C2 5841   0.904   1.555  10.909 -0.1006 -0.2874  0.0453
  391MPD2    C3 5842   0.853   1.468  10.817  0.4497 -0.4674  0.6701
  391MPD2    C4 5843   0.828   1.336  10.855 -0.1560 -0.8702  0.0273
  391MPD2    C5 5844   0.873   1.294  10.980 -0.2950  0.0348 -0.4124
  391MPD2     H 5845   0.908   1.657  10.873 -1.0866  0.3556  1.7906
  391MPD2    H1 5846   0.782   1.262  10.790 -2.7685  1.1231 -0.4304
  391MPD2    H2 5847   0.988   1.336  11.156 -0.5733 -1.3597 -0.5880
  391MPD2    H3 5848   0.867   1.191  11.015 -1.0384 -0.1559 -1.0867
  391MPD2     N 5849   0.830   1.515  10.689 -0.1721 -0.7890  0.7194
  391MPD2    H5 5850   0.897   1.579  10.649  0.0664 -0.8705  0.9902
  391MPD2    N1 5851   1.020   1.583  11.118 -0.0640  0.1512  0.6515
  391MPD2    H7 5852   1.039   1.548  11.212 -0.6821 -0.1573  0.6586
  392TMC3    C1 5853   0.722   1.553  10.485  0.1481  0.4857 -0.0925
  392TMC3    C2 5854   0.598   1.573  10.442  0.2648 -0.1353 -0.3419
  392TMC3    C3 5855   0.582   1.645  10.319 -0.2801 -0.5237 -0.2941
  392TMC3    C4 5856   0.832   1.602  10.428  0.3609 -0.2020  0.9757
  392TMC3    C5 5857   0.817   1.668  10.313  0.1149  0.3662  0.1439
  392TMC3    C6 5858   0.695   1.692  10.253  0.3587 -0.1035 -0.1588
  392TMC3     C 5859   0.736   1.463  10.600  0.0211 -0.2529  0.0234
  392TMC3     O 5860   0.643   1.385  10.633  0.6162 -0.0089 -0.1546
  392TMC3     H 5861   0.512   1.533  10.494 -0.8148  2.9816  0.2936
  392TMC3    H1 5862   0.935   1.577  10.454  0.2086 -0.7067  1.0994
  392TMC3    H2 5863   0.684   1.754  10.165 -0.7649  0.0294  0.0769
  392TMC3    C7 5864   0.918   1.770  10.299  0.0772 -0.4291  0.1109
  392TMC3    C8 5865   0.455   1.628  10.249  0.0675 -0.8469  0.9389
  392TMC3    O1 5866   0.980   1.803  10.399  0.2084  0.1418 -0.1897
  392TMC3    O2 5867   0.391   1.528  10.272 -0.0111  0.2447  0.2733
  393TMC3    C1 5868   3.558   3.769  10.091 -0.1787 -0.1752 -0.0677
  393TMC3    C2 5869   3.451   3.698  10.135  0.9377  0.2732 -0.0083
  393TMC3    C3 5870   3.473   3.600  10.230  1.2445 -0.4989  0.0609
  393TMC3    C4 5871   3.684   3.741  10.133  0.6771  0.6520  0.0208
  393TMC3    C5 5872   3.708   3.634  10.215  0.4369 -0.9990 -0.3656
  393TMC3    C6 5873   3.601   3.557  10.256 -0.0191 -0.3864  0.8575
  393TMC3     C 5874   3.560   3.881  10.005  0.6086  0.2346 -0.2792
  393TMC3     O 5875   3.658   3.951  10.006  0.3909  0.4260 -0.2270
  393TMC3     H 5876   3.347   3.720  10.113  0.2555 -1.7675  1.1562
  393TMC3    H1 5877   3.771   3.791  10.092 -0.8724 -0.2481 -4.2704
  393TMC3    H2 5878   3.627   3.472  10.317  2.7515 -0.7044 -0.7734
  393TMC3    C7 5879   3.834   3.572  10.190 -0.2466 -0.1053  1.0105
  393TMC3    C8 5880   3.363   3.501  10.252 -0.0105  0.0624 -0.3131
  393TMC3    O1 5881   3.831   3.451  10.179  0.2337  0.5197 -0.3897
  393TMC3    O2 5882   3.261   3.520  10.185  0.8185 -0.3149  0.1511
  394TMC3    C1 5883   0.970   0.037  10.869 -0.5314 -0.1262  0.6755
  394TMC3    C2 5884   0.890   4.685  10.786 -0.0378 -0.5358  0.0494
  394TMC3    C3 5885   0.882   0.005  10.650  0.4848  0.0839  0.0556
  394TMC3    C4 5886   1.061   0.124  10.822 -0.3207 -0.0846  1.0313
  394TMC3    C5 5887   1.065   0.134  10.687 -0.3999  0.2041 -0.1771
  394TMC3    C6 5888   0.973   0.090  10.594  0.1623  0.2611 -0.4588
  394TMC3     C 5889   0.982   4.710  11.005  0.2781 -0.2387  0.4256
  394TMC3     O 5890   0.929   4.602  11.025  0.1985  0.4559 -0.7458
  394TMC3     H 5891   0.830   4.603  10.826 -2.6089  1.2793 -0.0474
  394TMC3    H1 5892   1.127   0.182  10.885  0.0968 -1.2496  1.6669
  394TMC3    H2 5893   0.984   0.122  10.491  2.0548 -0.8321 -0.5954
  394TMC3    C7 5894   1.186   0.193  10.633  0.0623 -0.0810  0.1075
  394TMC3    C8 5895   0.811   4.629  10.570  0.6642 -0.0958  0.3749
  394TMC3    O1 5896   1.241   0.277  10.704 -0.3176 -0.1847  0.1820
  394TMC3    O2 5897   0.720   4.566  10.627  0.7027  0.6554 -0.6048
  395TMC3    C1 5898   0.756   2.175  14.796  0.1993 -0.9741  0.1623
  395TMC3    C2 5899   0.643   2.249  14.814  0.0134 -0.1682  0.0230
  395TMC3    C3 5900   0.652   2.363  14.880  0.6254  0.5892  0.1142
  395TMC3    C4 5901   0.884   2.219  14.824  1.0255  0.0479 -0.3432
  395TMC3    C5 5902   0.890   2.344  14.886  0.1981  0.0780  0.0483
  395TMC3    C6 5903   0.775   2.412  14.912  0.0827 -0.5949  0.6022
  395TMC3     C 5904   0.737   2.029  14.806 -0.1064 -0.5565  0.2117
  395TMC3     O 5905   0.757   1.948  14.716  0.5776 -0.4329  0.0266
  395TMC3     H 5906   0.546   2.213  14.782  0.5690  0.4605 -2.3668
  395TMC3    H1 5907   0.967   2.150  14.809  0.7776  0.4255 -3.5264
  395TMC3    H2 5908   0.783   2.498  14.976 -1.1795 -1.7829  2.3540
  395TMC3    C7 5909   1.015   2.394  14.942 -0.9523  0.0172 -0.4721
  395TMC3    C8 5910   0.539   2.405  14.955  0.7394 -0.0879  0.4699
  395TMC3    O1 5911   1.011   2.493  15.011  0.4626 -0.0969  0.3579
  395TMC3    O2 5912   0.547   2.514  15.011  0.1927  0.1375 -0.5783
  396MPD2     C 5913   0.146   3.145  17.565 -0.1026  1.2029  0.1727
  396MPD2    C1 5914   0.173   3.179  17.434  0.0593  0.3314  0.1364
  396MPD2    C2 5915   0.270   3.273  17.405 -0.2033  0.8586 -0.0512
  396MPD2    C3 5916   0.359   3.311  17.504 -0.1695  0.2980 -0.5017
  396MPD2    C4 5917   0.331   3.283  17.639 -0.1323  0.4392  0.2367
  396MPD2    C5 5918   0.220   3.199  17.670  0.2272  0.2541 -0.0411
  396MPD2     H 5919   0.291   3.304  17.303  0.7347 -0.9022 -0.3939
  396MPD2    H1 5920   0.396   3.304   0.044  0.5403  0.6073 -0.3191
  396MPD2    H2 5921   0.071   3.070  17.592 -0.8222  2.1828  0.9076
  396MPD2    H3 5922   0.207   3.174   0.094 -1.4940  2.3330  0.2558
  396MPD2     N 5923   0.473   3.392  17.474  0.4255  0.4104  0.4814
  396MPD2    H5 5924   0.476   3.430  17.380  0.0765 -1.6749 -0.3689
  396MPD2    N1 5925   0.106   3.100  17.339 -0.0809 -0.6770  0.0692
  396MPD2    H7 5926   0.046   3.022  17.364 -0.2945 -0.5304  0.0128
  397TMC3    C1 5927   0.077   2.995  17.132 -0.6133 -0.1075  0.0920
  397TMC3    C2 5928   0.070   3.006  16.997 -0.3294  0.1653  0.6672
  397TMC3    C3 5929   0.136   2.911  16.925  0.6738 -0.3832  0.3692
  397TMC3    C4 5930   0.130   2.881  17.192  0.0323  0.7404 -0.3058
  397TMC3    C5 5931   0.180   2.782  17.116 -0.5399 -0.1627 -0.5739
  397TMC3    C6 5932   0.184   2.798  16.980 -0.1904  0.0951  0.0299
  397TMC3     C 5933   0.116   3.117  17.201 -0.4295 -0.2915 -0.1652
  397TMC3     O 5934   0.171   3.206  17.135 -0.2646 -0.0447  0.5066
  397TMC3     H 5935   0.041   3.104  16.961 -4.0016 -0.4018  2.2014
  397TMC3    H1 5936   0.160   2.874  17.296  0.2043  0.0766 -0.3996
  397TMC3    H2 5937   0.208   2.709  16.922 -1.0925 -1.0889  1.4901
  397TMC3    C7 5938   0.254   2.668  17.164 -0.4495 -0.3350 -0.1189
  397TMC3    C8 5939   0.182   2.944  16.793  0.8429 -0.2319 -0.3382
  397TMC3    O1 5940   0.306   2.598  17.075 -0.0990 -0.0007  0.6003
  397TMC3    O2 5941   0.131   3.034  16.725 -0.1218  0.0330  0.6310
  398MPD2     C 5942   2.660   3.689   0.001 -0.3515  0.0875 -0.1613
  398MPD2    C1 5943   2.729   3.645   0.117  0.3717 -0.0568  0.5126
  398MPD2    C2 5944   2.779   3.738   0.207 -0.9210  0.1808  1.3779
  398MPD2    C3 5945   2.769   3.872   0.171 -0.5086  0.0004  0.1178
  398MPD2    C4 5946   2.713   3.917   0.049  0.4122 -0.4369 -0.2827
  398MPD2    C5 5947   2.658   3.821  17.648  0.7947  0.5972 -0.5700
  398MPD2     H 5948   2.824   3.706   0.300  0.9026  0.7868  0.6865
  398MPD2    H1 5949   2.722   4.017   0.009  0.6863 -0.9348 -1.4627
  398MPD2    H2 5950   2.605   3.624  17.615 -0.0408  1.3860 -1.6925
  398MPD2    H3 5951   2.604   3.841  17.555  1.2422 -2.4949 -1.4854
  398MPD2     N 5952   2.838   3.958   0.254 -0.2917 -0.1378  0.3526
  398MPD2    H5 5953   2.865   3.917   0.343  1.3834  2.1389  0.8891
  398MPD2    N1 5954   2.743   3.507   0.142 -0.2893 -0.0202 -0.9728
  398MPD2    H7 5955   2.787   3.478   0.229  0.1105 -0.4460 -1.3147
  399TMC3    C1 5956   2.763   3.268   0.109 -0.2806 -0.4150  0.1864
  399TMC3    C2 5957   2.884   3.256   0.169  0.9050 -0.1398  0.1020
  399TMC3    C3 5958   2.926   3.132   0.199 -0.0213 -0.4449  0.3501
  399TMC3    C4 5959   2.690   3.162   0.064  0.2523 -0.0076  0.3368
  399TMC3    C5 5960   2.740   3.040   0.088  0.9639 -0.0939 -0.3435
  399TMC3    C6 5961   2.856   3.015   0.157  0.3301  0.2762  0.3517
  399TMC3     C 5962   2.715   3.404   0.058 -0.0804 -0.0638 -0.3906
  399TMC3     O 5963   2.639   3.395  17.643 -0.0172  0.5280  0.0146
  399TMC3     H 5964   2.944   3.344   0.189  0.5097 -0.4813  2.7671
  399TMC3    H1 5965   2.597   3.182   0.014 -0.0152  0.4640  1.0114
  399TMC3    H2 5966   2.892   2.916   0.182  0.6257  0.2724 -0.0908
  399TMC3    C7 5967   2.670   2.917   0.052  0.2628  0.1653  0.0652
  399TMC3    C8 5968   3.062   3.126   0.227  0.4967  0.3489 -0.0816
  399TMC3    O1 5969   2.692   2.811   0.111  0.1867 -0.3334 -0.0301
  399TMC3    O2 5970   3.121   3.230   0.208  0.2038  0.3335  0.2211
  400TMC3    C1 5971   1.272   2.281  16.662  0.0678  0.3574 -0.2244
  400TMC3    C2 5972   1.148   2.215  16.656  0.2552 -0.0384 -0.1995
  400TMC3    C3 5973   1.044   2.278  16.603 -0.4065 -0.1372 -0.0761
  400TMC3    C4 5974   1.285   2.408  16.636  0.0323  0.4845 -0.3177
  400TMC3    C5 5975   1.180   2.472  16.573  0.3980  1.0430 -0.3961
  400TMC3    C6 5976   1.060   2.408  16.560 -1.0331 -0.4280 -0.1138
  400TMC3     C 5977   1.385   2.201  16.708 -0.4636 -0.0459 -0.1016
  400TMC3     O 5978   1.376   2.080  16.708  0.4860  0.0620 -0.3476
  400TMC3     H 5979   1.141   2.110  16.683 -0.1114  0.7881  2.8625
  400TMC3    H1 5980   1.384   2.449  16.618  0.7319 -2.5619 -3.4789
  400TMC3    H2 5981   0.986   2.461  16.500  1.1971 -1.8113 -4.0941
  400TMC3    C7 5982   1.199   2.612  16.528 -0.4787  0.1221 -0.7581
  400TMC3    C8 5983   0.927   2.202  16.595 -0.3479 -0.0656  0.7275
  400TMC3    O1 5984   1.116   2.654  16.450 -0.2403  0.1717 -0.1275
  400TMC3    O2 5985   0.902   2.132  16.693 -0.2139 -0.1670  0.0893
  401MPD2     C 5986   3.939   0.712   1.310 -0.3928 -0.0116 -0.1811
  401MPD2    C1 5987   4.044   0.689   1.221  0.2906 -0.2766  0.7729
  401MPD2    C2 5988   4.073   0.555   1.185  1.0000 -1.0987  0.2206
  401MPD2    C3 5989   3.995   0.455   1.237 -0.4089 -0.5583  0.8886
  401MPD2    C4 5990   3.882   0.482   1.302  0.1984  0.1376 -0.0720
  401MPD2    C5 5991   3.857   0.607   1.351  0.6090  0.4878 -0.4077
  401MPD2     H 5992   4.158   0.544   1.119  0.4342 -3.2871 -0.1346
  401MPD2    H1 5993   3.802   0.411   1.323  0.6364 -0.2082  0.4553
  401MPD2    H2 5994   3.923   0.811   1.351 -0.2730  0.6241 -1.6403
  401MPD2    H3 5995   3.769   0.624   1.413 -0.1445  0.9800 -1.6000
  401MPD2     N 5996   4.027   0.318   1.200 -0.1925  0.4198  0.6794
  401MPD2    H5 5997   4.095   0.306   1.125 -0.5265 -1.9943  0.7692
  401MPD2    N1 5998   4.123   0.794   1.167  0.3801 -0.6378  0.1410
  401MPD2    H7 5999   4.205   0.764   1.114  1.6586  1.5634  0.8674
  402TMC3    C1 6000   4.078   0.097   1.204  0.1092  0.4241  0.3968
  402TMC3    C2 6001   4.161   0.047   1.304 -0.3448 -0.6577 -0.6568
  402TMC3    C3 6002   4.295   0.029   1.265 -0.5554  0.8275 -0.0964
  402TMC3    C4 6003   4.122   0.123   1.075  0.3957 -0.2121 -0.2020
  402TMC3    C5 6004   4.253   0.111   1.044 -0.0619 -0.4032 -0.0416
  402TMC3    C6 6005   4.337   0.049   1.133  0.0405 -0.4115  0.0909
  402TMC3     C 6006   3.996   0.202   1.261  0.0566  0.7658  0.3645
  402TMC3     O 6007   3.929   0.190   1.363 -0.0808  0.5719 -0.3376
  402TMC3     H 6008   4.122   0.059   1.405  0.4585 -1.5032 -0.2545
  402TMC3    H1 6009   4.053   0.148   0.996  1.4214 -1.3040 -1.4325
  402TMC3    H2 6010   4.444   0.054   1.114  0.0419 -0.0309  0.1901
  402TMC3    C7 6011   4.302   0.219   0.972  0.2506 -0.3625  0.1721
  402TMC3    C8 6012   4.384   4.665   1.356 -0.0971  0.5233  0.5479
  402TMC3    O1 6013   4.215   0.297   0.935 -0.2753 -0.3151 -0.7924
  402TMC3    O2 6014   4.499   4.648   1.317  0.0442 -0.9529  0.4499
  403MPD2     C 6015   3.165   4.390  13.580  0.1333 -0.3609  0.4467
  403MPD2    C1 6016   3.256   4.285  13.577 -0.7412 -0.2920  1.3220
  403MPD2    C2 6017   3.376   4.300  13.637  0.3395  0.2372 -0.2884
  403MPD2    C3 6018   3.402   4.408  13.720  0.4676 -0.7054 -0.4927
  403MPD2    C4 6019   3.310   4.509  13.739 -0.6385 -0.0559  0.4126
  403MPD2    C5 6020   3.194   4.500  13.658  0.0402  0.3131 -0.4466
  403MPD2     H 6021   3.456   4.229  13.620  1.1411  1.3026 -0.9569
  403MPD2    H1 6022   3.328   4.591  13.807 -2.3928  2.1826 -1.7964
  403MPD2    H2 6023   3.067   4.366  13.540 -0.5306  0.5961  1.5126
  403MPD2    H3 6024   3.119   4.577  13.646 -0.1651  0.1339 -0.3143
  403MPD2     N 6025   3.538   4.401  13.766 -0.0883 -0.3143 -0.1573
  403MPD2    H5 6026   3.600   4.330  13.729  2.5067  1.2152  1.2048
  403MPD2    N1 6027   3.222   4.171  13.498  0.1390 -0.2158  0.7251
  403MPD2    H7 6028   3.137   4.182  13.443  0.2142 -1.0348  0.4482
  404TMC3    C1 6029   3.211   3.948  13.428  0.5883 -0.1163  0.1836
  404TMC3    C2 6030   3.249   3.822  13.466  0.2004 -0.7539  0.2857
  404TMC3    C3 6031   3.241   3.726  13.380  0.2134 -0.7088  0.6347
  404TMC3    C4 6032   3.163   3.978  13.302  0.4711  0.5369  0.0544
  404TMC3    C5 6033   3.149   3.868  13.224 -0.1386 -0.4022  0.2605
  404TMC3    C6 6034   3.210   3.751  13.251 -0.2952  0.1040  0.1553
  404TMC3     C 6035   3.284   4.050  13.494 -0.3962  0.6193 -0.6120
  404TMC3     O 6036   3.389   4.025  13.549  0.0141  0.1785  0.5539
  404TMC3     H 6037   3.287   3.814  13.567 -0.3083 -0.3754  0.5078
  404TMC3    H1 6038   3.124   4.076  13.275 -0.4226 -0.0490 -0.7880
  404TMC3    H2 6039   3.196   3.662  13.192  0.0764 -0.3931  0.8135
  404TMC3    C7 6040   3.120   3.904  13.094 -0.4553 -0.5383  0.2603
  404TMC3    C8 6041   3.287   3.593  13.419  0.4238  0.2438 -0.4465
  404TMC3    O1 6042   3.124   4.024  13.066 -0.4063  0.3508 -0.0262
  404TMC3    O2 6043   3.315   3.513  13.336 -0.1252 -0.0759 -0.4176
  405MPD2     C 6044   3.635   0.284  14.360 -0.5253 -0.2574 -0.6429
  405MPD2    C1 6045   3.627   0.153  14.330 -0.4009 -0.2278  0.3722
  405MPD2    C2 6046   3.495   0.120  14.288 -0.4155  0.7094 -0.1203
  405MPD2    C3 6047   3.382   0.200  14.279  0.6639  0.1332 -0.1645
  405MPD2    C4 6048   3.397   0.325  14.324 -0.0869 -0.3955  0.0062
  405MPD2    C5 6049   3.522   0.368  14.356 -0.1153  0.0387 -0.0245
  405MPD2     H 6050   3.481   0.018  14.255  2.5326 -0.2922  1.7168
  405MPD2    H1 6051   3.321   0.401  14.341 -0.0857 -0.9092  2.4037
  405MPD2    H2 6052   3.732   0.328  14.380 -0.8679  0.3368 -0.2862
  405MPD2    H3 6053   3.527   0.474  14.375 -0.5212 -0.3567  2.2390
  405MPD2     N 6054   3.264   0.140  14.236  0.0887 -0.1100 -0.6252
  405MPD2    H5 6055   3.280   0.062  14.173 -0.5577 -0.9795  0.2834
  405MPD2    N1 6056   3.735   0.061  14.338  1.0956  0.2225 -0.4027
  405MPD2    H7 6057   3.821   0.096  14.381  1.4341 -0.5597 -0.4491
  406TMC3    C1 6058   2.844   0.066  14.060  0.6763 -0.6346 -0.1491
  406TMC3    C2 6059   2.893   4.669  13.999 -0.0958 -0.4390  0.1578
  406TMC3    C3 6060   3.018   4.625  14.037  0.3581 -0.0435  0.5178
  406TMC3    C4 6061   2.926   0.145  14.138  0.0556  0.7676  0.1108
  406TMC3    C5 6062   3.050   0.098  14.171  0.1296  0.3226 -0.0424
  406TMC3    C6 6063   3.093   4.695  14.124 -0.0393  0.1274  0.0189
  406TMC3     C 6064   2.707   0.103  14.050 -0.1181 -0.3125 -0.0119
  406TMC3     O 6065   2.649   0.081  13.942  0.0896 -0.2773 -0.3762
  406TMC3     H 6066   2.836   4.605  13.933 -0.2737 -1.4867  1.3290
  406TMC3    H1 6067   2.886   0.241  14.167 -1.7918 -0.8235  2.8305
  406TMC3    H2 6068   3.177   4.651  14.176 -0.1117  0.6013  0.5384
  406TMC3    C7 6069   3.143   0.194  14.239  0.7333  0.2112 -0.2955
  406TMC3    C8 6070   3.060   4.483  14.027  0.0624 -0.3362  0.0451
  406TMC3    O1 6071   3.104   0.306  14.273  0.3744  0.2135 -0.7866
  406TMC3    O2 6072   2.968   4.399  14.033 -0.1184 -0.0874  0.1705
  407MPD2     C 6073   0.937   1.685   9.617  0.6381 -0.5481 -0.3011
  407MPD2    C1 6074   1.052   1.612   9.616  0.0360 -0.1386  0.7498
  407MPD2    C2 6075   1.164   1.665   9.661  0.2250  0.0693  0.1808
  407MPD2    C3 6076   1.174   1.804   9.689 -0.1490 -0.1717  0.0268
  407MPD2    C4 6077   1.060   1.877   9.680 -0.0148  0.7725 -0.4622
  407MPD2    C5 6078   0.945   1.815   9.653 -0.2224 -0.4773  0.2393
  407MPD2     H 6079   1.247   1.598   9.679 -1.8625 -2.4203  0.4988
  407MPD2    H1 6080   1.071   1.983   9.700 -0.0967  0.3595  1.8064
  407MPD2    H2 6081   0.837   1.647   9.596 -0.2907  1.8748 -0.2708
  407MPD2    H3 6082   0.852   1.871   9.665  0.2943  0.2232  0.9564
  407MPD2     N 6083   1.286   1.866   9.740 -0.2527  0.4418 -0.3918
  407MPD2    H5 6084   1.274   1.962   9.769 -1.6537  0.5041 -1.1760
  407MPD2    N1 6085   1.062   1.476   9.586  0.2213  0.6157  0.4663
  407MPD2    H7 6086   1.156   1.438   9.589  0.9946  2.3375 -2.2239
  408TMC3    C1 6087   0.994   1.264   9.515  0.3614 -0.9386 -0.5808
  408TMC3    C2 6088   1.121   1.242   9.466  0.3578  0.0871 -0.7944
  408TMC3    C3 6089   1.155   1.122   9.417  0.1316  0.2601  0.4796
  408TMC3    C4 6090   0.905   1.161   9.523 -0.9470  0.0207 -0.5619
  408TMC3    C5 6091   0.934   1.038   9.467 -0.1663  0.3834  0.3885
  408TMC3    C6 6092   1.063   1.011   9.415 -1.1213 -0.2978 -0.0036
  408TMC3     C 6093   0.957   1.394   9.561  0.0919 -0.0727  0.6840
  408TMC3     O 6094   0.838   1.421   9.566  0.3581 -0.5072  0.1650
  408TMC3     H 6095   1.189   1.325   9.455 -0.6323  0.9388 -0.4869
  408TMC3    H1 6096   0.807   1.171   9.570  0.4555 -1.6652  2.7490
  408TMC3    H2 6097   1.081   0.921   9.358 -0.6650  0.5540 -1.1944
  408TMC3    C7 6098   0.833   0.943   9.434 -0.0605 -0.5399  0.6508
  408TMC3    C8 6099   1.266   1.104   9.321  0.2519 -0.0173  1.1742
  408TMC3    O1 6100   0.720   0.986   9.437 -0.1493 -0.2763 -0.1875
  408TMC3    O2 6101   1.269   1.013   9.240  0.0511 -0.5058  0.0303
  409MPD2     C 6102   0.606   2.484  16.543 -0.1686  0.3047 -0.3761
  409MPD2    C1 6103   0.672   2.438  16.660 -0.0426  0.0780  0.0856
  409MPD2    C2 6104   0.775   2.520  16.714  0.2095 -0.4733  0.3404
  409MPD2    C3 6105   0.813   2.639  16.654  0.0600 -0.2256  0.6255
  409MPD2    C4 6106   0.752   2.681  16.532 -0.4014  0.3288 -0.1734
  409MPD2    C5 6107   0.649   2.599  16.481 -0.1738  0.3668 -0.2197
  409MPD2     H 6108   0.822   2.482  16.804  3.0197 -0.5154 -1.1256
  409MPD2    H1 6109   0.781   2.772  16.482 -0.0776  1.3921  1.9388
  409MPD2    H2 6110   0.523   2.427  16.504 -0.9696  0.5881  0.9510
  409MPD2    H3 6111   0.599   2.629  16.390  0.5919 -0.0477 -0.7744
  409MPD2     N 6112   0.917   2.718  16.708  0.5172 -0.6303 -0.1808
  409MPD2    H5 6113   0.947   2.802  16.659 -0.6182 -0.4606 -0.5811
  409MPD2    N1 6114   0.622   2.323  16.728  0.2174  0.2072 -0.4509
  409MPD2    H7 6115   0.676   2.304  16.812  0.5938 -0.8213 -0.9326
  410TMC3    C1 6116   1.065   2.790  16.883  0.3196 -0.0816 -0.1687
  410TMC3    C2 6117   1.152   2.764  16.992 -0.1118 -0.5779 -0.1534
  410TMC3    C3 6118   1.181   2.868  17.075  0.1204  0.3639  0.4005
  410TMC3    C4 6119   0.995   2.906  16.877  0.1568 -0.2508  0.2958
  410TMC3    C5 6120   1.033   3.001  16.969  0.7707 -0.9082  0.5716
  410TMC3    C6 6121   1.123   2.990  17.071  0.6161  0.6936 -0.3534
  410TMC3     C 6122   1.004   2.681  16.809 -0.0914 -1.0084 -0.4342
  410TMC3     O 6123   1.019   2.568  16.858 -0.3958  0.0467  0.1749
  410TMC3     H 6124   1.217   2.678  16.992 -1.1230 -1.3358 -0.2153
  410TMC3    H1 6125   0.913   2.926  16.810  0.2503 -0.7637  0.0343
  410TMC3    H2 6126   1.141   3.059  17.152 -3.0674  1.2521 -0.0256
  410TMC3    C7 6127   0.929   3.094  16.993 -0.3334 -0.0859  0.1159
  410TMC3    C8 6128   1.291   2.847  17.168 -0.8081 -0.4512  0.1524
  410TMC3    O1 6129   0.816   3.044  16.998 -0.4200 -0.4777 -0.0569
  410TMC3    O2 6130   1.347   2.943  17.222  0.2559 -0.6169  0.3193
  411MPD2     C 6131   1.291   3.196  14.798  0.4838 -0.1355 -0.3789
  411MPD2    C1 6132   1.183   3.140  14.863  0.1182  0.7197 -0.0972
  411MPD2    C2 6133   1.133   3.017  14.816 -0.8178 -0.0440 -0.1319
  411MPD2    C3 6134   1.198   2.939  14.716  0.2143 -0.2863  0.0192
  411MPD2    C4 6135   1.305   3.007  14.656 -0.1962 -0.2354 -0.2603
  411MPD2    C5 6136   1.356   3.125  14.702 -0.2147  0.5534 -0.4806
  411MPD2     H 6137   1.031   2.987  14.838 -0.6289 -0.3208  0.3675
  411MPD2    H1 6138   1.351   2.962  14.569 -0.0516 -1.9930  0.7281
  411MPD2    H2 6139   1.334   3.294  14.816 -1.6220  0.4109  1.6315
  411MPD2    H3 6140   1.436   3.169  14.643  0.1867  0.6056  0.0997
  411MPD2     N 6141   1.152   2.817  14.661 -0.1207  0.1416  0.7080
  411MPD2    H5 6142   1.189   2.799  14.568 -0.2654  0.9913  0.4815
  411MPD2    N1 6143   1.106   3.229  14.937  0.7278  0.2146 -0.1819
  411MPD2    H7 6144   1.132   3.327  14.938  1.2169  0.0810  0.0972
  412TMC3    C1 6145   1.007   2.639  14.607  0.1511 -0.2341 -0.0570
  412TMC3    C2 6146   0.888   2.578  14.625 -0.2526 -0.8302  0.1343
  412TMC3    C3 6147   0.856   2.467  14.549 -0.2577 -0.6620 -0.2312
  412TMC3    C4 6148   1.105   2.588  14.525 -0.0734  0.6431 -0.2235
  412TMC3    C5 6149   1.075   2.469  14.453 -0.0696 -0.0131  0.6099
  412TMC3    C6 6150   0.949   2.414  14.472 -0.0102 -0.3159  0.3989
  412TMC3     C 6151   1.037   2.751  14.696  0.1670  0.5695  0.0724
  412TMC3     O 6152   0.964   2.766  14.792  0.2802 -0.1244  0.1222
  412TMC3     H 6153   0.813   2.624  14.688 -0.9481 -2.1628  0.2806
  412TMC3    H1 6154   1.200   2.636  14.508  0.4046 -0.3975 -0.4877
  412TMC3    H2 6155   0.923   2.331  14.406  1.3043  0.4275 -1.0543
  412TMC3    C7 6156   1.101   2.469  14.311 -0.2390 -0.7113  0.9023
  412TMC3    C8 6157   0.724   2.486  14.491  0.1430  0.2732 -0.9903
  412TMC3    O1 6158   1.002   2.468  14.239  0.4783  0.1325 -0.6553
  412TMC3    O2 6159   0.627   2.494  14.562 -0.3325  0.0815 -0.2247
  413MPD2     C 6160   2.463   0.881  15.164 -0.4762 -0.2297  0.0043
  413MPD2    C1 6161   2.487   0.920  15.033 -0.3488 -0.0711 -0.3888
  413MPD2    C2 6162   2.565   0.842  14.949 -0.2485  0.4206 -1.1161
  413MPD2    C3 6163   2.647   0.741  14.999  0.2899 -1.3556  0.5198
  413MPD2    C4 6164   2.633   0.710  15.135  0.3531 -0.2524  0.4766
  413MPD2    C5 6165   2.541   0.775  15.215  0.3730 -0.0109 -0.0439
  413MPD2     H 6166   2.565   0.866  14.843 -0.8289  1.2076 -0.9424
  413MPD2    H1 6167   2.682   0.625  15.180  2.0900  0.6800  0.3259
  413MPD2    H2 6168   2.383   0.919  15.225 -1.2097  2.4884 -2.6526
  413MPD2    H3 6169   2.528   0.749  15.319  0.7437 -1.0553 -0.2586
  413MPD2     N 6170   2.731   0.659  14.919  0.0264  0.1041  0.0109
  413MPD2    H5 6171   2.774   0.577  14.961 -0.0371 -0.6495 -1.3749
  413MPD2    N1 6172   2.409   1.029  14.988  0.1898  0.4214 -0.4401
  413MPD2    H7 6173   2.352   1.076  15.057 -0.9803 -0.6887 -0.6512
  414TMC3    C1 6174   2.879   0.601  14.753 -0.3466  0.6438 -0.7865
  414TMC3    C2 6175   2.908   0.483  14.813 -0.7997  0.0614  0.2153
  414TMC3    C3 6176   2.993   0.388  14.757  0.5476  0.6242 -0.4541
  414TMC3    C4 6177   2.947   0.633  14.638 -0.4107 -0.0140 -0.1378
  414TMC3    C5 6178   3.041   0.540  14.585 -0.2931  0.5450 -0.2702
  414TMC3    C6 6179   3.059   0.414  14.641 -0.1881 -0.0446  0.1624
  414TMC3     C 6180   2.783   0.699  14.801  0.0451  0.5931  0.0819
  414TMC3     O 6181   2.759   0.797  14.738 -0.7056 -0.2923 -0.1263
  414TMC3     H 6182   2.863   0.442  14.902  2.9808 -0.8504  1.7074
  414TMC3    H1 6183   2.939   0.721  14.574 -1.1327  0.6176  0.8130
  414TMC3    H2 6184   3.130   0.351  14.589 -1.0312 -0.7247 -0.1737
  414TMC3    C7 6185   3.152   0.595  14.523  0.1326  0.3034 -0.3145
  414TMC3    C8 6186   3.058   0.299  14.838  0.0817 -0.1193 -0.8379
  414TMC3    O1 6187   3.148   0.682  14.438  0.2854 -0.0964 -0.0115
  414TMC3    O2 6188   3.046   0.183  14.803  0.1464  0.6751 -0.0222
  415TMC3    C1 6189   3.647   3.049  10.237  0.4783 -0.6564 -0.3291
  415TMC3    C2 6190   3.620   3.149  10.149 -0.4787 -0.3639  0.4236
  415TMC3    C3 6191   3.532   3.120  10.045  0.4133  0.3987  0.5163
  415TMC3    C4 6192   3.608   2.920  10.212  0.8014  0.2562 -0.0288
  415TMC3    C5 6193   3.520   2.896  10.102 -0.5319  0.4148  0.0211
  415TMC3    C6 6194   3.476   2.995  10.023 -0.6285 -0.4349 -0.0540
  415TMC3     C 6195   3.691   3.082  10.366 -0.0182  0.4994  0.1189
  415TMC3     O 6196   3.664   3.002  10.456 -0.1495  0.2644 -0.0200
  415TMC3     H 6197   3.656   3.251  10.162 -0.2116 -0.2907 -0.8590
  415TMC3    H1 6198   3.629   2.841  10.284 -1.8463  0.1905  0.6646
  415TMC3    H2 6199   3.407   2.989   9.940 -1.1073 -3.4126  0.5681
  415TMC3    C7 6200   3.447   2.772  10.099 -0.1334  0.9948 -0.1774
  415TMC3    C8 6201   3.475   3.227   9.974  0.1551 -0.4731  1.3273
  415TMC3    O1 6202   3.393   2.756   9.987 -0.1320  0.2301  0.0833
  415TMC3    O2 6203   3.357   3.231   9.950 -0.3319 -0.1511 -0.2900
  416MPD2     C 6204   0.916   2.861  11.502  0.2690 -0.0813 -0.0791
  416MPD2    C1 6205   0.829   2.827  11.401 -0.0426  0.0600  0.4917
  416MPD2    C2 6206   0.855   2.728  11.308 -0.3038  0.2175  0.3597
  416MPD2    C3 6207   0.984   2.674  11.312 -0.2661  0.3432  0.1271
  416MPD2    C4 6208   1.074   2.711  11.402  0.3887  0.6308 -0.4683
  416MPD2    C5 6209   1.045   2.802  11.494 -0.0262  0.1087 -0.2711
  416MPD2     H 6210   0.779   2.706  11.234 -1.4601 -1.4304  2.0469
  416MPD2    H1 6211   1.161   2.648  11.419  1.2349  1.6276 -1.1301
  416MPD2    H2 6212   0.888   2.933  11.578  0.2670  2.3681 -2.4098
  416MPD2    H3 6213   1.114   2.829  11.573 -0.0518  1.2926 -0.6545
  416MPD2     N 6214   1.016   2.565  11.222 -0.0097 -0.2795 -0.3987
  416MPD2    H5 6215   1.102   2.513  11.237  0.9351  0.3123 -3.6992
  416MPD2    N1 6216   0.708   2.904  11.404 -0.5332 -0.2466  0.3750
  416MPD2    H7 6217   0.705   2.973  11.478 -0.9127 -0.1930  0.3110
  417TMC3    C1 6218   0.512   2.992  11.312 -0.1673  0.5547 -0.5498
  417TMC3    C2 6219   0.458   3.041  11.424 -0.1935 -0.5778  0.6900
  417TMC3    C3 6220   0.339   3.106  11.408  0.8107  0.1906 -0.2356
  417TMC3    C4 6221   0.451   3.010  11.186 -0.2395  0.3522  0.0878
  417TMC3    C5 6222   0.340   3.080  11.179 -1.1685  0.5142 -0.1574
  417TMC3    C6 6223   0.282   3.136  11.285 -0.5181  0.5405  0.5477
  417TMC3     C 6224   0.616   2.893  11.307  0.7451  0.9328 -0.1992
  417TMC3     O 6225   0.608   2.816  11.210  0.5829  0.4549  0.0809
  417TMC3     H 6226   0.491   3.010  11.523  2.0209  0.1685  0.1956
  417TMC3    H1 6227   0.494   2.988  11.088 -3.9303 -0.8109 -1.2869
  417TMC3    H2 6228   0.201   3.207  11.271 -0.5105  0.3459 -0.5153
  417TMC3    C7 6229   0.300   3.128  11.049 -0.9379  0.1618 -0.1761
  417TMC3    C8 6230   0.250   3.107  11.526 -0.3902 -0.5042  0.3733
  417TMC3    O1 6231   0.286   3.244  11.020  0.3434 -0.6088  0.0287
  417TMC3    O2 6232   0.306   3.115  11.636 -0.0022  0.0965  0.2657
  418TMC3    C1 6233   3.160   4.079   0.410  0.0285 -0.1573  0.1280
  418TMC3    C2 6234   3.079   4.142   0.322 -0.8057  0.1114 -0.4572
  418TMC3    C3 6235   2.942   4.143   0.347  0.3590 -0.2497  0.4258
  418TMC3    C4 6236   3.105   4.006   0.518  0.0508 -0.3600 -0.1273
  418TMC3    C5 6237   2.972   4.018   0.549 -0.4516 -0.1525 -0.3783
  418TMC3    C6 6238   2.889   4.083   0.458  0.4603 -0.0511  0.4880
  418TMC3     C 6239   3.293   4.064   0.368  0.2580 -0.0034 -0.5825
  418TMC3     O 6240   3.339   4.161   0.310  0.0778  0.1422 -0.0544
  418TMC3     H 6241   3.113   4.194   0.233 -0.3998 -0.7430 -0.7943
  418TMC3    H1 6242   3.172   3.960   0.590 -0.7832 -1.6545 -0.1759
  418TMC3    H2 6243   2.783   4.075   0.476  0.8273 -2.4674  1.6361
  418TMC3    C7 6244   2.907   3.896   0.600 -0.7125 -0.1579  0.1749
  418TMC3    C8 6245   2.877   4.088   0.227  0.5902 -0.6553 -0.4087
  418TMC3    O1 6246   2.853   3.828   0.515  0.0598  0.0306 -0.8112
  418TMC3    O2 6247   2.899   4.140   0.121 -0.6795 -0.3500  0.2000
  419MPD2     C 6248   2.853   2.283  12.257 -0.4123 -0.1003 -0.1210
  419MPD2    C1 6249   2.734   2.358  12.244 -0.3671  0.0881 -0.4679
  419MPD2    C2 6250   2.648   2.360  12.350  0.3623 -0.6349  0.0659
  419MPD2    C3 6251   2.670   2.276  12.463  1.1969 -0.0588 -0.3224
  419MPD2    C4 6252   2.783   2.194  12.476 -0.6553 -0.2325  0.0150
  419MPD2    C5 6253   2.872   2.200  12.368 -0.0107 -0.2297  0.7157
  419MPD2     H 6254   2.561   2.424  12.352  2.7861  2.7373 -3.1231
  419MPD2    H1 6255   2.796   2.138  12.568  0.0248 -3.5253 -2.0603
  419MPD2    H2 6256   2.940   2.287  12.192 -0.2158 -0.9808  0.0855
  419MPD2    H3 6257   2.965   2.144  12.372 -0.0838 -0.3274  1.0650
  419MPD2     N 6258   2.576   2.301  12.569 -0.2499  0.3996 -0.1006
  419MPD2    H5 6259   2.511   2.378  12.562 -0.9877 -0.3199 -1.0586
  419MPD2    N1 6260   2.716   2.435  12.129  0.2744 -0.8834  0.2559
  419MPD2    H7 6261   2.626   2.480  12.120 -0.2261 -1.9151  0.1967
  420TMC3    C1 6262   2.469   2.275  12.772 -0.3032  0.3160 -0.6130
  420TMC3    C2 6263   2.356   2.346  12.740 -0.1535  0.3507 -0.0795
  420TMC3    C3 6264   2.269   2.377  12.834 -0.3960  0.5299  0.3250
  420TMC3    C4 6265   2.493   2.227  12.899 -0.3389 -0.5087 -0.1470
  420TMC3    C5 6266   2.394   2.249  12.993 -0.1379 -1.0799  0.3032
  420TMC3    C6 6267   2.284   2.326  12.962  0.2130  0.8883 -0.8295
  420TMC3     C 6268   2.554   2.214  12.667 -0.4338 -0.4261  0.5549
  420TMC3     O 6269   2.614   2.108  12.698  0.1782 -0.2999  0.1025
  420TMC3     H 6270   2.342   2.393  12.643 -0.4911 -1.5200 -0.9373
  420TMC3    H1 6271   2.584   2.171  12.915 -2.0013 -2.8515  1.1663
  420TMC3    H2 6272   2.207   2.351  13.034  1.3538 -2.3704  1.5391
  420TMC3    C7 6273   2.438   2.269  13.129 -0.1963  0.1855 -0.9287
  420TMC3    C8 6274   2.244   2.521  12.843  0.1254  0.5729 -0.1806
  420TMC3    O1 6275   2.387   2.367  13.179  0.1997 -0.2341  0.4749
  420TMC3    O2 6276   2.189   2.575  12.748 -0.4229  0.2183 -0.0177
  421TMC3    C1 6277   3.743   4.468  13.872  0.1120 -0.0441  0.2382
  421TMC3    C2 6278   3.826   4.572  13.903  0.4123 -0.2888 -0.0248
  421TMC3    C3 6279   3.958   4.548  13.923 -0.4092  0.3755  0.1837
  421TMC3    C4 6280   3.779   4.338  13.869  0.0630  0.3863  0.0797
  421TMC3    C5 6281   3.907   4.318  13.905 -0.1162 -0.0608  0.8634
  421TMC3    C6 6282   3.996   4.422  13.943 -0.0686  0.1530 -0.6161
  421TMC3     C 6283   3.606   4.506  13.827  0.6953  0.5702  0.1194
  421TMC3     O 6284   3.564   4.619  13.852 -0.5702 -0.3318  0.8144
  421TMC3     H 6285   3.790   4.674  13.914 -0.1529 -0.2250 -2.3320
  421TMC3    H1 6286   3.704   4.260  13.865  1.4068 -0.7656 -2.6612
  421TMC3    H2 6287   4.102   4.398  13.945 -0.1893 -0.3635 -0.2257
  421TMC3    C7 6288   3.962   4.182  13.907  0.0071 -0.4392 -0.6979
  421TMC3    C8 6289   4.052   4.649  13.972  0.0394  1.1669  0.0796
  421TMC3    O1 6290   4.046   4.165  13.995  0.3907  0.1686 -0.0318
  421TMC3    O2 6291   4.128   4.614  14.060  0.7033 -0.3855 -0.7282
  422TMC3    C1 6292   1.498   0.867  12.336 -0.5475  0.1475  0.3322
  422TMC3    C2 6293   1.457   0.971  12.413 -0.2084  0.2836 -0.3619
  422TMC3    C3 6294   1.329   0.975  12.461 -0.0389  0.2044  0.4604
  422TMC3    C4 6295   1.410   0.772  12.305 -0.4237  0.0971 -0.0131
  422TMC3    C5 6296   1.276   0.785  12.347 -0.6884  0.4467 -0.3515
  422TMC3    C6 6297   1.237   0.888  12.428  0.3485 -0.0185 -0.2382
  422TMC3     C 6298   1.629   0.889  12.265  0.5673 -0.1439 -0.0459
  422TMC3     O 6299   1.705   0.971  12.312 -0.0265  0.2566  0.3738
  422TMC3     H 6300   1.518   1.052  12.452  1.0268 -0.8910  0.1504
  422TMC3    H1 6301   1.437   0.682  12.251 -0.3646  0.0811  0.0437
  422TMC3    H2 6302   1.136   0.902  12.465  0.5996 -1.4825  0.9932
  422TMC3    C7 6303   1.209   0.659  12.366 -0.5575 -0.3927 -0.5825
  422TMC3    C8 6304   1.290   1.098  12.535  0.2266  0.6079  0.0832
  422TMC3    O1 6305   1.263   0.552  12.343  0.3372 -0.1367  0.4059
  422TMC3    O2 6306   1.380   1.160  12.590 -0.5133  0.3779 -0.0947
  423MPD2     C 6307   2.661   2.056   0.712  0.7064 -0.6942  0.3102
  423MPD2    C1 6308   2.558   1.973   0.692 -0.0225 -0.3016  0.2644
  423MPD2    C2 6309   2.555   1.902   0.574  0.2199  0.2649 -0.4566
  423MPD2    C3 6310   2.659   1.892   0.492  0.6955  0.7419 -0.6102
  423MPD2    C4 6311   2.769   1.975   0.515  0.1505  0.1206  0.5204
  423MPD2    C5 6312   2.760   2.058   0.622  0.0706  0.0923 -0.5611
  423MPD2     H 6313   2.469   1.844   0.544  0.6275 -0.2170 -0.6862
  423MPD2    H1 6314   2.858   1.981   0.454  0.3899  0.9182  0.9523
  423MPD2    H2 6315   2.651   2.121   0.798  1.1549  1.0297 -0.9369
  423MPD2    H3 6316   2.849   2.117   0.643 -0.5882  0.7450  0.4073
  423MPD2     N 6317   2.648   1.815   0.372 -0.2770 -0.0236 -0.2898
  423MPD2    H5 6318   2.717   1.833   0.300 -1.4583 -1.1033 -1.6931
  423MPD2    N1 6319   2.445   1.970   0.780  1.1220 -0.0062  0.0219
  423MPD2    H7 6320   2.363   1.914   0.758 -0.4850  3.5600 -3.0682
  424TMC3    C1 6321   2.330   1.990   0.983 -0.6623  0.0111  0.8700
  424TMC3    C2 6322   2.349   1.973   1.121 -0.1859 -0.1099  0.4119
  424TMC3    C3 6323   2.242   1.930   1.194  0.1005  0.2349 -0.0325
  424TMC3    C4 6324   2.209   1.977   0.918 -0.6940  0.1671  0.0208
  424TMC3    C5 6325   2.103   1.951   1.002  0.3736  0.0439 -0.3476
  424TMC3    C6 6326   2.114   1.924   1.134 -0.0201  0.2706  0.5065
  424TMC3     C 6327   2.453   1.996   0.912  0.2584 -1.1008 -0.4050
  424TMC3     O 6328   2.554   1.987   0.978  0.4843 -0.1420 -0.5031
  424TMC3     H 6329   2.444   1.987   1.172  0.6561 -2.0452 -0.6341
  424TMC3    H1 6330   2.191   2.007   0.815 -0.4750  3.2179  0.8764
  424TMC3    H2 6331   2.038   1.900   1.207  3.0972 -2.8350  2.7435
  424TMC3    C7 6332   1.989   1.896   0.933 -0.4039 -0.0986 -0.7653
  424TMC3    C8 6333   2.275   1.859   1.324 -0.4701  0.0794 -0.9608
  424TMC3    O1 6334   2.023   1.834   0.835 -0.0304 -0.6607 -0.4612
  424TMC3    O2 6335   2.388   1.874   1.370 -0.1782  0.5576 -0.0242
  425MPD2     C 6336   1.041   1.248  17.115  0.0633 -0.0602  0.2994
  425MPD2    C1 6337   1.037   1.110  17.132  0.9938 -0.0969 -0.6847
  425MPD2    C2 6338   0.918   1.055  17.184 -0.4070 -0.1695  1.0371
  425MPD2    C3 6339   0.800   1.131  17.193 -0.0135  0.5447 -0.3948
  425MPD2    C4 6340   0.808   1.264  17.172 -0.1577 -0.1818  0.3097
  425MPD2    C5 6341   0.923   1.318  17.129  0.6433  0.3450  0.4150
  425MPD2     H 6342   0.913   0.948  17.200  1.7258 -0.4071  0.0088
  425MPD2    H1 6343   0.719   1.327  17.172  0.7683  1.1292 -2.3959
  425MPD2    H2 6344   1.129   1.306  17.091 -0.4231  0.8898  0.8027
  425MPD2    H3 6345   0.947   1.424  17.123  0.5684  0.3803  0.7239
  425MPD2     N 6346   0.679   1.061  17.235 -0.0349  0.6921  0.8695
  425MPD2    H5 6347   0.681   0.961  17.250  0.2642  0.6543  0.5675
  425MPD2    N1 6348   1.145   1.021  17.110  0.2092 -0.0931 -0.2161
  425MPD2    H7 6349   1.128   0.930  17.151 -0.6924  0.4874  0.6873
  426TMC3    C1 6350   1.367   0.948  17.097  0.5270 -0.0815 -0.4669
  426TMC3    C2 6351   1.313   0.824  17.099  0.2930 -0.1507  0.3541
  426TMC3    C3 6352   1.375   0.731  17.175  0.8149 -0.2921  0.2173
  426TMC3    C4 6353   1.459   0.996  17.189  0.2235 -0.0273  0.1069
  426TMC3    C5 6354   1.520   0.901  17.267  0.2097 -0.1336 -0.0907
  426TMC3    C6 6355   1.481   0.770  17.253  0.2986  0.4052 -0.1697
  426TMC3     C 6356   1.274   1.053  17.067  0.7135 -0.9265  0.3190
  426TMC3     O 6357   1.307   1.167  17.041 -0.5089  0.3635  0.0566
  426TMC3     H 6358   1.244   0.807  17.016  1.9957 -0.9070 -0.9132
  426TMC3    H1 6359   1.487   1.100  17.192  0.6910 -0.1725  0.9951
  426TMC3    H2 6360   1.535   0.703  17.319  0.2927  0.7349  0.1649
  426TMC3    C7 6361   1.572   0.949  17.393  0.1171 -0.0905 -0.9855
  426TMC3    C8 6362   1.387   0.592  17.128 -0.2471  0.4817 -0.2426
  426TMC3    O1 6363   1.599   1.068  17.395  0.3813 -0.0526  0.4265
  426TMC3    O2 6364   1.483   0.523  17.157  0.2507  0.1588  0.0273
  427MPD2     C 6365   0.336   3.025  14.990  0.1734 -0.2141 -0.2349
  427MPD2    C1 6366   0.282   2.995  15.114 -0.7946  0.0336  0.3220
  427MPD2    C2 6367   0.147   3.006  15.134  0.1417 -0.6082  0.2761
  427MPD2    C3 6368   0.064   3.045  15.024  0.5696  0.1163 -0.1392
  427MPD2    C4 6369   0.119   3.059  14.901 -1.1018  0.2759  0.8585
  427MPD2    C5 6370   0.255   3.052  14.883 -0.3380  0.0707 -0.4110
  427MPD2     H 6371   0.094   3.005  15.229 -1.0725  0.8809 -0.3752
  427MPD2    H1 6372   0.055   3.096  14.821 -0.4759  0.2953  0.3624
  427MPD2    H2 6373   0.444   3.028  14.974 -0.0370 -1.8702 -1.8236
  427MPD2    H3 6374   0.301   3.065  14.786 -1.1291 -1.5388 -0.9988
  427MPD2     N 6375   4.644   3.053  15.032 -0.0499  0.3129  0.0152
  427MPD2    H5 6376   4.598   3.068  14.942  0.4104  0.3672 -0.2135
  427MPD2    N1 6377   0.362   2.962  15.224  0.3153 -0.2497 -0.5609
  427MPD2    H7 6378   0.322   2.954  15.317  3.5076  3.4093  1.1347
  428TMC3    C1 6379   0.530   2.881  15.354 -0.1051  0.0247  0.6208
  428TMC3    C2 6380   0.445   2.785  15.397  0.2765 -0.4730  0.2868
  428TMC3    C3 6381   0.461   2.739  15.521  0.1395 -0.1084 -0.2710
  428TMC3    C4 6382   0.623   2.942  15.430  0.0269  0.7162 -0.2517
  428TMC3    C5 6383   0.625   2.896  15.560 -0.2961 -0.0193  0.6238
  428TMC3    C6 6384   0.556   2.795  15.611 -0.2482  0.4245 -0.7086
  428TMC3     C 6385   0.503   2.943  15.228  0.2250 -0.0995 -0.3968
  428TMC3     O 6386   0.595   2.999  15.169 -0.3421  0.1061  0.3317
  428TMC3     H 6387   0.372   2.733  15.337 -1.4491  1.9331  0.3237
  428TMC3    H1 6388   0.689   3.017  15.388  1.6077  0.4995  1.8337
  428TMC3    H2 6389   0.566   2.753  15.711  0.0008 -0.4716 -1.1169
  428TMC3    C7 6390   0.697   2.980  15.657 -0.7907 -0.1459 -0.2978
  428TMC3    C8 6391   0.387   2.623  15.558  0.0295  0.5462  0.4899
  428TMC3    O1 6392   0.661   2.951  15.771  0.1542 -0.1026  0.0801
  428TMC3    O2 6393   0.349   2.557  15.465  0.5882 -0.3512  0.3410
  429MPD2     C 6394   1.609   2.836   0.046 -1.3763  0.7992  0.1602
  429MPD2    C1 6395   1.495   2.819  17.643 -0.0767 -0.1148 -1.0009
  429MPD2    C2 6396   1.486   2.898  17.531  0.2636  0.6072  0.3962
  429MPD2    C3 6397   1.567   3.001  17.515 -0.6895  0.0112 -0.1075
  429MPD2    C4 6398   1.676   3.017  17.602 -0.1793  0.4066 -0.2295
  429MPD2    C5 6399   1.702   2.930   0.023  1.6046 -0.4102 -0.7553
  429MPD2     H 6400   1.406   2.882  17.460  1.6491 -1.6537 -0.6500
  429MPD2    H1 6401   1.750   3.094  17.586 -0.1951 -0.2264 -3.1600
  429MPD2    H2 6402   1.632   2.760   0.120  1.3635  1.0393 -0.4609
  429MPD2    H3 6403   1.796   2.932   0.076  0.7136  0.6186  0.7969
  429MPD2     N 6404   1.549   3.076  17.398  0.1451 -0.0280 -0.2785
  429MPD2    H5 6405   1.477   3.037  17.338  0.4074  0.2450 -0.7750
  429MPD2    N1 6406   1.399   2.720   0.001 -0.2939 -0.4946 -0.3081
  429MPD2    H7 6407   1.418   2.663   0.083 -0.1496 -0.3432 -0.2361
  430TMC3    C1 6408   1.605   3.210  17.215 -0.2186 -0.4686 -0.1058
  430TMC3    C2 6409   1.639   3.333  17.170 -0.3171 -0.6541 -0.0065
  430TMC3    C3 6410   1.640   3.358  17.034 -0.3796  0.8177 -0.5430
  430TMC3    C4 6411   1.584   3.113  17.130  0.0219  0.0832 -0.4675
  430TMC3    C5 6412   1.588   3.138  16.996 -0.0317 -0.5586 -0.2398
  430TMC3    C6 6413   1.616   3.259  16.944  0.4733 -0.7475 -0.8014
  430TMC3     C 6414   1.617   3.184  17.354 -0.4034  0.1017 -0.1478
  430TMC3     O 6415   1.707   3.246  17.409  0.4564 -0.0923 -0.0845
  430TMC3     H 6416   1.645   3.416  17.240 -2.0525 -0.5410  0.0048
  430TMC3    H1 6417   1.568   3.009  17.158 -1.4511  0.8525  1.4604
  430TMC3    H2 6418   1.628   3.270  16.837  1.8931  1.6985 -0.4115
  430TMC3    C7 6419   1.551   3.023  16.908 -0.0283 -0.2785 -0.3617
  430TMC3    C8 6420   1.670   3.488  16.974  0.4962 -0.6212  0.6389
  430TMC3    O1 6421   1.535   2.911  16.957  0.1561 -0.4686  0.0109
  430TMC3    O2 6422   1.643   3.504  16.856  0.1050 -0.3746 -0.2490
  431MPD2     C 6423   2.446   3.060  12.514 -0.2312  0.1264 -0.0873
  431MPD2    C1 6424   2.491   3.131  12.399 -0.0494  0.1632  0.0661
  431MPD2    C2 6425   2.549   3.054  12.296 -0.0547 -0.4373 -0.8925
  431MPD2    C3 6426   2.562   2.917  12.305  0.4889  0.0185  0.9006
  431MPD2    C4 6427   2.522   2.853  12.419 -0.2202  0.1062  0.2101
  431MPD2    C5 6428   2.454   2.918  12.515 -0.2653  0.1250  0.2383
  431MPD2     H 6429   2.587   3.101  12.206  3.2650 -1.3487 -0.0002
  431MPD2    H1 6430   2.547   2.748  12.435  1.5796  0.4731 -0.2513
  431MPD2    H2 6431   2.407   3.109  12.602 -2.4416 -1.1628 -0.3373
  431MPD2    H3 6432   2.416   2.873  12.606  0.0537 -0.5084  0.0552
  431MPD2     N 6433   2.619   2.840  12.207 -0.2675 -0.3733  0.0708
  431MPD2    H5 6434   2.594   2.743  12.194 -1.8167  0.2307 -1.4037
  431MPD2    N1 6435   2.497   3.268  12.389 -0.3528  1.1990  0.0954
  431MPD2    H7 6436   2.527   3.313  12.303 -2.3126 -0.2311 -1.3361
  432TMC3    C1 6437   2.720   2.788  11.995 -0.2148  0.0891 -0.0116
  432TMC3    C2 6438   2.827   2.821  11.916  0.2984  0.2312 -0.3433
  432TMC3    C3 6439   2.894   2.729  11.848 -0.8124 -0.0304 -0.1386
  432TMC3    C4 6440   2.696   2.655  12.022  0.3972  0.1006 -0.2635
  432TMC3    C5 6441   2.777   2.568  11.962 -0.2952  0.5923  0.3737
  432TMC3    C6 6442   2.875   2.600  11.870 -0.0400  0.3373 -0.6512
  432TMC3     C 6443   2.678   2.890  12.091 -0.0761  0.2249  0.2463
  432TMC3     O 6444   2.723   3.001  12.085 -0.6277  0.3542  0.0629
  432TMC3     H 6445   2.850   2.926  11.907  1.1689  0.1147  0.4877
  432TMC3    H1 6446   2.609   2.631  12.081 -1.4065  0.1301 -2.9272
  432TMC3    H2 6447   2.938   2.532  11.814  0.5106 -1.8351  2.6282
  432TMC3    C7 6448   2.795   2.441  12.020 -0.2707  0.1185 -0.3448
  432TMC3    C8 6449   3.004   2.780  11.759 -0.7421 -0.3870 -0.5621
  432TMC3    O1 6450   2.894   2.378  11.994 -0.6770  0.3390  0.0363
  432TMC3    O2 6451   3.036   2.706  11.667 -0.2729  0.1908 -0.4269
  433MPD2     C 6452   1.613   2.197  10.625  0.7151  0.3999 -0.0477
  433MPD2    C1 6453   1.522   2.128  10.701 -0.3907 -0.5351 -0.1190
  433MPD2    C2 6454   1.514   2.135  10.837 -0.0849  0.3031  0.3049
  433MPD2    C3 6455   1.609   2.211  10.903 -0.1170 -0.6569 -0.3396
  433MPD2    C4 6456   1.703   2.280  10.830 -0.9368  0.9027 -0.1439
  433MPD2    C5 6457   1.699   2.287  10.692  0.4504  0.1482 -0.0777
  433MPD2     H 6458   1.449   2.070  10.894  0.1147  0.9697  1.2949
  433MPD2    H1 6459   1.785   2.333  10.877  0.8535 -1.4435 -0.6491
  433MPD2    H2 6460   1.618   2.173  10.519  0.2187  1.3419 -0.2819
  433MPD2    H3 6461   1.780   2.334  10.638 -0.4124  1.8759  0.1461
  433MPD2     N 6462   1.622   2.202  11.043  0.3166 -0.1498  0.2371
  433MPD2    H5 6463   1.565   2.133  11.091  0.2667  0.1250  0.5753
  433MPD2    N1 6464   1.448   2.037  10.627 -0.0648  0.0460 -0.1740
  433MPD2    H7 6465   1.468   2.032  10.527  1.5222 -0.1151  0.1645
  434TMC3    C1 6466   1.351   1.845  10.582  0.1424 -0.1803  0.1745
  434TMC3    C2 6467   1.414   1.739  10.637  0.0432  0.3868 -0.2412
  434TMC3    C3 6468   1.477   1.649  10.560  0.0099 -0.0051  0.2541
  434TMC3    C4 6469   1.369   1.875  10.449 -0.7250  0.3298 -0.8140
  434TMC3    C5 6470   1.424   1.779  10.372  0.0254 -0.6400 -0.2695
  434TMC3    C6 6471   1.479   1.669  10.426 -0.2424  0.5421 -0.5680
  434TMC3     C 6472   1.343   1.960  10.663  0.3185  0.3339  0.4839
  434TMC3     O 6473   1.287   1.945  10.774  1.1388  0.2323  0.6120
  434TMC3     H 6474   1.416   1.721  10.744 -0.8902  0.5434 -0.2003
  434TMC3    H1 6475   1.321   1.959  10.400 -2.1484 -0.5474 -0.9190
  434TMC3    H2 6476   1.547   1.611  10.365  1.4820 -0.9089  2.7635
  434TMC3    C7 6477   1.361   1.764  10.239  0.0891 -0.4840  0.2497
  434TMC3    C8 6478   1.574   1.557  10.625  1.5879  0.7304  0.1255
  434TMC3    O1 6479   1.368   1.855  10.157 -0.6566 -0.0428 -0.1302
  434TMC3    O2 6480   1.584   1.576  10.746  0.1372  0.2142  0.1288
  435MPD2     C 6481   2.991   1.607  15.409 -0.5287  0.7835  0.8684
  435MPD2    C1 6482   2.978   1.610  15.546 -0.1547  0.8460 -0.2507
  435MPD2    C2 6483   3.067   1.545  15.620 -0.3692  0.1336  1.2952
  435MPD2    C3 6484   3.172   1.469  15.561  0.4022  0.1898  0.3726
  435MPD2    C4 6485   3.181   1.460  15.426  0.1361 -0.3657 -0.3138
  435MPD2    C5 6486   3.097   1.538  15.354 -0.1770 -0.3255  0.3055
  435MPD2     H 6487   3.055   1.548  15.728  0.2466 -0.1798  1.3711
  435MPD2    H1 6488   3.244   1.390  15.374 -1.7142 -0.1478 -2.8456
  435MPD2    H2 6489   2.937   1.675  15.344 -1.3889 -2.0366 -1.4050
  435MPD2    H3 6490   3.116   1.539  15.247  0.6153  0.7726  0.4568
  435MPD2     N 6491   3.265   1.408  15.644  0.4539  0.0428 -0.1292
  435MPD2    H5 6492   3.258   1.430  15.743 -2.6712  2.7005 -0.9596
  435MPD2    N1 6493   2.878   1.679  15.617 -0.8285 -0.8612 -0.5654
  435MPD2    H7 6494   2.892   1.683  15.717  0.4301 -0.7542 -0.7371
  436TMC3    C1 6495   2.526   1.745  15.837  0.0669  0.4610  0.6456
  436TMC3    C2 6496   2.648   1.721  15.767  0.1718  1.0669 -0.6003
  436TMC3    C3 6497   2.677   1.795  15.657  0.8136 -0.4751 -0.7450
  436TMC3    C4 6498   2.437   1.845  15.803 -0.4678  0.2691 -0.0137
  436TMC3    C5 6499   2.469   1.917  15.695 -0.1261 -0.0223 -0.1638
  436TMC3    C6 6500   2.587   1.893  15.625  0.6498  0.1876 -0.2016
  436TMC3     C 6501   2.509   1.671  15.963 -0.1570 -0.1632 -0.3492
  436TMC3     O 6502   2.582   1.576  15.985 -0.2180  0.2565  0.9202
  436TMC3     H 6503   2.715   1.638  15.788  0.0995  0.9373 -0.8741
  436TMC3    H1 6504   2.348   1.873  15.858 -1.1841  2.1742 -2.1364
  436TMC3    H2 6505   2.613   1.965  15.548  0.9507 -0.0639 -0.3387
  436TMC3    C7 6506   2.386   2.017  15.635  0.3004  0.1612  0.4316
  436TMC3    C8 6507   2.776   1.751  15.561  0.5004 -0.2800 -0.5859
  436TMC3    O1 6508   2.403   2.038  15.514  0.2748 -0.0719 -0.7120
  436TMC3    O2 6509   2.750   1.770  15.445  0.2106 -0.6379 -0.3845
  437TMC3    C1 6510   1.730   3.812  12.607 -0.0899  0.1997  0.5741
  437TMC3    C2 6511   1.628   3.902  12.580  0.1815  0.1884 -0.4336
  437TMC3    C3 6512   1.638   3.974  12.468  0.9774  0.3301  0.5545
  437TMC3    C4 6513   1.845   3.796  12.528  0.2904 -0.2292 -0.8149
  437TMC3    C5 6514   1.835   3.871  12.410  0.5057 -0.0262  0.3646
  437TMC3    C6 6515   1.730   3.954  12.379 -0.0688 -1.3024 -0.4235
  437TMC3     C 6516   1.712   3.740  12.731 -0.8633  0.1782  0.0233
  437TMC3     O 6517   1.608   3.762  12.785 -0.4840  0.0452 -0.0227
  437TMC3     H 6518   1.559   3.936  12.656 -1.5803  0.2212 -2.0521
  437TMC3    H1 6519   1.918   3.717  12.542 -0.3036 -0.9096 -1.5076
  437TMC3    H2 6520   1.742   4.006  12.285  1.2640 -0.2269  0.3437
  437TMC3    C7 6521   1.955   3.873  12.320  0.3820 -0.4422 -0.2756
  437TMC3    C8 6522   1.561   4.099  12.481  0.9809  0.2320 -0.5715
  437TMC3    O1 6523   1.948   3.922  12.210  0.1278  0.1680 -0.2991
  437TMC3    O2 6524   1.539   4.143  12.596 -0.4115 -0.2379 -0.5770
  438MPD2     C 6525   3.726   4.670  16.924 -0.0614  0.9377  0.7036
  438MPD2    C1 6526   3.775   4.588  17.020 -0.2894 -0.0413 -1.0288
  438MPD2    C2 6527   3.683   4.524  17.099  0.3462  0.1287 -0.4126
  438MPD2    C3 6528   3.543   4.545  17.094 -0.6372 -0.1710 -0.7012
  438MPD2    C4 6529   3.497   4.630  16.991  0.4212  0.5404 -0.8863
  438MPD2    C5 6530   3.594   4.686  16.908 -0.0200  0.4869  0.1388
  438MPD2     H 6531   3.724   4.457  17.174  0.2026  1.4355  0.8375
  438MPD2    H1 6532   3.390   4.643  16.977  0.0722 -1.8628 -0.4258
  438MPD2    H2 6533   3.780   0.013  16.853  0.7314  0.3541  0.7809
  438MPD2    H3 6534   3.572   0.040  16.832  1.9479  0.5976 -0.3114
  438MPD2     N 6535   3.459   4.496  17.194  0.6670  0.6977  0.7139
  438MPD2    H5 6536   3.516   4.438  17.255  1.1659  1.1481  0.6739
  438MPD2    N1 6537   3.914   4.572  17.046 -0.1236 -0.2101 -0.2075
  438MPD2    H7 6538   3.947   4.513  17.122 -0.7876  0.1382  0.3557
  439TMC3    C1 6539   4.143   4.604  17.019 -0.6362  0.4489 -0.3387
  439TMC3    C2 6540   4.246   4.563  16.940 -0.3786 -0.1587 -0.3499
  439TMC3    C3 6541   4.351   4.504  16.989 -0.3169  0.6967 -0.0461
  439TMC3    C4 6542   4.159   4.605  17.153  0.0955  0.2657 -0.3296
  439TMC3    C5 6543   4.271   4.544  17.204  0.9505  0.6562  0.1949
  439TMC3    C6 6544   4.371   4.485  17.129  0.2426 -0.6319  0.0022
  439TMC3     C 6545   4.009   4.619  16.958 -0.5468 -0.5903  0.5704
  439TMC3     O 6546   3.997   4.666  16.847 -0.1315 -0.0894 -0.2892
  439TMC3     H 6547   4.231   4.590  16.837  1.5535 -0.4913 -0.7238
  439TMC3    H1 6548   4.086   4.645  17.223 -0.5454  0.2136 -0.9773
  439TMC3    H2 6549   4.461   4.438  17.165  1.1760  1.0118 -0.1879
  439TMC3    C7 6550   4.267   4.511  17.343 -0.2026 -0.2266 -0.7304
  439TMC3    C8 6551   4.425   4.406  16.906 -0.0783 -0.3946  0.5738
  439TMC3    O1 6552   4.161   4.478  17.394  0.4371  0.0480 -0.0618
  439TMC3    O2 6553   4.513   4.343  16.965 -0.2700 -0.2792  0.6347
  440MPD2     C 6554   2.946   4.580  14.419  0.3213  0.0140  0.6749
  440MPD2    C1 6555   3.008   4.672  14.507 -0.3024 -0.1460 -0.3895
  440MPD2    C2 6556   3.131   4.641  14.562  1.5501  0.3941 -0.1091
  440MPD2    C3 6557   3.197   4.530  14.514  0.4104 -0.0289  0.0304
  440MPD2    C4 6558   3.140   4.448  14.419 -0.1720 -0.1367 -0.3449
  440MPD2    C5 6559   3.015   4.478  14.367 -0.2044 -0.5482  0.7691
  440MPD2     H 6560   3.159   4.700  14.649  1.8287  0.3064 -0.1412
  440MPD2    H1 6561   3.187   4.356  14.385 -1.5394 -1.1647  0.5905
  440MPD2    H2 6562   2.846   4.588  14.380  0.7578 -0.4457 -0.5616
  440MPD2    H3 6563   2.971   4.430  14.280 -0.3293 -2.3102  1.8154
  440MPD2     N 6564   3.318   4.481  14.566 -0.2393 -0.5279  1.0297
  440MPD2    H5 6565   3.349   4.385  14.552  0.4550  0.1967 -2.2513
  440MPD2    N1 6566   2.937   0.062  14.563  0.1136 -0.4149 -0.1572
  440MPD2    H7 6567   2.970   0.103  14.650  1.9247  1.8644 -1.9144
  441TMC3    C1 6568   3.487   4.473  14.728 -0.1667 -0.6422  0.3710
  441TMC3    C2 6569   3.576   4.550  14.799 -0.2361  0.5588 -0.0338
  441TMC3    C3 6570   3.584   4.523  14.934 -0.6104  1.2481  0.4388
  441TMC3    C4 6571   3.434   4.357  14.787  0.5341  0.1849 -0.5930
  441TMC3    C5 6572   3.456   4.332  14.921 -0.4992 -0.4261 -0.7493
  441TMC3    C6 6573   3.524   4.414  14.998 -0.6370 -0.8052  0.5862
  441TMC3     C 6574   3.400   4.553  14.648 -0.2521  0.1645 -0.3475
  441TMC3     O 6575   3.388   4.669  14.684 -0.5817  0.3683 -0.8098
  441TMC3     H 6576   3.611   4.640  14.748 -2.1402  1.6353  0.5892
  441TMC3    H1 6577   3.387   4.284  14.722  0.4291 -0.1700 -0.1166
  441TMC3    H2 6578   3.529   4.405  15.106  0.8637  0.3038  0.6119
  441TMC3    C7 6579   3.332   4.304  14.988 -0.2579  0.4143  0.3093
  441TMC3    C8 6580   3.576   4.648  15.005 -0.1352  0.0142 -0.2334
  441TMC3    O1 6581   3.330   4.305  15.111  0.1904 -0.2757  0.2870
  441TMC3    O2 6582   3.626   4.654  15.120 -0.6884 -0.1547  0.3267
  442MPD2     C 6583   0.868   0.858  16.125 -0.0251 -1.2290 -0.0874
  442MPD2    C1 6584   0.808   0.818  16.238 -0.2341  0.2587  0.0863
  442MPD2    C2 6585   0.842   0.689  16.289  0.2019  0.3716 -0.0217
  442MPD2    C3 6586   0.923   0.605  16.223  0.1924 -0.1385  0.1780
  442MPD2    C4 6587   0.994   0.655  16.119 -0.1731 -0.0173  1.1394
  442MPD2    C5 6588   0.964   0.779  16.064  0.2712 -0.1190  0.3162
  442MPD2     H 6589   0.779   0.652  16.369  0.6605 -0.3989 -0.0247
  442MPD2    H1 6590   1.073   0.596  16.074 -1.1328  0.3766 -1.1009
  442MPD2    H2 6591   0.833   0.942  16.067 -0.9228 -0.0887  2.1285
  442MPD2    H3 6592   1.006   0.818  15.973  1.8098 -2.0191  0.2355
  442MPD2     N 6593   0.948   0.475  16.262  0.6972 -0.0574 -0.4780
  442MPD2    H5 6594   1.024   0.431  16.211  0.6323  1.8922 -2.3021
  442MPD2    N1 6595   0.715   0.896  16.314 -0.2699  0.2685  0.0970
  442MPD2    H7 6596   0.679   0.857  16.400  2.2862 -1.7067  0.2645
  443TMC3    C1 6597   0.584   1.082  16.366  0.2060 -0.2112 -0.1043
  443TMC3    C2 6598   0.496   1.169  16.308  0.1261  0.2295 -0.3744
  443TMC3    C3 6599   0.375   1.187  16.367  0.3846  0.4050  0.4510
  443TMC3    C4 6600   0.567   1.019  16.487 -0.0495 -0.1864  0.5731
  443TMC3    C5 6601   0.442   1.047  16.550  0.1592  0.4468 -0.2978
  443TMC3    C6 6602   0.350   1.133  16.494  0.0129 -0.3032 -0.4252
  443TMC3     C 6603   0.679   1.024  16.273  0.1432 -0.3309 -0.8114
  443TMC3     O 6604   0.719   1.093  16.180  0.1113 -0.4524  0.4386
  443TMC3     H 6605   0.519   1.214  16.212  1.0260  0.6941  0.0630
  443TMC3    H1 6606   0.644   0.966  16.543 -0.2107 -0.8817  0.1335
  443TMC3    H2 6607   0.256   1.154  16.543 -0.9078 -2.5686 -1.2030
  443TMC3    C7 6608   0.394   0.981  16.669 -0.1217  0.2738  0.3640
  443TMC3    C8 6609   0.280   1.284  16.318  0.2770  0.5449  0.1946
  443TMC3    O1 6610   0.432   0.862  16.670  0.7233  0.3580 -0.1998
  443TMC3    O2 6611   0.207   1.340  16.401  0.1507  0.4717 -0.1380
  444MPD2     C 6612   1.593   4.625  17.126 -0.0834 -0.2373  0.3036
  444MPD2    C1 6613   1.503   4.564  17.037 -0.6221 -0.1436  0.0316
  444MPD2    C2 6614   1.543   4.452  16.965  0.5604  0.7090  0.4007
  444MPD2    C3 6615   1.667   4.400  16.976  0.3131 -0.1781 -0.0988
  444MPD2    C4 6616   1.752   4.459  17.069 -0.0844 -0.0497  0.2039
  444MPD2    C5 6617   1.716   4.571  17.140 -0.1433 -0.2057  0.8494
  444MPD2     H 6618   1.475   4.404  16.896  1.4167 -2.1662  1.5426
  444MPD2    H1 6619   1.854   4.425  17.080  0.2048  0.7161 -0.1574
  444MPD2    H2 6620   1.586   0.005  17.169  3.3598 -1.2984  3.3578
  444MPD2    H3 6621   1.794   4.623  17.193  0.4974 -1.9013  1.5730
  444MPD2     N 6622   1.704   4.289  16.897  0.1664  0.2717  0.9589
  444MPD2    H5 6623   1.634   4.241  16.841  0.4242  0.8860  0.1198
  444MPD2    N1 6624   1.380   4.624  17.006 -0.0829 -0.1196  0.0928
  444MPD2    H7 6625   1.327   4.567  16.940 -1.1601 -0.1800  1.0025
  445TMC3    C1 6626   1.827   4.121  16.795  0.1381 -0.3339  0.3650
  445TMC3    C2 6627   1.720   4.113  16.708  0.2046  0.1323 -0.0886
  445TMC3    C3 6628   1.731   4.024  16.605  0.4673  0.0502  0.0405
  445TMC3    C4 6629   1.948   4.068  16.761 -0.8834  0.0524 -0.0502
  445TMC3    C5 6630   1.964   3.988  16.649  0.1307  0.6134 -0.1684
  445TMC3    C6 6631   1.854   3.964  16.571  0.4917  0.0424  0.6480
  445TMC3     C 6632   1.832   4.236  16.885 -0.2671 -0.0784 -0.3366
  445TMC3     O 6633   1.936   4.298  16.889 -0.0991 -0.0008  0.1440
  445TMC3     H 6634   1.623   4.162  16.710 -1.4941 -3.2515  0.9383
  445TMC3    H1 6635   2.020   4.082  16.840  0.0575  0.8437 -1.0562
  445TMC3    H2 6636   1.868   3.897  16.487 -0.3769  0.2204  0.3546
  445TMC3    C7 6637   2.098   3.975  16.602 -0.1377  0.8839 -0.0705
  445TMC3    C8 6638   1.623   4.020  16.505  0.4052 -0.2173  0.5618
  445TMC3    O1 6639   2.111   3.950  16.480  0.3379 -0.4450 -0.2502
  445TMC3    O2 6640   1.522   4.086  16.526  0.4007 -0.2122  0.1984
  446MPD2     C 6641   1.289   1.322  11.153  0.3485  0.4341  0.7572
  446MPD2    C1 6642   1.330   1.339  11.020 -0.2200 -0.2294  0.1329
  446MPD2    C2 6643   1.405   1.448  10.976  0.1222 -0.1111 -0.7841
  446MPD2    C3 6644   1.446   1.547  11.065  0.6748 -0.2387 -0.1722
  446MPD2    C4 6645   1.410   1.529  11.201 -0.2294 -0.1159  0.2832
  446MPD2    C5 6646   1.337   1.416  11.239 -0.0016  0.3307 -0.3531
  446MPD2     H 6647   1.436   1.452  10.872 -0.2523 -1.2565 -0.9365
  446MPD2    H1 6648   1.445   1.591  11.282  2.5006  0.7154 -1.5368
  446MPD2    H2 6649   1.220   1.244  11.186 -1.6424  1.2496 -1.4155
  446MPD2    H3 6650   1.325   1.395  11.345 -2.6964 -1.0432 -0.9245
  446MPD2     N 6651   1.532   1.650  11.015  0.3970  1.1555 -0.3982
  446MPD2    H5 6652   1.553   1.645  10.916  3.6042  2.8342  0.1971
  446MPD2    N1 6653   1.294   1.242  10.928  0.1863  0.1904  0.3254
  446MPD2    H7 6654   1.316   1.267  10.832 -0.8790  1.0967  0.3147
  447TMC3    C1 6655   1.694   1.825  11.027 -0.1100 -0.0794  0.4172
  447TMC3    C2 6656   1.691   1.837  10.892 -0.0835 -0.1601 -0.1075
  447TMC3    C3 6657   1.799   1.828  10.816 -1.1794 -1.2913 -0.2653
  447TMC3    C4 6658   1.815   1.809  11.088  0.3817 -0.2736  0.0935
  447TMC3    C5 6659   1.932   1.801  11.010 -0.3340  0.4361  0.3765
  447TMC3    C6 6660   1.923   1.810  10.875  0.1580  0.4822 -0.0226
  447TMC3     C 6661   1.588   1.744  11.099  0.4957 -0.0776  0.1114
  447TMC3     O 6662   1.597   1.750  11.222  0.1128  0.2471 -0.1541
  447TMC3     H 6663   1.600   1.854  10.836 -0.3010  1.1890  0.6624
  447TMC3    H1 6664   1.827   1.774  11.190  1.5014  1.0150  0.4067
  447TMC3    H2 6665   2.016   1.808  10.818 -0.4338  2.6702 -1.0695
  447TMC3    C7 6666   2.053   1.730  11.058 -1.2960 -0.0633  0.4905
  447TMC3    C8 6667   1.788   1.828  10.668  0.4299  0.1436  1.2815
  447TMC3    O1 6668   2.114   1.670  10.972 -0.2305  0.2531  0.0770
  447TMC3    O2 6669   1.690   1.878  10.616 -0.5976  0.1885 -1.2775
  448TMC3    C1 6670   4.329   1.469  17.458  0.2615  0.3290 -0.7320
  448TMC3    C2 6671   4.245   1.374  17.396  0.1610 -0.2030  0.4471
  448TMC3    C3 6672   4.234   1.250  17.445 -0.4143  0.1526 -0.4426
  448TMC3    C4 6673   4.413   1.435  17.560  0.0731 -0.7343  0.7933
  448TMC3    C5 6674   4.410   1.304  17.602 -0.3329  0.2380 -0.1766
  448TMC3    C6 6675   4.323   1.213  17.550 -0.2963  0.1616 -0.1359
  448TMC3     C 6676   4.286   1.607  17.441  0.3519 -0.0607 -0.2992
  448TMC3     O 6677   4.246   1.642  17.329  0.1655  0.2324 -0.0801
  448TMC3     H 6678   4.182   1.411  17.316  0.8418  0.0083  0.0098
  448TMC3    H1 6679   4.481   1.500  17.613  1.7970 -2.0715  0.2280
  448TMC3    H2 6680   4.328   1.108  17.578 -0.3009 -0.0859 -1.0654
  448TMC3    C7 6681   4.508   1.266   0.028  0.9859 -0.1966  0.0102
  448TMC3    C8 6682   4.195   1.147  17.348  0.0787 -1.1152 -0.0273
  448TMC3    O1 6683   4.577   1.354   0.074  0.1844  0.0674 -0.2323
  448TMC3    O2 6684   4.227   1.034  17.379  0.2479 -0.0231  0.3329
  449MPD2     C 6685   0.847   3.510  13.711  0.0436 -0.0414  0.3510
  449MPD2    C1 6686   0.749   3.467  13.616  0.9296  0.7058 -0.0043
  449MPD2    C2 6687   0.617   3.491  13.641  0.4686 -0.0308 -0.5569
  449MPD2    C3 6688   0.572   3.554  13.755  0.5531 -0.2932  0.3567
  449MPD2    C4 6689   0.661   3.602  13.845 -0.1444 -0.1464  0.1416
  449MPD2    C5 6690   0.798   3.590  13.813 -0.4015 -0.0078  0.3443
  449MPD2     H 6691   0.552   3.438  13.572  0.6516 -3.6466  2.0599
  449MPD2    H1 6692   0.634   3.655  13.935 -2.4182 -2.2240  0.6672
  449MPD2    H2 6693   0.953   3.516  13.690 -0.6571 -1.7765 -3.7979
  449MPD2    H3 6694   0.869   3.629  13.885  1.9194 -1.4717 -1.1412
  449MPD2     N 6695   0.438   3.548  13.781 -0.0696 -0.3967 -0.4776
  449MPD2    H5 6696   0.386   3.502  13.707  0.4627 -1.0367 -0.4569
  449MPD2    N1 6697   0.785   3.395  13.500 -0.4672 -1.1009  0.6593
  449MPD2    H7 6698   0.708   3.364  13.442 -0.1063  0.8168 -0.8589
  450TMC3    C1 6699   0.897   3.282  13.332  0.0852  0.3357 -0.2691
  450TMC3    C2 6700   0.944   3.349  13.228  0.7300  0.0511  0.3570
  450TMC3    C3 6701   0.868   3.346  13.114 -0.2789 -0.1582 -0.3336
  450TMC3    C4 6702   0.782   3.211  13.327 -0.1484  0.1530 -0.0175
  450TMC3    C5 6703   0.708   3.218  13.213 -0.2840 -0.2717  0.3288
  450TMC3    C6 6704   0.749   3.287  13.106  0.0677  0.1222  0.1265
  450TMC3     C 6705   0.904   3.355  13.456 -0.0213  0.1676 -0.3423
  450TMC3     O 6706   1.013   3.381  13.509 -0.1321  0.2050 -0.3169
  450TMC3     H 6707   1.037   3.402  13.246 -0.3788  1.2355  2.6791
  450TMC3    H1 6708   0.729   3.178  13.415  1.0458 -0.2974  0.5361
  450TMC3    H2 6709   0.692   3.281  13.013  0.5539 -1.7820 -0.0416
  450TMC3    C7 6710   0.574   3.249  13.255  0.2066 -0.1348 -0.9315
  450TMC3    C8 6711   0.913   3.417  12.996  0.4710 -0.1698  0.9938
  450TMC3    O1 6712   0.575   3.332  13.343  0.7951  0.1011  0.0351
  450TMC3    O2 6713   0.869   3.385  12.885 -0.2274 -0.4670 -0.0328
  451MPD2     C 6714   2.140   3.465   0.974 -0.3414 -0.3282  0.1010
  451MPD2    C1 6715   2.032   3.438   1.053 -0.9794 -0.3948  0.3399
  451MPD2    C2 6716   2.005   3.302   1.074 -0.3781  0.8462 -0.0066
  451MPD2    C3 6717   2.082   3.195   1.027  0.1666 -0.1214 -0.1585
  451MPD2    C4 6718   2.195   3.231   0.959  0.2606 -0.3740  0.6938
  451MPD2    C5 6719   2.223   3.359   0.932  0.9090  0.1025 -0.0118
  451MPD2     H 6720   1.919   3.276   1.134 -0.0002 -0.0768  0.1405
  451MPD2    H1 6721   2.270   3.163   0.922  0.8834  0.3356  0.6631
  451MPD2    H2 6722   2.186   3.562   0.958 -1.0511  0.1065  0.6660
  451MPD2    H3 6723   2.313   3.389   0.879  0.3914  1.5540 -0.0881
  451MPD2     N 6724   2.070   3.058   1.046 -0.6984 -0.1256  0.1344
  451MPD2    H5 6725   2.137   2.994   1.006  2.3535  2.4909  1.0749
  451MPD2    N1 6726   1.960   3.549   1.103  0.0357 -0.5953 -0.9815
  451MPD2    H7 6727   1.982   3.638   1.061  0.9284  0.2847  1.3203
  452TMC3    C1 6728   1.972   2.859   1.116  0.0427 -0.0341  1.0884
  452TMC3    C2 6729   1.962   2.803   1.239 -1.1201 -0.5230  0.5085
  452TMC3    C3 6730   1.982   2.666   1.251 -0.0314 -0.2204  0.0390
  452TMC3    C4 6731   1.998   2.784   1.002 -0.0262  0.3153 -0.5755
  452TMC3    C5 6732   1.998   2.646   1.020  0.1793 -0.6814 -0.2123
  452TMC3    C6 6733   1.997   2.591   1.140 -0.2100  0.0189 -0.2175
  452TMC3     C 6734   1.978   3.002   1.126 -0.5742 -0.3550 -0.0601
  452TMC3     O 6735   1.921   3.060   1.216  0.7036 -0.6747 -0.1577
  452TMC3     H 6736   1.923   2.863   1.320 -0.0730 -0.7886  1.2160
  452TMC3    H1 6737   2.002   2.840   0.909 -0.9714 -0.1535 -0.9047
  452TMC3    H2 6738   2.011   2.484   1.153 -2.3381 -0.1683  0.5947
  452TMC3    C7 6739   2.006   2.571   0.894  0.1910 -1.0916  0.9510
  452TMC3    C8 6740   1.989   2.602   1.376  0.7368 -0.9794 -0.1380
  452TMC3    O1 6741   2.034   2.627   0.789  0.5850 -0.3456 -0.0390
  452TMC3    O2 6742   1.962   2.483   1.374  0.0547  0.0095  0.0278
  453TMC3    C1 6743   3.551   0.211  11.819  0.0611  0.1299 -0.4750
  453TMC3    C2 6744   3.457   0.147  11.895 -0.6250  0.0129  0.4837
  453TMC3    C3 6745   3.346   0.096  11.844 -0.5023 -0.2218  0.6874
  453TMC3    C4 6746   3.533   0.234  11.685 -0.6360 -0.3322 -0.0647
  453TMC3    C5 6747   3.419   0.174  11.628  0.0467 -0.1757  0.0918
  453TMC3    C6 6748   3.324   0.109  11.711  0.1366 -0.4355 -0.2832
  453TMC3     C 6749   3.667   0.266  11.889  0.2412  0.2112 -0.5662
  453TMC3     O 6750   3.713   0.366  11.840 -0.3499 -0.2616 -1.1350
  453TMC3     H 6751   3.475   0.142  12.002 -1.5743  1.2157  0.6985
  453TMC3    H1 6752   3.611   0.272  11.621 -0.0127 -0.0950  0.8327
  453TMC3    H2 6753   3.258   0.043  11.655 -1.0931  1.2603 -0.8454
  453TMC3    C7 6754   3.426   0.135  11.493 -0.2962 -0.3427 -0.2705
  453TMC3    C8 6755   3.302   4.695  11.908  0.3020  0.4162  0.3950
  453TMC3    O1 6756   3.345   0.046  11.461  0.0947 -0.2372  0.0236
  453TMC3    O2 6757   3.380   4.663  11.998  0.2521 -0.3952  0.4949
  454MPD2     C 6758   2.308   4.525  16.589 -0.1426 -0.1169  0.2025
  454MPD2    C1 6759   2.227   4.639  16.567 -0.1316 -0.1891 -0.1460
  454MPD2    C2 6760   2.145   4.675  16.670  0.8555  0.0219 -0.5459
  454MPD2    C3 6761   2.119   4.589  16.770 -0.1301 -0.5837  0.3072
  454MPD2    C4 6762   2.195   4.474  16.788 -0.1474 -0.2447  0.2843
  454MPD2    C5 6763   2.292   4.448  16.702  0.2370 -0.1503 -0.3364
  454MPD2     H 6764   2.079   0.040  16.650  1.2474  0.6212  0.6948
  454MPD2    H1 6765   2.179   4.403  16.868  0.3808 -0.0455  0.5634
  454MPD2    H2 6766   2.378   4.488  16.516 -0.1661  0.4696 -0.1141
  454MPD2    H3 6767   2.358   4.362  16.709  0.7066  0.3670  1.6101
  454MPD2     N 6768   2.011   4.605  16.861  0.1217 -0.0841  0.1228
  454MPD2    H5 6769   1.976   4.521  16.907 -0.8630  0.5630  0.5580
  454MPD2    N1 6770   2.223   0.004  16.448 -0.5034  0.3783  0.2034
  454MPD2    H7 6771   2.166   0.087  16.449 -0.5517  0.3243  1.2419
  455TMC3    C1 6772   1.791   4.656  16.806  0.4474 -0.8194 -1.2460
  455TMC3    C2 6773   1.695   0.031  16.795 -0.3723  0.3992  0.4054
  455TMC3    C3 6774   1.596   0.016  16.706 -0.1511  0.0645  0.5659
  455TMC3    C4 6775   1.792   4.548  16.714  0.2329 -0.8932 -0.1031
  455TMC3    C5 6776   1.698   4.546  16.612 -0.0430  0.1823 -0.5169
  455TMC3    C6 6777   1.600   4.645  16.604  0.7055 -0.1979 -0.4719
  455TMC3     C 6778   1.919   4.702  16.848  0.0911 -0.1191 -0.0796
  455TMC3     O 6779   1.938   0.098  16.825  0.6077  0.4567  0.2656
  455TMC3     H 6780   1.688   0.105  16.875  2.0188 -0.2882  1.2643
  455TMC3    H1 6781   1.860   4.465  16.733  0.1587 -0.7403  0.8035
  455TMC3    H2 6782   1.531   4.651  16.520  0.4998 -3.6220 -0.5681
  455TMC3    C7 6783   1.728   4.470  16.484 -0.1069 -0.1763 -0.4579
  455TMC3    C8 6784   1.465   0.074  16.731  0.4411  0.4627 -0.0559
  455TMC3    O1 6785   1.646   4.472  16.396 -0.5145  0.4308 -0.0656
  455TMC3    O2 6786   1.371   0.011  16.685  0.7994 -0.3722  0.6073
  456MPD2     C 6787   4.200   0.029  16.428 -0.4537  0.8740 -0.0108
  456MPD2    C1 6788   4.271   0.010  16.542  0.0277  0.0243  0.1080
  456MPD2    C2 6789   4.228   0.067  16.662  0.5692 -0.2639  0.5161
  456MPD2    C3 6790   4.125   0.166  16.663  0.0899 -0.1104  0.3311
  456MPD2    C4 6791   4.058   0.179  16.542 -0.0307 -0.1449 -0.6788
  456MPD2    C5 6792   4.097   0.115  16.425 -0.3846  0.1277 -0.4353
  456MPD2     H 6793   4.284   0.040  16.751 -1.3372  0.0152  1.7814
  456MPD2    H1 6794   3.978   0.252  16.534 -1.8834 -1.9312  1.8052
  456MPD2    H2 6795   4.217   4.704  16.330  2.3398  1.8031  0.0533
  456MPD2    H3 6796   4.048   0.138  16.331 -0.0548 -0.8495 -0.8454
  456MPD2     N 6797   4.091   0.232  16.784 -0.2456  0.3158 -0.5274
  456MPD2    H5 6798   4.153   0.223  16.865  1.7221  0.9153 -1.9827
  456MPD2    N1 6799   4.379   4.643  16.536  0.3771 -0.1693  0.6305
  456MPD2    H7 6800   4.404   4.613  16.443 -0.0209 -1.4592  0.9415
  457TMC3    C1 6801   3.990   0.376  16.926  0.6611  0.4715  0.6396
  457TMC3    C2 6802   4.045   0.498  16.945  0.4240 -0.5002 -1.0351
  457TMC3    C3 6803   4.115   0.530  17.052 -0.6588 -1.0140  0.1536
  457TMC3    C4 6804   4.023   0.277  17.015 -0.0411 -0.0903 -0.2988
  457TMC3    C5 6805   4.108   0.306  17.122  0.4539  0.4565  0.1145
  457TMC3    C6 6806   4.147   0.438  17.148 -0.6651  0.0646 -0.0603
  457TMC3     C 6807   4.000   0.328  16.792  0.1338 -0.2315 -0.4541
  457TMC3     O 6808   3.917   0.366  16.712  0.4890  0.1324 -0.9035
  457TMC3     H 6809   4.026   0.564  16.862  0.9887 -0.4247 -1.1054
  457TMC3    H1 6810   3.985   0.176  17.013 -0.1248 -0.0440 -0.9313
  457TMC3    H2 6811   4.196   0.456  17.243  1.0815 -0.2243 -0.9137
  457TMC3    C7 6812   4.222   0.218  17.119  0.0268 -0.4565 -0.0150
  457TMC3    C8 6813   4.115   0.670  17.100  0.7309 -0.4881 -0.1818
  457TMC3    O1 6814   4.263   0.188  17.006 -0.2286 -0.0375  0.0887
  457TMC3    O2 6815   4.134   0.689  17.220 -0.0379 -0.0733 -0.1645
  458MPD2     C 6816   2.467   3.859  12.251 -0.2723 -0.0515  0.4041
  458MPD2    C1 6817   2.444   3.861  12.387 -0.9811 -0.3066  0.0940
  458MPD2    C2 6818   2.308   3.865  12.424  0.6661 -0.5660 -0.0430
  458MPD2    C3 6819   2.201   3.853  12.338  0.3459 -0.1536  0.0770
  458MPD2    C4 6820   2.230   3.849  12.203 -0.2845 -0.6514 -0.1512
  458MPD2    C5 6821   2.364   3.857  12.163 -0.5194 -0.0634  0.4289
  458MPD2     H 6822   2.277   3.885  12.526  0.2830 -1.6075  0.0453
  458MPD2    H1 6823   2.153   3.864  12.128 -0.1999 -1.4697 -0.3980
  458MPD2    H2 6824   2.564   3.851  12.204 -0.5216  0.7923 -0.2626
  458MPD2    H3 6825   2.385   3.869  12.058 -0.0065 -0.2909  0.5036
  458MPD2     N 6826   2.073   3.855  12.390 -0.1978 -0.4435  0.1755
  458MPD2    H5 6827   2.051   3.842  12.488 -1.9349 -0.0367 -0.1714
  458MPD2    N1 6828   2.546   3.873  12.482 -0.0624  0.2784  0.2742
  458MPD2    H7 6829   2.635   3.895  12.439 -0.9681 -1.7363 -2.5936
  459TMC3    C1 6830   2.651   3.904  12.684  0.6216  0.0662 -0.0699
  459TMC3    C2 6831   2.718   4.018  12.646 -0.3591 -0.2256  0.2754
  459TMC3    C3 6832   2.799   4.080  12.739  0.7671 -0.5385  0.2201
  459TMC3    C4 6833   2.657   3.855  12.812  0.1786  0.1934 -0.4344
  459TMC3    C5 6834   2.741   3.917  12.900  0.0670 -0.1611  0.6379
  459TMC3    C6 6835   2.811   4.027  12.866  0.1390  0.6839 -0.4436
  459TMC3     C 6836   2.530   3.880  12.622  0.1938 -0.0371  0.3859
  459TMC3     O 6837   2.434   3.841  12.689  0.2271  0.0820 -0.0553
  459TMC3     H 6838   2.718   4.052  12.543  2.6223  0.5133  0.5128
  459TMC3    H1 6839   2.604   3.765  12.839 -0.1407  1.3619  2.7730
  459TMC3    H2 6840   2.889   4.064  12.931 -0.6352 -0.5677  1.1736
  459TMC3    C7 6841   2.751   3.843  13.021 -0.0789 -0.5346  0.0721
  459TMC3    C8 6842   2.901   4.173  12.690  0.3354  0.0745  0.2917
  459TMC3    O1 6843   2.697   3.728  13.022 -0.0599  0.2199  1.0656
  459TMC3    O2 6844   2.999   4.199  12.762 -0.1544  0.6179  0.3988
  460MPD2     C 6845   1.951   1.609  10.440 -0.1952 -0.3302  0.2878
  460MPD2    C1 6846   1.875   1.715  10.480 -0.2353 -0.2952 -0.2248
  460MPD2    C2 6847   1.813   1.788  10.381 -0.0148 -0.3137  0.2550
  460MPD2    C3 6848   1.859   1.770  10.251 -0.2954 -0.0861  0.0708
  460MPD2    C4 6849   1.933   1.658  10.217  0.2426  0.5869 -0.1358
  460MPD2    C5 6850   1.973   1.573  10.316  0.2628  0.6862  0.1159
  460MPD2     H 6851   1.752   1.874  10.405  0.4584 -0.0371  0.4454
  460MPD2    H1 6852   1.952   1.631  10.113  3.7248 -0.3186  0.7550
  460MPD2    H2 6853   1.984   1.538  10.516 -1.3489  1.7781  2.7554
  460MPD2    H3 6854   2.007   1.471  10.303 -1.6377  0.2948 -1.8287
  460MPD2     N 6855   1.803   1.856  10.152 -0.1401  0.5513  0.2325
  460MPD2    H5 6856   1.748   1.933  10.188 -1.7395 -0.0450 -0.9323
  460MPD2    N1 6857   1.871   1.742  10.613 -0.0638  0.0652 -0.3896
  460MPD2    H7 6858   1.937   1.693  10.672 -1.7959  0.3902  1.8197
  461TMC3    C1 6859   1.701   1.921   9.957  0.2219 -0.9197  0.3732
  461TMC3    C2 6860   1.613   1.844   9.879 -0.0504 -0.3541 -0.9681
  461TMC3    C3 6861   1.492   1.897   9.851  0.4804  0.2305 -0.0117
  461TMC3    C4 6862   1.672   2.045  10.005 -0.0994 -0.3973 -0.4726
  461TMC3    C5 6863   1.555   2.101   9.963 -1.0624  0.3265 -0.2653
  461TMC3    C6 6864   1.460   2.028   9.890  0.1842 -0.8241 -0.3137
  461TMC3     C 6865   1.811   1.847  10.014  1.2815 -0.1254 -0.2001
  461TMC3     O 6866   1.867   1.760   9.953  0.6766  0.1618 -0.4172
  461TMC3     H 6867   1.643   1.743   9.850 -1.6416 -1.1127  0.0110
  461TMC3    H1 6868   1.741   2.114  10.052 -2.7432  1.6258  0.4703
  461TMC3    H2 6869   1.360   2.068   9.884  0.0354 -0.9039  1.5215
  461TMC3    C7 6870   1.541   2.243   9.957  0.1058 -0.1851 -0.0206
  461TMC3    C8 6871   1.400   1.805   9.785 -0.3141  0.5456  0.2621
  461TMC3    O1 6872   1.442   2.281   9.899  0.6830 -0.2545 -0.1292
  461TMC3    O2 6873   1.436   1.690   9.772 -0.0687  0.0002 -0.3316
  462TMC3    C1 6874   1.236   1.529  17.659  0.5853  0.1376 -0.5661
  462TMC3    C2 6875   1.378   1.517  17.651 -0.3950  0.2207 -0.2242
  462TMC3    C3 6876   1.435   1.432   0.063  0.6769 -0.0271 -0.2048
  462TMC3    C4 6877   1.166   1.457   0.072  0.4387 -0.0595  0.2102
  462TMC3    C5 6878   1.231   1.377   0.160  0.3487  0.0959 -0.0413
  462TMC3    C6 6879   1.369   1.364   0.162  0.4891  0.0505  0.0174
  462TMC3     C 6880   1.169   1.602  17.549  0.6905 -0.8405  0.3839
  462TMC3     O 6881   1.240   1.657  17.471  0.0466 -0.4568  0.5719
  462TMC3     H 6882   1.435   1.580  17.584 -1.3847 -0.2673 -1.5223
  462TMC3    H1 6883   1.058   1.455   0.066  0.3717 -1.5360  2.0185
  462TMC3    H2 6884   1.415   1.277   0.207  1.4961  0.7186  0.2806
  462TMC3    C7 6885   1.155   1.315   0.271  0.0713 -0.1613  0.1716
  462TMC3    C8 6886   1.575   1.403   0.064 -0.4187 -0.2216  0.1917
  462TMC3    O1 6887   1.031   1.307   0.268 -0.4353 -0.1521  0.2174
  462TMC3    O2 6888   1.633   1.365   0.165 -0.1715  0.2710  0.0834
  463MPD2     C 6889   2.081   1.690   1.885  0.3963  1.0516  0.0825
  463MPD2    C1 6890   2.008   1.715   1.771  0.1973 -0.5965 -0.3582
  463MPD2    C2 6891   2.049   1.815   1.685  0.3175  0.2183 -0.3178
  463MPD2    C3 6892   2.162   1.896   1.711  0.6698 -0.4719  0.3724
  463MPD2    C4 6893   2.230   1.873   1.831  0.0226 -0.0243 -0.3922
  463MPD2    C5 6894   2.198   1.765   1.910  0.0183  0.3155  0.9705
  463MPD2     H 6895   1.987   1.841   1.600 -0.1077  0.9880  0.2220
  463MPD2    H1 6896   2.308   1.943   1.859  1.7730 -1.6678 -1.2119
  463MPD2    H2 6897   2.051   1.610   1.951 -1.2702  0.0673 -1.8946
  463MPD2    H3 6898   2.262   1.739   1.993 -0.6418 -0.7297  1.1573
  463MPD2     N 6899   2.192   2.010   1.638  0.2144 -0.6210  0.1668
  463MPD2    H5 6900   2.272   2.066   1.667  1.0868 -2.3053  1.0388
  463MPD2    N1 6901   1.899   1.629   1.752 -0.9220  0.1917  0.1421
  463MPD2    H7 6902   1.885   1.565   1.829 -0.3344  1.2115  1.0944
  464TMC3    C1 6903   1.725   1.497   1.649 -1.7347 -0.6785 -0.2817
  464TMC3    C2 6904   1.609   1.504   1.574 -0.6720  0.7443  0.3865
  464TMC3    C3 6905   1.530   1.385   1.577  0.3943 -0.5620 -0.1487
  464TMC3    C4 6906   1.759   1.380   1.722  0.4568 -0.1886  0.4042
  464TMC3    C5 6907   1.682   1.270   1.717 -0.1984 -0.3759  0.3710
  464TMC3    C6 6908   1.564   1.272   1.648 -0.5326  0.1564 -0.3450
  464TMC3     C 6909   1.807   1.625   1.650  0.3993 -0.6731 -0.0950
  464TMC3     O 6910   1.795   1.703   1.557 -0.2178  0.4295 -0.0564
  464TMC3     H 6911   1.583   1.588   1.512 -0.1034  0.6080 -0.0406
  464TMC3    H1 6912   1.843   1.375   1.789  1.3711 -1.8004 -0.8477
  464TMC3    H2 6913   1.498   1.186   1.647 -1.8341  1.1595 -0.4900
  464TMC3    C7 6914   1.708   1.171   1.810 -0.7378 -0.2919  0.3176
  464TMC3    C8 6915   1.431   1.382   1.472 -0.3828  0.5573  0.3205
  464TMC3    O1 6916   1.789   1.202   1.900  0.0302 -1.0760  0.4413
  464TMC3    O2 6917   1.459   1.452   1.375 -0.2446  0.1517  0.2865
  465MPD2     C 6918   3.399   4.194  16.941 -0.4681 -0.3736  0.2765
  465MPD2    C1 6919   3.288   4.210  17.015  0.0527  0.7414  0.0269
  465MPD2    C2 6920   3.199   4.311  16.977  0.5607  0.4756 -0.3235
  465MPD2    C3 6921   3.232   4.402  16.874  0.1524 -0.0421  0.6200
  465MPD2    C4 6922   3.348   4.379  16.797  0.3807  0.3393  0.4881
  465MPD2    C5 6923   3.424   4.270  16.830 -0.8901 -0.0234  0.2077
  465MPD2     H 6924   3.108   4.331  17.033  2.0318  1.1606  1.8660
  465MPD2    H1 6925   3.374   4.440  16.711 -2.1446 -0.1257 -0.6013
  465MPD2    H2 6926   3.470   4.114  16.960  1.4233  0.9501 -1.1872
  465MPD2    H3 6927   3.507   4.247  16.765  0.7509 -0.1711  2.3250
  465MPD2     N 6928   3.146   4.512  16.856  0.7488 -0.2214  0.8027
  465MPD2    H5 6929   3.074   4.528  16.926  0.4014  0.0630  0.3808
  465MPD2    N1 6930   3.255   4.125  17.122  0.0102  0.0720 -0.2006
  465MPD2    H7 6931   3.162   4.145  17.159 -0.3999 -0.4455 -0.9555
  466TMC3    C1 6932   2.870   0.105  16.856  0.1853 -0.3872 -0.0718
  466TMC3    C2 6933   2.885   0.201  16.758 -0.0636  0.2694 -0.1341
  466TMC3    C3 6934   2.988   0.189  16.672  0.0045 -0.1328  0.2986
  466TMC3    C4 6935   2.950   4.712  16.857 -0.1448 -0.0022 -0.5980
  466TMC3    C5 6936   3.039   4.699  16.749  0.2766 -0.2793 -0.3754
  466TMC3    C6 6937   3.066   0.081  16.657 -0.5480  0.1757 -0.2082
  466TMC3     C 6938   2.787   0.128  16.974 -0.4674  0.1392  0.7721
  466TMC3     O 6939   2.808   0.035  17.055  0.6674  0.1582  0.9066
  466TMC3     H 6940   2.818   0.287  16.754 -1.8377 -1.1346 -0.6867
  466TMC3    H1 6941   2.909   4.628  16.911  2.4483 -0.0107  1.3358
  466TMC3    H2 6942   3.153   0.085  16.592 -0.6995 -2.5563 -0.5694
  466TMC3    C7 6943   3.141   4.588  16.742  0.0875 -0.5270 -0.1078
  466TMC3    C8 6944   3.013   0.296  16.583 -0.0160  0.0174  0.2707
  466TMC3    O1 6945   3.209   4.583  16.641 -0.4373  0.0059  0.2129
  466TMC3    O2 6946   3.068   0.286  16.474 -0.2232 -0.1748 -0.1601
  467TMC3    C1 6947   4.699   2.590  13.717  0.8014 -0.6676 -1.3818
  467TMC3    C2 6948   4.634   2.622  13.603 -0.4827  0.3012 -0.0550
  467TMC3    C3 6949   4.501   2.628  13.598 -0.2029  0.0285 -0.2802
  467TMC3    C4 6950   4.634   2.548  13.827  0.5781  0.5454 -0.3287
  467TMC3    C5 6951   4.496   2.559  13.825  0.1439 -0.9087  0.0288
  467TMC3    C6 6952   4.428   2.599  13.712  0.2073 -0.4737  0.0790
  467TMC3     C 6953   0.111   2.639  13.734  0.6312  0.9953  0.3648
  467TMC3     O 6954   0.156   2.677  13.846  0.0828 -0.1075 -0.0501
  467TMC3     H 6955   4.693   2.662  13.521 -0.8779  2.0028  0.4930
  467TMC3    H1 6956   4.690   2.522  13.916  0.1837  1.4802  0.2024
  467TMC3    H2 6957   4.321   2.615  13.713  0.5680  1.9182  0.4071
  467TMC3    C7 6958   4.430   2.544  13.957  0.2498  0.0997  0.7562
  467TMC3    C8 6959   4.436   2.714  13.505  0.8012 -0.2541 -0.0905
  467TMC3    O1 6960   4.488   2.502  14.056  0.2770  0.0528  0.2118
  467TMC3    O2 6961   4.369   2.805  13.547  0.7570 -0.1482 -0.5265
  468MPD2     C 6962   3.930   1.444  10.420 -0.0303 -0.0338 -0.2697
  468MPD2    C1 6963   3.977   1.406  10.541 -0.2683  0.5929 -0.6223
  468MPD2    C2 6964   3.954   1.279  10.581 -0.4943 -0.1020  0.9196
  468MPD2    C3 6965   3.869   1.194  10.500 -0.0552 -0.0945  0.5089
  468MPD2    C4 6966   3.826   1.235  10.380 -0.4620  0.2213  0.5068
  468MPD2    C5 6967   3.861   1.357  10.336  0.1108  0.1520 -0.0444
  468MPD2     H 6968   3.993   1.240  10.675  2.3929  2.0946  0.6322
  468MPD2    H1 6969   3.766   1.176  10.311 -1.8172  1.7051  0.4130
  468MPD2    H2 6970   3.936   1.549  10.396  0.1466 -0.4899 -2.2314
  468MPD2    H3 6971   3.810   1.392  10.247 -2.7656 -0.2838  1.4380
  468MPD2     N 6972   3.838   1.069  10.546  0.5047 -0.1785  0.1030
  468MPD2    H5 6973   3.898   1.044  10.624 -1.5058  1.2901  2.1027
  468MPD2    N1 6974   4.045   1.487  10.633  0.3765  0.5218  0.2517
  468MPD2    H7 6975   4.092   1.441  10.709  1.0340 -0.0926 -0.5244
  469TMC3    C1 6976   4.117   1.678  10.743 -0.5967 -0.4269  0.0725
  469TMC3    C2 6977   4.189   1.604  10.840  0.2614 -0.1433  0.1898
  469TMC3    C3 6978   4.195   1.658  10.966 -0.5124  0.0069  0.6058
  469TMC3    C4 6979   4.059   1.794  10.780  0.2597  0.0878 -1.1807
  469TMC3    C5 6980   4.059   1.833  10.915 -0.1748 -0.0513 -0.2085
  469TMC3    C6 6981   4.132   1.769  11.008  0.5458  0.3095 -0.1916
  469TMC3     C 6982   4.062   1.618  10.624  0.8580  0.2493  0.0360
  469TMC3     O 6983   4.021   1.693  10.539 -0.5056 -0.5136  1.1907
  469TMC3     H 6984   4.243   1.514  10.814 -1.5930 -1.7107  1.7698
  469TMC3    H1 6985   4.002   1.851  10.708  1.6968  0.0558 -2.3346
  469TMC3    H2 6986   4.149   1.804  11.109 -1.8883  1.3493 -0.1506
  469TMC3    C7 6987   3.958   1.930  10.956  0.3929 -0.1633 -1.2982
  469TMC3    C8 6988   4.238   1.557  11.058  0.3115  0.4108 -0.1014
  469TMC3    O1 6989   3.882   1.980  10.875  0.4115  0.2333  0.1708
  469TMC3    O2 6990   4.322   1.473  11.017  0.6751 -0.1221 -0.2429
  470TMC3    C1 6991   1.473   2.494   0.922 -0.0801 -0.0679  0.8492
  470TMC3    C2 6992   1.356   2.562   0.892  0.5415 -0.2823 -0.3718
  470TMC3    C3 6993   1.346   2.694   0.925 -0.6330 -0.6538 -0.0460
  470TMC3    C4 6994   1.586   2.551   0.981  0.3968  0.0280 -0.0393
  470TMC3    C5 6995   1.573   2.684   1.012  0.0477 -0.1011  0.4679
  470TMC3    C6 6996   1.457   2.759   0.983 -0.0632  0.0097 -0.0000
  470TMC3     C 6997   1.499   2.373   0.848  0.0648 -0.2800 -0.5259
  470TMC3     O 6998   1.559   2.287   0.913  0.0085 -0.1425  0.7756
  470TMC3     H 6999   1.272   2.498   0.865 -0.2974  0.2285  1.0131
  470TMC3    H1 7000   1.676   2.498   1.007 -0.3740 -0.6070  1.3090
  470TMC3    H2 7001   1.451   2.863   1.012 -0.4404 -0.1882  0.6480
  470TMC3    C7 7002   1.633   2.741   1.122  0.2319 -0.2310 -0.2735
  470TMC3    C8 7003   1.222   2.765   0.932  0.0172  0.3106 -0.0875
  470TMC3    O1 7004   1.647   2.863   1.119 -0.3287  1.3198  0.1053
  470TMC3    O2 7005   1.236   2.875   0.977 -0.3412 -0.4632 -0.2440
  471MPD2     C 7006   1.600   3.987  17.029 -0.3197  0.1233 -0.0857
  471MPD2    C1 7007   1.540   3.895  16.946  0.0431  0.3115  0.6641
  471MPD2    C2 7008   1.577   3.762  16.956 -0.3206 -0.1936 -0.7861
  471MPD2    C3 7009   1.668   3.719  17.051 -0.4298  0.7902 -0.4307
  471MPD2    C4 7010   1.723   3.806  17.142  0.3508  0.8897  0.2002
  471MPD2    C5 7011   1.701   3.944  17.122  0.4941 -0.4025 -0.5369
  471MPD2     H 7012   1.518   3.693  16.897 -1.1184 -1.3192  1.3373
  471MPD2    H1 7013   1.786   3.764  17.220 -1.1567 -0.4913  0.6745
  471MPD2    H2 7014   1.579   4.093  17.022 -1.7664 -0.2070 -0.8349
  471MPD2    H3 7015   1.744   4.015  17.191 -1.1073  0.5777 -0.5376
  471MPD2     N 7016   1.705   3.584  17.065 -0.5014  0.2042 -0.4770
  471MPD2    H5 7017   1.755   3.558  17.149 -1.9550 -0.7063  0.1077
  471MPD2    N1 7018   1.423   3.926  16.872 -0.1367  0.3354  0.0575
  471MPD2    H7 7019   1.375   3.840  16.847  0.0636  0.9139 -2.3124
  472TMC3    C1 7020   1.240   4.047  16.830  0.4381 -0.7473  0.4692
  472TMC3    C2 7021   1.181   4.070  16.712  0.0439 -0.8197 -0.3530
  472TMC3    C3 7022   1.076   3.998  16.668  0.3997 -0.2942  0.5678
  472TMC3    C4 7023   1.191   3.941  16.907 -0.0603  0.1822  0.0579
  472TMC3    C5 7024   1.073   3.876  16.867 -0.2369  0.0136  0.4721
  472TMC3    C6 7025   1.019   3.903  16.746 -0.1646  0.2389  0.5196
  472TMC3     C 7026   1.380   4.056  16.841 -0.1836  0.2049 -0.2506
  472TMC3     O 7027   1.440   4.162  16.848 -0.5897  0.1990  0.7141
  472TMC3     H 7028   1.224   4.150  16.654  1.0240  0.5843  2.3332
  472TMC3    H1 7029   1.228   3.924  17.007  0.0149  0.1668  0.0276
  472TMC3    H2 7030   0.937   3.836  16.722 -0.4227  0.0932  1.7615
  472TMC3    C7 7031   1.054   3.743  16.925 -0.0952  0.7523 -0.2015
  472TMC3    C8 7032   1.042   4.013  16.528 -0.5460  0.7243 -0.5876
  472TMC3    O1 7033   1.141   3.709  16.999 -0.3065 -0.2693 -0.2987
  472TMC3    O2 7034   1.120   4.056  16.441  0.1609 -0.4395  0.2949
  473MPD2     C 7035   1.824   1.113  13.592  0.8277  0.3456  0.5712
  473MPD2    C1 7036   1.706   1.186  13.603 -0.6021  0.5234  0.2117
  473MPD2    C2 7037   1.702   1.277  13.707 -0.0809  0.0417 -0.0973
  473MPD2    C3 7038   1.810   1.309  13.789  0.4001 -1.0890  0.4150
  473MPD2    C4 7039   1.926   1.241  13.765 -0.3835 -0.0063  0.3751
  473MPD2    C5 7040   1.931   1.150  13.666  0.2490 -0.7086 -0.7497
  473MPD2     H 7041   1.605   1.323  13.722 -0.4014 -0.6925  0.0982
  473MPD2    H1 7042   2.018   1.256  13.820  0.9980  0.5335 -2.0613
  473MPD2    H2 7043   1.838   1.031  13.522  2.9067  0.7363  0.5331
  473MPD2    H3 7044   2.025   1.099  13.646  0.9182  0.1270  0.2624
  473MPD2     N 7045   1.812   1.402  13.889 -0.0722  0.1088 -0.1832
  473MPD2    H5 7046   1.894   1.418  13.946 -0.0451 -3.2171  0.6513
  473MPD2    N1 7047   1.589   1.160  13.527 -0.7226  0.1915  0.4536
  473MPD2    H7 7048   1.513   1.225  13.542 -1.3196 -0.3507 -0.2454
  474TMC3    C1 7049   1.714   1.541  14.063 -0.0469 -0.4296  0.6188
  474TMC3    C2 7050   1.627   1.642  14.094  0.9449  0.0085 -0.7856
  474TMC3    C3 7051   1.645   1.709  14.209 -0.4268  0.5787  0.3978
  474TMC3    C4 7052   1.809   1.502  14.157  0.3887  0.8519  0.3777
  474TMC3    C5 7053   1.829   1.575  14.270 -0.1993 -0.2109 -0.3498
  474TMC3    C6 7054   1.746   1.681  14.303 -0.7703  0.4539  0.2016
  474TMC3     C 7055   1.703   1.468  13.936  0.1978  0.3517 -0.4941
  474TMC3     O 7056   1.598   1.491  13.875 -0.0806  0.4437  0.2319
  474TMC3     H 7057   1.550   1.676  14.027 -0.4606 -0.5358  0.5399
  474TMC3    H1 7058   1.881   1.424  14.138  0.2720  0.7822  0.2166
  474TMC3    H2 7059   1.759   1.739  14.394 -0.6675  1.1249 -0.2427
  474TMC3    C7 7060   1.947   1.545  14.348  0.9304  0.0644 -0.0218
  474TMC3    C8 7061   1.545   1.806  14.242 -0.2219  0.1747 -0.1767
  474TMC3    O1 7062   2.041   1.494  14.286  0.0272  0.5362  0.7293
  474TMC3    O2 7063   1.433   1.795  14.191  0.0694  0.0189  0.2716
  475MPD2     C 7064   4.354   3.561  10.145  0.8929 -0.1159  0.1448
  475MPD2    C1 7065   4.314   3.661  10.237  0.1582  0.1149  0.4265
  475MPD2    C2 7066   4.180   3.684  10.260  0.0684  0.2130  0.2279
  475MPD2    C3 7067   4.088   3.606  10.189 -0.1795 -0.1194  0.3449
  475MPD2    C4 7068   4.122   3.511  10.099  0.3370  0.1476 -0.3545
  475MPD2    C5 7069   4.257   3.490  10.086  0.3009 -0.4020  0.2961
  475MPD2     H 7070   4.137   3.758  10.327  1.6168  1.7485 -0.4740
  475MPD2    H1 7071   4.050   3.453  10.042 -1.7938  1.9733  0.4934
  475MPD2    H2 7072   4.456   3.527  10.131  0.8081 -1.2441  2.2175
  475MPD2    H3 7073   4.293   3.406  10.027  1.1005  0.3050 -0.2112
  475MPD2     N 7074   3.950   3.649  10.204 -0.0869 -0.4383 -0.1524
  475MPD2    H5 7075   3.932   3.743  10.236 -0.6646 -0.3433 -0.7598
  475MPD2    N1 7076   4.412   3.729  10.314 -0.2774  0.0355  0.3041
  475MPD2    H7 7077   4.508   3.701  10.293 -0.8598 -2.2938  0.7080
  476TMC3    C1 7078   4.504   3.903  10.439  0.0630  0.1141  0.5735
  476TMC3    C2 7079   4.600   3.912  10.339 -0.2133 -0.7598 -0.2178
  476TMC3    C3 7080   4.661   4.034  10.306  0.8693 -0.7501  0.7341
  476TMC3    C4 7081   4.481   4.013  10.515  0.7671  0.3210  0.1303
  476TMC3    C5 7082   4.560   4.124  10.493  0.1663  0.0416  0.2377
  476TMC3    C6 7083   4.646   4.142  10.390  0.8042  0.7477 -0.5419
  476TMC3     C 7084   4.388   3.819  10.420  0.3007  0.6127  0.3871
  476TMC3     O 7085   4.281   3.856  10.467 -0.4464 -0.2836  0.4765
  476TMC3     H 7086   4.632   3.816  10.299  0.5890 -0.0594 -1.2433
  476TMC3    H1 7087   4.408   3.996  10.594  1.1231 -2.2511 -0.0875
  476TMC3    H2 7088   4.705   4.231  10.373  1.1048  0.9867  1.7946
  476TMC3    C7 7089   4.550   4.220  10.598  0.7487 -0.4818  0.0096
  476TMC3    C8 7090   4.631   4.074  10.169  0.5167 -0.1599 -0.5264
  476TMC3    O1 7091   4.488   4.200  10.699  0.4020  0.2398  0.6534
  476TMC3    O2 7092   4.597   4.190  10.160 -0.4452  0.4279  0.6735
  477MPD2     C 7093   2.416   0.773  11.190 -0.0447 -0.0271  0.1676
  477MPD2    C1 7094   2.331   0.835  11.279  0.1156  0.2378 -0.4101
  477MPD2    C2 7095   2.281   0.764  11.384 -0.0351 -0.0774  0.3482
  477MPD2    C3 7096   2.304   0.632  11.396  1.0364 -0.3628  0.2833
  477MPD2    C4 7097   2.388   0.572  11.305  0.5062  0.3847 -0.3485
  477MPD2    C5 7098   2.441   0.636  11.203 -0.0244  0.8273 -0.4829
  477MPD2     H 7099   2.223   0.811  11.463 -1.9786  0.0100 -1.1190
  477MPD2    H1 7100   2.414   0.467  11.308  2.6586  0.9638  1.2892
  477MPD2    H2 7101   2.458   0.830  11.108  1.7505 -1.1920  0.2811
  477MPD2    H3 7102   2.507   0.585  11.134  0.7431  1.5105 -0.2518
  477MPD2     N 7103   2.248   0.556  11.506  0.6063  0.0310 -0.3793
  477MPD2    H5 7104   2.273   0.457  11.509  2.2657  0.5068  1.1096
  477MPD2    N1 7105   2.299   0.970  11.255  0.1424 -0.0073 -0.6700
  477MPD2    H7 7106   2.329   1.007  11.165  1.5840  1.8437  0.5622
  478TMC3    C1 7107   2.176   1.169  11.270 -0.7660 -0.2929  0.4454
  478TMC3    C2 7108   2.106   1.264  11.346 -0.1357 -0.0115 -0.2876
  478TMC3    C3 7109   2.030   1.357  11.273  0.2520 -0.4259  0.2587
  478TMC3    C4 7110   2.177   1.184  11.132 -0.1378 -0.0462  0.2728
  478TMC3    C5 7111   2.103   1.277  11.066  0.3667 -0.6048  0.2506
  478TMC3    C6 7112   2.026   1.364  11.140 -0.0907  0.4602 -0.1756
  478TMC3     C 7113   2.240   1.061  11.342  0.2683 -0.5233  0.4031
  478TMC3     O 7114   2.211   1.048  11.460  0.7157  0.1055  0.0257
  478TMC3     H 7115   2.106   1.259  11.454 -0.4366 -1.2068 -0.3486
  478TMC3    H1 7116   2.235   1.119  11.068 -1.0732  0.5762 -1.1918
  478TMC3    H2 7117   1.961   1.437  11.091 -1.4069 -0.9032 -0.4430
  478TMC3    C7 7118   2.075   1.261  10.923 -0.9596  0.4693  0.3336
  478TMC3    C8 7119   1.938   1.441  11.352 -0.0920 -0.7619 -0.0846
  478TMC3    O1 7120   2.161   1.213  10.857  0.5136 -0.1034  0.0563
  478TMC3    O2 7121   1.862   1.511  11.291  0.3385  0.1651  0.0097
  479MPD2     C 7122   0.931   3.256  15.639  0.3856 -0.2852 -0.2720
  479MPD2    C1 7123   0.857   3.159  15.695 -0.7307  0.2011 -0.8455
  479MPD2    C2 7124   0.861   3.141  15.835  0.6701 -0.1125  0.0392
  479MPD2    C3 7125   0.909   3.241  15.917  0.0990 -0.2450 -0.0094
  479MPD2    C4 7126   0.971   3.347  15.854  0.2058 -0.0360  0.0247
  479MPD2    C5 7127   0.982   3.349  15.720 -0.1683  0.0111 -0.4539
  479MPD2     H 7128   0.830   3.047  15.878 -0.9330  0.3356 -0.1435
  479MPD2    H1 7129   1.010   3.429  15.913  2.1538 -2.6273  2.3760
  479MPD2    H2 7130   0.942   3.268  15.532  2.1778 -0.6224 -0.1333
  479MPD2    H3 7131   1.025   3.433  15.667 -0.0184 -0.0643 -0.4516
  479MPD2     N 7132   0.914   3.242  16.060 -0.3269 -0.1982 -0.0265
  479MPD2    H5 7133   0.982   3.309  16.096 -1.1242 -0.2764  1.5981
  479MPD2    N1 7134   0.786   3.074  15.610 -0.9416  0.2005  0.1521
  479MPD2    H7 7135   0.786   3.097  15.511  2.5579  0.4934  0.2301
  480TMC3    C1 7136   0.538   2.995  16.165 -0.1827  0.4722 -0.7284
  480TMC3    C2 7137   0.447   3.072  16.102  0.4247  0.4547 -0.0736
  480TMC3    C3 7138   0.501   3.169  16.023  0.9157 -0.6069 -0.0068
  480TMC3    C4 7139   0.668   3.013  16.163 -0.0160 -0.1847 -0.3556
  480TMC3    C5 7140   0.722   3.112  16.086  0.6745  0.4856  0.2070
  480TMC3    C6 7141   0.634   3.197  16.025 -0.8161  0.2906  0.3216
  480TMC3     C 7142   0.487   2.871  16.212 -0.1452  0.7090 -0.5805
  480TMC3     O 7143   0.557   2.773  16.210  0.5011 -0.4316  0.8741
  480TMC3     H 7144   0.353   3.027  16.074  1.1616 -0.2285 -1.4645
  480TMC3    H1 7145   0.732   2.935  16.205 -1.1202 -1.8134 -1.6888
  480TMC3    H2 7146   0.679   3.287  15.985 -0.6317 -0.0645 -0.2628
  480TMC3    C7 7147   0.843   3.163  16.142  0.5592  0.1552 -0.5672
  480TMC3    C8 7148   0.419   3.222  15.914 -0.0630 -0.0629  0.9100
  480TMC3    O1 7149   0.868   3.128  16.258 -0.6777 -0.2273  0.1680
  480TMC3    O2 7150   0.300   3.208  15.939  0.0366  0.0941  0.6001
  481MPD2     C 7151   3.049   2.443  14.169 -0.1526  0.7497  0.4812
  481MPD2    C1 7152   2.922   2.443  14.215 -0.0221 -0.1539  0.3062
  481MPD2    C2 7153   2.896   2.411  14.345  0.2231 -0.0306  0.2364
  481MPD2    C3 7154   2.997   2.377  14.430 -0.0169 -0.5337  0.7708
  481MPD2    C4 7155   3.127   2.372  14.377  0.9621 -0.1137 -0.3717
  481MPD2    C5 7156   3.148   2.416  14.251 -0.7544  0.1085  0.8304
  481MPD2     H 7157   2.795   2.419  14.381  0.0411 -0.7869 -0.1056
  481MPD2    H1 7158   3.214   2.353  14.439 -0.2952 -1.7653  0.9147
  481MPD2    H2 7159   3.071   2.470  14.067  0.0117  0.7116  0.5059
  481MPD2    H3 7160   3.251   2.420  14.219 -0.3034  0.6298  2.3622
  481MPD2     N 7161   2.984   2.355  14.573  0.4866  0.1698  0.0560
  481MPD2    H5 7162   3.060   2.305  14.619  0.2218  0.8858  1.2844
  481MPD2    N1 7163   2.823   2.470  14.109  0.2428 -0.0094  0.3423
  481MPD2    H7 7164   2.869   2.484  14.019 -0.4803  2.6918  0.3887
  482TMC3    C1 7165   2.620   2.551  14.004  0.0012  0.1544  0.6671
  482TMC3    C2 7166   2.482   2.574  14.007  0.1831  0.5703 -0.0621
  482TMC3    C3 7167   2.420   2.590  13.888  0.4083  0.1330 -0.5367
  482TMC3    C4 7168   2.691   2.546  13.893  0.1295  0.1834  0.2128
  482TMC3    C5 7169   2.627   2.559  13.773 -1.0152 -0.1521 -0.0432
  482TMC3    C6 7170   2.489   2.580  13.766 -0.1073 -0.5222  0.1290
  482TMC3     C 7171   2.685   2.491  14.123 -0.9197 -0.6509  0.2852
  482TMC3     O 7172   2.617   2.471  14.221 -0.0590 -0.3373  1.0510
  482TMC3     H 7173   2.427   2.562  14.100  2.6622  2.0292  1.6044
  482TMC3    H1 7174   2.799   2.545  13.897  0.2499 -3.1177 -4.4336
  482TMC3    H2 7175   2.437   2.594  13.672  1.4077 -2.1181 -0.9419
  482TMC3    C7 7176   2.722   2.516  13.663 -0.2853 -0.4614  0.2693
  482TMC3    C8 7177   2.287   2.528  13.890  0.1056 -0.2914 -0.3821
  482TMC3    O1 7178   2.841   2.500  13.694 -0.0533 -0.3047  0.1465
  482TMC3    O2 7179   2.258   2.465  13.992  0.2178  0.0208  0.3120
  483TMC3    C1 7180   4.229   0.999   1.142 -1.4678  0.5852  0.0752
  483TMC3    C2 7181   4.279   0.957   1.018 -0.0646 -0.2360  0.3573
  483TMC3    C3 7182   4.370   1.039   0.960  0.1902 -0.0155 -0.0756
  483TMC3    C4 7183   4.277   1.108   1.199  0.3725  0.1687  0.6586
  483TMC3    C5 7184   4.366   1.187   1.138  0.2299 -0.2105 -0.2276
  483TMC3    C6 7185   4.401   1.166   1.012  0.9701  0.4091 -0.1663
  483TMC3     C 7186   4.124   0.921   1.207 -0.2304 -0.6189  0.8155
  483TMC3     O 7187   4.070   0.972   1.307  0.1541  0.0616 -0.1329
  483TMC3     H 7188   4.265   0.863   0.966 -1.7578 -0.6500  1.5333
  483TMC3    H1 7189   4.249   1.138   1.300 -1.7484 -0.9921  0.4229
  483TMC3    H2 7190   4.462   1.232   0.950  1.5891 -0.4226 -0.4404
  483TMC3    C7 7191   4.482   1.214   1.222 -0.4032 -0.0876 -1.0318
  483TMC3    C8 7192   4.488   0.977   0.912 -0.6121  0.1368  0.3661
  483TMC3    O1 7193   4.491   1.149   1.326  0.1238  0.2593 -0.0806
  483TMC3    O2 7194   4.558   1.033   0.826 -0.0342 -0.3311  0.0529
  484MPD2     C 7195   2.880   4.398  12.410  1.1168 -0.2244 -0.3493
  484MPD2    C1 7196   2.937   4.320  12.501  0.2009  0.2335 -0.1161
  484MPD2    C2 7197   3.073   4.305  12.498 -0.5810 -0.4842 -0.4970
  484MPD2    C3 7198   3.151   4.381  12.405 -0.4104  0.3870 -0.5502
  484MPD2    C4 7199   3.090   4.475  12.320  0.4264 -0.1454  0.4812
  484MPD2    C5 7200   2.951   4.471  12.317 -0.4392  0.1725 -0.0408
  484MPD2     H 7201   3.119   4.231  12.563  0.1043  0.2822 -0.1225
  484MPD2    H1 7202   3.141   4.558  12.272  0.2836 -0.1356  0.3454
  484MPD2    H2 7203   2.772   4.406  12.410  1.0374 -1.4190 -2.5712
  484MPD2    H3 7204   2.896   4.547  12.262  0.4135  0.0877 -1.0300
  484MPD2     N 7205   3.290   4.382  12.391  0.1720 -0.2903 -0.1238
  484MPD2    H5 7206   3.333   4.446  12.325  1.1692  0.7651  1.5686
  484MPD2    N1 7207   2.857   4.243  12.575  0.1690  0.9408 -0.5151
  484MPD2    H7 7208   2.756   4.239  12.561  0.6704 -2.0713 -3.3575
  485TMC3    C1 7209   3.517   4.320  12.417 -0.7902  0.3994 -0.1987
  485TMC3    C2 7210   3.608   4.278  12.517  0.5333 -0.1123 -0.8093
  485TMC3    C3 7211   3.735   4.329  12.517  0.4499 -0.2250 -0.2821
  485TMC3    C4 7212   3.556   4.399  12.315  0.0178  0.0418  1.2198
  485TMC3    C5 7213   3.689   4.450  12.314 -0.9469  0.1842  0.5813
  485TMC3    C6 7214   3.768   4.421  12.417 -0.4395 -0.2506  0.7179
  485TMC3     C 7215   3.375   4.292  12.444 -0.2005  0.5443 -0.0447
  485TMC3     O 7216   3.358   4.190  12.508 -0.2209  0.0243 -0.0894
  485TMC3     H 7217   3.568   4.198  12.577 -2.7459  0.5393 -2.0991
  485TMC3    H1 7218   3.489   4.427  12.235  1.2014 -1.9366 -0.4589
  485TMC3    H2 7219   3.867   4.465  12.409 -0.4859 -0.6003 -1.7996
  485TMC3    C7 7220   3.757   4.460  12.189  0.8286 -0.4488 -0.6497
  485TMC3    C8 7221   3.845   4.251  12.551 -0.0765  0.7333  0.1753
  485TMC3    O1 7222   3.870   4.510  12.192 -0.0654  0.4456  0.3333
  485TMC3    O2 7223   3.949   4.313  12.575 -0.1947  0.6267  0.7538
  486MPD2     C 7224   1.113   3.217  12.534 -0.6369 -0.5522  0.0736
  486MPD2    C1 7225   1.000   3.138  12.541 -0.2525  0.1663  0.5357
  486MPD2    C2 7226   0.873   3.203  12.537 -0.0418  0.7669  0.4490
  486MPD2    C3 7227   0.864   3.340  12.535 -0.0582  0.1927  0.3784
  486MPD2    C4 7228   0.980   3.406  12.518 -0.4823 -0.9736 -0.2073
  486MPD2    C5 7229   1.104   3.349  12.521 -0.4861  0.9850  0.0626
  486MPD2     H 7230   0.784   3.142  12.529 -0.1810  1.2102 -1.3680
  486MPD2    H1 7231   0.979   3.513  12.501 -1.8501 -1.1504 -1.1957
  486MPD2    H2 7232   1.209   3.166  12.542  0.0104  0.5454 -0.8283
  486MPD2    H3 7233   1.189   3.413  12.504  1.8767 -1.6671  1.8909
  486MPD2     N 7234   0.733   3.399  12.534 -0.0600  0.2347 -0.1112
  486MPD2    H5 7235   0.656   3.334  12.541  0.8694 -0.9235 -0.5531
  486MPD2    N1 7236   1.025   2.999  12.558  0.1116  0.0509  0.8458
  486MPD2    H7 7237   1.121   2.967  12.552 -0.7930 -2.4300 -0.3239
  487TMC3    C1 7238   0.985   2.772  12.620  0.0551  0.1132  0.8166
  487TMC3    C2 7239   0.945   2.667  12.539  0.0709  0.5821 -0.1547
  487TMC3    C3 7240   1.015   2.553  12.555  0.6856 -0.1417 -0.0727
  487TMC3    C4 7241   1.076   2.761  12.722  0.3067  0.1019  0.8942
  487TMC3    C5 7242   1.122   2.633  12.748 -0.0343 -0.2600 -0.5483
  487TMC3    C6 7243   1.108   2.531  12.652 -0.3702  0.2530  0.0850
  487TMC3     C 7244   0.929   2.906  12.595  0.3601 -0.1633 -0.2754
  487TMC3     O 7245   0.806   2.924  12.591  0.1227 -0.4135  0.1026
  487TMC3     H 7246   0.860   2.673  12.473 -0.1582  0.0407  0.0837
  487TMC3    H1 7247   1.096   2.842  12.792  3.7832 -1.0133  1.1818
  487TMC3    H2 7248   1.156   2.435  12.668  0.1415  0.5996  0.6301
  487TMC3    C7 7249   1.119   2.602  12.887 -0.2882  0.1756  0.0806
  487TMC3    C8 7250   0.934   2.444  12.522 -0.2380 -0.2210  0.3152
  487TMC3    O1 7251   1.168   2.679  12.972 -0.2975  0.1723 -0.0823
  487TMC3    O2 7252   0.979   2.355  12.450 -0.7648 -0.2816  0.8786
  488MPD2     C 7253   0.309   0.189  16.397 -0.4898 -0.3051 -0.1785
  488MPD2    C1 7254   0.347   0.322  16.426 -0.0215  0.4187  0.4705
  488MPD2    C2 7255   0.315   0.358  16.558 -1.6330 -0.4183 -0.3478
  488MPD2    C3 7256   0.242   0.279  16.647 -0.1283  0.5068 -0.0931
  488MPD2    C4 7257   0.191   0.164  16.600  0.8777  0.1413 -0.0013
  488MPD2    C5 7258   0.220   0.120  16.475  0.0098 -0.6192 -0.6351
  488MPD2     H 7259   0.341   0.461  16.582  1.3981 -1.0753 -0.8275
  488MPD2    H1 7260   0.123   0.097  16.652 -1.3470 -0.3525 -3.5458
  488MPD2    H2 7261   0.319   0.161  16.293 -0.0988  0.9966 -0.4947
  488MPD2    H3 7262   0.188   0.025  16.435  0.4660 -1.4355  0.9233
  488MPD2     N 7263   0.215   0.323  16.780 -0.1976 -0.7251 -0.0892
  488MPD2    H5 7264   0.257   0.411  16.808 -0.4799 -0.5631 -0.1742
  488MPD2    N1 7265   0.410   0.415  16.342  0.2160 -0.0064 -0.4481
  488MPD2    H7 7266   0.408   0.513  16.368 -0.8289 -0.4119  0.9991
  489TMC3    C1 7267   0.178   0.304  16.996  0.1909 -0.2499 -0.6011
  489TMC3    C2 7268   0.137   0.437  17.000  0.3047 -0.1488  0.3538
  489TMC3    C3 7269   0.125   0.488  17.127 -0.6568 -0.0531  0.0384
  489TMC3    C4 7270   0.209   0.236  17.104 -0.6027 -0.2092 -0.1014
  489TMC3    C5 7271   0.189   0.289  17.227 -0.1950  0.4336  0.0321
  489TMC3    C6 7272   0.142   0.414  17.242 -0.6124 -0.0637 -0.3125
  489TMC3     C 7273   0.170   0.236  16.873  0.2352 -0.2227 -0.2821
  489TMC3     O 7274   0.140   0.118  16.868  0.1135 -0.1441 -0.2906
  489TMC3     H 7275   0.103   0.486  16.910  1.1945 -0.6344 -0.2566
  489TMC3    H1 7276   0.227   0.130  17.092 -0.1965 -0.3715  1.8777
  489TMC3    H2 7277   0.158   0.459  17.339  0.6707 -1.0002 -0.0827
  489TMC3    C7 7278   0.263   0.238  17.329 -0.3651 -0.2163 -0.0032
  489TMC3    C8 7279   0.110   0.626  17.142 -0.1280  0.3060 -0.9420
  489TMC3    O1 7280   0.215   0.258  17.437  0.0235  0.0454  0.2018
  489TMC3    O2 7281   0.082   0.674  17.254 -0.0329  0.4120  0.0613
  490MPD2     C 7282   1.492   4.208  17.385  0.1308  0.1609  0.0242
  490MPD2    C1 7283   1.500   4.209  17.524 -0.5597  0.0589  0.9263
  490MPD2    C2 7284   1.483   4.331  17.589  0.4729  0.2024  0.0864
  490MPD2    C3 7285   1.449   4.443  17.521 -0.2570 -0.2137 -0.1172
  490MPD2    C4 7286   1.423   4.441  17.388 -0.7854  0.2299 -0.2597
  490MPD2    C5 7287   1.452   4.326  17.322 -0.2876  0.9408 -0.1790
  490MPD2     H 7288   1.493   4.328   0.017  1.4979 -0.1461 -0.0188
  490MPD2    H1 7289   1.388   4.533  17.343 -2.1264  0.7528  1.8248
  490MPD2    H2 7290   1.500   4.116  17.329 -0.7857 -0.4361  0.8885
  490MPD2    H3 7291   1.457   4.320  17.213  0.0824  2.2926 -0.2335
  490MPD2     N 7292   1.452   4.568  17.576 -0.4184 -0.0340  0.2288
  490MPD2    H5 7293   1.438   4.652  17.520  0.7662  0.9336  1.3959
  490MPD2    N1 7294   1.537   4.089  17.598  0.1273 -0.4098  0.1883
  490MPD2    H7 7295   1.543   4.103   0.018 -2.2407  0.6273  0.1991
  491TMC3    C1 7296   1.618   3.869  17.644 -0.2461 -0.2297  0.5106
  491TMC3    C2 7297   1.600   3.889   0.098  0.2682 -0.1542 -0.7582
  491TMC3    C3 7298   1.589   3.783   0.182  0.4311 -0.0576 -0.0157
  491TMC3    C4 7299   1.639   3.742  17.596  0.6395  0.3215  0.2385
  491TMC3    C5 7300   1.623   3.625  17.678 -0.0139 -0.3800 -0.1747
  491TMC3    C6 7301   1.594   3.652   0.133 -0.7583 -0.2323 -0.3516
  491TMC3     C 7302   1.574   3.967  17.547  0.5370  0.7968  0.2097
  491TMC3     O 7303   1.580   3.927  17.431 -0.3585 -0.1691  0.2824
  491TMC3     H 7304   1.575   3.987   0.137  1.2219 -0.4152  0.4828
  491TMC3    H1 7305   1.665   3.727  17.491  3.5578  0.0782  0.9966
  491TMC3    H2 7306   1.571   3.572   0.203 -1.8650 -1.5563 -2.2238
  491TMC3    C7 7307   1.539   3.526  17.614  0.1774  0.2508 -0.2861
  491TMC3    C8 7308   1.501   3.806   0.300 -0.1538  0.2915 -1.0502
  491TMC3    O1 7309   1.507   3.540  17.496 -0.4621 -0.2038  0.0172
  491TMC3    O2 7310   1.430   3.716   0.335  0.1330 -0.3364 -0.8618
  492MPD2     C 7311   1.968   4.490  11.546  0.3064 -0.2702  0.4693
  492MPD2    C1 7312   1.867   4.449  11.466  0.0690  0.2870 -1.4482
  492MPD2    C2 7313   1.774   4.370  11.528  0.2536  0.4747  0.0894
  492MPD2    C3 7314   1.775   4.339  11.663  0.0258  0.2036  0.1545
  492MPD2    C4 7315   1.872   4.389  11.743 -0.0483 -0.5196 -0.3428
  492MPD2    C5 7316   1.965   4.463  11.680 -0.2896 -0.3607  0.0473
  492MPD2     H 7317   1.685   4.348  11.471 -0.3770  1.3979  0.7261
  492MPD2    H1 7318   1.881   4.373  11.850  2.6773 -0.1426 -0.5035
  492MPD2    H2 7319   2.050   4.543  11.499  1.1360 -2.3370 -0.4108
  492MPD2    H3 7320   2.048   4.507  11.736 -0.6705  0.8067 -0.3157
  492MPD2     N 7321   1.670   4.257  11.722  0.5762  0.5705  0.2683
  492MPD2    H5 7322   1.669   4.258  11.823  0.4358 -2.4950  0.2771
  492MPD2    N1 7323   1.855   4.487  11.330 -0.2046 -0.9880  0.6143
  492MPD2    H7 7324   1.936   4.534  11.290  1.0967  1.0277  5.5928
  493TMC3    C1 7325   1.773   4.496  11.103 -0.9325  0.4040 -0.3228
  493TMC3    C2 7326   1.786   4.626  11.082  0.4089 -0.5392  0.2956
  493TMC3    C3 7327   1.744   4.675  10.961 -0.1275  0.1965 -0.4552
  493TMC3    C4 7328   1.737   4.410  11.002 -1.2193 -0.3460  0.1872
  493TMC3    C5 7329   1.695   4.458  10.875 -0.2427 -0.9407 -0.3861
  493TMC3    C6 7330   1.698   4.593  10.853 -0.1705  0.7466  0.0906
  493TMC3     C 7331   1.754   4.444  11.238 -0.2628 -0.6846 -0.2163
  493TMC3     O 7332   1.678   4.352  11.254  0.0853  0.3074 -0.5578
  493TMC3     H 7333   1.804   4.693  11.166 -1.6880  0.8487 -0.3495
  493TMC3    H1 7334   1.719   4.306  11.029 -3.6539  0.0488  0.0710
  493TMC3    H2 7335   1.665   4.633  10.758  0.4028 -0.2576 -0.5302
  493TMC3    C7 7336   1.649   4.370  10.767 -0.1939 -0.3614 -0.7256
  493TMC3    C8 7337   1.773   0.097  10.942 -0.0447 -0.1203  0.1457
  493TMC3    O1 7338   1.594   4.422  10.671  0.5759  0.0553  0.1246
  493TMC3    O2 7339   1.814   0.164  11.038 -0.2941 -0.1207 -0.3627
  494TMC3    C1 7340   1.908   1.539   0.537 -0.4793  0.1907 -0.3064
  494TMC3    C2 7341   1.959   1.448   0.619  0.7606 -0.2582 -1.0051
  494TMC3    C3 7342   2.086   1.463   0.665  0.2856  0.1752 -0.2473
  494TMC3    C4 7343   1.977   1.656   0.503 -0.5559 -0.3339 -0.5362
  494TMC3    C5 7344   2.105   1.667   0.549 -0.7295  0.2452 -0.2259
  494TMC3    C6 7345   2.161   1.575   0.630  1.0153  0.3189 -0.6427
  494TMC3     C 7346   1.765   1.531   0.511  0.0998  0.4386 -0.2230
  494TMC3     O 7347   1.703   1.450   0.580 -0.7449 -0.1434  0.1423
  494TMC3     H 7348   1.904   1.358   0.643  0.2409 -0.3330 -2.4423
  494TMC3    H1 7349   1.927   1.740   0.457 -2.5872 -1.2620 -0.0465
  494TMC3    H2 7350   2.252   1.602   0.683  0.0070  1.3569  0.5577
  494TMC3    C7 7351   2.178   1.787   0.516 -0.6189  0.5058  0.0426
  494TMC3    C8 7352   2.140   1.360   0.749 -0.0868  0.3057 -0.2909
  494TMC3    O1 7353   2.247   1.843   0.604  0.4404  0.1712 -0.9389
  494TMC3    O2 7354   2.264   1.343   0.750  0.5659 -0.4617 -0.7058
  495TMC3    C1 7355   0.920   3.307  15.050  0.0701 -0.1396 -0.6199
  495TMC3    C2 7356   0.852   3.347  14.930 -0.0801  0.7471 -0.0654
  495TMC3    C3 7357   0.715   3.354  14.936  0.4520  0.2748 -0.5981
  495TMC3    C4 7358   0.855   3.285  15.165 -0.0408 -0.0431  0.6507
  495TMC3    C5 7359   0.716   3.302  15.174  0.1236  0.6012 -1.1536
  495TMC3    C6 7360   0.647   3.346  15.061 -0.3078  0.4959  0.2407
  495TMC3     C 7361   0.995   3.190  15.010  0.5172  0.1767  0.2014
  495TMC3     O 7362   0.951   3.079  15.047 -0.9156  0.5746 -0.9158
  495TMC3     H 7363   0.898   3.344  14.832 -0.0369  0.3278 -0.0317
  495TMC3    H1 7364   0.911   3.243  15.248 -1.6615  1.3917  2.4960
  495TMC3    H2 7365   0.542   3.319  15.051  0.0372 -0.3443 -1.2089
  495TMC3    C7 7366   0.655   3.280  15.302  0.5465 -0.0231  0.6666
  495TMC3    C8 7367   0.655   3.251  14.854 -0.0364 -0.5246  0.1352
  495TMC3    O1 7368   0.729   3.244  15.395  0.0041  0.1376 -0.1772
  495TMC3    O2 7369   0.548   3.268  14.796 -0.2551 -0.2005 -0.0710
  496MPD2     C 7370   3.168   3.124  15.781  0.0104  0.0865 -0.2124
  496MPD2    C1 7371   3.117   3.106  15.657 -0.5351 -0.2017  0.0029
  496MPD2    C2 7372   3.019   3.184  15.608 -0.1796  0.8687 -0.4120
  496MPD2    C3 7373   2.966   3.288  15.676 -0.6884  0.4863  0.2580
  496MPD2    C4 7374   3.016   3.308  15.799  1.2248 -0.4297  0.2471
  496MPD2    C5 7375   3.106   3.217  15.855 -0.3984  0.1578 -0.2308
  496MPD2     H 7376   2.975   3.150  15.515  1.0435  1.0999 -1.0819
  496MPD2    H1 7377   2.986   3.393  15.860  1.8733 -1.1390  1.5640
  496MPD2    H2 7378   3.244   3.057  15.819  0.7808 -0.1481 -2.1867
  496MPD2    H3 7379   3.147   3.248  15.950 -2.9632 -1.3033  1.3558
  496MPD2     N 7380   2.861   3.364  15.618 -0.8975 -0.2167  0.6741
  496MPD2    H5 7381   2.824   3.328  15.531  3.7372  0.9766 -1.8366
  496MPD2    N1 7382   3.181   3.006  15.581  0.0388  0.3431 -1.0768
  496MPD2    H7 7383   3.241   2.945  15.637  0.7270  0.6709 -1.4595
  497TMC3    C1 7384   2.664   3.500  15.631  0.3069 -0.2550 -0.2545
  497TMC3    C2 7385   2.614   3.432  15.522 -0.6698 -0.2940  0.3355
  497TMC3    C3 7386   2.481   3.401  15.533  0.2092  0.6378  0.4302
  497TMC3    C4 7387   2.585   3.527  15.739  0.3398 -0.4054  0.4469
  497TMC3    C5 7388   2.457   3.489  15.748 -0.0265 -0.3740  0.0423
  497TMC3    C6 7389   2.403   3.421  15.641 -0.0895 -0.3044 -1.3438
  497TMC3     C 7390   2.799   3.470  15.678  0.6750 -0.0495  0.3012
  497TMC3     O 7391   2.857   3.540  15.761  0.7703  0.2240 -0.3002
  497TMC3     H 7392   2.672   3.431  15.431 -1.3019  0.1140 -0.0632
  497TMC3    H1 7393   2.636   3.589  15.812 -3.2573  2.2494  0.7358
  497TMC3    H2 7394   2.306   3.374  15.641  0.2221 -0.9344  2.5217
  497TMC3    C7 7395   2.422   3.423  15.871  0.2371  0.4887  0.2390
  497TMC3    C8 7396   2.426   3.314  15.428 -0.2082  0.0675  0.2149
  497TMC3    O1 7397   2.348   3.324  15.858 -0.0052 -0.8219  0.6259
  497TMC3    O2 7398   2.328   3.241  15.447  0.1534  0.6469 -0.3867
  498MPD2     C 7399   3.526   3.663   9.704 -0.6856  0.0055 -0.5933
  498MPD2    C1 7400   3.646   3.588   9.696 -0.2545 -0.2983  0.0810
  498MPD2    C2 7401   3.661   3.476   9.780 -0.4543  0.3473 -0.1684
  498MPD2    C3 7402   3.554   3.431   9.855  0.1920 -0.8765 -0.5794
  498MPD2    C4 7403   3.437   3.498   9.849  0.6164 -0.4040 -0.5108
  498MPD2    C5 7404   3.428   3.614   9.786  0.3477  0.1560  0.2137
  498MPD2     H 7405   3.753   3.417   9.778 -2.1157 -2.2100 -0.9159
  498MPD2    H1 7406   3.347   3.464   9.899  0.3334 -1.9834 -2.0769
  498MPD2    H2 7407   3.509   3.756   9.651 -0.5016  1.9036  2.7124
  498MPD2    H3 7408   3.332   3.663   9.783  0.1803 -0.0826  1.9353
  498MPD2     N 7409   3.575   3.311   9.934  0.4103  0.1740  0.2168
  498MPD2    H5 7410   3.669   3.277   9.947 -0.0888 -1.5076 -0.5723
  498MPD2    N1 7411   3.745   3.623   9.601 -0.2078 -0.1933  0.0113
  498MPD2    H7 7412   3.837   3.582   9.603 -0.1403 -0.0690 -0.6297
  499TMC3    C1 7413   3.878   3.746   9.445 -0.5501  0.1090 -0.3479
  499TMC3    C2 7414   3.959   3.643   9.397 -0.8443 -0.4441  0.5490
  499TMC3    C3 7415   4.069   3.680   9.331  0.6973 -0.6601  0.3385
  499TMC3    C4 7416   3.927   3.877   9.448  0.2711  0.1485  0.0358
  499TMC3    C5 7417   4.044   3.897   9.381  0.0269 -0.1959 -0.3804
  499TMC3    C6 7418   4.115   3.802   9.322 -0.4102  0.7748  0.0956
  499TMC3     C 7419   3.749   3.731   9.518 -0.5246  0.3709 -0.0211
  499TMC3     O 7420   3.662   3.816   9.496  0.0319  0.5219 -0.0354
  499TMC3     H 7421   3.920   3.542   9.392  1.1497 -1.2863  2.1207
  499TMC3    H1 7422   3.870   3.956   9.495  0.2781 -0.1948  0.6221
  499TMC3    H2 7423   4.213   3.837   9.289 -0.4789 -0.4114 -1.3882
  499TMC3    C7 7424   4.092   4.029   9.381  0.5827 -0.3835  0.0456
  499TMC3    C8 7425   4.170   3.578   9.307  0.1908  0.0931  0.2216
  499TMC3    O1 7426   4.150   4.069   9.279 -0.1564  0.6216  0.6023
  499TMC3    O2 7427   4.151   3.461   9.350 -0.2320 -0.2757  0.1436
  500MPD2     C 7428   0.532   0.808  10.316  1.0726  0.5907 -0.0398
  500MPD2    C1 7429   0.584   0.883  10.213 -0.4287 -0.9724  0.2718
  500MPD2    C2 7430   0.505   0.913  10.104  0.3007 -0.8880  0.3379
  500MPD2    C3 7431   0.381   0.846  10.100 -0.7603 -0.4083 -0.6752
  500MPD2    C4 7432   0.331   0.791  10.208  0.5231  0.1193 -0.5447
  500MPD2    C5 7433   0.406   0.781  10.317  0.2677 -0.0248 -0.4016
  500MPD2     H 7434   0.543   0.964  10.016 -0.1021 -0.9414  0.1320
  500MPD2    H1 7435   0.235   0.742  10.216  0.5851  0.2518  0.8852
  500MPD2    H2 7436   0.592   0.779  10.402  0.6339 -0.3069 -0.0378
  500MPD2    H3 7437   0.363   0.731  10.403  0.1156 -0.3526 -0.6672
  500MPD2     N 7438   0.317   0.825   9.980 -0.0661  0.1588  0.0261
  500MPD2    H5 7439   0.227   0.778   9.980 -0.1034  0.2196 -1.4689
  500MPD2    N1 7440   0.719   0.929  10.204  0.0103 -0.0759 -0.1458
  500MPD2    H7 7441   0.745   0.971  10.116 -1.1446 -0.3536 -0.6189
  501TMC3    C1 7442   0.951   0.904  10.233 -0.2896 -0.1853  0.2648
  501TMC3    C2 7443   0.977   1.002  10.142 -0.5840  0.3897 -0.1226
  501TMC3    C3 7444   1.099   1.019  10.086 -0.0688  0.5404  0.0586
  501TMC3    C4 7445   1.045   0.805  10.258 -0.4361  0.2844  0.4697
  501TMC3    C5 7446   1.171   0.818  10.198  0.2192 -0.3819 -0.4678
  501TMC3    C6 7447   1.200   0.932  10.124 -0.2617  0.7004  0.1228
  501TMC3     C 7448   0.816   0.874  10.283 -0.1281  0.0469  0.1060
  501TMC3     O 7449   0.805   0.802  10.382 -0.4698 -0.1062  0.2188
  501TMC3     H 7450   0.908   1.086  10.142 -0.6208  0.3513  1.9382
  501TMC3    H1 7451   1.028   0.725  10.329 -0.0116 -0.6744 -0.4955
  501TMC3    H2 7452   1.298   0.953  10.084 -0.0541 -0.9133 -0.2260
  501TMC3    C7 7453   1.278   0.787  10.289  0.3151 -0.4160 -0.0466
  501TMC3    C8 7454   1.163   1.152  10.100  0.0963 -0.2245  0.2317
  501TMC3    O1 7455   1.263   0.682  10.351  0.8334  0.8287  0.4973
  501TMC3    O2 7456   1.272   1.157  10.159 -0.4408  0.3313 -0.4917
  502TMC3    C1 7457   0.392   4.382  15.747  0.2710  0.0535 -0.1414
  502TMC3    C2 7458   0.354   4.471  15.654  0.1125  0.2091  0.2227
  502TMC3    C3 7459   0.257   4.432  15.563  0.1394  0.1165  0.6060
  502TMC3    C4 7460   0.331   4.262  15.760 -0.0228  0.0830 -0.4620
  502TMC3    C5 7461   0.231   4.228  15.679 -0.5423 -0.1968  0.2085
  502TMC3    C6 7462   0.191   4.314  15.571 -0.1519 -0.1338  0.5238
  502TMC3     C 7463   0.491   4.419  15.846 -0.5966  0.0627 -0.0962
  502TMC3     O 7464   0.558   4.519  15.821  0.7711  0.7450 -0.3139
  502TMC3     H 7465   0.410   4.562  15.636 -1.3185  0.9132 -0.6544
  502TMC3    H1 7466   0.380   4.191  15.825 -2.0558  0.9366  1.9892
  502TMC3    H2 7467   0.126   4.280  15.490  0.6678 -2.4713  0.8422
  502TMC3    C7 7468   0.154   4.107  15.700 -0.2189 -0.0796 -0.0161
  502TMC3    C8 7469   0.248   4.515  15.452  0.4160 -0.4702  0.5804
  502TMC3    O1 7470   0.168   4.048  15.806  0.6236  0.9224 -0.2342
  502TMC3    O2 7471   0.341   4.589  15.423  0.5923  0.4382 -0.3033
  503MPD2     C 7472   2.357   0.768  16.705 -0.2572  0.5490 -0.3425
  503MPD2    C1 7473   2.280   0.754  16.818  0.5095 -0.3055 -0.2351
  503MPD2    C2 7474   2.280   0.628  16.875  0.4592 -0.5930  0.5227
  503MPD2    C3 7475   2.324   0.518  16.809 -0.3387  0.4826 -0.2750
  503MPD2    C4 7476   2.381   0.544  16.682 -0.4501 -0.1552 -0.3576
  503MPD2    C5 7477   2.409   0.666  16.632  0.0150  0.4821 -0.1785
  503MPD2     H 7478   2.231   0.617  16.972  1.3536  1.8953  1.2569
  503MPD2    H1 7479   2.417   0.461  16.622 -2.3563  0.6174 -2.5629
  503MPD2    H2 7480   2.390   0.865  16.668 -1.3637  0.2950 -1.9931
  503MPD2    H3 7481   2.460   0.672  16.536 -1.6412  1.1128 -1.0196
  503MPD2     N 7482   2.309   0.386  16.862 -0.9327  0.1908  0.0638
  503MPD2    H5 7483   2.264   0.367  16.951 -0.7642 -1.5054 -0.2186
  503MPD2    N1 7484   2.210   0.861  16.885 -0.8544 -0.1636  0.5801
  503MPD2    H7 7485   2.155   0.838  16.968 -1.3927  1.0927  0.5663
  504TMC3    C1 7486   2.342   0.158  16.892 -0.2178  0.0871  0.0947
  504TMC3    C2 7487   2.326   0.177  17.023 -0.8251 -0.4116  0.2908
  504TMC3    C3 7488   2.384   0.090  17.115  0.7211  0.3943  0.5578
  504TMC3    C4 7489   2.404   0.042  16.849 -1.0322  0.3954  0.1769
  504TMC3    C5 7490   2.462   4.675  16.938  0.4001  0.2413 -0.3528
  504TMC3    C6 7491   2.459   4.702  17.072  0.1250 -1.0527 -0.2592
  504TMC3     C 7492   2.333   0.270  16.797  0.0648  0.7085 -0.2274
  504TMC3     O 7493   2.355   0.246  16.678 -0.1941  0.4555 -0.0484
  504TMC3     H 7494   2.286   0.265  17.072  1.1302  1.1676 -0.9756
  504TMC3    H1 7495   2.415   0.024  16.743 -0.8810  2.0080 -0.0757
  504TMC3    H2 7496   2.513   4.643  17.146 -2.1880 -2.3483  0.4188
  504TMC3    C7 7497   2.556   4.576  16.889 -0.1372 -0.0069 -0.3337
  504TMC3    C8 7498   2.355   0.111  17.254  0.6059 -0.0484 -0.2638
  504TMC3    O1 7499   2.611   4.608  16.784  0.2062  0.0857 -0.0072
  504TMC3    O2 7500   2.301   0.213  17.285  0.2300  0.2543  0.6212
  505MPD2     C 7501   2.915   2.801  11.055 -0.0288 -0.0967 -0.3532
  505MPD2    C1 7502   3.043   2.756  11.060 -0.4257  0.0561 -0.0062
  505MPD2    C2 7503   3.151   2.840  11.075 -0.3903 -0.7635  0.1758
  505MPD2    C3 7504   3.126   2.974  11.105  0.4904 -0.2892  0.2522
  505MPD2    C4 7505   2.991   3.020  11.100  0.1618 -0.2891  0.0348
  505MPD2    C5 7506   2.888   2.931  11.091  1.2091 -0.8432  0.0465
  505MPD2     H 7507   3.253   2.805  11.069 -0.0506  0.4539 -1.2100
  505MPD2    H1 7508   2.959   3.123  11.113 -0.4284 -0.4076 -0.5073
  505MPD2    H2 7509   2.838   2.726  11.042  0.1114 -0.2473 -0.3302
  505MPD2    H3 7510   2.787   2.969  11.089  1.4248 -0.3875 -2.4829
  505MPD2     N 7511   3.232   3.061  11.138  0.1634 -0.0837  0.0424
  505MPD2    H5 7512   3.211   3.159  11.148  1.1326  0.3232 -1.7652
  505MPD2    N1 7513   3.057   2.626  11.013  0.5870  0.2382  0.8449
  505MPD2    H7 7514   2.973   2.589  10.970  0.5437 -0.3125  1.4132
  506TMC3    C1 7515   3.160   2.424  10.977  0.6444 -0.0248 -0.0528
  506TMC3    C2 7516   3.112   2.406  10.844 -0.2361 -0.0151  0.1643
  506TMC3    C3 7517   3.187   2.326  10.761 -0.1024 -0.1443  0.3855
  506TMC3    C4 7518   3.268   2.356  11.011 -0.8857  0.7199  0.5021
  506TMC3    C5 7519   3.347   2.294  10.917  0.6882 -0.6882 -0.5282
  506TMC3    C6 7520   3.310   2.275  10.786 -0.4008  0.9778  0.3714
  506TMC3     C 7521   3.160   2.549  11.045  0.1406  0.8892 -0.8278
  506TMC3     O 7522   3.260   2.577  11.109  0.5097 -0.3635 -0.3271
  506TMC3     H 7523   3.046   2.479  10.798 -0.8316 -0.2959  0.5714
  506TMC3    H1 7524   3.300   2.356  11.114  1.5757 -0.3622 -0.2636
  506TMC3    H2 7525   3.375   2.230  10.712  0.8430  2.8089  0.3428
  506TMC3    C7 7526   3.490   2.330  10.930 -0.6033  0.1101 -0.2931
  506TMC3    C8 7527   3.168   2.338  10.616  0.3247 -0.6141 -0.4669
  506TMC3    O1 7528   3.568   2.269  10.861 -0.3089  0.3358  0.1156
  506TMC3    O2 7529   3.088   2.262  10.566 -0.4724  0.2926 -0.0438
  507TMC3    C1 7530   3.840   4.445  14.548 -1.0953  1.3995  0.3028
  507TMC3    C2 7531   3.801   4.326  14.494  0.0171 -0.0375  0.3873
  507TMC3    C3 7532   3.793   4.321  14.361 -0.2015  0.3916 -0.1968
  507TMC3    C4 7533   3.850   4.559  14.475  0.0005 -0.8103 -0.2555
  507TMC3    C5 7534   3.838   4.553  14.342  0.2713  0.1030  0.1806
  507TMC3    C6 7535   3.813   4.435  14.282  0.0480  0.4885 -0.1790
  507TMC3     C 7536   3.864   4.453  14.687  0.1188 -0.8706  0.3892
  507TMC3     O 7537   3.881   4.562  14.741  0.6256  0.1289  0.2634
  507TMC3     H 7538   3.790   4.236  14.554 -0.7523 -0.1456  0.0932
  507TMC3    H1 7539   3.877   4.654  14.520 -2.9621 -1.0392  1.9485
  507TMC3    H2 7540   3.822   4.432  14.174  3.1212 -1.9581  0.1475
  507TMC3    C7 7541   3.728   4.643  14.298 -0.5392 -0.5188 -0.0339
  507TMC3    C8 7542   3.690   4.231  14.313 -0.1434  0.4376  0.0077
  507TMC3    O1 7543   3.641   4.581  14.239  0.0950 -0.6120 -0.1369
  507TMC3    O2 7544   3.672   4.118  14.358 -0.7207 -0.4506  0.1176
  508MPD2     C 7545   3.801   1.786  16.127  0.1657  0.2544  0.1366
  508MPD2    C1 7546   3.935   1.776  16.161 -0.5987 -0.4228 -0.4110
  508MPD2    C2 7547   4.036   1.790  16.059  0.0903 -0.5284 -1.0196
  508MPD2    C3 7548   3.994   1.798  15.931  0.5273 -0.3002 -0.1287
  508MPD2    C4 7549   3.856   1.796  15.898  0.1225 -0.2385 -0.1775
  508MPD2    C5 7550   3.762   1.792  16.001  0.5524  0.1915  0.3372
  508MPD2     H 7551   4.141   1.808  16.077 -0.3371  1.8499 -0.8696
  508MPD2    H1 7552   3.806   1.803  15.802  0.7241 -0.0810 -0.4836
  508MPD2    H2 7553   3.728   1.786  16.207  0.1660  2.2060  0.1224
  508MPD2    H3 7554   3.663   1.825  15.971  0.7341  0.2660 -0.1797
  508MPD2     N 7555   4.094   1.817  15.843  0.2219  0.4202  0.1289
  508MPD2    H5 7556   4.181   1.821  15.894  0.9033 -0.5454 -0.9738
  508MPD2    N1 7557   3.961   1.756  16.297 -0.1872  0.7076 -0.3990
  508MPD2    H7 7558   3.876   1.742  16.352  0.4822  1.0950  0.7196
  509TMC3    C1 7559   4.230   2.077  15.487 -0.4549 -0.5412  0.7272
  509TMC3    C2 7560   4.307   2.156  15.572  0.1806 -0.4216  0.3762
  509TMC3    C3 7561   4.323   2.109  15.700 -0.8032 -0.3674 -0.3631
  509TMC3    C4 7562   4.165   1.966  15.535 -0.3006  0.4819  0.4742
  509TMC3    C5 7563   4.174   1.939  15.673  0.7821 -0.0609 -0.0252
  509TMC3    C6 7564   4.256   2.007  15.754 -0.2976  0.1327 -0.4094
  509TMC3     C 7565   4.171   2.134  15.362 -0.2609 -0.2176  1.1250
  509TMC3     O 7566   4.105   2.057  15.299 -0.5313 -0.1446  0.5034
  509TMC3     H 7567   4.367   2.235  15.529 -0.2491 -0.5063 -0.3819
  509TMC3    H1 7568   4.103   1.905  15.469  2.0782 -0.0614 -1.2554
  509TMC3    H2 7569   4.268   1.982  15.859  1.6525 -2.4082 -1.2450
  509TMC3    C7 7570   4.075   1.851  15.718  0.7910  0.6530 -0.2010
  509TMC3    C8 7571   4.413   2.171  15.795  0.0403  0.4080 -0.3929
  509TMC3    O1 7572   3.975   1.847  15.650  0.2110 -0.2428  0.7430
  509TMC3    O2 7573   4.481   2.095  15.870 -0.3289  0.0381  0.5704
  510MPD2     C 7574   2.480   3.732  14.418  0.5262  0.6362  0.2729
  510MPD2    C1 7575   2.512   3.657  14.525 -0.2265 -0.2576  0.1831
  510MPD2    C2 7576   2.636   3.587  14.534  0.1381 -0.1927  0.0014
  510MPD2    C3 7577   2.714   3.589  14.423 -0.2326 -1.2709 -0.2859
  510MPD2    C4 7578   2.676   3.667  14.318 -0.3863 -0.1932  0.1357
  510MPD2    C5 7579   2.561   3.738  14.316  0.3822 -0.4381 -0.0123
  510MPD2     H 7580   2.664   3.523  14.616  1.6772  1.1985  0.5641
  510MPD2    H1 7581   2.733   3.668  14.227 -0.0432 -1.7265  0.3270
  510MPD2    H2 7582   2.409   3.814  14.418 -0.8075 -0.5208 -1.2962
  510MPD2    H3 7583   2.549   3.812  14.238  1.3736 -0.8024 -0.5158
  510MPD2     N 7584   2.832   3.512  14.423  0.3493  0.2049 -0.3746
  510MPD2    H5 7585   2.862   3.476  14.513 -2.5920  0.3339  0.6389
  510MPD2    N1 7586   2.414   3.651  14.626  0.6195 -0.7666  0.1161
  510MPD2    H7 7587   2.323   3.687  14.597  0.6338 -0.2946  0.6567
  511TMC3    C1 7588   2.305   3.600  14.824  0.0099 -0.9908 -0.2696
  511TMC3    C2 7589   2.318   3.617  14.955 -0.2162  0.0250  0.5202
  511TMC3    C3 7590   2.256   3.530  15.035  0.3648 -0.2262 -0.1822
  511TMC3    C4 7591   2.238   3.488  14.772 -0.7753  0.0452 -0.3163
  511TMC3    C5 7592   2.175   3.398  14.856  0.2717  0.5135 -0.4853
  511TMC3    C6 7593   2.174   3.425  14.989  0.0658 -0.1763 -0.0242
  511TMC3     C 7594   2.428   3.617  14.758 -0.7502  0.4335  0.5601
  511TMC3     O 7595   2.531   3.592  14.820 -0.3419 -0.3104  0.0566
  511TMC3     H 7596   2.382   3.695  14.995  1.1927 -1.3409  0.8927
  511TMC3    H1 7597   2.241   3.472  14.665 -2.8268  0.1339 -0.3784
  511TMC3    H2 7598   2.120   3.358  15.056 -0.4384 -1.5898 -1.8501
  511TMC3    C7 7599   2.156   3.265  14.805  0.9743  0.4851  0.1037
  511TMC3    C8 7600   2.244   3.585  15.168  0.1358 -0.7688 -0.4922
  511TMC3    O1 7601   2.188   3.245  14.689 -0.8959 -0.4270 -0.6669
  511TMC3    O2 7602   2.286   3.696  15.196  0.6032  0.4160  0.2411
  512TMC3    C1 7603   1.286   2.964  13.191  1.0212  0.4593 -0.3944
  512TMC3    C2 7604   1.357   2.930  13.303  0.3778 -0.8645 -0.5421
  512TMC3    C3 7605   1.473   2.858  13.285  0.1142 -0.2217  0.1743
  512TMC3    C4 7606   1.335   2.952  13.063  0.4752  0.3534 -0.4463
  512TMC3    C5 7607   1.453   2.881  13.049 -0.1406 -0.3397 -0.1152
  512TMC3    C6 7608   1.528   2.835  13.156  0.5597  0.5933  0.3733
  512TMC3     C 7609   1.139   2.950  13.200  0.2491  0.5718 -0.5084
  512TMC3     O 7610   1.103   2.909  13.312  0.6945  0.4754  0.5392
  512TMC3     H 7611   1.311   2.942  13.400  0.1322  0.3677 -0.8124
  512TMC3    H1 7612   1.295   2.987  12.968  0.0903 -0.5561 -0.6230
  512TMC3    H2 7613   1.618   2.774  13.159  1.8096  2.4338 -0.0736
  512TMC3    C7 7614   1.470   2.831  12.913  0.5680  0.2298  0.4344
  512TMC3    C8 7615   1.541   2.788  13.395  0.2273 -0.0222  0.1917
  512TMC3    O1 7616   1.433   2.890  12.814  0.2071 -0.0586 -0.0053
  512TMC3    O2 7617   1.588   2.677  13.372  0.2236  0.5270  0.4892
  513MPD2     C 7618   2.808   3.132  12.671  0.0388  0.7360 -0.0236
  513MPD2    C1 7619   2.797   2.997  12.669 -0.2800 -0.2610 -0.1562
  513MPD2    C2 7620   2.748   2.934  12.781 -0.4500  0.0855  0.7172
  513MPD2    C3 7621   2.719   3.001  12.900 -0.3191  0.1483  0.5002
  513MPD2    C4 7622   2.732   3.138  12.900 -0.0103 -0.6593 -0.3396
  513MPD2    C5 7623   2.768   3.213  12.786 -0.0206  0.0626 -0.4612
  513MPD2     H 7624   2.728   2.828  12.787 -0.7048  0.1507  1.0448
  513MPD2    H1 7625   2.707   3.195  12.988 -0.5125  0.7788 -1.4125
  513MPD2    H2 7626   2.841   3.185  12.582 -1.9271 -0.3239 -1.3953
  513MPD2    H3 7627   2.780   3.321  12.793 -0.5405  0.0914 -0.0179
  513MPD2     N 7628   2.688   2.929  13.017  0.1716 -0.2798  0.1137
  513MPD2    H5 7629   2.701   2.829  13.012 -2.6653 -0.8886  5.4301
  513MPD2    N1 7630   2.833   2.930  12.556  0.0655 -0.3286 -0.1495
  513MPD2    H7 7631   2.866   2.985  12.477 -0.7868  0.9462  0.3828
  514TMC3    C1 7632   2.933   2.750  12.434 -0.2237 -0.7195 -0.2175
  514TMC3    C2 7633   3.058   2.817  12.435 -0.5508  0.8309  0.1458
  514TMC3    C3 7634   3.170   2.738  12.449  0.3179 -0.1588 -0.0012
  514TMC3    C4 7635   2.928   2.614  12.434  0.2462 -0.0368 -0.5957
  514TMC3    C5 7636   3.043   2.543  12.454  0.0641  0.1101 -0.5560
  514TMC3    C6 7637   3.163   2.602  12.460  0.3694  0.0022  0.0907
  514TMC3     C 7638   2.846   2.792  12.543  0.2861 -0.6429  0.3869
  514TMC3     O 7639   2.832   2.704  12.628 -0.2794 -0.0551 -0.2464
  514TMC3     H 7640   3.068   2.917  12.475 -0.2699  1.3102 -1.1301
  514TMC3    H1 7641   2.831   2.566  12.434  0.4475 -0.4488  0.6378
  514TMC3    H2 7642   3.247   2.537  12.482  0.8937  0.6781  0.0617
  514TMC3    C7 7643   3.035   2.433  12.541 -0.2115 -0.4222  0.1242
  514TMC3    C8 7644   3.304   2.798  12.466 -0.8565 -0.0719 -0.4108
  514TMC3    O1 7645   3.124   2.352  12.553  0.1325  0.2681  0.6241
  514TMC3    O2 7646   3.390   2.726  12.512 -0.8145  0.7185 -0.1007
  515MPD2     C 7647   0.611   4.588  15.172 -0.3050  0.2229 -0.1346
  515MPD2    C1 7648   0.663   4.553  15.051  0.0415  0.1890  0.3378
  515MPD2    C2 7649   0.767   4.626  15.002 -0.4856 -0.6284 -0.0276
  515MPD2    C3 7650   0.824   0.005  15.076 -0.4023  0.2407 -0.0057
  515MPD2    C4 7651   0.776   0.030  15.199 -0.0583  0.2968 -0.4948
  515MPD2    C5 7652   0.676   4.677  15.249  0.2455  0.3312  0.2340
  515MPD2     H 7653   0.811   4.614  14.904 -0.8914 -3.2872  0.1292
  515MPD2    H1 7654   0.821   0.103  15.265  1.1558 -2.6750  2.0044
  515MPD2    H2 7655   0.520   4.546  15.215  0.0984  1.2941  1.7850
  515MPD2    H3 7656   0.631   4.706  15.343 -0.3930  1.8376 -0.5252
  515MPD2     N 7657   0.941   0.073  15.039 -0.2150  0.1951 -0.0730
  515MPD2    H5 7658   0.970   0.138  15.111  0.2848  0.3064 -0.3766
  515MPD2    N1 7659   0.605   4.447  14.982 -0.5435  0.1620 -0.1766
  515MPD2    H7 7660   0.647   4.428  14.892 -0.6920  2.6962 -0.7925
  516TMC3    C1 7661   0.477   4.258  14.925  0.2067 -0.6147  0.1639
  516TMC3    C2 7662   0.532   4.271  14.798 -0.2462 -0.0208  0.1043
  516TMC3    C3 7663   0.544   4.151  14.730 -0.0210 -0.2913 -0.0346
  516TMC3    C4 7664   0.456   4.137  14.981  0.7859  0.4185 -0.1469
  516TMC3    C5 7665   0.461   4.026  14.905  0.4360  0.4835 -0.2675
  516TMC3    C6 7666   0.506   4.029  14.777 -0.5180 -0.0394 -0.1562
  516TMC3     C 7667   0.499   4.366  15.021  0.0542 -0.1347  0.4776
  516TMC3     O 7668   0.429   4.370  15.120  0.0798  0.2035 -0.1172
  516TMC3     H 7669   0.540   4.367  14.748 -3.0992  0.7326  1.1212
  516TMC3    H1 7670   0.422   4.120  15.083 -1.6524  1.0654 -0.8531
  516TMC3    H2 7671   0.522   3.938  14.721  0.8915 -0.1218  0.3908
  516TMC3    C7 7672   0.473   3.906  14.979 -0.1920  0.3206 -0.1524
  516TMC3    C8 7673   0.584   4.159  14.591  0.5509 -0.0344  0.4257
  516TMC3    O1 7674   0.390   3.882  15.067  0.0460  0.2430 -0.3560
  516TMC3    O2 7675   0.546   4.067  14.521 -0.5612  0.6436 -0.3714
  517MPD2     C 7676   0.218   0.620   0.097  0.0776 -0.1739  0.0205
  517MPD2    C1 7677   0.276   0.744   0.085 -0.9707  0.7785  0.0283
  517MPD2    C2 7678   0.334   0.801   0.200  0.0545 -0.0772 -0.1254
  517MPD2    C3 7679   0.346   0.733   0.315  0.1818  0.4515 -0.9016
  517MPD2    C4 7680   0.294   0.603   0.315  0.0496  0.7731 -0.2034
  517MPD2    C5 7681   0.231   0.551   0.208 -0.0770 -0.4677 -0.3103
  517MPD2     H 7682   0.371   0.902   0.189 -2.3396  0.7443 -0.4713
  517MPD2    H1 7683   0.296   0.535   0.400  0.7657 -0.2918 -1.0787
  517MPD2    H2 7684   0.165   0.580   0.011 -0.5988 -0.2140  0.4512
  517MPD2    H3 7685   0.192   0.449   0.211 -1.5905  0.1469  0.9208
  517MPD2     N 7686   0.409   0.788   0.432 -0.0484  0.4508  0.3596
  517MPD2    H5 7687   0.412   0.725   0.511 -0.9226 -2.0845 -1.6318
  517MPD2    N1 7688   0.267   0.805  17.638  0.1790 -0.0875  0.8855
  517MPD2    H7 7689   0.219   0.752  17.566  1.2443 -0.3871  0.3928
  518TMC3    C1 7690   0.330   0.924  17.451 -0.3591  0.0616  0.3950
  518TMC3    C2 7691   0.333   0.807  17.386  0.5767  0.2770  0.3420
  518TMC3    C3 7692   0.407   0.798  17.266 -0.1482  0.6209  0.0677
  518TMC3    C4 7693   0.388   1.041  17.401  0.4875 -0.3312 -0.1068
  518TMC3    C5 7694   0.457   1.030  17.285 -0.4328 -0.0969 -0.4741
  518TMC3    C6 7695   0.460   0.912  17.216  0.1243 -0.4414  0.4132
  518TMC3     C 7696   0.320   0.918  17.597  0.3654 -0.0494 -0.5291
  518TMC3     O 7697   0.385   1.002  17.653 -0.9408 -0.3942 -0.3705
  518TMC3     H 7698   0.293   0.712  17.420 -1.6401  1.9054  2.2354
  518TMC3    H1 7699   0.411   1.133  17.453  1.0037 -1.1387  1.1035
  518TMC3    H2 7700   0.511   0.909  17.121  0.3851 -1.2654  0.5798
  518TMC3    C7 7701   0.560   1.123  17.271 -0.4917  0.0119 -0.1753
  518TMC3    C8 7702   0.481   0.674  17.244 -0.2814  0.3921 -0.7947
  518TMC3    O1 7703   0.540   1.242  17.301  0.3292 -0.1376  0.2117
  518TMC3    O2 7704   0.515   0.642  17.128  0.5354 -1.2350 -0.1670
  519MPD2     C 7705   2.540   4.552  14.515  0.4934 -0.2238 -0.3341
  519MPD2    C1 7706   2.482   4.536  14.394 -0.4268 -0.1303  0.2136
  519MPD2    C2 7707   2.520   4.424  14.321  0.7422  0.4990 -0.0957
  519MPD2    C3 7708   2.618   4.335  14.375 -1.0360 -0.7043  0.3416
  519MPD2    C4 7709   2.675   4.356  14.499 -0.6847 -0.0698 -0.0184
  519MPD2    C5 7710   2.635   4.465  14.568 -0.1748 -0.7550  0.1850
  519MPD2     H 7711   2.474   4.407  14.224 -1.1445  0.5093  0.8119
  519MPD2    H1 7712   2.764   4.309  14.538 -0.0601  0.0244 -1.3110
  519MPD2    H2 7713   2.504   4.640  14.567  1.8273  0.5102 -0.6557
  519MPD2    H3 7714   2.685   4.490  14.661  1.6694 -0.9452 -0.7638
  519MPD2     N 7715   2.651   4.217  14.299 -0.3418 -0.4059  0.3685
  519MPD2    H5 7716   2.725   4.155  14.330  0.8452  0.3899 -0.8807
  519MPD2    N1 7717   2.381   4.623  14.353 -0.1733  0.3724 -0.0059
  519MPD2    H7 7718   2.357   4.694  14.422 -0.6534  0.4345 -0.2371
  520TMC3    C1 7719   2.643   4.052  14.135  0.4001  1.1573 -0.1396
  520TMC3    C2 7720   2.573   4.014  14.022  0.6632  0.1098  0.3397
  520TMC3    C3 7721   2.643   3.966  13.918 -0.9137  0.2824  0.0337
  520TMC3    C4 7722   2.779   4.034  14.144 -0.4555 -0.5186  0.4928
  520TMC3    C5 7723   2.841   3.990  14.033  0.7979 -0.6989 -0.5019
  520TMC3    C6 7724   2.783   3.954  13.919  0.9273  0.7235  0.1962
  520TMC3     C 7725   2.594   4.180  14.179 -0.0323 -0.2465  0.4439
  520TMC3     O 7726   2.510   4.227  14.105  0.0444 -1.0283 -0.1502
  520TMC3     H 7727   2.470   4.043  14.005  0.9239  0.6485 -0.2948
  520TMC3    H1 7728   2.833   4.064  14.233  1.9534  0.2598 -1.2431
  520TMC3    H2 7729   2.837   3.933  13.828 -0.1882 -1.1942 -0.0312
  520TMC3    C7 7730   2.975   3.935  14.051 -1.0969 -0.1312 -0.1768
  520TMC3    C8 7731   2.588   3.974  13.776 -0.5492 -0.0625  0.0351
  520TMC3    O1 7732   2.996   3.905  14.171 -0.1434 -0.3675  0.1354
  520TMC3    O2 7733   2.677   3.980  13.693 -0.3456 -0.0472 -0.2540
  521MPD2     C 7734   3.619   2.824  17.436 -0.3938 -0.4333 -0.0201
  521MPD2    C1 7735   3.546   2.752  17.340  0.2859 -0.1736 -0.1200
  521MPD2    C2 7736   3.577   2.772  17.206  0.6210  0.1400 -0.0345
  521MPD2    C3 7737   3.672   2.868  17.167 -0.3438  0.8291  0.1177
  521MPD2    C4 7738   3.739   2.945  17.264 -0.6220  0.2309  0.5482
  521MPD2    C5 7739   3.712   2.916  17.396 -0.4242  0.9241 -0.1525
  521MPD2     H 7740   3.525   2.713  17.131  2.2829  1.3668 -2.1275
  521MPD2    H1 7741   3.808   3.026  17.243  0.5589 -0.9751 -0.2461
  521MPD2    H2 7742   3.596   2.813  17.542 -0.7353  1.1021  0.0646
  521MPD2    H3 7743   3.771   2.974  17.466  0.2981  0.1121 -0.0815
  521MPD2     N 7744   3.685   2.884  17.025  0.4426 -0.1967 -0.2093
  521MPD2    H5 7745   3.633   2.817  16.969 -1.0455  1.7174 -1.0973
  521MPD2    N1 7746   3.446   2.663  17.380  0.1800  0.2276  0.6517
  521MPD2    H7 7747   3.440   2.649  17.480 -0.3100 -1.1646  0.4224
  522TMC3    C1 7748   3.764   2.953  16.822 -0.7621 -0.4676  0.2652
  522TMC3    C2 7749   3.881   2.903  16.777  0.2459  0.5618  0.5467
  522TMC3    C3 7750   3.876   2.795  16.688 -0.5344 -0.3095  0.3175
  522TMC3    C4 7751   3.640   2.907  16.770  0.1080 -0.5627  0.3789
  522TMC3    C5 7752   3.645   2.799  16.690  0.2068 -0.0642  0.3730
  522TMC3    C6 7753   3.759   2.739  16.651  0.1820 -0.4263  0.1460
  522TMC3     C 7754   3.766   2.976  16.958 -0.5256 -0.1476 -0.7786
  522TMC3     O 7755   3.862   3.035  17.002 -0.4801 -0.2354 -0.0728
  522TMC3     H 7756   3.969   2.936  16.831  1.7512 -1.0049 -0.9538
  522TMC3    H1 7757   3.550   2.940  16.821  0.4171  0.8495 -0.0082
  522TMC3    H2 7758   3.765   2.655  16.582 -2.7553  0.0078 -0.6425
  522TMC3    C7 7759   3.538   2.695  16.716  0.5911  0.1366 -0.1861
  522TMC3    C8 7760   4.006   2.719  16.685 -0.0017  0.4364  0.2858
  522TMC3    O1 7761   3.518   2.686  16.836 -0.0086 -0.3675  0.7600
  522TMC3    O2 7762   4.108   2.786  16.692  0.4681  0.4480 -0.0733
  523MPD2     C 7763   1.760   2.516  10.062 -0.1107 -0.4373 -0.1314
  523MPD2    C1 7764   1.667   2.453   9.988 -1.0340  0.3973 -0.4185
  523MPD2    C2 7765   1.589   2.531   9.913  0.1080 -0.6863  0.3440
  523MPD2    C3 7766   1.608   2.669   9.905 -0.1133  0.1618 -0.1322
  523MPD2    C4 7767   1.699   2.734   9.985  0.4667 -0.6193 -0.1722
  523MPD2    C5 7768   1.786   2.650  10.046  0.5385 -0.1300 -0.5235
  523MPD2     H 7769   1.515   2.491   9.844  0.0352 -0.6894  0.4243
  523MPD2    H1 7770   1.720   2.840   9.982 -2.3872 -0.0416  0.8174
  523MPD2    H2 7771   1.826   2.462  10.129  1.9513  4.2045  1.5731
  523MPD2    H3 7772   1.867   2.691  10.106 -0.7402 -1.0900  1.8728
  523MPD2     N 7773   1.509   2.745   9.827  0.2505 -0.6156 -0.5033
  523MPD2    H5 7774   1.438   2.684   9.787  0.8674 -0.2645 -2.1386
  523MPD2    N1 7775   1.645   2.317  10.013 -0.1156  0.2495  0.7445
  523MPD2    H7 7776   1.711   2.276  10.078 -2.5554 -2.8498  1.2740
  524TMC3    C1 7777   1.410   2.940   9.728 -0.1948 -0.3580  0.1417
  524TMC3    C2 7778   1.381   2.876   9.612 -0.1602  0.4487  0.0196
  524TMC3    C3 7779   1.261   2.908   9.554 -0.3055 -0.7195  0.1383
  524TMC3    C4 7780   1.337   3.050   9.769 -0.2347 -0.5199 -0.2142
  524TMC3    C5 7781   1.226   3.084   9.699  0.0708  0.9714  0.2562
  524TMC3    C6 7782   1.181   3.004   9.595 -0.5526 -0.3556 -0.8418
  524TMC3     C 7783   1.501   2.886   9.825 -0.2011  0.2060 -0.1588
  524TMC3     O 7784   1.521   2.958   9.922  0.0970  0.3774 -0.3317
  524TMC3     H 7785   1.415   2.776   9.587  3.5394  1.5554  0.7518
  524TMC3    H1 7786   1.371   3.096   9.861 -1.5949  2.2252 -1.0635
  524TMC3    H2 7787   1.083   3.008   9.547 -1.0079 -1.7668 -0.0522
  524TMC3    C7 7788   1.140   3.189   9.756  0.2130 -0.5853 -0.1023
  524TMC3    C8 7789   1.197   2.830   9.449 -0.3324 -0.2198 -0.3560
  524TMC3    O1 7790   1.174   3.224   9.868 -0.0287 -0.4185 -0.4488
  524TMC3    O2 7791   1.079   2.802   9.448  0.6595  0.2815 -0.4941
  525MPD2     C 7792   3.901   3.689  14.374 -0.1595 -0.0633  0.0178
  525MPD2    C1 7793   4.023   3.706  14.435  0.6251  0.8057 -0.0679
  525MPD2    C2 7794   4.102   3.802  14.373  0.2994  0.3279 -0.0168
  525MPD2    C3 7795   4.051   3.889  14.283  0.1182 -0.5532 -0.0933
  525MPD2    C4 7796   3.919   3.886  14.249  0.1373 -0.0682 -0.5248
  525MPD2    C5 7797   3.848   3.778  14.293  0.3983  0.3963  0.1728
  525MPD2     H 7798   4.198   3.825  14.419 -0.1134  0.3217  0.8542
  525MPD2    H1 7799   3.871   3.957  14.182  2.7111  1.4952 -0.7523
  525MPD2    H2 7800   3.841   3.609  14.417 -1.4646  0.3733 -1.0135
  525MPD2    H3 7801   3.748   3.763  14.254  1.3015  1.7727 -2.6779
  525MPD2     N 7802   4.131   3.998  14.240 -0.3709  0.0733 -0.2566
  525MPD2    H5 7803   4.082   4.071  14.191 -1.0352 -0.3174 -0.1731
  525MPD2    N1 7804   4.078   3.632  14.538 -0.5364  1.0629 -0.5793
  525MPD2    H7 7805   4.163   3.672  14.575 -0.1557  0.3349 -0.6867
  526TMC3    C1 7806   4.099   3.495  14.735  0.5233 -0.0318 -0.2501
  526TMC3    C2 7807   4.027   3.454  14.836  0.3357  0.4504 -0.9321
  526TMC3    C3 7808   4.104   3.430  14.951  0.5442 -0.2095  0.3226
  526TMC3    C4 7809   4.239   3.495  14.730 -0.4718  0.5359 -0.6043
  526TMC3    C5 7810   4.304   3.470  14.849  0.4312  0.7494  0.2103
  526TMC3    C6 7811   4.240   3.433  14.958 -0.3369 -0.3990 -0.9873
  526TMC3     C 7812   4.019   3.533  14.616 -0.4464 -0.3245 -0.2504
  526TMC3     O 7813   3.902   3.490  14.618  0.0310  0.1124  0.4386
  526TMC3     H 7814   3.921   3.435  14.827  0.0253  2.0559 -0.7763
  526TMC3    H1 7815   4.292   3.516  14.638  3.0329 -2.5501  0.6704
  526TMC3    H2 7816   4.288   3.417  15.054 -2.0890  1.5974  0.2345
  526TMC3    C7 7817   4.449   3.457  14.846 -0.8452  0.7553  0.2859
  526TMC3    C8 7818   4.028   3.424  15.073 -0.0569 -0.0701 -0.3906
  526TMC3    O1 7819   4.516   3.488  14.944 -0.9317 -0.4431  0.3144
  526TMC3    O2 7820   4.075   3.471  15.175 -0.2768  0.0502  0.6757
  527MPD2     C 7821   1.525   1.693   0.914  0.0261 -0.0889  0.5943
  527MPD2    C1 7822   1.534   1.766   1.031 -0.2325  0.3264  0.5220
  527MPD2    C2 7823   1.648   1.831   1.061  0.3205  0.2581  0.1038
  527MPD2    C3 7824   1.761   1.831   0.969  0.2789 -0.1753 -0.0613
  527MPD2    C4 7825   1.741   1.773   0.844  0.1488  0.5366 -0.3497
  527MPD2    C5 7826   1.628   1.691   0.827 -0.2047  0.2032 -0.0698
  527MPD2     H 7827   1.650   1.892   1.151 -0.8380 -1.5759  1.3627
  527MPD2    H1 7828   1.820   1.757   0.772  0.2090  0.0123 -0.1610
  527MPD2    H2 7829   1.441   1.635   0.878  0.1684  0.4363 -0.5789
  527MPD2    H3 7830   1.609   1.633   0.737 -5.8546  1.4087  0.3352
  527MPD2     N 7831   1.878   1.885   1.010  0.0975 -0.0087  0.0789
  527MPD2    H5 7832   1.870   1.934   1.098 -0.5777  1.1022 -0.5923
  527MPD2    N1 7833   1.431   1.764   1.135 -0.1719 -0.1955  0.5022
  527MPD2    H7 7834   1.456   1.813   1.220  0.0222  1.4817 -0.5184
  528TMC3    C1 7835   1.222   1.683   1.228  0.4950  0.4976  0.1079
  528TMC3    C2 7836   1.268   1.698   1.355 -0.0935 -0.1412  1.1197
  528TMC3    C3 7837   1.170   1.680   1.452  0.4343 -0.6123  0.2497
  528TMC3    C4 7838   1.100   1.648   1.194  0.3800  0.3310  0.0304
  528TMC3    C5 7839   1.008   1.641   1.293 -0.2482 -0.6879 -0.2069
  528TMC3    C6 7840   1.039   1.660   1.422  0.4429 -0.2827  0.3898
  528TMC3     C 7841   1.318   1.684   1.121  0.9644  0.5705  0.6370
  528TMC3     O 7842   1.288   1.604   1.033 -0.0411 -0.4033  0.7914
  528TMC3     H 7843   1.373   1.708   1.382  0.2809 -0.1422 -0.3411
  528TMC3    H1 7844   1.080   1.625   1.090 -0.2548  1.5346 -0.1135
  528TMC3    H2 7845   0.968   1.643   1.502 -2.1858  0.3412 -1.7995
  528TMC3    C7 7846   0.866   1.630   1.273  0.1757  0.4605  0.1516
  528TMC3    C8 7847   1.208   1.677   1.591  0.8886 -0.8525 -0.2562
  528TMC3    O1 7848   0.796   1.584   1.364  0.6335  0.0525 -0.3815
  528TMC3    O2 7849   1.136   1.612   1.665 -0.0994  0.8583  0.4637
  529MPD2     C 7850   0.097   4.593   0.836 -0.4898  0.2669  0.7002
  529MPD2    C1 7851   4.679   4.608   0.829  0.1416  0.1667 -0.2561
  529MPD2    C2 7852   4.628   4.694   0.730  0.6290 -0.5583 -0.0244
  529MPD2    C3 7853   4.717   0.045   0.647 -0.5054  0.1910 -0.2278
  529MPD2    C4 7854   0.132   0.019   0.651 -0.3424 -0.0689  0.4343
  529MPD2    C5 7855   0.176   4.639   0.734 -0.4579  0.3628  0.1519
  529MPD2     H 7856   4.527   0.014   0.731  0.6082 -0.5700 -0.9181
  529MPD2    H1 7857   0.198   0.061   0.576 -1.4708 -0.1826 -0.6314
  529MPD2    H2 7858   0.147   4.531   0.909  0.6954  0.5567  0.1323
  529MPD2    H3 7859   0.284   4.626   0.737 -0.3863  0.8241 -0.7436
  529MPD2     N 7860   4.683   0.154   0.562 -0.3699  0.0449 -0.1652
  529MPD2    H5 7861   0.033   0.214   0.517 -1.3581  0.2133 -1.4633
  529MPD2    N1 7862   4.585   4.551   0.911 -0.2386 -0.1222 -0.1698
  529MPD2    H7 7863   4.489   4.573   0.890 -0.3629 -0.2799  0.2458
  530TMC3    C1 7864   4.502   4.420   1.084 -0.0019 -0.4752 -0.2726
  530TMC3    C2 7865   4.525   4.362   1.206 -0.1834 -0.1649  0.3749
  530TMC3    C3 7866   4.419   4.304   1.272 -0.8600  0.1217  0.2816
  530TMC3    C4 7867   4.378   4.415   1.022 -0.1910  0.1898 -0.3898
  530TMC3    C5 7868   4.281   4.340   1.085  0.0115  0.1515  0.8270
  530TMC3    C6 7869   4.298   4.290   1.210 -0.5242 -0.0261 -0.3037
  530TMC3     C 7870   4.616   4.461   1.014  0.3266 -0.9033  0.9485
  530TMC3     O 7871   0.005   4.434   1.066 -0.2856 -0.6078  0.1802
  530TMC3     H 7872   4.618   4.391   1.253  0.2828 -2.2842  0.7610
  530TMC3    H1 7873   4.357   4.474   0.933 -1.1734  1.9520  1.0060
  530TMC3    H2 7874   4.221   4.243   1.272 -0.7784  1.5113  0.5332
  530TMC3    C7 7875   4.149   4.372   1.035  0.8987 -0.1470 -0.2192
  530TMC3    C8 7876   4.434   4.252   1.407  0.2440 -0.9624  0.4296
  530TMC3    O1 7877   4.142   4.357   0.914  0.1224 -0.0485 -0.4436
  530TMC3    O2 7878   4.331   4.240   1.475 -0.5619  0.2695  0.0820
  531MPD2     C 7879   2.821   2.236  12.975 -0.4278 -0.0885 -0.2898
  531MPD2    C1 7880   2.791   2.370  12.961  0.7437  0.5048 -0.6168
  531MPD2    C2 7881   2.825   2.445  12.848  0.3343  0.1079 -0.7551
  531MPD2    C3 7882   2.899   2.382  12.747  0.0279  0.1612 -0.6342
  531MPD2    C4 7883   2.923   2.249  12.759  0.1114 -0.6294 -0.2155
  531MPD2    C5 7884   2.877   2.171  12.867 -0.0453  0.0998  0.0835
  531MPD2     H 7885   2.833   2.554  12.849 -1.1237  0.1880  3.6814
  531MPD2    H1 7886   2.977   2.190  12.685  1.2826 -0.0144  0.1442
  531MPD2    H2 7887   2.800   2.169  13.057 -0.3027 -0.1970 -0.3462
  531MPD2    H3 7888   2.876   2.062  12.864  0.4192  0.1151 -0.5823
  531MPD2     N 7889   2.946   2.462  12.640 -0.5350 -0.8453 -0.2368
  531MPD2    H5 7890   2.900   2.552  12.642  0.5640 -0.2731 -1.1665
  531MPD2    N1 7891   2.746   2.435  13.072 -0.0221  0.0031 -0.3565
  531MPD2    H7 7892   2.767   2.395  13.163 -0.7669 -2.5734 -1.2947
  532TMC3    C1 7893   2.696   2.629  13.200  0.4558  0.1654 -0.9062
  532TMC3    C2 7894   2.633   2.752  13.184 -0.6050 -0.2525 -0.2410
  532TMC3    C3 7895   2.687   2.866  13.234  0.0997 -0.0851 -0.3051
  532TMC3    C4 7896   2.820   2.629  13.249  0.1818 -0.3307  0.0780
  532TMC3    C5 7897   2.879   2.746  13.290 -0.1841 -0.6592 -0.2365
  532TMC3    C6 7898   2.814   2.866  13.286  0.2579 -0.0930 -0.2213
  532TMC3     C 7899   2.692   2.563  13.069 -0.3078 -0.4228 -0.3106
  532TMC3     O 7900   2.659   2.633  12.974  0.8713 -0.7647 -0.0439
  532TMC3     H 7901   2.540   2.749  13.127 -0.3360 -0.5958 -0.6607
  532TMC3    H1 7902   2.877   2.538  13.262 -0.8112 -1.0462 -0.5552
  532TMC3    H2 7903   2.868   2.960  13.288 -1.9075  1.1289  0.4876
  532TMC3    C7 7904   3.004   2.734  13.366  0.2847  0.2930 -0.1681
  532TMC3    C8 7905   2.661   2.981  13.143 -0.3433  0.1535 -0.5781
  532TMC3    O1 7906   3.013   2.807  13.461 -0.4667  0.6763  0.5702
  532TMC3    O2 7907   2.664   3.093  13.192  0.3570 -0.3263  0.1109
  533TMC3    C1 7908   4.307   4.162  14.250 -0.2004  0.1683  0.2323
  533TMC3    C2 7909   4.440   4.189  14.284  0.6536 -0.6353 -0.7816
  533TMC3    C3 7910   4.472   4.315  14.317  0.2975  0.3942  0.4420
  533TMC3    C4 7911   4.219   4.270  14.242 -0.1013  0.8537 -0.3524
  533TMC3    C5 7912   4.249   4.391  14.289  0.1992 -0.0014  0.3109
  533TMC3    C6 7913   4.382   4.413  14.308 -0.0556  0.3309 -0.0285
  533TMC3     C 7914   4.263   4.023  14.269 -0.1153 -0.1779  0.1130
  533TMC3     O 7915   4.348   3.940  14.299 -0.8300 -0.0809 -0.2982
  533TMC3     H 7916   4.511   4.108  14.298 -1.1907 -1.6502  2.7224
  533TMC3    H1 7917   4.118   4.246  14.211 -0.1537 -1.5098  1.6762
  533TMC3    H2 7918   4.413   4.509  14.349  1.8542 -0.0639 -0.5472
  533TMC3    C7 7919   4.174   4.401  14.417 -0.9652  0.5754 -0.1808
  533TMC3    C8 7920   4.614   4.354  14.311  0.4403  0.3324 -0.4738
  533TMC3    O1 7921   4.111   4.303  14.442  0.4936 -0.2782 -0.7316
  533TMC3    O2 7922   4.700   4.266  14.326  0.0534 -0.0084 -0.3238
  534MPD2     C 7923   1.677   0.949   2.010 -0.0347  0.4706 -0.2199
  534MPD2    C1 7924   1.615   0.952   1.885  0.0905 -0.3792 -0.0580
  534MPD2    C2 7925   1.544   0.845   1.849 -1.2379  0.5261 -0.5520
  534MPD2    C3 7926   1.535   0.731   1.926 -0.4117  0.2864 -0.0334
  534MPD2    C4 7927   1.596   0.728   2.047  0.6483  0.1243  0.3870
  534MPD2    C5 7928   1.667   0.837   2.087  0.6898  0.3796  0.3279
  534MPD2     H 7929   1.491   0.848   1.754 -0.2702  1.0335 -1.0830
  534MPD2    H1 7930   1.584   0.640   2.109 -0.4966  1.1094  1.5722
  534MPD2    H2 7931   1.742   1.028   2.046  0.7335 -0.7213  1.0009
  534MPD2    H3 7932   1.721   0.822   2.180  1.1880 -2.2106 -0.3758
  534MPD2     N 7933   1.462   0.624   1.871  0.7574 -0.9494  0.0454
  534MPD2    H5 7934   1.458   0.636   1.771 -0.0880  2.2214  0.4637
  534MPD2    N1 7935   1.624   1.060   1.796  0.5192 -0.1993  0.8260
  534MPD2    H7 7936   1.572   1.057   1.708  1.2057 -0.2512  0.4235
  535TMC3    C1 7937   1.338   0.440   1.856 -0.0663 -0.2504 -0.1346
  535TMC3    C2 7938   1.207   0.441   1.894  0.1956 -0.6491  0.1417
  535TMC3    C3 7939   1.114   0.442   1.796 -0.4902 -0.1667 -0.1626
  535TMC3    C4 7940   1.365   0.444   1.719 -0.0014  0.3732  0.6463
  535TMC3    C5 7941   1.267   0.450   1.625 -0.2717 -0.0366 -0.2668
  535TMC3    C6 7942   1.137   0.447   1.661  0.0211 -0.6094 -0.3912
  535TMC3     C 7943   1.425   0.512   1.940  1.2690 -0.2825  0.0836
  535TMC3     O 7944   1.415   0.484   2.056 -0.1879  0.0629  0.3331
  535TMC3     H 7945   1.181   0.426   1.999 -3.0399  0.3042 -0.5247
  535TMC3    H1 7946   1.467   0.449   1.683  0.2926 -1.1389  1.2419
  535TMC3    H2 7947   1.058   0.453   1.587  0.9114 -1.6632 -1.4156
  535TMC3    C7 7948   1.300   0.526   1.508 -0.4156  0.0388  0.3238
  535TMC3    C8 7949   0.978   0.417   1.824  0.2358  0.1739 -0.7237
  535TMC3    O1 7950   1.415   0.515   1.463  0.5963 -0.4458  0.1921
  535TMC3    O2 7951   0.907   0.359   1.741  0.0039  0.0143 -0.4891
  536MPD2     C 7952   0.931   4.029  17.158 -0.3418 -0.2842 -0.4664
  536MPD2    C1 7953   0.826   3.938  17.150 -0.3226 -1.0503 -0.4526
  536MPD2    C2 7954   0.737   3.944  17.050 -0.6506 -0.4992  0.1855
  536MPD2    C3 7955   0.746   4.039  16.956  0.4182  0.6562  0.0683
  536MPD2    C4 7956   0.848   4.136  16.959 -0.1424 -0.4224  0.6787
  536MPD2    C5 7957   0.940   4.124  17.057 -0.5286  0.3153 -0.1679
  536MPD2     H 7958   0.662   3.866  17.048 -0.4707 -0.6821  0.9187
  536MPD2    H1 7959   0.865   4.210  16.882  1.7945 -0.1947  1.3464
  536MPD2    H2 7960   1.004   4.036  17.238  0.4944  1.6897 -1.3928
  536MPD2    H3 7961   1.015   4.199  17.083 -1.1368  1.0208 -0.4515
  536MPD2     N 7962   0.644   4.052  16.859 -0.1367  0.4322 -0.0072
  536MPD2    H5 7963   0.655   4.114  16.779  0.7669  0.3728  0.0704
  536MPD2    N1 7964   0.829   3.824  17.240 -0.0754 -0.2241 -0.7683
  536MPD2    H7 7965   0.911   3.812  17.299  0.4041  0.2881 -1.3301
  537TMC3    C1 7966   0.749   3.618  17.325 -0.0194  0.3323 -0.2428
  537TMC3    C2 7967   0.877   3.568  17.320 -0.2153 -0.4298 -0.0531
  537TMC3    C3 7968   0.908   3.460  17.402  0.4481  0.1871  0.4200
  537TMC3    C4 7969   0.653   3.569  17.405  0.0317  0.6732 -0.4665
  537TMC3    C5 7970   0.690   3.465  17.479 -0.1747  0.6994  0.4374
  537TMC3    C6 7971   0.814   3.406  17.484 -0.0552  0.1898  0.2659
  537TMC3     C 7972   0.718   3.743  17.260 -0.1464  0.2315 -0.3964
  537TMC3     O 7973   0.597   3.767  17.246 -0.2142  0.0983 -0.5463
  537TMC3     H 7974   0.959   3.613  17.264 -0.0351  0.8141  1.1948
  537TMC3    H1 7975   0.557   3.616  17.420  0.1491  1.0192 -0.7861
  537TMC3    H2 7976   0.826   3.319  17.547 -0.6824 -0.4351 -0.4884
  537TMC3    C7 7977   0.585   3.399  17.554 -0.6645 -0.7168  0.1797
  537TMC3    C8 7978   1.048   3.429  17.425 -0.2052 -1.1985 -0.6715
  537TMC3    O1 7979   0.623   3.334  17.650 -0.2632 -0.1603  0.2073
  537TMC3    O2 7980   1.129   3.515  17.395  0.0570  0.4883  0.8736
  538TMC3    C1 7981   2.274   1.990  10.743  0.1336 -0.0127 -0.1855
  538TMC3    C2 7982   2.399   1.984  10.683  0.5114  0.0374  1.2398
  538TMC3    C3 7983   2.416   2.055  10.571 -0.6711  0.1348  0.6092
  538TMC3    C4 7984   2.177   2.066  10.683 -0.0437 -0.6582 -0.5808
  538TMC3    C5 7985   2.195   2.117  10.562 -0.8833 -0.6686 -0.4761
  538TMC3    C6 7986   2.316   2.123  10.511  0.2277 -0.3442  0.2995
  538TMC3     C 7987   2.268   1.975  10.881  0.0674  0.2065 -0.0993
  538TMC3     O 7988   2.175   2.034  10.937 -0.1618  0.0991 -0.1855
  538TMC3     H 7989   2.485   1.934  10.724  1.3884 -1.9931 -3.0593
  538TMC3    H1 7990   2.079   2.081  10.727  0.7170 -0.3847  0.9997
  538TMC3    H2 7991   2.329   2.192  10.429 -0.4834  2.4465  2.5372
  538TMC3    C7 7992   2.096   2.213  10.513  0.1297 -0.7816  0.0686
  538TMC3    C8 7993   2.545   2.048  10.506  0.6316  0.0578  0.6151
  538TMC3    O1 7994   1.984   2.174  10.499  0.2794  0.1467 -0.5504
  538TMC3    O2 7995   2.649   2.030  10.577  0.1427 -0.3899  0.8023
  539MPD2     C 7996   1.937   1.548  11.716  0.0229 -0.5316  0.0071
  539MPD2    C1 7997   1.921   1.559  11.579  0.5526  0.1742  0.5182
  539MPD2    C2 7998   1.868   1.679  11.534 -1.0043 -0.6058  0.1429
  539MPD2    C3 7999   1.846   1.783  11.618  0.0224 -0.1291  0.6505
  539MPD2    C4 8000   1.846   1.773  11.750  0.2143  0.1894 -0.1149
  539MPD2    C5 8001   1.897   1.652  11.798 -0.0809 -0.7059  0.0258
  539MPD2     H 8002   1.848   1.691  11.428 -0.4497 -0.3262  0.0671
  539MPD2    H1 8003   1.822   1.848  11.825  1.1137  0.7556 -0.3854
  539MPD2    H2 8004   1.977   1.459  11.765  0.6817  0.0968  0.6017
  539MPD2    H3 8005   1.898   1.645  11.906  3.0564  0.0657  0.0382
  539MPD2     N 8006   1.787   1.906  11.575 -0.4570  0.0815 -0.4176
  539MPD2    H5 8007   1.741   1.958  11.649  0.3078 -0.8322  0.7030
  539MPD2    N1 8008   1.959   1.448  11.495 -0.0324 -0.3092 -0.6010
  539MPD2    H7 8009   1.999   1.366  11.538 -0.0614  0.5652  1.1066
  540TMC3    C1 8010   1.772   2.097  11.420 -0.1905 -0.8825  0.0325
  540TMC3    C2 8011   1.749   2.141  11.287 -0.6161  0.1491 -0.5424
  540TMC3    C3 8012   1.689   2.261  11.264  0.0900 -0.6299  0.5172
  540TMC3    C4 8013   1.750   2.187  11.522  0.2507  0.1594  0.0288
  540TMC3    C5 8014   1.696   2.314  11.498  0.4141 -0.2877 -0.0467
  540TMC3    C6 8015   1.668   2.350  11.372 -0.0488  0.1643  0.5956
  540TMC3     C 8016   1.810   1.964  11.452 -0.4878  0.0172  0.8324
  540TMC3     O 8017   1.888   1.920  11.368  0.1191 -0.5045  0.5689
  540TMC3     H 8018   1.781   2.082  11.202 -0.2242 -1.8634  1.0023
  540TMC3    H1 8019   1.765   2.149  11.622  3.0218  1.6140  0.1548
  540TMC3    H2 8020   1.627   2.447  11.344  2.4196  0.3660 -2.3818
  540TMC3    C7 8021   1.621   2.375  11.609  0.5779 -0.6222 -0.6858
  540TMC3    C8 8022   1.678   2.306  11.125 -0.5013 -0.1882 -0.0721
  540TMC3    O1 8023   1.603   2.311  11.708  0.0181 -0.3576 -0.0593
  540TMC3    O2 8024   1.729   2.414  11.097  0.0098 -0.4027  0.4639
  541MPD2     C 8025   0.157   2.786  12.957  0.1267  0.5352  0.3449
  541MPD2    C1 8026   0.132   2.695  12.854  0.2408 -0.1170 -0.2389
  541MPD2    C2 8027   0.134   2.739  12.722  0.1705  0.2361 -0.6505
  541MPD2    C3 8028   0.161   2.878  12.696  0.0438  0.1195 -0.7272
  541MPD2    C4 8029   0.188   2.960  12.798  0.3550  0.1165 -0.0711
  541MPD2    C5 8030   0.193   2.914  12.930 -0.3465 -0.3932  0.3597
  541MPD2     H 8031   0.113   2.671  12.639 -0.9869 -2.3257  1.7404
  541MPD2    H1 8032   0.195   3.068  12.786  2.9001  0.0229  0.4584
  541MPD2    H2 8033   0.139   2.765  13.061  0.5187 -1.1826  0.0662
  541MPD2    H3 8034   0.217   2.982  13.011  2.0633  0.1370 -0.8160
  541MPD2     N 8035   0.149   2.936  12.570 -0.6535 -0.1622  0.2802
  541MPD2    H5 8036   0.172   3.035  12.570  1.3221 -0.6433 -2.0529
  541MPD2    N1 8037   0.110   2.558  12.877 -0.6262 -0.3802  0.1387
  541MPD2    H7 8038   0.095   2.494  12.800  1.9329 -0.7731 -0.0362
  542TMC3    C1 8039   0.079   2.965  12.350  0.7560  0.6984 -0.2675
  542TMC3    C2 8040   0.088   2.927  12.220 -0.8443  0.2534 -0.1199
  542TMC3    C3 8041   4.711   2.983  12.140 -0.3730  0.0835  0.1751
  542TMC3    C4 8042   4.713   3.063  12.402  0.3629 -0.1293  0.5737
  542TMC3    C5 8043   4.626   3.126  12.316 -0.1947 -0.5405  0.5883
  542TMC3    C6 8044   4.614   3.078  12.188 -0.0995  0.1312 -0.2016
  542TMC3     C 8045   0.119   2.870  12.451  0.4702  0.3236 -0.2772
  542TMC3     O 8046   0.114   2.746  12.429  0.1268 -0.4860 -0.9417
  542TMC3     H 8047   0.156   2.851  12.184  0.2437  1.9840 -1.6789
  542TMC3    H1 8048   4.713   3.086  12.508  0.9140  0.6166  0.4133
  542TMC3    H2 8049   4.547   3.138  12.127  0.2121  0.4807 -0.1957
  542TMC3    C7 8050   4.623   3.274  12.327  0.2206 -0.2067 -0.3810
  542TMC3    C8 8051   0.013   2.960  12.001 -0.6017  0.8384 -0.1078
  542TMC3    O1 8052   4.620   3.339  12.227 -0.1192 -0.9628 -0.4192
  542TMC3    O2 8053   0.119   2.920  11.956  0.0859 -0.1778 -0.3168
  543TMC3    C1 8054   3.286   4.455  17.345  0.7915 -0.3861  0.4236
  543TMC3    C2 8055   3.327   4.328  17.372 -0.2073 -0.5615 -0.1592
  543TMC3    C3 8056   3.264   4.274  17.482  0.3890  0.1925  0.4643
  543TMC3    C4 8057   3.187   4.521  17.416  0.3372 -0.1831 -0.0338
  543TMC3    C5 8058   3.127   4.459  17.522  0.5379  0.6117 -0.3536
  543TMC3    C6 8059   3.167   4.330  17.561  0.9787 -0.7289 -0.2150
  543TMC3     C 8060   3.327   4.522  17.222 -0.0113  0.0051  0.3639
  543TMC3     O 8061   3.254   4.599  17.170  0.0561 -0.1904  0.5020
  543TMC3     H 8062   3.399   4.268  17.316  0.6804 -0.8517  1.2762
  543TMC3    H1 8063   3.150   4.620  17.391  0.0768 -0.4547 -0.7207
  543TMC3    H2 8064   3.120   4.274  17.641 -1.4419  2.1592  0.4132
  543TMC3    C7 8065   3.013   4.523  17.587  0.2722 -0.6414  0.0793
  543TMC3    C8 8066   3.320   4.141  17.518  0.0147  0.9841 -0.1321
  543TMC3    O1 8067   2.947   4.608  17.524  0.1168  0.0978 -0.1464
  543TMC3    O2 8068   3.427   4.104  17.473 -0.1165  0.5335  0.0654
  544MPD2     C 8069   3.255   3.686   0.101  0.2443 -0.1018 -0.2357
  544MPD2    C1 8070   3.370   3.746   0.047 -0.1516 -0.3228  0.5205
  544MPD2    C2 8071   3.358   3.874  17.664 -0.7306 -0.0729  0.2459
  544MPD2    C3 8072   3.242   3.939  17.656 -0.7312 -0.4520  0.9702
  544MPD2    C4 8073   3.123   3.882   0.024 -0.2460 -0.2090 -0.2969
  544MPD2    C5 8074   3.133   3.752   0.082 -0.6411  0.3914 -0.1257
  544MPD2     H 8075   3.446   3.917  17.619 -0.3625 -1.1889 -0.0831
  544MPD2    H1 8076   3.023   3.923   0.014  0.2827  1.0054 -0.7265
  544MPD2    H2 8077   3.253   3.591   0.153  0.0092  0.0261 -0.0106
  544MPD2    H3 8078   3.042   3.697   0.105  0.7302 -1.6723  0.3883
  544MPD2     N 8079   3.226   4.063  17.582 -0.5213  0.1447  0.4053
  544MPD2    H5 8080   3.132   4.103  17.584 -0.4814  0.4155 -3.4179
  544MPD2    N1 8081   3.501   3.676   0.059  0.1488  0.6821  0.5410
  544MPD2    H7 8082   3.501   3.584   0.101  1.1399  0.0199 -0.9256
  545TMC3    C1 8083   3.733   3.650   0.064  0.1814  0.9975  0.4637
  545TMC3    C2 8084   3.859   3.707   0.068 -0.1062  0.8288 -0.0804
  545TMC3    C3 8085   3.958   3.622   0.116  0.2764 -0.1863 -0.4451
  545TMC3    C4 8086   3.717   3.513   0.070  0.0516 -0.4044  0.3337
  545TMC3    C5 8087   3.817   3.432   0.111  0.0612 -0.5298  0.8505
  545TMC3    C6 8088   3.936   3.485   0.144 -0.0853  0.1588 -0.2337
  545TMC3     C 8089   3.620   3.740   0.044  0.1065 -0.7631  0.1464
  545TMC3     O 8090   3.651   3.857   0.019 -0.2776 -0.6025  0.1052
  545TMC3     H 8091   3.878   3.812   0.051 -2.3288  1.3246  0.5376
  545TMC3    H1 8092   3.620   3.464   0.074 -0.0646 -0.0772  1.5512
  545TMC3    H2 8093   4.019   3.430   0.188 -0.7049 -1.2690 -0.8369
  545TMC3    C7 8094   3.807   3.290   0.105 -0.6818  0.4688  0.1223
  545TMC3    C8 8095   4.085   3.674   0.138 -0.0400  1.0884  0.6680
  545TMC3    O1 8096   3.690   3.247   0.103  0.1616  0.2286  0.1993
  545TMC3    O2 8097   4.146   3.633   0.238  0.7819  0.2021 -0.2439
  546MPD2     C 8098   0.931   4.272  17.512 -0.1286 -0.1529 -0.2471
  546MPD2    C1 8099   0.817   4.312  17.449 -0.3234  0.7636 -0.7673
  546MPD2    C2 8100   0.829   4.390  17.332 -0.3480  0.0552 -0.5799
  546MPD2    C3 8101   0.954   4.415  17.282  0.1277  0.1736  0.0641
  546MPD2    C4 8102   1.061   4.363  17.337  0.1642 -0.7250  0.1666
  546MPD2    C5 8103   1.050   4.280  17.443  0.3338  0.2546 -0.2234
  546MPD2     H 8104   0.744   4.409  17.268 -1.6150  1.6076  1.5613
  546MPD2    H1 8105   1.158   4.377  17.292 -0.6251  0.2553 -1.1964
  546MPD2    H2 8106   0.926   4.210  17.601  0.3587 -1.3076 -1.0273
  546MPD2    H3 8107   1.144   4.250  17.488  2.1757  1.8832 -2.9366
  546MPD2     N 8108   0.985   4.486  17.156  0.0883 -0.4328  0.4120
  546MPD2    H5 8109   1.081   4.475  17.125  1.0603  1.3674  2.7693
  546MPD2    N1 8110   0.696   4.299  17.516  0.4158 -0.0577  0.0941
  546MPD2    H7 8111   0.706   4.273  17.613 -0.1513 -0.8774 -0.0700
  547TMC3    C1 8112   0.472   4.319  17.574  0.5835 -0.4405 -0.0296
  547TMC3    C2 8113   0.369   4.404  17.561  0.2206 -0.4830  0.1245
  547TMC3    C3 8114   0.266   4.391  17.658 -0.4972 -0.4096 -0.0378
  547TMC3    C4 8115   0.484   4.219  17.670  0.1665  0.3089  0.6329
  547TMC3    C5 8116   0.391   4.221   0.094 -0.3727  0.3652 -0.6413
  547TMC3    C6 8117   0.282   4.312   0.088  0.1278  0.0348  0.7586
  547TMC3     C 8118   0.567   4.336  17.474 -0.1438 -0.1284 -0.1279
  547TMC3     O 8119   0.531   4.383  17.367 -0.2719 -0.0030 -0.4824
  547TMC3     H 8120   0.355   4.473  17.478 -0.8618 -1.5313 -0.5680
  547TMC3    H1 8121   0.563   4.146  17.655 -2.7027 -2.9095  1.1725
  547TMC3    H2 8122   0.207   4.307   0.166  0.8397  1.9453  1.5694
  547TMC3    C7 8123   0.364   4.089   0.151 -0.0990  0.1282  0.2920
  547TMC3    C8 8124   0.142   4.446  17.619 -0.0870  0.5063 -0.1990
  547TMC3    O1 8125   0.325   4.092   0.269 -0.5261 -0.2539  0.1232
  547TMC3    O2 8126   0.147   4.532  17.532  0.0394 -0.2001 -0.3386
  548MPD2     C 8127   0.721   0.006  12.122 -0.5336 -0.4873 -0.5128
  548MPD2    C1 8128   0.698   4.648  12.236 -0.1066 -0.0719 -0.4199
  548MPD2    C2 8129   0.787   4.548  12.267 -0.5419  0.1451  0.2982
  548MPD2    C3 8130   0.882   4.516  12.174 -0.2024  0.4497 -0.5198
  548MPD2    C4 8131   0.885   4.579  12.051 -0.2456  0.4914  0.0928
  548MPD2    C5 8132   0.802   4.682  12.027 -0.0403  0.4203  0.3696
  548MPD2     H 8133   0.781   4.497  12.362  0.2807 -2.4222 -1.0444
  548MPD2    H1 8134   0.951   4.545  11.972 -1.1946  0.4186 -0.6686
  548MPD2    H2 8135   0.659   0.090  12.094  1.7162  1.2266 -0.3935
  548MPD2    H3 8136   0.803   0.020  11.935  3.9629  0.4716  0.4579
  548MPD2     N 8137   0.969   4.402  12.206 -0.3371 -0.0351  0.3720
  548MPD2    H5 8138   0.967   4.376  12.304 -2.3092 -0.9744  0.0865
  548MPD2    N1 8139   0.574   4.664  12.300 -0.0201  0.0865 -0.3837
  548MPD2    H7 8140   0.520   0.027  12.279 -0.8039 -0.0356  1.1737
  549TMC3    C1 8141   0.390   4.625  12.443 -0.6399 -0.1203 -0.5394
  549TMC3    C2 8142   0.346   0.039  12.441  0.2045  0.0421 -0.6393
  549TMC3    C3 8143   0.216   0.056  12.479  0.5841  0.1189  0.1566
  549TMC3    C4 8144   0.316   4.520  12.486  0.2109  1.0552 -0.5749
  549TMC3    C5 8145   0.186   4.543  12.522 -0.0348 -0.0753 -0.6654
  549TMC3    C6 8146   0.141   4.674  12.515 -0.2842  0.0019  0.0639
  549TMC3     C 8147   0.518   4.585  12.398 -0.3046  0.2952  0.0579
  549TMC3     O 8148   0.561   4.484  12.455 -0.2183 -0.8207  0.0794
  549TMC3     H 8149   0.416   0.119  12.423 -1.8439  1.7614 -0.8639
  549TMC3    H1 8150   0.349   4.419  12.461 -1.1023  0.2789  0.8251
  549TMC3    H2 8151   0.043   4.688  12.560  1.0585  0.3304  2.9200
  549TMC3    C7 8152   0.095   4.437  12.563  0.7315  0.1207 -0.7262
  549TMC3    C8 8153   0.153   0.189  12.485  0.7213  0.0507  0.1908
  549TMC3    O1 8154   4.700   4.470  12.601  0.1015  0.1162  0.1303
  549TMC3    O2 8155   0.030   0.186  12.473 -0.4893  0.2185 -1.1216
  550TMC3    C1 8156   4.302   2.679  12.357  0.6927  0.0936  0.1707
  550TMC3    C2 8157   4.172   2.639  12.402  0.2198 -0.2067 -0.4639
  550TMC3    C3 8158   4.076   2.738  12.410 -1.2555  0.3274  0.4548
  550TMC3    C4 8159   4.325   2.813  12.331 -0.2468 -0.4753  0.1744
  550TMC3    C5 8160   4.225   2.904  12.347  0.3671  0.0103 -1.1897
  550TMC3    C6 8161   4.097   2.870  12.382  0.7302  0.1832 -1.3969
  550TMC3     C 8162   4.390   2.598  12.283 -0.1094 -0.1165  0.5303
  550TMC3     O 8163   4.512   2.605  12.307 -0.6299  0.4936 -0.3991
  550TMC3     H 8164   4.143   2.538  12.426 -2.7102  0.4990 -1.0921
  550TMC3    H1 8165   4.427   2.839  12.304  0.2777 -3.0783 -0.4068
  550TMC3    H2 8166   4.020   2.947  12.389 -2.2642 -3.1828  2.2927
  550TMC3    C7 8167   4.249   3.044  12.346  0.0228 -0.2964 -0.5472
  550TMC3    C8 8168   3.939   2.706  12.446  0.2155  0.4998  0.2844
  550TMC3    O1 8169   4.336   3.078  12.424 -0.1619 -0.5774 -0.4446
  550TMC3    O2 8170   3.861   2.793  12.415 -0.0999 -0.1643 -0.2393
  551TMC3    C1 8171   1.548   0.370  12.978  0.0273  0.0693 -0.5078
  551TMC3    C2 8172   1.658   0.430  12.921 -0.8039  0.9287 -0.3661
  551TMC3    C3 8173   1.717   0.537  12.986 -1.1001 -0.2082  1.0730
  551TMC3    C4 8174   1.497   0.411  13.101 -0.2313 -0.1255  0.9427
  551TMC3    C5 8175   1.565   0.519  13.158  0.1377 -0.2724  0.1943
  551TMC3    C6 8176   1.674   0.581  13.106 -0.4957  0.2124 -0.0448
  551TMC3     C 8177   1.482   0.269  12.896 -0.1209  0.1132 -0.1138
  551TMC3     O 8178   1.374   0.227  12.937  0.3908 -0.3423 -0.4450
  551TMC3     H 8179   1.705   0.395  12.829 -0.3492  0.1691  0.1524
  551TMC3    H1 8180   1.413   0.362  13.148  0.3430 -0.8399  1.2199
  551TMC3    H2 8181   1.736   0.654  13.157 -2.4395  0.1791  2.3594
  551TMC3    C7 8182   1.537   0.554  13.298  0.3624  0.1186 -0.1689
  551TMC3    C8 8183   1.845   0.593  12.932  0.7260 -0.3324 -0.0519
  551TMC3    O1 8184   1.598   0.651  13.340  0.0347  0.1365  0.0935
  551TMC3    O2 8185   1.895   0.527  12.842 -0.9196 -0.3948 -0.2872
  552MPD2     C 8186   3.623   2.426  14.221 -0.5174 -0.5044  0.1100
  552MPD2    C1 8187   3.647   2.297  14.183 -0.5451  0.3702 -0.7930
  552MPD2    C2 8188   3.743   2.213  14.254 -0.6393  0.0809 -0.9151
  552MPD2    C3 8189   3.808   2.271  14.361 -0.5588  0.2518 -0.6348
  552MPD2    C4 8190   3.778   2.403  14.393 -0.0142 -0.3747 -0.7592
  552MPD2    C5 8191   3.681   2.479  14.334  0.4339 -0.1384  0.6850
  552MPD2     H 8192   3.779   2.119  14.215 -0.1767 -1.6374  3.6062
  552MPD2    H1 8193   3.842   2.450  14.467  0.1602 -0.3274 -0.9381
  552MPD2    H2 8194   3.553   2.488  14.166 -1.1138  0.2742  1.7536
  552MPD2    H3 8195   3.660   2.579  14.368  0.8014 -0.2788  1.3251
  552MPD2     N 8196   3.919   2.205  14.422 -0.4237 -0.0644  0.1713
  552MPD2    H5 8197   3.969   2.255  14.495 -0.0436 -1.4733  0.8768
  552MPD2    N1 8198   3.593   2.251  14.055  0.1050 -0.5706  0.2493
  552MPD2    H7 8199   3.614   2.152  14.049 -2.1750 -1.0469  0.1687
  553TMC3    C1 8200   3.499   2.218  13.846  0.8935  0.1649  0.1123
  553TMC3    C2 8201   3.376   2.222  13.784  0.0322  0.2369 -0.8749
  553TMC3    C3 8202   3.370   2.159  13.663 -0.1437  0.7462 -0.1694
  553TMC3    C4 8203   3.611   2.152  13.805 -0.7166  0.2720  0.0652
  553TMC3    C5 8204   3.601   2.092  13.679  0.3980 -1.1942  0.0346
  553TMC3    C6 8205   3.482   2.097  13.613 -0.4880 -0.4347 -0.7985
  553TMC3     C 8206   3.519   2.315  13.961 -0.8599 -0.3515  0.5974
  553TMC3     O 8207   3.487   2.435  13.956 -0.2869  0.6212  0.7135
  553TMC3     H 8208   3.290   2.275  13.823  0.6315 -0.0555  0.8111
  553TMC3    H1 8209   3.708   2.159  13.851 -1.4276 -2.2224  1.9420
  553TMC3    H2 8210   3.487   2.062  13.510  1.1979 -0.8476 -0.5908
  553TMC3    C7 8211   3.714   2.124  13.588  0.5653  0.2177 -0.4276
  553TMC3    C8 8212   3.257   2.171  13.583  0.2181  0.7005  0.0434
  553TMC3    O1 8213   3.694   2.181  13.480 -0.2500  0.6162  0.0517
  553TMC3    O2 8214   3.178   2.254  13.625  0.2772 -0.0205 -0.0824
  554TMC3    C1 8215   1.126   1.828  11.424  0.6875  0.4011  0.0134
  554TMC3    C2 8216   1.092   1.737  11.331  0.1888 -0.8012  0.1388
  554TMC3    C3 8217   1.153   1.742  11.208  0.1458  0.0049 -0.3467
  554TMC3    C4 8218   1.199   1.940  11.395 -0.5826 -0.4328  0.3237
  554TMC3    C5 8219   1.256   1.944  11.265 -0.4913  0.1986 -0.2525
  554TMC3    C6 8220   1.238   1.843  11.180 -0.6685  0.0419 -0.6952
  554TMC3     C 8221   1.059   1.834  11.550 -0.5483  0.7598  0.7301
  554TMC3     O 8222   1.052   1.942  11.604  0.1071 -0.2510 -0.2330
  554TMC3     H 8223   1.005   1.673  11.339 -1.3124  1.2511  0.2868
  554TMC3    H1 8224   1.216   2.007  11.479 -1.7056 -1.3419  1.2809
  554TMC3    H2 8225   1.283   1.845  11.081 -0.6289 -2.0155 -0.7234
  554TMC3    C7 8226   1.341   2.046  11.225  0.6113 -0.5876 -0.5563
  554TMC3    C8 8227   1.076   1.704  11.096  0.5377 -0.1935  0.9968
  554TMC3    O1 8228   1.420   2.027  11.127 -0.0159  0.5506  0.1913
  554TMC3    O2 8229   1.070   1.785  11.001 -0.4574  0.6425 -0.6259
  555TMC3    C1 8230   4.117   1.091  15.490  0.3487  0.1244 -0.2263
  555TMC3    C2 8231   4.084   1.149  15.612  0.2580  0.5067  0.1070
  555TMC3    C3 8232   4.120   1.096  15.727 -0.0852  0.1094  0.4111
  555TMC3    C4 8233   4.187   0.973  15.487  0.1178  0.8235  0.6656
  555TMC3    C5 8234   4.216   0.920  15.609 -0.6709  0.1831 -0.5916
  555TMC3    C6 8235   4.178   0.971  15.731  0.4273 -0.1252  0.5404
  555TMC3     C 8236   4.138   1.189  15.390 -0.2711  0.3926 -0.0384
  555TMC3     O 8237   4.164   1.305  15.428 -0.0524 -0.1859  0.6326
  555TMC3     H 8238   4.019   1.236  15.603 -1.1971 -0.8916 -3.0458
  555TMC3    H1 8239   4.227   0.937  15.393 -1.8957  1.0438 -0.2751
  555TMC3    H2 8240   4.198   0.922  15.825 -1.1214  0.7249  1.3283
  555TMC3    C7 8241   4.238   0.777  15.616  0.7705 -0.0095  0.9088
  555TMC3    C8 8242   4.087   1.161  15.851 -0.5575  0.2930 -0.2600
  555TMC3    O1 8243   4.220   0.716  15.720  0.0110 -0.0892  0.0384
  555TMC3    O2 8244   3.992   1.233  15.851 -0.0792  0.0824  0.2414
  556MPD2     C 8245   2.736   3.190  10.115  0.6036 -0.3755 -0.9523
  556MPD2    C1 8246   2.744   3.074  10.188 -0.5607  0.5563 -0.5366
  556MPD2    C2 8247   2.692   2.955  10.135  0.6771  0.0332 -0.4574
  556MPD2    C3 8248   2.649   2.945  10.007  0.6105  0.2191  0.8641
  556MPD2    C4 8249   2.628   3.065   9.940  0.2929  0.3680 -0.5144
  556MPD2    C5 8250   2.660   3.180  10.005  0.2860  0.3441  0.3341
  556MPD2     H 8251   2.691   2.866  10.196 -0.3004  0.7883  0.6227
  556MPD2    H1 8252   2.593   3.076   9.838 -1.1372  1.4000  0.0974
  556MPD2    H2 8253   2.782   3.284  10.144  0.3164 -0.5899  0.1975
  556MPD2    H3 8254   2.660   3.270   9.945  0.1355  1.0116  1.3257
  556MPD2     N 8255   2.593   2.821   9.953 -0.3648 -0.3375 -0.5740
  556MPD2    H5 8256   2.597   2.736  10.009 -0.1691  0.2500  0.3126
  556MPD2    N1 8257   2.804   3.057  10.315 -0.3185  0.2153 -0.1578
  556MPD2    H7 8258   2.806   2.967  10.361 -0.4993 -0.5002 -1.5450
  557TMC3    C1 8259   2.479   2.675   9.801  0.8812  0.6113 -0.8117
  557TMC3    C2 8260   2.369   2.652   9.720 -0.4480 -0.1883  0.4873
  557TMC3    C3 8261   2.332   2.529   9.679 -0.0374 -0.6736 -0.1468
  557TMC3    C4 8262   2.540   2.571   9.861 -0.4595 -0.0874  0.2215
  557TMC3    C5 8263   2.498   2.448   9.825  0.1591 -0.6843  0.7565
  557TMC3    C6 8264   2.403   2.419   9.730 -0.4758  0.2553  1.1854
  557TMC3     C 8265   2.520   2.809   9.838  0.3154  0.1551  0.0043
  557TMC3     O 8266   2.480   2.902   9.769 -0.4874 -0.2075  0.3517
  557TMC3     H 8267   2.312   2.737   9.684 -0.9800 -0.3135  1.0308
  557TMC3    H1 8268   2.637   2.579   9.910 -0.9646 -0.2579  1.2357
  557TMC3    H2 8269   2.369   2.318   9.712  3.6761 -1.0921  0.9506
  557TMC3    C7 8270   2.537   2.328   9.896 -0.5124  0.1643  0.2273
  557TMC3    C8 8271   2.205   2.506   9.616 -0.5636  1.0030  1.1217
  557TMC3    O1 8272   2.463   2.231   9.891 -0.3563 -0.0977 -0.0897
  557TMC3    O2 8273   2.128   2.603   9.601  0.2526 -0.0689 -0.0688
  558TMC3    C1 8274   0.319   0.771   9.757 -0.1996 -0.6840 -0.2599
  558TMC3    C2 8275   0.330   0.636   9.778 -0.2853  0.1813  0.6628
  558TMC3    C3 8276   0.341   0.562   9.661 -0.9187 -0.6154 -0.0217
  558TMC3    C4 8277   0.329   0.838   9.635 -0.2630 -0.8216  0.2361
  558TMC3    C5 8278   0.329   0.758   9.521 -0.2568  0.0593  0.3760
  558TMC3    C6 8279   0.326   0.620   9.537 -0.5065  0.2456  0.2385
  558TMC3     C 8280   0.374   0.853   9.862  0.1800  0.2303 -0.3420
  558TMC3     O 8281   0.434   0.951   9.825 -0.4432  0.5375 -0.0284
  558TMC3     H 8282   0.317   0.594   9.877  0.4004 -1.2228  0.1516
  558TMC3    H1 8283   0.315   0.945   9.634  3.4772 -0.3753 -3.0167
  558TMC3    H2 8284   0.349   0.566   9.446 -0.3532  1.9668 -0.7539
  558TMC3    C7 8285   0.225   0.804   9.427 -0.3747  0.0907  0.2318
  558TMC3    C8 8286   0.388   0.425   9.678  0.3127 -0.1904  0.2808
  558TMC3    O1 8287   0.221   0.921   9.395  0.2217 -0.5779 -1.0630
  558TMC3    O2 8288   0.410   0.369   9.570  0.6102 -0.1993  0.7050
  559MPD2     C 8289   0.637   1.302  10.202 -0.8991 -0.0348  0.6956
  559MPD2    C1 8290   0.581   1.234  10.309  0.0641 -0.0434 -0.8576
  559MPD2    C2 8291   0.664   1.192  10.404  0.8051 -0.2165 -0.4961
  559MPD2    C3 8292   0.799   1.204  10.400 -0.0642  0.1125  0.1187
  559MPD2    C4 8293   0.851   1.279  10.301 -0.0963 -0.0452 -0.0164
  559MPD2    C5 8294   0.768   1.325  10.203  0.3538 -0.0625 -0.8004
  559MPD2     H 8295   0.633   1.130  10.487 -1.8095 -2.0336 -2.8464
  559MPD2    H1 8296   0.957   1.300  10.288  0.3209 -2.6709 -0.8030
  559MPD2    H2 8297   0.583   1.341  10.117 -0.2750 -1.1166 -0.1979
  559MPD2    H3 8298   0.818   1.368  10.117 -0.0446 -2.8234 -2.4406
  559MPD2     N 8299   0.879   1.150  10.496  0.4701 -0.6372  0.3120
  559MPD2    H5 8300   0.843   1.089  10.568  0.9843 -1.4766 -0.1367
  559MPD2    N1 8301   0.442   1.236  10.316  0.4826 -0.8651  0.0615
  559MPD2    H7 8302   0.407   1.273  10.228 -0.1286  0.6557  0.9438
  560TMC3    C1 8303   1.068   1.083  10.613 -0.5587  0.2016 -0.2421
  560TMC3    C2 8304   1.010   0.956  10.639  0.1242  0.8558 -0.2959
  560TMC3    C3 8305   1.040   0.883  10.745  0.9201  0.1916  0.4494
  560TMC3    C4 8306   1.153   1.133  10.709 -0.5999  0.8445 -0.0128
  560TMC3    C5 8307   1.173   1.062  10.824  0.1801 -0.1089  0.2813
  560TMC3    C6 8308   1.125   0.937  10.843  0.2038  0.0361 -0.2989
  560TMC3     C 8309   1.010   1.176  10.522 -0.4002  0.2625 -0.9440
  560TMC3     O 8310   1.085   1.261  10.475  0.1698 -0.7725 -0.5844
  560TMC3     H 8311   0.940   0.919  10.565  3.4230 -1.2159 -2.3792
  560TMC3    H1 8312   1.202   1.227  10.688  2.4606 -0.4824  1.2204
  560TMC3    H2 8313   1.160   0.893  10.936 -0.0437 -0.2948 -0.3643
  560TMC3    C7 8314   1.207   1.136  10.948 -0.8128  0.0868 -0.3007
  560TMC3    C8 8315   0.980   0.758  10.754 -0.7686 -0.0752  0.6537
  560TMC3    O1 8316   1.156   1.093  11.050 -0.3226 -0.3675  0.0415
  560TMC3    O2 8317   0.941   0.712  10.650 -0.2139 -0.4206  0.0467
  561TMC3    C1 8318   3.091   0.116  11.235 -0.0662  0.2758 -0.5041
  561TMC3    C2 8319   3.058   0.075  11.362  0.0355 -0.1465  0.3794
  561TMC3    C3 8320   3.058   0.170  11.463 -0.4833  0.3031 -0.2036
  561TMC3    C4 8321   3.126   0.244  11.208 -0.3474  0.1450 -0.6662
  561TMC3    C5 8322   3.118   0.337  11.309  0.2345 -0.4494  0.4461
  561TMC3    C6 8323   3.089   0.303  11.437 -0.8123 -0.6616  0.1247
  561TMC3     C 8324   3.080   0.028  11.125 -0.2721  0.1307  0.2875
  561TMC3     O 8325   3.010   4.651  11.152  0.2705 -0.1406 -0.5064
  561TMC3     H 8326   3.016   4.694  11.374 -0.7479  0.3474  1.7259
  561TMC3    H1 8327   3.139   0.279  11.106 -0.6319 -0.2706 -0.8452
  561TMC3    H2 8328   3.097   0.380  11.514 -0.6645  1.2879 -1.8558
  561TMC3    C7 8329   3.157   0.474  11.282  0.0805 -0.2023 -0.2272
  561TMC3    C8 8330   2.999   0.132  11.588 -0.4515 -0.5642  0.2973
  561TMC3    O1 8331   3.118   0.555  11.368  0.7379  0.2714  0.6464
  561TMC3    O2 8332   3.020   0.020  11.632  0.5489  0.4148 -0.3162
  562TMC3    C1 8333   3.928   1.254  16.400  0.2711  0.1517  0.3848
  562TMC3    C2 8334   3.863   1.352  16.325 -0.1051 -0.2801 -0.2515
  562TMC3    C3 8335   3.829   1.314  16.198 -0.2015 -0.2332 -0.1846
  562TMC3    C4 8336   3.939   1.122  16.360 -0.3423  0.0798 -0.4555
  562TMC3    C5 8337   3.883   1.084  16.236 -0.6039 -0.5004  0.3538
  562TMC3    C6 8338   3.828   1.180  16.156 -0.7716  0.4783  0.3007
  562TMC3     C 8339   4.006   1.290  16.514 -0.2339 -0.9125  0.1857
  562TMC3     O 8340   4.102   1.221  16.551  0.1217  0.1417  0.3630
  562TMC3     H 8341   3.863   1.455  16.357  0.8835 -0.7419  1.2954
  562TMC3    H1 8342   3.960   1.036  16.421  1.5598 -0.1067 -1.3657
  562TMC3    H2 8343   3.785   1.150  16.061  1.0708  1.3225 -0.8071
  562TMC3    C7 8344   3.901   0.963  16.163  0.2034  0.0565 -0.4406
  562TMC3    C8 8345   3.761   1.413  16.112 -0.1833  0.0119  0.1358
  562TMC3    O1 8346   3.818   0.936  16.076  0.3507 -0.1481 -0.7172
  562TMC3    O2 8347   3.687   1.488  16.169  0.3429  0.1736  1.2690
  563MPD2     C 8348   1.438   2.641  15.484 -0.1615 -0.0701  0.8677
  563MPD2    C1 8349   1.492   2.708  15.590  0.1152  0.6046  0.6172
  563MPD2    C2 8350   1.585   2.795  15.566 -0.4153 -0.3920 -0.1167
  563MPD2    C3 8351   1.636   2.819  15.444  0.0593 -0.7503 -0.2323
  563MPD2    C4 8352   1.591   2.750  15.331 -0.9330 -0.4408 -0.2145
  563MPD2    C5 8353   1.503   2.654  15.361  0.2615 -0.4043 -0.5411
  563MPD2     H 8354   1.627   2.860  15.642  1.1836 -1.1531 -0.3496
  563MPD2    H1 8355   1.643   2.757  15.236  0.2701 -1.0484  0.3924
  563MPD2    H2 8356   1.355   2.571  15.495 -0.6514  0.3013 -0.5000
  563MPD2    H3 8357   1.455   2.588  15.290 -0.7583  1.2390 -1.3764
  563MPD2     N 8358   1.741   2.915  15.448  0.1608 -0.5213 -0.0519
  563MPD2    H5 8359   1.774   2.948  15.538  0.9064 -0.7848 -0.2341
  563MPD2    N1 8360   1.435   2.679  15.716  0.3782 -0.3318  0.3190
  563MPD2    H7 8361   1.369   2.602  15.712 -0.6473  0.4738  1.5900
  564TMC3    C1 8362   1.347   2.706  15.922  0.5194 -0.0196  0.2052
  564TMC3    C2 8363   1.220   2.670  15.879  0.0693  0.5232  0.1781
  564TMC3    C3 8364   1.141   2.603  15.964  0.6515 -0.0415  0.7181
  564TMC3    C4 8365   1.390   2.674  16.049 -0.5193 -0.2184  0.2599
  564TMC3    C5 8366   1.300   2.613  16.129 -0.0195 -0.6439  0.2839
  564TMC3    C6 8367   1.171   2.582  16.097 -0.7998 -0.8956 -0.2537
  564TMC3     C 8368   1.442   2.751  15.829  0.2942  0.2728  0.2153
  564TMC3     O 8369   1.514   2.845  15.849 -0.4343  0.1783  0.1850
  564TMC3     H 8370   1.186   2.696  15.780  3.1389 -1.2702 -1.3588
  564TMC3    H1 8371   1.495   2.676  16.079  0.0892 -1.1615 -1.8075
  564TMC3    H2 8372   1.104   2.516  16.151 -2.1488  0.2534 -0.5292
  564TMC3    C7 8373   1.367   2.519  16.209  0.1877 -0.3225  0.3722
  564TMC3    C8 8374   1.077   2.486  15.902 -0.7031 -0.3515 -0.0728
  564TMC3    O1 8375   1.472   2.542  16.261  0.2073 -0.6039  0.1436
  564TMC3    O2 8376   1.037   2.394  15.973  0.5165 -0.1338  0.3745
  565TMC3    C1 8377   1.956   0.321   9.235  0.2656  0.7557 -0.1504
  565TMC3    C2 8378   1.983   0.243   9.343 -0.2293 -0.0345  0.1740
  565TMC3    C3 8379   1.881   0.148   9.367 -0.7868  0.0462  0.4083
  565TMC3    C4 8380   1.835   0.328   9.178  0.2606  0.2739 -0.9402
  565TMC3    C5 8381   1.737   0.237   9.212  0.0797  0.6319 -0.4005
  565TMC3    C6 8382   1.762   0.147   9.304  1.0795 -0.0618  0.4732
  565TMC3     C 8383   2.064   0.402   9.184  0.1658 -0.3906 -0.8217
  565TMC3     O 8384   2.168   0.410   9.247  0.0717 -0.5887 -0.2015
  565TMC3     H 8385   2.083   0.238   9.384 -0.1143  0.3422 -0.0579
  565TMC3    H1 8386   1.810   0.397   9.098  0.5304  1.0760 -0.3297
  565TMC3    H2 8387   1.677   0.096   9.347 -0.9539  1.1513 -2.1154
  565TMC3    C7 8388   1.606   0.247   9.153  0.0641  0.0026 -0.0070
  565TMC3    C8 8389   1.905   0.063   9.479  0.2497  0.8337  0.0381
  565TMC3    O1 8390   1.586   0.355   9.096  0.4326 -0.0831  0.5997
  565TMC3    O2 8391   1.990   0.100   9.557 -0.0458 -0.1936  0.1052
  566MPD2     C 8392   3.845   0.371  14.063  0.9614 -0.2372 -0.4692
  566MPD2    C1 8393   3.839   0.493  13.994  0.2686 -0.2851  0.4609
  566MPD2    C2 8394   3.734   0.508  13.905 -0.4403  0.2678  0.3391
  566MPD2    C3 8395   3.633   0.412  13.880 -0.1654 -0.9113  1.1828
  566MPD2    C4 8396   3.650   0.290  13.939  0.3260  0.9609 -0.5658
  566MPD2    C5 8397   3.751   0.277  14.033 -0.6882 -0.5869  0.3435
  566MPD2     H 8398   3.723   0.604  13.856  1.6390  0.9967  1.2905
  566MPD2    H1 8399   3.575   0.214  13.924 -1.4783  2.7522 -0.6174
  566MPD2    H2 8400   3.922   0.340  14.132  1.5019  0.3787 -0.7990
  566MPD2    H3 8401   3.745   0.187  14.092 -0.7993 -1.3900 -0.8985
  566MPD2     N 8402   3.528   0.438  13.791  0.3831  0.7439 -0.2749
  566MPD2    H5 8403   3.493   0.353  13.749  1.1221  0.3005  0.0196
  566MPD2    N1 8404   3.942   0.590  14.009  0.4187  1.0258 -0.2318
  566MPD2    H7 8405   4.002   0.579  14.090 -0.3746 -0.7216  0.1315
  567TMC3    C1 8406   4.119   0.722  13.954 -0.4281 -0.6588 -0.1384
  567TMC3    C2 8407   4.185   0.751  13.839  0.3315  0.4573  0.0476
  567TMC3    C3 8408   4.302   0.825  13.840  0.1014  0.0931 -0.3965
  567TMC3    C4 8409   4.169   0.762  14.073  0.4923  0.2196  0.5573
  567TMC3    C5 8410   4.293   0.824  14.079  0.6889  0.4296  0.0960
  567TMC3    C6 8411   4.359   0.856  13.962 -0.0485  0.8967  0.5752
  567TMC3     C 8412   3.975   0.702  13.937 -0.8473  0.3234  0.0370
  567TMC3     O 8413   3.928   0.752  13.837  0.3759 -0.1352 -0.1092
  567TMC3     H 8414   4.143   0.717  13.745  4.0663 -0.4263 -1.2971
  567TMC3    H1 8415   4.122   0.734  14.166 -3.0608  2.4192 -0.6010
  567TMC3    H2 8416   4.453   0.909  13.972  1.1120 -1.4945  2.5656
  567TMC3    C7 8417   4.370   0.846  14.206  0.3257 -1.0170  0.6124
  567TMC3    C8 8418   4.327   0.900  13.723  0.8282  0.1043  0.4241
  567TMC3    O1 8419   4.478   0.898  14.197  0.0613 -0.7675 -0.0704
  567TMC3    O2 8420   4.236   0.907  13.640  1.2380  0.5717 -0.3822
  568MPD2     C 8421   1.084   1.109  16.069  1.0145  0.3014  0.9966
  568MPD2    C1 8422   1.032   1.204  16.147 -0.3373  0.3029  0.3301
  568MPD2    C2 8423   0.965   1.314  16.087 -0.2431 -0.2561  0.4549
  568MPD2    C3 8424   0.967   1.324  15.949  0.4702 -0.1184 -0.0904
  568MPD2    C4 8425   1.017   1.226  15.869 -0.1880 -0.3828  0.8491
  568MPD2    C5 8426   1.075   1.118  15.934 -1.5164 -0.1607 -0.3152
  568MPD2     H 8427   0.924   1.395  16.147 -0.5205  0.5292 -0.8134
  568MPD2    H1 8428   1.015   1.232  15.761  0.6923  0.1614  0.8688
  568MPD2    H2 8429   1.137   1.023  16.109 -1.5550 -1.6415  0.2654
  568MPD2    H3 8430   1.129   1.050  15.870  0.9876  1.2521  0.2897
  568MPD2     N 8431   0.906   1.443  15.896  0.0740  0.3804  0.5325
  568MPD2    H5 8432   0.848   1.493  15.963  1.2338  1.5635  0.6470
  568MPD2    N1 8433   1.039   1.183  16.290  0.3708  0.1328 -0.3329
  568MPD2    H7 8434   1.077   1.094  16.321 -0.5571  0.6537  2.2966
  569TMC3    C1 8435   0.821   1.614  15.761  0.3415  0.2592 -0.2842
  569TMC3    C2 8436   0.760   1.642  15.884 -0.2494  0.4874  0.4867
  569TMC3    C3 8437   0.750   1.775  15.904  0.2642 -0.1135  0.5524
  569TMC3    C4 8438   0.867   1.712  15.681  0.0183  0.1480 -0.1899
  569TMC3    C5 8439   0.847   1.839  15.708  0.4719 -0.6154 -0.3404
  569TMC3    C6 8440   0.789   1.879  15.825 -0.1694 -0.1128 -0.3091
  569TMC3     C 8441   0.913   1.499  15.771 -0.0318  0.3529  0.0817
  569TMC3     O 8442   0.988   1.481  15.677  0.1040  0.3345  0.8999
  569TMC3     H 8443   0.712   1.573  15.953 -0.5113  1.1428  0.9580
  569TMC3    H1 8444   0.925   1.684  15.594 -0.3325 -1.9792  0.2427
  569TMC3    H2 8445   0.779   1.981  15.860  0.8913 -0.9205  2.3662
  569TMC3    C7 8446   0.902   1.934  15.617 -0.2085 -0.4249  0.8890
  569TMC3    C8 8447   0.693   1.814  16.031 -0.6781 -0.3980 -0.7154
  569TMC3    O1 8448   0.921   1.907  15.499 -0.0105  0.7170 -0.6641
  569TMC3    O2 8449   0.624   1.731  16.094  0.8670 -0.3462 -0.0085
  570TMC3    C1 8450   0.516   0.482  16.147 -0.0201  0.3409  0.2210
  570TMC3    C2 8451   0.613   0.464  16.054  0.0367  0.1810  0.0930
  570TMC3    C3 8452   0.651   0.570  15.970  0.1402 -0.6513 -0.1578
  570TMC3    C4 8453   0.450   0.603  16.156  0.2006 -0.0486  0.0527
  570TMC3    C5 8454   0.490   0.703  16.066 -0.2203  1.0002 -0.1965
  570TMC3    C6 8455   0.588   0.692  15.973  0.2842  0.6234  0.0917
  570TMC3     C 8456   0.473   0.373  16.224  0.5538  0.9962  0.0781
  570TMC3     O 8457   0.504   0.260  16.191 -0.7103 -0.2134 -0.5486
  570TMC3     H 8458   0.669   0.372  16.045  1.2903  1.0728 -1.2011
  570TMC3    H1 8459   0.362   0.618  16.216 -0.4410 -0.5801 -0.7655
  570TMC3    H2 8460   0.607   0.770  15.900 -1.0196 -1.5169 -2.5194
  570TMC3    C7 8461   0.426   0.831  16.084 -0.4973 -0.9870 -0.3941
  570TMC3    C8 8462   0.763   0.562  15.882  0.0672  0.1464 -0.7505
  570TMC3    O1 8463   0.410   0.863  16.203  0.1932  0.3437  0.0987
  570TMC3    O2 8464   0.795   0.666  15.825 -0.0838  0.7195 -0.5467
  571MPD2     C 8465   4.028   1.295   0.042 -0.0875  0.1203 -0.4566
  571MPD2    C1 8466   4.101   1.372   0.130 -0.4966 -0.5086  0.1087
  571MPD2    C2 8467   4.050   1.497   0.158 -0.3715  0.7914  0.2590
  571MPD2    C3 8468   3.936   1.543   0.090 -0.6269  0.4545  0.2133
  571MPD2    C4 8469   3.879   1.474  17.669 -1.2102  0.0097 -0.3936
  571MPD2    C5 8470   3.921   1.343  17.649  0.2945  0.4964  0.0296
  571MPD2     H 8471   4.099   1.557   0.234 -1.7108  1.0222  0.9214
  571MPD2    H1 8472   3.782   1.494  17.625 -0.1679 -0.7151 -2.9732
  571MPD2    H2 8473   4.051   1.189   0.034  0.5093  0.3122 -1.3915
  571MPD2    H3 8474   3.880   1.280  17.571 -0.3999  1.6765 -0.5596
  571MPD2     N 8475   3.880   1.664   0.121  0.3204  0.3285 -0.3627
  571MPD2    H5 8476   3.828   1.717   0.052  0.6014  1.0501 -0.0295
  571MPD2    N1 8477   4.204   1.312   0.203  0.1496  0.3972  0.1135
  571MPD2    H7 8478   4.210   1.211   0.196  1.7431  0.3630  1.9342
  572TMC3    C1 8479   3.814   1.846   0.263 -1.1466 -0.4973 -0.3920
  572TMC3    C2 8480   3.849   1.940   0.360 -0.1195  1.3054  0.0112
  572TMC3    C3 8481   3.743   2.013   0.415  0.7096  0.1172 -0.6918
  572TMC3    C4 8482   3.684   1.839   0.210 -1.0915  0.0450  0.1790
  572TMC3    C5 8483   3.588   1.913   0.268 -0.1595 -0.3135  0.9516
  572TMC3    C6 8484   3.614   2.005   0.364 -0.0395  0.2734 -0.2633
  572TMC3     C 8485   3.911   1.737   0.237 -0.2331 -0.3253  0.1201
  572TMC3     O 8486   4.006   1.730   0.316  0.5040 -0.3438  0.0659
  572TMC3     H 8487   3.950   1.953   0.396  0.4863 -0.6437 -0.9786
  572TMC3    H1 8488   3.657   1.761   0.139  2.0225 -0.1725 -0.7900
  572TMC3    H2 8489   3.532   2.058   0.411  0.0713 -1.4727  1.8611
  572TMC3    C7 8490   3.461   1.946   0.198 -0.4666 -0.3833 -0.5337
  572TMC3    C8 8491   3.775   2.134   0.496 -0.2035 -0.4107  0.1443
  572TMC3    O1 8492   3.394   2.031   0.249 -0.5029 -0.3318 -0.0011
  572TMC3    O2 8493   3.897   2.156   0.492  0.5647 -0.2295  0.4039
  573MPD2     C 8494   0.252   2.349   0.364  0.0352  0.0465 -0.2120
  573MPD2    C1 8495   0.174   2.460   0.386  0.8231 -0.2564 -0.0107
  573MPD2    C2 8496   0.105   2.513   0.286 -0.5237 -0.0939  0.6074
  573MPD2    C3 8497   0.107   2.454   0.152  0.2166  0.7925  0.3149
  573MPD2    C4 8498   0.187   2.352   0.124 -0.0051 -0.4772  0.1236
  573MPD2    C5 8499   0.249   2.294   0.235  0.1739 -0.0262  0.1586
  573MPD2     H 8500   0.066   2.613   0.303  1.1895  0.8327 -0.8494
  573MPD2    H1 8501   0.193   2.300   0.029  0.5223 -0.2977  0.0587
  573MPD2    H2 8502   0.308   2.294   0.438 -1.3015 -0.7137  0.2402
  573MPD2    H3 8503   0.319   2.214   0.213 -0.2207 -0.4156  0.3153
  573MPD2     N 8504   0.017   2.503   0.051  0.1590  0.2344  0.4229
  573MPD2    H5 8505   0.010   2.439  17.652 -1.3618 -0.0896  0.8115
  573MPD2    N1 8506   0.162   2.500   0.518  0.2140  0.2898 -0.1814
  573MPD2    H7 8507   0.219   2.464   0.594 -0.4103 -0.9612 -0.3129
  574TMC3    C1 8508   4.552   2.615  17.632  0.2982 -0.4461  0.2418
  574TMC3    C2 8509   4.432   2.668  17.651 -0.1844  0.2817 -0.3038
  574TMC3    C3 8510   4.358   2.692  17.545  0.0237 -0.1247 -0.3776
  574TMC3    C4 8511   4.599   2.579  17.511  0.1368 -0.4799 -0.8736
  574TMC3    C5 8512   4.521   2.616  17.406 -0.3715 -0.3022 -0.1411
  574TMC3    C6 8513   4.397   2.666  17.416 -0.5553 -0.1352  0.4521
  574TMC3     C 8514   4.644   2.603   0.070  0.3590 -0.5749  0.0322
  574TMC3     O 8515   4.632   2.690   0.161 -0.4325  0.0120  0.0614
  574TMC3     H 8516   4.394   2.689   0.071 -1.6237 -0.8001 -0.6252
  574TMC3    H1 8517   4.703   2.558  17.491  0.0967  0.3456 -1.9773
  574TMC3    H2 8518   4.323   2.680  17.338 -0.8767 -0.9846  0.6123
  574TMC3    C7 8519   4.581   2.600  17.275 -0.6230 -0.1521 -0.5004
  574TMC3    C8 8520   4.216   2.728  17.568  0.0087 -0.4381 -0.2081
  574TMC3    O1 8521   4.681   2.534  17.263  0.7935  0.0050  0.1701
  574TMC3    O2 8522   4.138   2.653  17.513  0.3686 -0.3079 -0.1449
  575TMC3    C1 8523   2.223   4.567  10.259 -0.2263  0.1984  0.0160
  575TMC3    C2 8524   2.223   4.435  10.310 -0.3808  0.2892  0.0652
  575TMC3    C3 8525   2.178   4.336  10.231  0.7255 -0.3128  0.0747
  575TMC3    C4 8526   2.210   4.593  10.126 -0.2224  0.3704  0.0413
  575TMC3    C5 8527   2.144   4.493  10.053  0.0873  0.1109 -0.5864
  575TMC3    C6 8528   2.128   4.367  10.105  0.0346 -0.5137 -0.8126
  575TMC3     C 8529   2.273   4.668  10.349 -0.2277  0.4599 -0.4292
  575TMC3     O 8530   2.358   0.026  10.301  0.6686 -0.6900  0.0122
  575TMC3     H 8531   2.256   4.428  10.413 -0.0910 -2.6861 -0.2222
  575TMC3    H1 8532   2.223   4.694  10.088  0.2093 -0.4779 -2.0776
  575TMC3    H2 8533   2.087   4.286  10.046  0.2918 -1.2878  0.0713
  575TMC3    C7 8534   2.074   4.538   9.932  0.8290 -0.6238 -0.1533
  575TMC3    C8 8535   2.174   4.198  10.277  0.0802 -0.3546  0.4271
  575TMC3    O1 8536   2.113   4.644   9.886  0.2754  0.4933  0.4281
  575TMC3    O2 8537   2.141   4.114  10.195 -0.6830 -0.3132 -0.1211
  576MPD2     C 8538   1.733   0.435  12.188 -0.3411  0.3306 -0.0179
  576MPD2    C1 8539   1.835   0.521  12.206  0.4488  0.4171  0.4781
  576MPD2    C2 8540   1.831   0.610  12.318  0.2524  0.4027  0.1667
  576MPD2    C3 8541   1.732   0.599  12.418 -0.0113  0.4563 -0.5714
  576MPD2    C4 8542   1.630   0.504  12.394 -0.2518 -0.2335 -0.6538
  576MPD2    C5 8543   1.629   0.422  12.286 -0.1022  0.2792 -0.4258
  576MPD2     H 8544   1.912   0.681  12.328  0.4408 -0.1946  2.7382
  576MPD2    H1 8545   1.538   0.495  12.451 -0.3375 -0.6703 -0.8579
  576MPD2    H2 8546   1.730   0.368  12.103 -0.4815  0.0094  0.2422
  576MPD2    H3 8547   1.559   0.340  12.276 -2.3331  2.0855  0.3994
  576MPD2     N 8548   1.726   0.690  12.531  0.3166  0.2128  0.6474
  576MPD2    H5 8549   1.794   0.765  12.530 -0.8563  1.3120  3.0824
  576MPD2    N1 8550   1.945   0.537  12.112 -0.3659 -0.2926  0.1698
  576MPD2    H7 8551   2.016   0.604  12.143  1.2627 -3.0937  2.5379
  577TMC3    C1 8552   2.055   0.527  11.911  0.4325  0.2242 -0.8641
  577TMC3    C2 8553   2.162   0.458  11.956  0.6097 -0.2945 -0.4687
  577TMC3    C3 8554   2.270   0.428  11.871 -0.4371  0.0086 -0.7661
  577TMC3    C4 8555   2.034   0.535  11.782  0.1452 -0.3245 -0.8758
  577TMC3    C5 8556   2.140   0.520  11.703 -0.5416  0.2931  0.3900
  577TMC3    C6 8557   2.259   0.475  11.746  0.1184  0.3136 -0.0111
  577TMC3     C 8558   1.942   0.491  11.986 -0.1407  0.4648 -0.2670
  577TMC3     O 8559   1.855   0.446  11.915  0.8432  0.5332 -0.2659
  577TMC3     H 8560   2.168   0.429  12.060  0.1361 -4.8224 -1.7245
  577TMC3    H1 8561   1.938   0.558  11.739 -1.1301 -1.3429  1.4584
  577TMC3    H2 8562   2.349   0.472  11.686 -0.9603  0.8441 -1.6664
  577TMC3    C7 8563   2.147   0.602  11.586 -0.4505  1.2536  0.2499
  577TMC3    C8 8564   2.388   0.363  11.928 -0.0457 -0.5337 -0.3936
  577TMC3    O1 8565   2.056   0.681  11.558 -0.6794  0.2716  0.2227
  577TMC3    O2 8566   2.390   0.333  12.047  0.3020 -0.6876 -0.2048
  578MPD2     C 8567   4.302   4.511   1.687 -0.1880  0.3953  0.7185
  578MPD2    C1 8568   4.378   4.568   1.586  0.1470 -0.1127 -0.5866
  578MPD2    C2 8569   4.511   4.592   1.612 -0.4701 -0.2843 -0.8507
  578MPD2    C3 8570   4.566   4.561   1.737 -0.4873  0.6855  0.3719
  578MPD2    C4 8571   4.490   4.505   1.837  0.3487 -0.2209 -0.3209
  578MPD2    C5 8572   4.355   4.479   1.807 -0.2930 -0.2399  0.1729
  578MPD2     H 8573   4.579   4.629   1.535  1.7490 -1.0515  0.7301
  578MPD2    H1 8574   4.533   4.467   1.930  1.4061 -0.1879 -0.7977
  578MPD2    H2 8575   4.198   4.481   1.681 -0.0218  0.0385 -0.4532
  578MPD2    H3 8576   4.305   4.426   1.886 -0.2097 -0.4744  0.0682
  578MPD2     N 8577   4.703   4.586   1.762 -0.1791  0.5332  0.0378
  578MPD2    H5 8578   0.039   4.605   1.679 -0.7555 -0.9591 -0.7008
  578MPD2    N1 8579   4.318   4.610   1.466 -0.2195  0.0479 -0.1423
  578MPD2    H7 8580   4.217   4.597   1.459 -0.0013 -1.7499 -0.0224
  579TMC3    C1 8581   0.191   4.626   1.867 -0.6628  0.5480  0.2574
  579TMC3    C2 8582   0.244   4.707   1.962 -0.2296 -0.0511 -0.4231
  579TMC3    C3 8583   0.383   0.006   1.963 -0.1880  0.4508  0.4666
  579TMC3    C4 8584   0.271   4.563   1.776  0.5288 -0.0410  0.6261
  579TMC3    C5 8585   0.403   4.573   1.797  0.3630  0.1424 -0.1883
  579TMC3    C6 8586   0.466   4.657   1.886  0.2911 -0.1639  0.6825
  579TMC3     C 8587   0.053   4.596   1.882  1.1936  0.1758 -0.3390
  579TMC3     O 8588   4.718   4.594   1.988  0.7062 -0.2427 -0.7646
  579TMC3     H 8589   0.190   0.045   2.036  0.2948  1.1698 -0.9771
  579TMC3    H1 8590   0.221   4.503   1.701 -0.8629  1.0157  0.7031
  579TMC3    H2 8591   0.574   4.668   1.879 -0.0433  2.7415 -0.2578
  579TMC3    C7 8592   0.487   4.502   1.703  0.4481  0.2940 -0.1252
  579TMC3    C8 8593   0.429   0.118   2.051  0.3790  0.0845  0.2594
  579TMC3    O1 8594   0.601   4.473   1.738  0.0903 -0.3712  0.4709
  579TMC3    O2 8595   0.349   0.174   2.125  0.5029  0.1008  0.7833
  580TMC3    C1 8596   0.078   4.494  12.140 -0.3911  0.7908 -0.0932
  580TMC3    C2 8597   4.689   4.519  12.063  0.8028 -0.6964  0.3326
  580TMC3    C3 8598   4.645   4.408  11.992 -0.3372 -0.5602 -0.3627
  580TMC3    C4 8599   0.116   4.370  12.178  0.3156  0.1305 -0.3877
  580TMC3    C5 8600   0.055   4.262  12.126  0.3233 -0.2865 -0.2139
  580TMC3    C6 8601   4.672   4.280  12.034  0.1494  0.3368 -0.3266
  580TMC3     C 8602   0.200   4.575  12.127  0.5373 -0.5293 -0.8585
  580TMC3     O 8603   0.307   4.523  12.108 -0.0269 -0.1153  0.7085
  580TMC3     H 8604   4.663   4.619  12.031  1.9592  0.0927  1.8113
  580TMC3    H1 8605   0.213   4.357  12.226  0.6303  0.3275 -0.9714
  580TMC3    H2 8606   4.605   4.201  12.002 -2.0810  1.2851  1.9346
  580TMC3    C7 8607   0.100   4.133  12.166 -0.7073 -0.5510  0.6752
  580TMC3    C8 8608   4.553   4.420  11.879 -0.1867  0.3805  0.1401
  580TMC3    O1 8609   0.141   4.136  12.281  0.5220 -0.5518  0.3179
  580TMC3    O2 8610   4.473   4.328  11.862 -0.3844  0.1645  0.5726
  581MPD2     C 8611   2.292   4.333  14.576  0.2774 -0.2447  0.4608
  581MPD2    C1 8612   2.266   4.358  14.707  0.0676  0.3744 -0.2273
  581MPD2    C2 8613   2.135   4.340  14.759 -0.1418  0.3693  0.0899
  581MPD2    C3 8614   2.039   4.301  14.674  0.3603  0.5772 -0.2084
  581MPD2    C4 8615   2.068   4.287  14.542 -0.1558  0.2583  0.3602
  581MPD2    C5 8616   2.197   4.291  14.493 -0.5202 -0.2183 -0.4793
  581MPD2     H 8617   2.116   4.360  14.863  1.3807  2.7958 -0.0980
  581MPD2    H1 8618   1.986   4.289  14.471 -0.5921  0.9126  0.8802
  581MPD2    H2 8619   2.391   4.305  14.541  0.4134 -0.4406  1.0019
  581MPD2    H3 8620   2.220   4.267  14.390 -0.4520 -1.8085 -0.1004
  581MPD2     N 8621   1.901   4.305  14.716  0.0251 -0.6264 -0.0277
  581MPD2    H5 8622   1.877   4.361  14.798  0.7717 -0.4339  0.0545
  581MPD2    N1 8623   2.376   4.380  14.795  0.6372  0.3144  0.3123
  581MPD2    H7 8624   2.464   4.387  14.744  0.1093  0.1803 -0.6222
  582TMC3    C1 8625   2.518   4.377  14.974 -0.2652  0.1478  0.0375
  582TMC3    C2 8626   2.540   4.376  15.110  1.0161 -1.0452 -0.3375
  582TMC3    C3 8627   2.639   4.296  15.162  0.5495 -0.6584  0.0345
  582TMC3    C4 8628   2.593   4.299  14.891 -0.0312 -0.4425 -0.3699
  582TMC3    C5 8629   2.673   4.204  14.950 -0.5299 -0.0543 -1.2286
  582TMC3    C6 8630   2.695   4.199  15.084 -0.2773  0.3642 -0.1745
  582TMC3     C 8631   2.377   4.388  14.936 -0.0138  0.5311  0.1592
  582TMC3     O 8632   2.293   4.395  15.025 -0.0835 -0.9124  0.9163
  582TMC3     H 8633   2.475   4.431  15.177 -0.2915 -0.6825 -1.9217
  582TMC3    H1 8634   2.604   4.315  14.785  3.8603 -2.1701 -0.2151
  582TMC3    H2 8635   2.762   4.122  15.119 -0.9898  1.3295  3.3498
  582TMC3    C7 8636   2.750   4.104  14.870 -0.4253 -0.2702 -0.3038
  582TMC3    C8 8637   2.632   4.286  15.308  0.2217  0.0270 -0.2584
  582TMC3    O1 8638   2.871   4.093  14.889 -0.5195  0.5973 -0.2942
  582TMC3    O2 8639   2.597   4.376  15.377  0.3865 -1.0552  0.1612
  583MPD2     C 8640   2.606   1.058  17.009  0.4138 -0.3794  0.0532
  583MPD2    C1 8641   2.615   1.165  16.920  0.1797 -0.6834  0.2092
  583MPD2    C2 8642   2.571   1.288  16.974 -0.1137  0.0264 -0.2281
  583MPD2    C3 8643   2.527   1.299  17.105  0.8057 -0.0603  0.2302
  583MPD2    C4 8644   2.513   1.191  17.189 -0.8877 -0.2238 -0.1745
  583MPD2    C5 8645   2.566   1.070  17.143  0.8495 -0.4404 -1.1342
  583MPD2     H 8646   2.564   1.376  16.912 -0.7548 -0.8104 -1.3279
  583MPD2    H1 8647   2.480   1.197  17.292 -1.6685  0.1219 -0.4414
  583MPD2    H2 8648   2.644   0.962  16.977  3.1536  0.5843  0.3704
  583MPD2    H3 8649   2.573   0.979  17.201 -2.5210 -2.2175 -3.5494
  583MPD2     N 8650   2.492   1.431  17.150 -0.6325 -0.0359 -0.5407
  583MPD2    H5 8651   2.490   1.502  17.078 -0.8205  0.2203 -0.2847
  583MPD2    N1 8652   2.651   1.153  16.783 -0.4685 -0.0768 -0.0918
  583MPD2    H7 8653   2.648   1.239  16.730  0.5131 -0.3433 -0.5838
  584TMC3    C1 8654   2.407   1.603  17.299  0.3485  0.0969 -0.2330
  584TMC3    C2 8655   2.416   1.700  17.200 -0.3819  0.6238  0.1595
  584TMC3    C3 8656   2.372   1.827  17.244 -0.4507 -0.2255 -0.9485
  584TMC3    C4 8657   2.355   1.631  17.422 -0.3854  0.3633 -0.8755
  584TMC3    C5 8658   2.340   1.760  17.455  0.6500 -0.2542 -0.3188
  584TMC3    C6 8659   2.347   1.867  17.366 -0.4268 -0.2813 -0.9243
  584TMC3     C 8660   2.468   1.468  17.283 -0.4446 -0.0551 -0.1440
  584TMC3     O 8661   2.490   1.405  17.383 -0.2127 -0.4906  0.1406
  584TMC3     H 8662   2.445   1.676  17.099 -1.5744  0.9467 -0.2557
  584TMC3    H1 8663   2.358   1.555  17.499 -1.5111  0.4959 -0.7011
  584TMC3    H2 8664   2.322   1.971  17.380 -0.9465 -0.5432  0.0945
  584TMC3    C7 8665   2.330   1.786  17.595 -0.2528  0.7080 -0.4853
  584TMC3    C8 8666   2.423   1.929  17.151 -0.1995 -0.0217  0.1037
  584TMC3    O1 8667   2.308   1.691  17.662 -0.9808  0.0615  0.0476
  584TMC3    O2 8668   2.373   1.933  17.039 -0.4058 -0.0545 -0.1250
  585MPD2     C 8669   1.312   0.379   0.721  0.3729 -0.7522  0.5828
  585MPD2    C1 8670   1.431   0.423   0.670 -0.4762 -0.9517 -0.4464
  585MPD2    C2 8671   1.486   0.362   0.555  0.4473  0.3100  0.2685
  585MPD2    C3 8672   1.432   0.241   0.515  1.0681  0.2954  0.1397
  585MPD2    C4 8673   1.321   0.190   0.568 -0.1046  0.4410  0.7897
  585MPD2    C5 8674   1.270   0.258   0.677  0.4968  0.3321 -0.0287
  585MPD2     H 8675   1.575   0.398   0.503  1.2291 -0.9222  0.7602
  585MPD2    H1 8676   1.284   0.097   0.527 -1.9556  0.8037  1.6652
  585MPD2    H2 8677   1.264   0.425   0.806  2.5634 -1.7920  2.3635
  585MPD2    H3 8678   1.177   0.228   0.725  1.7646 -0.1472  2.1146
  585MPD2     N 8679   1.478   0.169   0.401 -0.3344  1.0069  0.3640
  585MPD2    H5 8680   1.426   0.087   0.370  1.9905 -1.0966  2.0154
  585MPD2    N1 8681   1.484   0.543   0.724 -0.2455  0.7265  0.3906
  585MPD2    H7 8682   1.434   0.570   0.808  1.0122  1.4661  0.8987
  586TMC3    C1 8683   1.624   0.074   0.251  0.5390  0.1836 -0.2783
  586TMC3    C2 8684   1.734   0.097   0.175 -0.3189  0.0610  0.0159
  586TMC3    C3 8685   1.719   0.087   0.037  0.0082  0.2102 -0.2657
  586TMC3    C4 8686   1.510   0.023   0.199  0.4933 -0.4885  0.7288
  586TMC3    C5 8687   1.506   0.006   0.061 -0.6283  0.8050  0.3519
  586TMC3    C6 8688   1.604   0.047  17.660  0.9830 -0.1276 -0.3045
  586TMC3     C 8689   1.607   0.173   0.354 -0.4826 -0.1341  0.7114
  586TMC3     O 8690   1.694   0.250   0.385 -0.0006  0.3501 -0.0153
  586TMC3     H 8691   1.825   0.119   0.229 -0.3476  1.4109 -0.4872
  586TMC3    H1 8692   1.422   4.706   0.251  0.6821  0.9327  2.0452
  586TMC3    H2 8693   1.597   0.032  17.553 -0.3546 -2.1640  0.0812
  586TMC3    C7 8694   1.455   4.594   0.033  0.1219 -0.0859 -0.2635
  586TMC3    C8 8695   1.839   0.035  17.656 -0.3695  0.0738 -0.0212
  586TMC3    O1 8696   1.414   4.521   0.119  0.4981 -0.7082  0.3784
  586TMC3    O2 8697   1.897   4.664   0.038 -0.5954 -0.0576 -0.3076
  587TMC3    C1 8698   4.036   3.502  16.577 -0.5192  0.3773  0.2897
  587TMC3    C2 8699   3.971   3.570  16.481 -0.1071 -0.1250  0.2634
  587TMC3    C3 8700   4.047   3.658  16.411 -1.2343  0.4004 -0.3556
  587TMC3    C4 8701   4.174   3.515  16.605 -0.0659  0.9302 -0.3413
  587TMC3    C5 8702   4.245   3.607  16.532  0.1353  0.2194  0.3595
  587TMC3    C6 8703   4.180   3.680  16.431  0.2951  0.1483 -0.2130
  587TMC3     C 8704   3.955   3.430  16.676 -0.0684 -0.4288  0.1266
  587TMC3     O 8705   4.011   3.340  16.737 -0.5307  0.0713  0.0826
  587TMC3     H 8706   3.870   3.551  16.449 -0.2195 -0.7971  1.0209
  587TMC3    H1 8707   4.217   3.454  16.684  0.3711  1.6785  0.0011
  587TMC3    H2 8708   4.234   3.736  16.356 -2.0964  1.1693 -1.1541
  587TMC3    C7 8709   4.389   3.591  16.533 -0.3166  0.2348 -0.4045
  587TMC3    C8 8710   3.992   3.731  16.303  0.7410  0.4336  0.2718
  587TMC3    O1 8711   4.433   3.513  16.613 -0.3019  0.1307 -0.1283
  587TMC3    O2 8712   4.064   3.756  16.206  0.1587 -0.3045 -0.1833
  588TMC3    C1 8713   1.818   1.451   9.630 -0.1920  0.2178  0.2257
  588TMC3    C2 8714   1.789   1.326   9.604 -0.3140  0.0409  0.4173
  588TMC3    C3 8715   1.847   1.221   9.670 -0.0999  0.2672 -0.1017
  588TMC3    C4 8716   1.913   1.473   9.727 -0.1979 -0.2023 -0.4205
  588TMC3    C5 8717   1.966   1.368   9.799  0.5111  0.6492  0.8782
  588TMC3    C6 8718   1.938   1.242   9.774  0.2810  0.1370  0.4784
  588TMC3     C 8719   1.755   1.573   9.564  1.1640  0.4374  0.2419
  588TMC3     O 8720   1.663   1.555   9.484 -0.1749 -0.5126  0.1455
  588TMC3     H 8721   1.709   1.304   9.535  0.5661 -2.3907  0.1457
  588TMC3    H1 8722   1.916   1.572   9.771  1.0339 -0.6025  0.3990
  588TMC3    H2 8723   1.992   1.168   9.834  0.0527  1.3886  2.2364
  588TMC3    C7 8724   2.075   1.395   9.893 -0.3039  0.0773  0.4664
  588TMC3    C8 8725   1.768   1.095   9.660  0.5783  0.0352  0.0901
  588TMC3    O1 8726   2.084   1.320   9.988 -0.4841 -0.2975  0.2808
  588TMC3    O2 8727   1.669   1.095   9.590 -0.5291 -0.2842  0.0792
  589TMC3    C1 8728   0.599   3.396   1.079  0.3940  0.4007 -0.9823
  589TMC3    C2 8729   0.661   3.476   1.174  0.5112  0.0354  0.0180
  589TMC3    C3 8730   0.789   3.445   1.209 -0.5560  0.6845  0.2835
  589TMC3    C4 8731   0.666   3.283   1.025 -0.0415  0.3156 -0.2043
  589TMC3    C5 8732   0.783   3.241   1.082  0.2101 -0.4010  0.6441
  589TMC3    C6 8733   0.847   3.323   1.171 -0.2186 -0.2046 -0.2279
  589TMC3     C 8734   0.459   3.406   1.073 -0.0309 -0.1683 -0.0432
  589TMC3     O 8735   0.408   3.358   0.975 -0.7124 -0.4593 -0.1019
  589TMC3     H 8736   0.628   3.576   1.197 -0.0227 -0.2724  0.5974
  589TMC3    H1 8737   0.606   3.222   0.958  1.8153 -0.0953 -1.5079
  589TMC3    H2 8738   0.942   3.286   1.210 -1.3199 -2.9674 -0.1902
  589TMC3    C7 8739   0.854   3.124   1.036 -0.2735  0.3645 -0.3219
  589TMC3    C8 8740   0.855   3.519   1.324  0.0873  0.2051  0.9360
  589TMC3    O1 8741   0.972   3.136   1.045 -0.3423 -0.2905 -0.6769
  589TMC3    O2 8742   0.780   3.585   1.399  0.1120 -0.4343 -0.2135
  590MPD2     C 8743   4.628   1.584  16.799 -0.3427 -0.5736  0.1593
  590MPD2    C1 8744   4.562   1.694  16.742  0.3658  0.3032  0.3939
  590MPD2    C2 8745   4.644   1.794  16.682  0.6181  0.1114  0.4104
  590MPD2    C3 8746   0.063   1.782  16.676  0.0031  0.0994  0.2169
  590MPD2    C4 8747   0.121   1.669  16.734 -0.2995 -0.3847 -0.0851
  590MPD2    C5 8748   0.043   1.580  16.798 -0.0876 -0.8506  0.7345
  590MPD2     H 8749   4.604   1.877  16.625  1.7806  0.9181  0.7595
  590MPD2    H1 8750   0.228   1.668  16.719 -0.0366  0.8568  1.6960
  590MPD2    H2 8751   4.573   1.503  16.844  0.2433 -1.0340  0.0462
  590MPD2    H3 8752   0.090   1.502  16.856 -0.4635 -0.5265  1.4658
  590MPD2     N 8753   0.131   1.876  16.601  0.3156  0.8793  0.7773
  590MPD2    H5 8754   0.085   1.964  16.579  3.1535  1.8058 -1.5321
  590MPD2    N1 8755   4.421   1.699  16.737  0.6018 -0.1450  0.1778
  590MPD2    H7 8756   4.369   1.614  16.759  1.0418 -0.2554  0.7718
  591TMC3    C1 8757   0.271   1.975  16.447  0.2153 -0.0719 -0.5555
  591TMC3    C2 8758   0.315   1.952  16.317  0.1417  0.4365 -0.2498
  591TMC3    C3 8759   0.312   2.052  16.224 -0.2368  0.5003  0.5304
  591TMC3    C4 8760   0.210   2.097  16.475 -0.5299  0.2321 -0.5437
  591TMC3    C5 8761   0.219   2.199  16.381  0.1262  0.4741 -0.0356
  591TMC3    C6 8762   0.276   2.181  16.257  0.1295 -0.2141 -0.0771
  591TMC3     C 8763   0.252   1.863  16.533 -0.0061  0.8517  0.5327
  591TMC3     O 8764   0.316   1.761  16.522 -0.1175  0.0494 -0.1730
  591TMC3     H 8765   0.355   1.856  16.286  0.2820  1.1001 -2.1553
  591TMC3    H1 8766   0.184   2.102  16.580  0.1765 -0.1402 -0.3546
  591TMC3    H2 8767   0.274   2.253  16.176  1.1884 -1.5738 -1.3267
  591TMC3    C7 8768   0.163   2.326  16.413 -0.2180  0.3829 -0.6440
  591TMC3    C8 8769   0.379   2.018  16.100  0.4837  0.4606  0.4005
  591TMC3    O1 8770   0.080   2.324  16.503 -0.4361  0.6934  1.0660
  591TMC3    O2 8771   0.351   1.908  16.049  0.3504  0.3765  0.7638
  592MPD2     C 8772   1.018   4.067  11.215 -1.2441  0.7687  0.1193
  592MPD2    C1 8773   0.997   4.084  11.349 -0.0294 -1.0193 -0.0547
  592MPD2    C2 8774   0.916   4.001  11.426 -0.1214  0.1743 -0.6832
  592MPD2    C3 8775   0.848   3.901  11.353  0.7907  0.2861  0.9749
  592MPD2    C4 8776   0.886   3.859  11.224 -0.4731 -0.0907  0.2342
  592MPD2    C5 8777   0.964   3.949  11.156  0.8455  0.2265  0.6392
  592MPD2     H 8778   0.897   4.022  11.531  1.0507  0.3054 -0.4974
  592MPD2    H1 8779   0.855   3.769  11.171 -0.4456  0.6513 -1.0370
  592MPD2    H2 8780   1.077   4.121  11.141 -0.2636 -0.1887  0.1932
  592MPD2    H3 8781   0.986   3.928  11.052 -1.7649 -0.2150  0.1589
  592MPD2     N 8782   0.762   3.820  11.425 -0.2179 -0.3290 -0.7779
  592MPD2    H5 8783   0.760   3.846  11.523  1.1474 -0.2659 -0.7690
  592MPD2    N1 8784   1.076   4.187  11.401  0.4672 -0.2427  0.2435
  592MPD2    H7 8785   1.133   4.236  11.333 -1.0457  0.6844 -0.3567
  593TMC3    C1 8786   1.155   4.357  11.550 -0.1548  0.4164 -0.1139
  593TMC3    C2 8787   1.215   4.363  11.674  0.4517  0.2805  0.0598
  593TMC3    C3 8788   1.311   4.459  11.692 -0.7078 -0.1858  0.4008
  593TMC3    C4 8789   1.205   4.420  11.439  0.1287  0.4272  0.5088
  593TMC3    C5 8790   1.310   4.507  11.459 -0.2860 -0.5065 -0.1973
  593TMC3    C6 8791   1.358   4.535  11.587  0.1927 -0.2087  0.7873
  593TMC3     C 8792   1.068   4.242  11.527  0.1026 -0.5361 -0.1053
  593TMC3     O 8793   1.007   4.200  11.627  0.3927  0.6448 -0.4996
  593TMC3     H 8794   1.181   4.299  11.755  0.9058 -1.1199 -0.8390
  593TMC3    H1 8795   1.159   4.406  11.341  3.3402  4.0078 -1.5233
  593TMC3    H2 8796   1.451   4.588  11.601  1.5301 -2.2568 -0.3999
  593TMC3    C7 8797   1.350   4.598  11.360 -0.0607 -0.5518 -0.0564
  593TMC3    C8 8798   1.379   4.454  11.818  0.0002  0.3818  0.2135
  593TMC3    O1 8799   1.441   4.668  11.401 -0.4013  0.0139  0.4161
  593TMC3    O2 8800   1.391   4.349  11.877  0.3210  0.3465  0.6952
  594MPD2     C 8801   4.607   2.282  14.828  0.4213  0.3606 -0.2964
  594MPD2    C1 8802   4.554   2.297  14.700 -0.6158  0.2404  0.5297
  594MPD2    C2 8803   4.602   2.385  14.609 -0.1018 -0.4955 -0.6654
  594MPD2    C3 8804   4.716   2.463  14.631 -0.7096 -0.0647 -1.0306
  594MPD2    C4 8805   0.050   2.451  14.762  0.5932 -0.0796 -0.0873
  594MPD2    C5 8806   4.707   2.368  14.863 -0.7965  1.0433 -0.2738
  594MPD2     H 8807   4.548   2.401  14.516 -0.7938 -0.9714 -0.3371
  594MPD2    H1 8808   0.122   2.522  14.801  0.1279 -0.1929  0.9815
  594MPD2    H2 8809   4.571   2.222  14.911  2.4421 -0.0423  0.2881
  594MPD2    H3 8810   0.020   2.388  14.965 -2.8838 -0.8833  0.7594
  594MPD2     N 8811   0.038   2.546  14.532  0.1661  1.1762  0.1512
  594MPD2    H5 8812   4.695   2.552  14.451 -1.7858 -1.9893  1.3979
  594MPD2    N1 8813   4.444   2.216  14.668 -0.5325  0.0984 -0.4882
  594MPD2    H7 8814   4.411   2.152  14.738  1.9234  0.4260  0.9839
  595TMC3    C1 8815   0.323   2.881  14.365  0.0165 -0.2040  0.4088
  595TMC3    C2 8816   0.296   2.757  14.412 -0.0848  0.0315 -0.0095
  595TMC3    C3 8817   0.161   2.727  14.439  0.1729 -0.0987 -0.4370
  595TMC3    C4 8818   0.223   2.969  14.327 -0.0880  0.0725  0.8516
  595TMC3    C5 8819   0.094   2.942  14.375 -0.3217  0.6862 -0.3712
  595TMC3    C6 8820   0.061   2.819  14.428 -0.0323 -0.1707 -0.2247
  595TMC3     C 8821   0.398   2.949  14.469  0.0741 -0.1300  0.3538
  595TMC3     O 8822   0.417   3.070  14.460 -0.4329 -0.3384  0.2868
  595TMC3     H 8823   0.363   2.673  14.425 -0.4220 -0.3826 -0.9972
  595TMC3    H1 8824   0.246   3.068  14.291  0.8979  0.2584  2.0234
  595TMC3    H2 8825   4.681   2.795  14.466 -0.4053  3.2707  0.9742
  595TMC3    C7 8826   0.013   3.044  14.429 -0.7435  0.2803  0.1476
  595TMC3    C8 8827   0.145   2.626  14.542 -0.7549  0.1335 -0.5671
  595TMC3    O1 8828   4.613   3.034  14.446 -0.2617 -0.4352 -0.0502
  595TMC3    O2 8829   0.240   2.633  14.616  0.4492  0.0687 -0.0927
  596MPD2     C 8830   3.365   0.729  16.940 -0.1035  0.1436  0.1774
  596MPD2    C1 8831   3.391   0.850  16.871 -0.3670 -1.0211 -0.1833
  596MPD2    C2 8832   3.395   0.849  16.729 -0.8172 -0.8113 -0.7720
  596MPD2    C3 8833   3.374   0.728  16.669  0.1674  1.0494 -0.4884
  596MPD2    C4 8834   3.352   0.608  16.738 -0.1557  0.1240 -0.2676
  596MPD2    C5 8835   3.350   0.614  16.872 -0.9582 -0.2184 -0.3490
  596MPD2     H 8836   3.425   0.940  16.679 -0.1238 -0.5052  0.1999
  596MPD2    H1 8837   3.327   0.515  16.689  2.2542  0.0755 -1.4065
  596MPD2    H2 8838   3.356   0.730  17.048  2.2695 -1.1183  0.3826
  596MPD2    H3 8839   3.330   0.520  16.923 -5.3127  2.0084  2.0537
  596MPD2     N 8840   3.363   0.715  16.531  0.3305  0.1471 -0.1461
  596MPD2    H5 8841   3.344   0.620  16.500 -1.4444  1.1721 -2.2542
  596MPD2    N1 8842   3.399   0.976  16.931 -0.1603  0.1949 -0.1186
  596MPD2    H7 8843   3.418   1.058  16.876 -1.6790  1.1724  0.8207
  597TMC3    C1 8844   3.392   1.150  17.090 -0.1126 -0.3319 -0.0754
  597TMC3    C2 8845   3.480   1.220  17.018 -0.1044  0.4495  0.0021
  597TMC3    C3 8846   3.478   1.355  17.024 -0.2944 -0.4077 -0.0565
  597TMC3    C4 8847   3.323   1.200  17.195 -0.5026  1.1349  0.7702
  597TMC3    C5 8848   3.320   1.339  17.197  0.6419  0.0343  0.7993
  597TMC3    C6 8849   3.395   1.417  17.113  0.0485  0.6088 -0.9617
  597TMC3     C 8850   3.378   1.006  17.061 -0.0165 -0.3595  0.0314
  597TMC3     O 8851   3.321   0.936  17.142 -0.2619 -1.2766  0.8058
  597TMC3     H 8852   3.547   1.169  16.949 -0.3017 -1.2706  1.1070
  597TMC3    H1 8853   3.250   1.139  17.248  1.4766 -1.7316  0.1876
  597TMC3    H2 8854   3.396   1.520  17.146 -2.9739  0.5590 -0.7632
  597TMC3    C7 8855   3.204   1.407  17.258 -0.5706  0.2110  0.5621
  597TMC3    C8 8856   3.528   1.432  16.908 -0.3518 -0.0271  0.3619
  597TMC3    O1 8857   3.152   1.344  17.346  0.1884  0.7632  0.0606
  597TMC3    O2 8858   3.565   1.377  16.802  0.2146  0.1977 -0.4525
  598TMC3    C1 8859   1.856   2.542  15.399  0.1037  0.2845  0.4244
  598TMC3    C2 8860   1.771   2.436  15.382 -0.3450 -0.4962  0.5228
  598TMC3    C3 8861   1.724   2.401  15.259 -1.0893  0.8340 -0.3580
  598TMC3    C4 8862   1.902   2.608  15.289 -0.2954  0.1860  0.0083
  598TMC3    C5 8863   1.846   2.572  15.164  0.1862 -0.2793 -0.7419
  598TMC3    C6 8864   1.758   2.466  15.150  0.0634  0.1788 -0.3456
  598TMC3     C 8865   1.880   2.602  15.531 -0.5770 -0.0251 -0.7866
  598TMC3     O 8866   1.946   2.705  15.536 -0.6207 -0.1094 -0.4290
  598TMC3     H 8867   1.724   2.388  15.467 -2.0594  1.7216  0.8255
  598TMC3    H1 8868   1.979   2.683  15.304 -0.4413  0.2299  0.5199
  598TMC3    H2 8869   1.738   2.454  15.044 -1.9526 -1.4536  0.2251
  598TMC3    C7 8870   1.931   2.603  15.053 -0.0766 -0.3121 -0.0571
  598TMC3    C8 8871   1.643   2.286  15.251 -0.3814  0.0030  0.7747
  598TMC3    O1 8872   1.943   2.516  14.970  0.6468  0.3299  0.6415
  598TMC3    O2 8873   1.574   2.269  15.349  0.0014  0.8271  0.2998
  599MPD2     C 8874   1.771   0.336  16.531  0.4296 -0.0008 -0.6431
  599MPD2    C1 8875   1.739   0.250  16.425  0.3128  0.5630  0.4141
  599MPD2    C2 8876   1.606   0.222  16.392 -0.2268 -0.2258 -0.5482
  599MPD2    C3 8877   1.503   0.294  16.456 -0.2946  0.1099  0.4447
  599MPD2    C4 8878   1.533   0.381  16.562  0.3345 -0.4379  0.9951
  599MPD2    C5 8879   1.667   0.408  16.586  0.2678  0.0292  0.0769
  599MPD2     H 8880   1.578   0.146  16.320 -1.0477  1.1955 -1.7239
  599MPD2    H1 8881   1.452   0.434  16.611 -0.8158 -1.7360  0.4701
  599MPD2    H2 8882   1.872   0.358  16.564 -0.0647 -0.2414  1.0304
  599MPD2    H3 8883   1.687   0.483  16.661 -0.8020 -1.0257  1.4136
  599MPD2     N 8884   1.361   0.264  16.423  0.6915 -0.1059 -0.1066
  599MPD2    H5 8885   1.290   0.334  16.438  2.5235  1.7752 -0.1584
  599MPD2    N1 8886   1.854   0.188  16.361  0.3000 -0.1652 -0.1595
  599MPD2    H7 8887   1.943   0.227  16.390  0.6637  0.7021 -2.4191
  600TMC3    C1 8888   1.165   0.152  16.382  0.4521 -0.4128  0.2762
  600TMC3    C2 8889   1.102   0.058  16.463 -0.2267 -0.0623 -1.4472
  600TMC3    C3 8890   0.969   0.064  16.495  0.0045  0.7066  0.5620
  600TMC3    C4 8891   1.090   0.260  16.353 -0.4855  0.4044  0.4197
  600TMC3    C5 8892   0.953   0.276  16.388 -0.1669 -0.3895  0.2472
  600TMC3    C6 8893   0.886   0.174  16.464  0.2818 -0.1332 -0.4744
  600TMC3     C 8894   1.313   0.146  16.370 -0.2276 -0.3399 -0.1710
  600TMC3     O 8895   1.369   0.036  16.362 -0.3584  0.3565 -0.0892
  600TMC3     H 8896   1.162   4.694  16.499 -1.0115 -0.3852 -0.8909
  600TMC3    H1 8897   1.146   0.345  16.315  0.0055  0.5811  1.5417
  600TMC3    H2 8898   0.784   0.179  16.501  0.8384 -1.1129  1.2172
  600TMC3    C7 8899   0.879   0.401  16.350  0.0679 -0.2761  0.5573
  600TMC3    C8 8900   0.913   4.674  16.561 -0.5158  0.5406  0.7417
  600TMC3    O1 8901   0.775   0.431  16.404 -0.8679  0.2543 -0.0379
  600TMC3    O2 8902   0.988   4.591  16.616  0.1745  0.0159 -0.4626
  601MPD2     C 8903   3.118   1.940  17.499  0.2586 -0.2895 -0.0006
  601MPD2    C1 8904   3.138   2.027  17.601 -0.1845 -0.3541 -0.2386
  601MPD2    C2 8905   3.234   1.997   0.005 -0.1303  0.1370  0.8349
  601MPD2    C3 8906   3.333   1.897  17.669  0.1106 -0.0590  0.3562
  601MPD2    C4 8907   3.325   1.822  17.553  0.1008  0.4270  0.2618
  601MPD2    C5 8908   3.209   1.841  17.476 -0.9656  0.0224  0.6360
  601MPD2     H 8909   3.232   2.040   0.104  1.4266  0.7357  0.6040
  601MPD2    H1 8910   3.394   1.745  17.523  0.2729  0.4501  0.6015
  601MPD2    H2 8911   3.031   1.941  17.434  0.5138  1.3667 -0.3357
  601MPD2    H3 8912   3.194   1.792  17.380 -0.1446 -0.3095  0.6826
  601MPD2     N 8913   3.438   1.874   0.084 -0.0715  0.7632  0.0267
  601MPD2    H5 8914   3.501   1.794   0.077 -2.2614 -0.8134 -1.5616
  601MPD2    N1 8915   3.053   2.139  17.629  0.2520  0.0730 -0.6239
  601MPD2    H7 8916   3.065   2.200   0.029  1.7872 -0.2350 -0.6085
  602TMC3    C1 8917   2.908   2.322  17.554 -0.3759  0.1246  0.0071
  602TMC3    C2 8918   2.987   2.424  17.597 -0.1988 -0.3746  0.0782
  602TMC3    C3 8919   2.933   2.552  17.598 -0.3744 -0.9752  0.0918
  602TMC3    C4 8920   2.788   2.346  17.495  0.2245 -1.1312 -0.4110
  602TMC3    C5 8921   2.744   2.479  17.484  0.6396 -0.2019 -0.3035
  602TMC3    C6 8922   2.808   2.582  17.546  0.1369 -0.1897  0.5265
  602TMC3     C 8923   2.959   2.187  17.538 -0.5795  0.3273  0.1257
  602TMC3     O 8924   2.922   2.137  17.431 -0.1794  0.0360 -0.4714
  602TMC3     H 8925   3.082   2.397  17.642  1.4465  0.4501 -2.9287
  602TMC3    H1 8926   2.727   2.259  17.471 -0.6811 -0.5163 -0.3304
  602TMC3    H2 8927   2.754   2.676  17.546  0.4963  0.0386 -2.3985
  602TMC3    C7 8928   2.648   2.506  17.380 -0.6945 -0.0551  0.2397
  602TMC3    C8 8929   3.028   2.660  17.615 -0.6711  0.1750  0.1533
  602TMC3    O1 8930   2.564   2.415  17.361 -0.5390 -0.3152  0.3510
  602TMC3    O2 8931   3.139   2.634  17.656 -0.1110  0.7061 -0.1129
  603TMC3    C1 8932   1.999   4.067  11.698 -0.1698  0.2736  0.4838
  603TMC3    C2 8933   2.063   3.998  11.795 -0.2105  0.9893 -0.2572
  603TMC3    C3 8934   2.199   3.998  11.793  0.4402 -0.2912 -0.0502
  603TMC3    C4 8935   2.057   4.142  11.603  0.3492 -0.0205 -0.1596
  603TMC3    C5 8936   2.191   4.139  11.607  0.4382 -0.1067  0.4193
  603TMC3    C6 8937   2.264   4.079  11.704  0.5098  0.1292 -0.7997
  603TMC3     C 8938   1.881   4.007  11.638 -0.6998 -0.0047 -0.2667
  603TMC3     O 8939   1.894   4.006  11.517  0.4571  0.2976  0.5963
  603TMC3     H 8940   2.003   3.935  11.860 -0.4029  2.8172  1.3387
  603TMC3    H1 8941   2.011   4.204  11.527 -1.4594 -1.6225 -0.3618
  603TMC3    H2 8942   2.371   4.063  11.695  0.2048 -1.2798 -2.0200
  603TMC3    C7 8943   2.267   4.180  11.486  0.6024 -0.2861 -0.3007
  603TMC3    C8 8944   2.246   3.867  11.819 -0.4094  0.2512  0.1374
  603TMC3    O1 8945   2.388   4.185  11.498  0.1723  0.2923  0.0823
  603TMC3    O2 8946   2.152   3.788  11.834  0.0973  0.8507 -0.1480
  604MPD2     C 8947   2.370   1.711  16.470 -0.5348 -0.3667  0.3740
  604MPD2    C1 8948   2.292   1.794  16.394 -0.8132  0.1908 -0.2248
  604MPD2    C2 8949   2.316   1.802  16.254 -0.3711 -0.0512  0.6663
  604MPD2    C3 8950   2.411   1.725  16.192 -0.3095  0.3017  0.6001
  604MPD2    C4 8951   2.480   1.628  16.269  0.3912  0.1208 -0.9908
  604MPD2    C5 8952   2.463   1.636  16.402  0.4724  0.6361 -0.1230
  604MPD2     H 8953   2.271   1.883  16.198 -0.6655 -2.7856 -2.9737
  604MPD2    H1 8954   2.560   1.569  16.228  1.9780  0.0441  2.2518
  604MPD2    H2 8955   2.362   1.710  16.578  0.8879  1.3420  0.5043
  604MPD2    H3 8956   2.533   1.578  16.462  2.8143  2.5738 -0.9841
  604MPD2     N 8957   2.435   1.745  16.054  0.0106  0.5638 -0.2322
  604MPD2    H5 8958   2.382   1.823  16.017 -1.4949  0.5212  1.8650
  604MPD2    N1 8959   2.204   1.872  16.471 -0.3766 -0.2542 -0.0084
  604MPD2    H7 8960   2.204   1.852  16.570  0.9421 -0.4050 -0.0322
  605TMC3    C1 8961   2.018   1.997  16.511 -0.1574  0.4051 -0.7336
  605TMC3    C2 8962   2.097   2.080  16.587  0.3045 -0.1169  0.3627
  605TMC3    C3 8963   2.040   2.196  16.620  0.1380  0.6398  0.2834
  605TMC3    C4 8964   1.887   2.019  16.476  0.5477 -0.4477 -0.8104
  605TMC3    C5 8965   1.834   2.133  16.526 -0.5059  0.4464 -0.9620
  605TMC3    C6 8966   1.909   2.226  16.595  0.3587 -0.1291 -0.1895
  605TMC3     C 8967   2.106   1.945  16.413 -0.2281 -0.1101 -0.8013
  605TMC3     O 8968   2.072   1.950  16.296  0.1441 -0.3609  0.1778
  605TMC3     H 8969   2.201   2.061  16.610  0.2930  1.1805  1.4758
  605TMC3    H1 8970   1.849   1.960  16.393  1.2511  0.6995 -1.9607
  605TMC3    H2 8971   1.867   2.313  16.643 -0.1895 -0.0534 -0.8239
  605TMC3    C7 8972   1.709   2.188  16.470 -0.9091 -0.0117  0.9565
  605TMC3    C8 8973   2.127   2.312  16.600  0.2234  0.2186  0.6888
  605TMC3    O1 8974   1.715   2.310  16.454 -0.4102  0.4894  0.2668
  605TMC3    O2 8975   2.244   2.277  16.581 -0.3915  0.9432  0.1144
  606TMC3    C1 8976   3.757   0.649  17.187  0.1030  0.6873 -0.9196
  606TMC3    C2 8977   3.830   0.636  17.306  0.0579 -1.0493  0.1588
  606TMC3    C3 8978   3.809   0.519  17.383  0.2775  0.4378 -0.2682
  606TMC3    C4 8979   3.659   0.563  17.148 -0.6570 -0.1257 -0.1902
  606TMC3    C5 8980   3.640   0.452  17.228  0.0498 -0.7603  0.3013
  606TMC3    C6 8981   3.713   0.433  17.342  0.2503  0.6101  0.1769
  606TMC3     C 8982   3.769   0.777  17.112  0.0471 -0.1321  0.0142
  606TMC3     O 8983   3.812   0.875  17.178 -0.1135 -0.4910  0.2261
  606TMC3     H 8984   3.920   0.692  17.330  0.7993 -1.9439 -0.5481
  606TMC3    H1 8985   3.598   0.581  17.061  2.1742  0.0297 -2.1679
  606TMC3    H2 8986   3.695   0.333  17.379 -1.2412  0.9687  0.4451
  606TMC3    C7 8987   3.512   0.380  17.200 -0.1622 -0.2642  0.2822
  606TMC3    C8 8988   3.881   0.496  17.510  0.7244  0.0139 -0.1643
  606TMC3    O1 8989   3.471   0.384  17.081  0.1029 -0.4499 -0.2165
  606TMC3    O2 8990   3.989   0.556  17.534 -0.1803  1.2318 -0.3769
  607MPD2     C 8991   1.064   3.666  11.534  1.2546 -0.6193 -0.0949
  607MPD2    C1 8992   1.091   3.685  11.672 -0.5023 -0.1374 -0.1915
  607MPD2    C2 8993   1.073   3.577  11.758  0.7824  0.1011  0.8333
  607MPD2    C3 8994   1.060   3.455  11.707 -0.1028  0.2039 -0.4679
  607MPD2    C4 8995   1.030   3.439  11.576 -0.1718 -0.1926  0.1216
  607MPD2    C5 8996   1.021   3.544  11.493  0.3321 -0.5504 -0.2469
  607MPD2     H 8997   1.089   3.584  11.865 -1.2302 -0.1899  1.1492
  607MPD2    H1 8998   1.001   3.342  11.538  0.6830  0.0128 -1.0310
  607MPD2    H2 8999   1.067   3.747  11.462 -2.8329  0.0208  0.4680
  607MPD2    H3 9000   0.988   3.528  11.391 -0.9614 -3.2183  0.5759
  607MPD2     N 9001   1.070   3.349  11.795 -0.0420 -0.4156  0.8477
  607MPD2    H5 9002   1.080   3.370  11.894  0.4917  2.5574  0.1426
  607MPD2    N1 9003   1.136   3.807  11.723 -0.1390  0.1489 -0.0762
  607MPD2    H7 9004   1.115   3.827  11.820 -0.6642  2.1459 -0.6072
  608TMC3    C1 9005   1.275   3.999  11.733  0.1792  0.5215 -0.3593
  608TMC3    C2 9006   1.297   3.962  11.865 -0.2717  0.2923  0.1776
  608TMC3    C3 9007   1.409   4.011  11.930  0.1164  0.1312 -0.0810
  608TMC3    C4 9008   1.367   4.068  11.663 -0.8587 -0.8100 -0.0177
  608TMC3    C5 9009   1.477   4.122  11.726  0.2951  0.3708 -0.0887
  608TMC3    C6 9010   1.500   4.090  11.857  0.2410  1.3489 -0.5550
  608TMC3     C 9011   1.201   3.899  11.648 -0.3489 -0.1050  0.0371
  608TMC3     O 9012   1.227   3.897  11.529  0.5391 -0.3179 -0.2870
  608TMC3     H 9013   1.216   3.911  11.916 -1.1854  0.0431 -1.5190
  608TMC3    H1 9014   1.353   4.086  11.557 -2.0883 -1.3092  0.0687
  608TMC3    H2 9015   1.588   4.132  11.904  0.1984  2.6976 -1.6857
  608TMC3    C7 9016   1.578   4.191  11.645  0.4579  0.0479  0.3697
  608TMC3    C8 9017   1.459   3.937  12.044 -0.0084 -0.4057  0.9572
  608TMC3    O1 9018   1.586   4.162  11.525  0.2263  0.5819 -0.0343
  608TMC3    O2 9019   1.524   3.989  12.133  0.3413 -0.0751  0.0064
  609TMC3    C1 9020   4.525   2.350   8.911  0.3029  0.2994 -0.1352
  609TMC3    C2 9021   4.435   2.307   8.815 -0.3691  0.2818 -0.6056
  609TMC3    C3 9022   4.458   2.192   8.740  0.0925 -0.3388 -0.1641
  609TMC3    C4 9023   4.649   2.287   8.919 -0.0541  0.8606 -0.6073
  609TMC3    C5 9024   4.656   2.161   8.862 -0.6820  0.4964  0.3963
  609TMC3    C6 9025   4.568   2.108   8.775 -0.2604  0.4384  0.1157
  609TMC3     C 9026   4.491   2.423   9.033  0.3933  0.6114  0.5595
  609TMC3     O 9027   4.546   2.391   9.136  0.0250  0.3207 -0.1357
  609TMC3     H 9028   4.340   2.359   8.817  0.4582  1.7247  1.1173
  609TMC3    H1 9029   4.715   2.321   8.998  1.9557  0.5537 -2.1685
  609TMC3    H2 9030   4.583   2.008   8.736 -2.2138 -0.4584  1.6633
  609TMC3    C7 9031   0.060   2.089   8.896  0.9595 -0.5449 -0.2594
  609TMC3    C8 9032   4.342   2.112   8.694 -0.2800  0.1277  0.1592
  609TMC3    O1 9033   0.132   2.130   8.987 -0.1748 -0.1111 -0.0300
  609TMC3    O2 9034   4.361   1.995   8.679  0.0970  0.0083 -0.4402
  610TMC3    C1 9035   1.842   3.272  12.811  0.2550 -0.1309 -0.3143
  610TMC3    C2 9036   1.855   3.344  12.695  0.4219  0.9207 -0.1443
  610TMC3    C3 9037   1.973   3.333  12.624  0.3159  0.2491 -0.5201
  610TMC3    C4 9038   1.944   3.188  12.856  0.1200 -0.6698  0.2714
  610TMC3    C5 9039   2.054   3.177  12.773 -0.2471  0.0724  0.0383
  610TMC3    C6 9040   2.075   3.235  12.657  0.2611 -0.5394 -0.5264
  610TMC3     C 9041   1.712   3.263  12.871 -0.6098 -0.1802 -0.3194
  610TMC3     O 9042   1.621   3.291  12.800 -0.0357  0.0474  0.0981
  610TMC3     H 9043   1.778   3.411  12.659  0.0425  1.0187  0.8509
  610TMC3    H1 9044   1.925   3.118  12.936  0.6214 -3.0725 -1.6961
  610TMC3    H2 9045   2.171   3.222  12.609  0.5550  2.9299 -0.8414
  610TMC3    C7 9046   2.150   3.069  12.806 -0.8526  0.9370 -0.3147
  610TMC3    C8 9047   1.972   3.399  12.490  0.3532 -0.7127 -0.0097
  610TMC3    O1 9048   2.184   2.999  12.717 -0.4318 -0.2411 -0.1391
  610TMC3    O2 9049   1.885   3.486  12.464  0.9133 -0.0307  0.1591
  611MPD2     C 9050   1.780   3.457  10.525  0.4902  0.0914 -0.0562
  611MPD2    C1 9051   1.734   3.547  10.437 -0.1616 -0.5751 -0.1424
  611MPD2    C2 9052   1.764   3.683  10.458  0.7396  0.3536 -0.4347
  611MPD2    C3 9053   1.855   3.725  10.557 -0.4803 -0.1807  0.4028
  611MPD2    C4 9054   1.897   3.627  10.650  0.2900 -0.2617  1.1325
  611MPD2    C5 9055   1.857   3.494  10.637 -0.1927  0.4946  0.1263
  611MPD2     H 9056   1.726   3.749  10.381  2.3507  1.9521  0.1312
  611MPD2    H1 9057   1.960   3.644  10.737  3.4170 -0.3390 -1.1243
  611MPD2    H2 9058   1.747   3.355  10.517 -0.3204  0.4498 -1.2333
  611MPD2    H3 9059   1.887   3.431  10.719 -2.0399  0.6476  0.9221
  611MPD2     N 9060   1.897   3.857  10.578  0.2386  0.4529 -0.8247
  611MPD2    H5 9061   1.962   3.876  10.654 -1.2204 -0.2124  0.5930
  611MPD2    N1 9062   1.640   3.504  10.336  0.0898 -0.4000  0.5426
  611MPD2    H7 9063   1.624   3.404  10.329 -0.9372 -0.1977 -0.1151
  612TMC3    C1 9064   1.903   4.094  10.543 -0.1838  0.1977  0.1897
  612TMC3    C2 9065   1.971   4.119  10.662  0.2145  0.0673  0.4057
  612TMC3    C3 9066   1.993   4.252  10.682  0.3380  0.8058 -0.8263
  612TMC3    C4 9067   1.862   4.194  10.456  0.0082 -0.1432  0.8747
  612TMC3    C5 9068   1.907   4.325  10.481  0.3961  0.6508 -0.3170
  612TMC3    C6 9069   1.974   4.350  10.594  0.0308  0.3381  0.0071
  612TMC3     C 9070   1.880   3.961  10.488  0.1124 -0.4333  0.3458
  612TMC3     O 9071   1.844   3.953  10.371 -0.1913  0.1431 -0.2208
  612TMC3     H 9072   1.999   4.041  10.732  0.4355 -0.5922 -0.4130
  612TMC3    H1 9073   1.803   4.163  10.370 -1.4296  0.1189  1.7706
  612TMC3    H2 9074   2.016   4.448  10.616  0.3084 -0.5252  3.2691
  612TMC3    C7 9075   1.891   4.434  10.390 -0.2583 -0.1418 -0.4780
  612TMC3    C8 9076   2.103   4.274  10.772  0.4987  0.7085 -0.1496
  612TMC3    O1 9077   1.963   4.526  10.415 -0.1980 -0.1587  0.6888
  612TMC3    O2 9078   2.176   4.371  10.746 -0.3096 -0.8071  0.3065
  613MPD2     C 9079   4.500   0.684  17.060  0.0071  0.3745 -0.0383
  613MPD2    C1 9080   4.475   0.734  16.933 -0.1925  0.3100  0.2663
  613MPD2    C2 9081   4.467   0.635  16.830 -0.6646  0.8082 -0.2104
  613MPD2    C3 9082   4.471   0.498  16.867  0.2603  0.2618 -0.7991
  613MPD2    C4 9083   4.502   0.456  16.995 -0.3797  0.9255  0.4526
  613MPD2    C5 9084   4.515   0.549  17.089 -0.0066  0.4173 -0.0126
  613MPD2     H 9085   4.457   0.666  16.727  1.5806 -1.4426 -1.1127
  613MPD2    H1 9086   4.494   0.349  17.012  1.4659  1.0747  2.2661
  613MPD2    H2 9087   4.525   0.747  17.144 -0.5171  1.3725 -0.6348
  613MPD2    H3 9088   4.539   0.528  17.192  1.2743  1.5644 -0.0736
  613MPD2     N 9089   4.457   0.399  16.770 -0.6573 -0.6772 -0.0395
  613MPD2    H5 9090   4.482   0.309  16.810 -1.1979 -1.4578 -1.4962
  613MPD2    N1 9091   4.470   0.877  16.913 -0.1758  0.3238 -0.7217
  613MPD2    H7 9092   4.513   0.934  16.986 -0.0796  0.0355 -0.5547
  614TMC3    C1 9093   4.501   1.056  16.780  0.9740 -0.4758 -0.1902
  614TMC3    C2 9094   4.625   1.016  16.744 -0.5674  0.3597 -0.2289
  614TMC3    C3 9095   4.684   1.054  16.627  0.6145 -0.7843  0.2509
  614TMC3    C4 9096   4.440   1.153  16.705  0.3617  0.2404  0.4246
  614TMC3    C5 9097   4.502   1.196  16.592  0.2420 -0.0259  0.6880
  614TMC3    C6 9098   4.623   1.147  16.550 -0.0456 -0.4995 -0.1601
  614TMC3     C 9099   4.421   0.937  16.799  0.0909  0.8715  1.0752
  614TMC3     O 9100   4.367   0.879  16.702 -0.6278 -0.0501  0.3272
  614TMC3     H 9101   4.678   0.940  16.801 -1.4490  0.4819  0.7427
  614TMC3    H1 9102   4.335   1.178  16.705  0.7387  1.8038 -0.4736
  614TMC3    H2 9103   4.668   1.188  16.461  1.4579 -2.2431 -0.2189
  614TMC3    C7 9104   4.422   1.270  16.496 -0.7132  0.0816  0.2038
  614TMC3    C8 9105   0.039   0.948  16.560  0.1295  0.4620 -0.2809
  614TMC3    O1 9106   4.382   1.377  16.544 -0.0201  0.1261 -0.5668
  614TMC3    O2 9107   0.071   0.859  16.633 -0.2557  0.2421 -0.2668
  615MPD2     C 9108   4.369   2.628  16.373 -0.3044  0.1086  0.2388
  615MPD2    C1 9109   4.240   2.653  16.343  0.7327 -0.1582 -0.6732
  615MPD2    C2 9110   4.163   2.555  16.284 -0.3726 -0.3967 -0.0928
  615MPD2    C3 9111   4.215   2.428  16.262 -0.0220  0.0728 -0.1392
  615MPD2    C4 9112   4.352   2.405  16.280  0.6480  0.2369  0.0973
  615MPD2    C5 9113   4.421   2.506  16.341  0.0999 -0.2085  0.0929
  615MPD2     H 9114   4.058   2.574  16.265 -0.3231 -1.4480 -1.4955
  615MPD2    H1 9115   4.400   2.310  16.256 -0.6987 -0.3972 -0.1169
  615MPD2    H2 9116   4.437   2.703  16.411  0.3534  0.1977 -1.1214
  615MPD2    H3 9117   4.527   2.495  16.360 -0.1138 -1.8573  0.2851
  615MPD2     N 9118   4.139   2.323  16.199  0.3293 -0.1821  0.4146
  615MPD2    H5 9119   4.189   2.242  16.163  0.2253 -0.5552  1.1134
  615MPD2    N1 9120   4.174   2.779  16.362 -0.1432  0.8193  0.1439
  615MPD2    H7 9121   4.083   2.782  16.319  0.1109  0.4512 -0.4166
  616TMC3    C1 9122   4.153   3.015  16.418  0.6119 -0.5030 -0.0972
  616TMC3    C2 9123   4.212   3.135  16.379 -0.5646  1.2825 -0.1904
  616TMC3    C3 9124   4.139   3.240  16.356  0.0831 -0.2805  0.0627
  616TMC3    C4 9125   4.015   3.004  16.430 -0.5817  0.2658  0.4799
  616TMC3    C5 9126   3.943   3.113  16.402 -0.6924 -0.3550  0.2027
  616TMC3    C6 9127   4.004   3.233  16.369 -0.0764 -0.3592 -0.0280
  616TMC3     C 9128   4.234   2.891  16.411  0.3598  0.6458  0.3448
  616TMC3     O 9129   4.354   2.918  16.432  0.2559 -0.1800  0.7133
  616TMC3     H 9130   4.320   3.142  16.389 -0.2920 -3.1285 -0.1160
  616TMC3    H1 9131   3.969   2.909  16.453 -0.0956 -0.5482 -1.9154
  616TMC3    H2 9132   3.934   3.304  16.326  0.6091  1.0014  1.1023
  616TMC3    C7 9133   3.803   3.120  16.427  0.7410  0.2190  0.5279
  616TMC3    C8 9134   4.192   3.350  16.281  0.0338 -1.0198  0.1633
  616TMC3    O1 9135   3.756   3.229  16.454  0.3910 -0.2208  0.4173
  616TMC3    O2 9136   4.112   3.407  16.215  0.1548  0.1722 -1.0903
  617MPD2     C 9137   2.463   0.638  13.590  0.5501 -0.1137  0.2136
  617MPD2    C1 9138   2.441   0.627  13.723 -0.0543 -0.7833 -0.1764
  617MPD2    C2 9139   2.318   0.581  13.769  0.5075  0.2549  0.6098
  617MPD2    C3 9140   2.217   0.547  13.678  0.4988 -0.3075 -0.2947
  617MPD2    C4 9141   2.247   0.555  13.549  0.9644 -0.6825  0.0069
  617MPD2    C5 9142   2.367   0.604  13.502  0.1764  0.7109 -0.4370
  617MPD2     H 9143   2.289   0.593  13.873  0.0872  1.6417  0.3318
  617MPD2    H1 9144   2.183   0.518  13.470 -2.7218  1.4992  1.9778
  617MPD2    H2 9145   2.559   0.667  13.549  0.7107  1.6851  1.8410
  617MPD2    H3 9146   2.390   0.596  13.397 -0.1202  3.7793 -0.7635
  617MPD2     N 9147   2.090   0.497  13.706  0.3623 -0.4991 -0.3162
  617MPD2    H5 9148   2.029   0.475  13.627 -1.3671  0.2271  0.8311
  617MPD2    N1 9149   2.553   0.669  13.807  0.3951  0.6165  0.2107
  617MPD2    H7 9150   2.636   0.696  13.757 -0.1328  0.3284 -0.8086
  618TMC3    C1 9151   2.698   0.689  13.986  0.4508 -0.0099 -0.2990
  618TMC3    C2 9152   2.768   0.576  14.023 -0.5785  0.4286 -0.1886
  618TMC3    C3 9153   2.885   0.553  13.957  0.3717  0.2170 -0.6857
  618TMC3    C4 9154   2.756   0.794  13.919 -0.2750 -0.5056  0.0599
  618TMC3    C5 9155   2.883   0.774  13.856 -0.2538 -0.9195 -0.7572
  618TMC3    C6 9156   2.938   0.650  13.876 -0.3756 -0.3878 -0.3221
  618TMC3     C 9157   2.561   0.663  13.946 -0.1795 -0.1982  0.0281
  618TMC3     O 9158   2.472   0.649  14.029  0.1607  0.2419  0.8581
  618TMC3     H 9159   2.708   0.489  14.049  0.6838 -0.3186  0.2244
  618TMC3    H1 9160   2.688   0.877  13.900  1.2467  0.4883 -1.0539
  618TMC3    H2 9161   3.027   0.625  13.820 -1.1560 -0.1514 -1.6681
  618TMC3    C7 9162   2.877   0.807  13.720 -0.3181  0.1614  0.0113
  618TMC3    C8 9163   2.860   0.430  13.891  0.1163 -0.2562 -0.2459
  618TMC3    O1 9164   2.765   0.799  13.665 -0.0482  0.2423  0.4359
  618TMC3    O2 9165   2.750   0.416  13.839  0.1371 -0.0313  0.1087
  619MPD2     C 9166   3.851   1.805  13.383  0.3248 -0.5711  0.7377
  619MPD2    C1 9167   3.733   1.832  13.328 -0.1905  0.6886 -0.2522
  619MPD2    C2 9168   3.616   1.776  13.383 -0.1938  0.8820  0.0067
  619MPD2    C3 9169   3.621   1.703  13.499 -0.3831 -0.0613  0.2287
  619MPD2    C4 9170   3.750   1.673  13.552  0.3937 -0.1351  0.4580
  619MPD2    C5 9171   3.857   1.730  13.490  0.4092  0.3126 -0.0910
  619MPD2     H 9172   3.526   1.796  13.327 -1.5652 -3.1276  0.8240
  619MPD2    H1 9173   3.762   1.614  13.642  0.6808  1.5803  1.5341
  619MPD2    H2 9174   3.945   1.832  13.335 -0.1875 -1.4874 -0.7946
  619MPD2    H3 9175   3.945   1.702  13.547  0.6652 -0.6404 -0.9471
  619MPD2     N 9176   3.502   1.657  13.566 -0.1465 -0.5223  0.2294
  619MPD2    H5 9177   3.505   1.589  13.641  0.4030 -2.5504 -1.6359
  619MPD2    N1 9178   3.717   1.896  13.201  0.0802 -0.1763 -0.1304
  619MPD2    H7 9179   3.624   1.892  13.160  0.3449 -1.0273 -0.6476
  620TMC3    C1 9180   3.715   2.065  13.062  0.4582  0.8124 -0.9304
  620TMC3    C2 9181   3.642   1.993  12.973 -0.2982 -0.3183 -0.4463
  620TMC3    C3 9182   3.522   2.036  12.928 -0.0792 -0.6334  1.4050
  620TMC3    C4 9183   3.660   2.174  13.115 -0.0946 -0.2805  0.2497
  620TMC3    C5 9184   3.549   2.232  13.056  0.2003  0.4327 -0.6803
  620TMC3    C6 9185   3.496   2.173  12.944  0.0333 -0.5943 -0.2808
  620TMC3     C 9186   3.796   1.988  13.149 -0.1917  0.6044 -0.3954
  620TMC3     O 9187   3.892   2.040  13.204 -0.5781 -0.2569 -0.0766
  620TMC3     H 9188   3.671   1.900  12.926 -2.1586 -0.5711 -1.0852
  620TMC3    H1 9189   3.699   2.204  13.212 -2.5041  0.5610  0.9659
  620TMC3    H2 9190   3.433   2.231  12.878  3.4097  0.9653 -2.1528
  620TMC3    C7 9191   3.455   2.324  13.116  0.0581 -0.4642 -0.0920
  620TMC3    C8 9192   3.416   1.969  13.002 -0.6103  0.0134 -0.2672
  620TMC3    O1 9193   3.370   2.368  13.044 -0.0396  0.4769  0.8166
  620TMC3    O2 9194   3.463   1.898  13.088 -0.0438  0.4613 -0.0367
  621MPD2     C 9195   4.461   1.807   9.903  0.3386 -0.1136  0.4075
  621MPD2    C1 9196   4.526   1.836  10.022  0.4032 -0.1479 -0.3301
  621MPD2    C2 9197   4.617   1.938  10.020 -0.5069  0.2013 -0.2338
  621MPD2    C3 9198   4.654   2.009   9.903  0.7257  0.2431  0.2099
  621MPD2    C4 9199   4.586   1.979   9.783  0.9978 -0.1239 -0.6881
  621MPD2    C5 9200   4.494   1.875   9.788  0.7529  0.2618  0.0727
  621MPD2     H 9201   4.670   1.958  10.112  0.1171 -1.5525 -0.1910
  621MPD2    H1 9202   4.615   2.029   9.691 -2.8048  2.4078 -0.5260
  621MPD2    H2 9203   4.384   1.731   9.906  0.2951 -0.0454  1.0934
  621MPD2    H3 9204   4.438   1.851   9.698 -2.3674 -1.3691  2.4856
  621MPD2     N 9205   0.029   2.109   9.918  0.4270  0.0042  0.3663
  621MPD2    H5 9206   0.059   2.124  10.013 -1.9381  1.4078  0.9096
  621MPD2    N1 9207   4.510   1.765  10.146  0.2875 -0.1880 -0.1124
  621MPD2    H7 9208   4.573   1.789  10.222 -0.4303 -1.2383  0.8332
  622TMC3    C1 9209   4.459   1.586  10.290 -1.0356 -0.4492 -0.2928
  622TMC3    C2 9210   4.494   1.660  10.402 -0.1420  0.1357  0.0755
  622TMC3    C3 9211   4.477   1.593  10.524  0.0642  0.7899  0.2171
  622TMC3    C4 9212   4.424   1.454  10.301 -0.7872  0.0842  0.3345
  622TMC3    C5 9213   4.415   1.391  10.421  0.1486 -0.3208 -0.8695
  622TMC3    C6 9214   4.454   1.456  10.531  0.2506  0.7456  0.3689
  622TMC3     C 9215   4.444   1.651  10.161  0.1802 -0.6625 -0.6681
  622TMC3     O 9216   4.363   1.593  10.084 -0.1667 -0.0767 -0.1771
  622TMC3     H 9217   4.526   1.763  10.392  0.9231 -0.0089  1.9432
  622TMC3    H1 9218   4.395   1.400  10.212  1.5667  0.4760 -0.6668
  622TMC3    H2 9219   4.450   1.405  10.627 -0.2113 -1.5267 -0.8605
  622TMC3    C7 9220   4.362   1.251  10.424  0.0945 -0.2370  0.0394
  622TMC3    C8 9221   4.493   1.666  10.646  0.4243 -0.5411  0.4853
  622TMC3    O1 9222   4.403   1.176  10.510  0.1975  0.4989  0.5407
  622TMC3    O2 9223   4.533   1.611  10.747  0.4038  0.1622  0.1050
  623MPD2     C 9224   2.477   2.639  15.494 -0.3588  0.6138  0.2259
  623MPD2    C1 9225   2.429   2.727  15.587 -0.4497  0.7591 -0.5052
  623MPD2    C2 9226   2.487   2.740  15.704  0.7000 -0.4229  0.3759
  623MPD2    C3 9227   2.587   2.654  15.739 -0.0016  0.3067  0.0018
  623MPD2    C4 9228   2.636   2.566  15.653 -0.3075  0.2336  0.0405
  623MPD2    C5 9229   2.583   2.556  15.526 -1.2764 -0.5310  0.1216
  623MPD2     H 9230   2.465   2.824  15.768 -0.3676 -1.0647  0.8611
  623MPD2    H1 9231   2.708   2.495  15.690 -1.2789  0.0698  1.6078
  623MPD2    H2 9232   2.426   2.641  15.398  0.0286 -0.3096  0.0025
  623MPD2    H3 9233   2.626   2.494  15.448 -0.0598  0.3373  0.0946
  623MPD2     N 9234   2.636   2.664  15.870 -0.0817  0.3914 -0.5093
  623MPD2    H5 9235   2.591   2.731  15.931  0.8020  1.9153 -1.5203
  623MPD2    N1 9236   2.321   2.822  15.568 -0.3420 -0.5793 -0.4702
  623MPD2    H7 9237   2.286   2.858  15.656  1.7000 -0.2807  0.2306
  624TMC3    C1 9238   2.858   2.607  16.273 -0.6372  0.9641 -0.0836
  624TMC3    C2 9239   2.743   2.612  16.344 -0.0397  0.5916 -1.0373
  624TMC3    C3 9240   2.631   2.606  16.280  0.2010 -0.0700  0.0436
  624TMC3    C4 9241   2.860   2.612  16.137 -0.2080 -0.4146 -0.5502
  624TMC3    C5 9242   2.745   2.612  16.069  0.3553  0.0339 -0.3977
  624TMC3    C6 9243   2.617   2.604  16.137  0.1749  0.1955  0.0805
  624TMC3     C 9244   2.995   2.623  16.338  0.4400 -0.2932 -0.1576
  624TMC3     O 9245   3.092   2.663  16.277 -0.5949 -0.2372 -0.6515
  624TMC3     H 9246   2.755   2.621  16.451  1.2148  0.5065 -1.1747
  624TMC3    H1 9247   2.955   2.609  16.084 -0.8934 -2.0139 -1.6936
  624TMC3    H2 9248   2.521   2.588  16.091  0.4423 -1.1684 -0.0062
  624TMC3    C7 9249   2.738   2.598  15.929 -0.0506 -0.6455  0.3016
  624TMC3    C8 9250   2.507   2.600  16.359 -0.9189  0.2703  0.5509
  624TMC3    O1 9251   2.832   2.544  15.875  0.6749 -0.8153  0.2852
  624TMC3    O2 9252   2.522   2.567  16.476  0.3650 -0.5620  0.6500
  625MPD2     C 9253   2.304   3.550   0.059 -0.4893  0.0673 -0.4782
  625MPD2    C1 9254   2.378   3.622   0.157 -0.0832  0.6751  0.2137
  625MPD2    C2 9255   2.437   3.548   0.261 -0.3227 -0.8851  0.8003
  625MPD2    C3 9256   2.434   3.408   0.265 -0.2088  0.0036  0.4026
  625MPD2    C4 9257   2.371   3.343   0.158  0.0901 -0.2184 -0.0589
  625MPD2    C5 9258   2.302   3.412   0.056 -0.4892 -0.4482 -0.1374
  625MPD2     H 9259   2.483   3.605   0.341 -3.1954 -0.1065  1.8951
  625MPD2    H1 9260   2.383   3.235   0.160  1.8621 -0.0365 -1.4727
  625MPD2    H2 9261   2.247   3.597  17.659  0.5152  2.5071  0.2527
  625MPD2    H3 9262   2.268   3.352  17.653 -1.6285  0.3098 -0.2219
  625MPD2     N 9263   2.498   3.335   0.367 -0.7429 -0.3892  0.0861
  625MPD2    H5 9264   2.548   3.388   0.438 -0.2329 -0.0235 -0.5493
  625MPD2    N1 9265   2.386   3.760   0.168  0.7795  0.0086  0.5284
  625MPD2    H7 9266   2.437   3.802   0.245 -0.3510  1.4299  0.4838
  626TMC3    C1 9267   2.367   3.983   0.143 -0.5983  0.5039  0.2790
  626TMC3    C2 9268   2.342   4.089   0.059  0.2037  0.1986 -0.4139
  626TMC3    C3 9269   2.394   4.210   0.093 -0.7489  0.4953  0.4687
  626TMC3    C4 9270   2.446   3.995   0.258 -0.6889  0.3238 -0.5521
  626TMC3    C5 9271   2.493   4.115   0.290 -0.3252 -1.1298  0.5298
  626TMC3    C6 9272   2.469   4.221   0.214  0.7110 -0.9091 -0.1889
  626TMC3     C 9273   2.342   3.853   0.087 -0.7528  0.8694  0.4292
  626TMC3     O 9274   2.290   3.844  17.657 -0.2440 -0.6441  0.0531
  626TMC3     H 9275   2.270   4.078  17.658 -0.4334 -0.8183  0.2996
  626TMC3    H1 9276   2.431   3.925   0.339 -1.9999  1.0474 -0.1769
  626TMC3    H2 9277   2.518   4.314   0.241 -0.8149  0.2474 -1.3957
  626TMC3    C7 9278   2.518   4.123   0.435 -0.7019  0.3651  0.3624
  626TMC3    C8 9279   2.369   4.319  17.675 -0.0847 -0.6590  0.2992
  626TMC3    O1 9280   2.560   4.015   0.482  0.6467  0.5542  0.3323
  626TMC3    O2 9281   2.357   4.287  17.560  0.0985 -0.0359  0.1591
  627MPD2     C 9282   1.121   4.165  14.368  0.1961  0.2226  0.1133
  627MPD2    C1 9283   1.215   4.120  14.454  0.4527 -0.3603  0.3312
  627MPD2    C2 9284   1.197   3.987  14.497 -0.3315  0.3942  0.2091
  627MPD2    C3 9285   1.091   3.906  14.452  0.5109  0.0738 -0.5377
  627MPD2    C4 9286   0.992   3.964  14.368  0.1124 -0.0883  0.0744
  627MPD2    C5 9287   1.008   4.094  14.329 -0.0225 -0.8161  0.3863
  627MPD2     H 9288   1.264   3.941  14.568 -0.4236 -0.5458 -0.3160
  627MPD2    H1 9289   0.913   3.906  14.321  0.3221  0.2564 -0.6979
  627MPD2    H2 9290   1.124   4.268  14.333  0.1219  0.5884  1.1756
  627MPD2    H3 9291   0.928   4.140  14.272  1.8574  1.1974 -0.6468
  627MPD2     N 9292   1.092   3.765  14.484 -0.6502  0.5115  1.1569
  627MPD2    H5 9293   1.161   3.717  14.541 -1.7443 -1.9718  0.3661
  627MPD2    N1 9294   1.320   4.204  14.503 -0.2183 -0.5920  0.0388
  627MPD2    H7 9295   1.391   4.156  14.558  2.4712 -0.3019 -3.1438
  628TMC3    C1 9296   1.474   4.378  14.523 -0.8070 -0.6240 -0.5853
  628TMC3    C2 9297   1.566   4.287  14.575 -0.1132 -0.1787 -0.3999
  628TMC3    C3 9298   1.674   4.339  14.640  0.4472 -0.2354 -0.0924
  628TMC3    C4 9299   1.482   4.516  14.547 -0.0812  0.3335 -0.1250
  628TMC3    C5 9300   1.591   4.558  14.622  0.0470 -0.0420  0.0621
  628TMC3    C6 9301   1.684   4.473  14.670 -0.2862  0.3865 -0.7440
  628TMC3     C 9302   1.349   4.336  14.468  0.0913 -0.2232 -0.0476
  628TMC3     O 9303   1.278   4.413  14.404  0.4327  0.9053  0.4778
  628TMC3     H 9304   1.570   4.184  14.541 -1.1381  0.0947 -1.3845
  628TMC3    H1 9305   1.418   4.591  14.502 -1.3808 -1.7090 -1.6582
  628TMC3    H2 9306   1.780   4.520  14.692 -0.6460  0.1891  1.1661
  628TMC3    C7 9307   1.618   4.700  14.634  0.3271  0.2635 -0.0555
  628TMC3    C8 9308   1.800   4.270  14.623  0.7166  0.6490 -0.7263
  628TMC3    O1 9309   1.674   0.027  14.733  0.3590  0.3280 -0.5813
  628TMC3    O2 9310   1.808   4.178  14.538 -0.1943  0.7798 -0.3232
  629MPD2     C 9311   4.563   3.607  16.046  0.7854  0.3816 -0.3386
  629MPD2    C1 9312   4.623   3.522  16.137  0.6953 -0.5185 -0.3644
  629MPD2    C2 9313   4.546   3.437  16.204 -0.3794  0.0336  0.3793
  629MPD2    C3 9314   4.408   3.444  16.205 -0.1452 -0.1684  0.5228
  629MPD2    C4 9315   4.356   3.550  16.126 -0.6590 -0.2864  0.1893
  629MPD2    C5 9316   4.435   3.627  16.056 -0.5499 -0.2204  0.0554
  629MPD2     H 9317   4.587   3.364  16.273  2.1386  0.2819 -0.8393
  629MPD2    H1 9318   4.249   3.570  16.130 -0.6608 -0.3049  0.2383
  629MPD2    H2 9319   4.618   3.658  15.967 -0.7095  0.0780 -1.5676
  629MPD2    H3 9320   4.398   3.712  16.000 -1.2246 -0.2052  0.5268
  629MPD2     N 9321   4.329   3.360  16.290 -0.2056  0.2265  0.1485
  629MPD2    H5 9322   4.376   3.297  16.354  0.5372  0.1553 -0.4687
  629MPD2    N1 9323   0.037   3.476  16.131 -0.0728  0.1420  0.0679
  629MPD2    H7 9324   0.049   3.410  16.207  1.6705  2.3201  1.6786
  630TMC3    C1 9325   0.261   3.515  16.177 -0.6415 -0.1506  0.0451
  630TMC3    C2 9326   0.321   3.625  16.230 -0.2944 -0.5735 -0.1422
  630TMC3    C3 9327   0.405   3.602  16.334  0.0339  0.1208  0.5158
  630TMC3    C4 9328   0.273   3.386  16.218  0.3184  0.0995 -0.2270
  630TMC3    C5 9329   0.361   3.370  16.318  0.3079  0.5638 -0.3342
  630TMC3    C6 9330   0.424   3.474  16.379  0.2807  0.8054  0.2109
  630TMC3     C 9331   0.144   3.553  16.098  0.1359  0.1904  1.0150
  630TMC3     O 9332   0.132   3.665  16.046  0.5290  0.4190 -0.6036
  630TMC3     H 9333   0.312   3.727  16.197 -3.3500 -0.4156  1.2097
  630TMC3    H1 9334   0.231   3.302  16.165 -1.0189 -0.2041  1.3276
  630TMC3    H2 9335   0.486   3.463  16.467  3.4128  1.2295 -1.9718
  630TMC3    C7 9336   0.366   3.237  16.376  0.0552  0.0315  0.1536
  630TMC3    C8 9337   0.482   3.708  16.385  0.7753 -0.1316  0.7973
  630TMC3    O1 9338   0.281   3.161  16.334  0.1107 -0.0997  0.4780
  630TMC3    O2 9339   0.523   3.692  16.499  0.0629  0.0995 -0.3161
  631MPD2     C 9340   3.198   2.417  15.833  0.5355  0.4561 -0.4122
  631MPD2    C1 9341   3.306   2.451  15.753 -0.2947 -0.0946  0.4234
  631MPD2    C2 9342   3.426   2.387  15.774  0.6209  0.3519  0.2422
  631MPD2    C3 9343   3.442   2.299  15.874  0.6902 -1.1266  0.5238
  631MPD2    C4 9344   3.334   2.260  15.952  0.0893  0.2538 -0.4298
  631MPD2    C5 9345   3.210   2.318  15.926 -0.2810 -0.2633  0.7000
  631MPD2     H 9346   3.514   2.408  15.716  1.9668 -0.8692  1.8434
  631MPD2    H1 9347   3.349   2.190  16.034 -1.6555  0.7265  0.2908
  631MPD2    H2 9348   3.107   2.475  15.837 -0.6803 -1.5174  0.3931
  631MPD2    H3 9349   3.127   2.292  15.991 -1.3312  1.6087  0.0856
  631MPD2     N 9350   3.573   2.273  15.900  0.1374 -0.1254 -0.1632
  631MPD2    H5 9351   3.650   2.320  15.853 -0.1504 -0.5398 -1.0525
  631MPD2    N1 9352   3.287   2.553  15.656  0.1389 -0.2485 -0.7697
  631MPD2    H7 9353   3.198   2.602  15.656  1.3244  1.9130  1.9904
  632TMC3    C1 9354   3.317   2.652  15.450  0.2333 -0.2237 -0.0208
  632TMC3    C2 9355   3.249   2.766  15.494 -0.1013  0.0651  0.0034
  632TMC3    C3 9356   3.226   2.865  15.403 -0.2344 -0.9059  1.1611
  632TMC3    C4 9357   3.356   2.639  15.317  0.2473  0.2029  0.2899
  632TMC3    C5 9358   3.355   2.754  15.244 -0.1065  0.5695  0.4821
  632TMC3    C6 9359   3.285   2.867  15.285  0.3323  0.3665 -0.1591
  632TMC3     C 9360   3.354   2.544  15.538  0.1272 -0.0865 -0.0867
  632TMC3     O 9361   3.432   2.456  15.509 -0.2012 -0.2744  0.7642
  632TMC3     H 9362   3.201   2.768  15.592  0.7361 -1.7932  0.4447
  632TMC3    H1 9363   3.398   2.545  15.283  2.4877  0.8956  1.1735
  632TMC3    H2 9364   3.295   2.957  15.226  1.6959  0.0172 -0.4634
  632TMC3    C7 9365   3.425   2.745  15.120 -0.1605 -0.6269  0.1171
  632TMC3    C8 9366   3.172   2.986  15.444 -0.2982 -0.0861  0.0362
  632TMC3    O1 9367   3.404   2.847  15.053  0.2482  0.5453 -0.4545
  632TMC3    O2 9368   3.140   3.069  15.363  0.1734 -0.3093  0.6805
  633MPD2     C 9369   2.687   1.040  17.530 -0.0519 -0.3557  0.2688
  633MPD2    C1 9370   2.783   0.956  17.482 -0.3892  0.1276 -0.4708
  633MPD2    C2 9371   2.808   0.836  17.539 -0.0079  0.0047 -0.5385
  633MPD2    C3 9372   2.730   0.793  17.645 -0.3452  0.0650  0.6284
  633MPD2    C4 9373   2.622   0.872   0.003  0.2594 -0.7517 -0.1926
  633MPD2    C5 9374   2.601   0.994  17.630  0.2701  0.5549  0.4279
  633MPD2     H 9375   2.895   0.778  17.509  1.2059  1.9072 -0.6625
  633MPD2    H1 9376   2.545   0.822   0.062 -1.7477  1.9271 -0.5215
  633MPD2    H2 9377   2.662   1.136  17.486 -1.3945 -1.0332 -0.4366
  633MPD2    H3 9378   2.509   1.044  17.658 -0.2882 -1.2990  1.9404
  633MPD2     N 9379   2.747   0.674   0.031 -0.8661  0.0790 -0.0301
  633MPD2    H5 9380   2.669   0.631   0.080 -1.5261 -1.2690 -2.2740
  633MPD2    N1 9381   2.840   0.978  17.354 -0.1125 -0.3988 -0.2942
  633MPD2    H7 9382   2.886   0.897  17.316  0.3650  0.5978 -1.8708
  634TMC3    C1 9383   2.909   1.096  17.171 -0.0883  0.0849 -0.0468
  634TMC3    C2 9384   2.945   0.979  17.109  0.2266 -0.4069 -0.5314
  634TMC3    C3 9385   2.969   0.990  16.977  1.3223 -0.3581  0.4976
  634TMC3    C4 9386   2.911   1.228  17.117 -0.1569  0.3670  0.0334
  634TMC3    C5 9387   2.943   1.225  16.983  0.4516  0.1609  0.5265
  634TMC3    C6 9388   2.971   1.110  16.914 -0.1980  0.0320  0.1659
  634TMC3     C 9389   2.857   1.103  17.306  0.3220 -0.7535 -0.7701
  634TMC3     O 9390   2.832   1.213  17.357  0.3719 -0.3891 -0.3198
  634TMC3     H 9391   2.944   0.881  17.156  2.1584  0.0342  0.4422
  634TMC3    H1 9392   2.877   1.316  17.170  1.7939  1.1094  0.0459
  634TMC3    H2 9393   2.987   1.117  16.807  0.5811 -0.4297  0.2482
  634TMC3    C7 9394   2.921   1.339  16.898 -0.1645  0.2101 -0.4403
  634TMC3    C8 9395   2.974   0.866  16.899 -0.2578 -0.1127 -0.1299
  634TMC3    O1 9396   2.956   1.329  16.778 -0.7107  0.3738  0.0480
  634TMC3    O2 9397   2.936   0.765  16.949 -0.2311 -0.2740 -0.1759
  635TMC3    C1 9398   4.348   1.268   0.374 -0.3587 -0.2046  0.3832
  635TMC3    C2 9399   4.431   1.316   0.467  0.2234  0.1255  0.1367
  635TMC3    C3 9400   4.507   1.237   0.549 -0.0524  0.6884 -0.4636
  635TMC3    C4 9401   4.306   1.144   0.395 -0.3113  0.0794  0.6901
  635TMC3    C5 9402   4.396   1.058   0.456  0.3141 -0.9400  0.1217
  635TMC3    C6 9403   4.498   1.103   0.535  0.4461  0.1849 -0.5382
  635TMC3     C 9404   4.272   1.372   0.305 -0.4345  0.6150 -0.0131
  635TMC3     O 9405   4.299   1.491   0.333 -0.2893  0.2255  0.5516
  635TMC3     H 9406   4.451   1.423   0.471 -2.5129  0.5845  1.1098
  635TMC3    H1 9407   4.225   1.103   0.334  1.6253 -1.9106 -0.5246
  635TMC3    H2 9408   4.572   1.043   0.588  0.0657 -3.8129 -4.4758
  635TMC3    C7 9409   4.373   0.912   0.474  0.2902 -0.3728 -0.6488
  635TMC3    C8 9410   4.641   1.284   0.588  0.3143  0.1715  0.4275
  635TMC3    O1 9411   4.470   0.848   0.511  0.4756 -0.5430 -0.0652
  635TMC3    O2 9412   4.678   1.377   0.515 -0.0956  0.2926 -0.4978
  636MPD2     C 9413   4.015   0.733  16.018 -0.3896 -0.4853  0.2315
  636MPD2    C1 9414   4.054   0.773  16.142 -0.3911  0.5516 -1.0428
  636MPD2    C2 9415   4.149   0.697  16.209  0.5477 -0.5633 -0.2061
  636MPD2    C3 9416   4.192   0.582  16.165 -0.0825  0.1688 -0.7959
  636MPD2    C4 9417   4.146   0.525  16.050 -0.1827 -0.5465 -0.3323
  636MPD2    C5 9418   4.067   0.606  15.975 -0.4772  0.0403 -0.3343
  636MPD2     H 9419   4.167   0.726  16.312 -1.4877 -1.1998  0.3275
  636MPD2    H1 9420   4.163   0.425  16.012  0.1996 -0.3315 -0.7182
  636MPD2    H2 9421   3.950   0.788  15.950  0.6458  1.1370  0.5677
  636MPD2    H3 9422   4.039   0.558  15.882 -1.0731 -0.5642  0.1556
  636MPD2     N 9423   4.263   0.495  16.253 -0.3716  0.3631  0.0693
  636MPD2    H5 9424   4.291   0.532  16.343  1.5076  0.9936 -0.7683
  636MPD2    N1 9425   4.006   0.889  16.207 -0.1382  0.2744 -0.7377
  636MPD2    H7 9426   4.057   0.917  16.290  0.2909 -1.0901 -0.5354
  637TMC3    C1 9427   4.410   0.335  16.319 -0.4679 -0.2499 -0.2405
  637TMC3    C2 9428   4.362   0.319  16.447  0.0729  0.0279 -0.3317
  637TMC3    C3 9429   4.448   0.311  16.551 -0.4405  0.6830  0.0072
  637TMC3    C4 9430   4.548   0.336  16.297  0.0922  0.0338  0.1391
  637TMC3    C5 9431   4.633   0.333  16.404 -0.0928  0.2927  0.8074
  637TMC3    C6 9432   4.584   0.312  16.534  0.8770  1.0907  0.0449
  637TMC3     C 9433   4.331   0.384  16.212 -0.0645  0.3319  0.0746
  637TMC3     O 9434   4.362   0.354  16.101  0.3010  0.0111  0.2719
  637TMC3     H 9435   4.255   0.332  16.457  0.1265  0.6888 -0.6027
  637TMC3    H1 9436   4.579   0.346  16.193 -0.6681  0.1722 -0.0767
  637TMC3    H2 9437   4.656   0.306  16.615  0.4833 -0.2742  0.3022
  637TMC3    C7 9438   4.713   0.448  16.412  0.1312  0.1853  0.0638
  637TMC3    C8 9439   4.416   0.415  16.642 -0.3164 -0.3535 -0.2589
  637TMC3    O1 9440   0.006   0.497  16.523 -0.5565  0.2197  0.1422
  637TMC3    O2 9441   4.367   0.509  16.580 -0.0247  0.0727 -0.7267
  638MPD2     C 9442   4.274   4.619  14.702 -0.3271 -0.2272 -0.0560
  638MPD2    C1 9443   4.221   4.511  14.637 -0.2266 -0.4167  0.1137
  638MPD2    C2 9444   4.200   4.396  14.712 -0.0538  0.3049  0.0621
  638MPD2    C3 9445   4.242   4.385  14.843 -0.5407 -0.6322 -0.1677
  638MPD2    C4 9446   4.284   4.497  14.909  0.5449 -0.0884 -0.2381
  638MPD2    C5 9447   4.297   4.614  14.833 -0.2981  0.1025 -0.3547
  638MPD2     H 9448   4.148   4.313  14.667 -0.5755  1.0100 -0.6498
  638MPD2    H1 9449   4.299   4.503  15.016  1.0600 -2.2664 -0.1988
  638MPD2    H2 9450   4.301   4.705  14.643 -0.8231 -0.9998 -1.4000
  638MPD2    H3 9451   4.324   4.708  14.880 -0.2027 -0.4414  0.6916
  638MPD2     N 9452   4.223   4.260  14.907  0.0756 -0.2640  0.1096
  638MPD2    H5 9453   4.190   4.185  14.847 -1.9932  2.2532 -1.8973
  638MPD2    N1 9454   4.213   4.507  14.495  0.3962 -0.4039  0.3363
  638MPD2    H7 9455   4.238   4.594  14.448 -0.8763 -0.0532  0.2880
  639TMC3    C1 9456   4.216   4.095  15.075  0.7145  0.0154 -0.1429
  639TMC3    C2 9457   4.161   4.003  14.989 -0.5206 -0.5428  0.7018
  639TMC3    C3 9458   4.135   3.877  15.028 -0.4599  0.4200 -0.6330
  639TMC3    C4 9459   4.248   4.049  15.198 -0.3525 -0.2785  0.4130
  639TMC3    C5 9460   4.220   3.922  15.232  0.3148  0.1564  0.3009
  639TMC3    C6 9461   4.165   3.832  15.151  0.4708  0.0084  0.1607
  639TMC3     C 9462   4.248   4.235  15.040  0.4542  0.0181 -0.1736
  639TMC3     O 9463   4.288   4.312  15.124  0.3746  0.5081  0.1561
  639TMC3     H 9464   4.140   4.028  14.885 -1.3207  0.6938  1.1641
  639TMC3    H1 9465   4.288   4.123  15.267 -1.7291  2.3347 -1.5523
  639TMC3    H2 9466   4.150   3.728  15.177 -2.0542  0.0209 -1.2885
  639TMC3    C7 9467   4.279   3.866  15.353 -0.1819  0.4494 -0.4761
  639TMC3    C8 9468   4.025   3.817  14.957 -0.4771 -0.8013 -0.4325
  639TMC3    O1 9469   4.216   3.773  15.409 -0.1484  0.0283 -0.0154
  639TMC3    O2 9470   4.038   3.795  14.838 -0.2680 -0.6607 -0.1499
  640MPD2     C 9471   0.197   3.095   9.576 -0.5779  0.2602  0.0210
  640MPD2    C1 9472   0.089   3.048   9.509  0.0914 -0.8405 -0.2384
  640MPD2    C2 9473   4.687   3.110   9.526  0.6554  0.0058 -0.3179
  640MPD2    C3 9474   4.666   3.215   9.610 -0.1668 -0.0586  0.2822
  640MPD2    C4 9475   0.061   3.263   9.672 -0.6588 -0.1026  0.4684
  640MPD2    C5 9476   0.183   3.195   9.661  0.5073 -0.2949  0.0558
  640MPD2     H 9477   4.600   3.056   9.490  0.5755 -1.2206  1.6883
  640MPD2    H1 9478   0.057   3.349   9.737  0.4785 -0.4659  1.0059
  640MPD2    H2 9479   0.293   3.049   9.554 -0.2080  0.5124  1.1116
  640MPD2    H3 9480   0.268   3.233   9.715  0.4827  1.5954 -1.2556
  640MPD2     N 9481   4.544   3.280   9.629  0.1285 -0.7862  0.9244
  640MPD2    H5 9482   4.544   3.358   9.695 -0.5340 -0.6222  0.7333
  640MPD2    N1 9483   0.112   2.960   9.405  0.4454 -0.3540  0.1331
  640MPD2    H7 9484   0.207   2.926   9.390  0.5794 -0.1313  0.4737
  641TMC3    C1 9485   0.095   2.843   9.202  0.6054 -0.4676 -0.4832
  641TMC3    C2 9486   0.217   2.794   9.220  0.2638 -0.2841 -0.1922
  641TMC3    C3 9487   0.263   2.699   9.130 -0.3060 -0.5535  0.3980
  641TMC3    C4 9488   0.023   2.810   9.091  0.5802  0.2567  0.1946
  641TMC3    C5 9489   0.074   2.719   9.004  0.2061  0.3828  0.4691
  641TMC3    C6 9490   0.189   2.663   9.024 -0.0807 -0.3539 -0.4247
  641TMC3     C 9491   0.033   2.932   9.298  0.3377 -0.6584 -0.0359
  641TMC3     O 9492   4.639   2.977   9.275 -0.2710 -0.5349 -0.2089
  641TMC3     H 9493   0.275   2.818   9.308  2.3059  0.5397 -1.7579
  641TMC3    H1 9494   4.651   2.864   9.074 -0.0234 -0.3295  1.5676
  641TMC3    H2 9495   0.229   2.598   8.948  1.8512  1.2017 -0.7230
  641TMC3    C7 9496   4.705   2.678   8.891  0.3627 -0.6499 -0.4877
  641TMC3    C8 9497   0.361   2.593   9.167 -0.3632 -0.5106 -0.2973
  641TMC3    O1 9498   0.017   2.580   8.826 -0.4135 -0.3891 -0.3614
  641TMC3    O2 9499   0.318   2.477   9.153  0.3481  0.2099 -0.5937
  642TMC3    C1 9500   1.066   4.181  12.170  0.0340  0.5517 -0.3877
  642TMC3    C2 9501   1.094   4.177  12.299  0.1325 -0.0831 -0.1433
  642TMC3    C3 9502   1.118   4.050  12.353 -0.4252 -0.2230  0.2468
  642TMC3    C4 9503   1.054   4.073  12.090 -0.1863 -0.5547  0.3008
  642TMC3    C5 9504   1.049   3.949  12.155 -0.3034 -0.4459  0.3699
  642TMC3    C6 9505   1.093   3.936  12.287  0.4826  0.1425 -0.3544
  642TMC3     C 9506   1.033   4.319  12.114  0.3251  0.0513 -0.1985
  642TMC3     O 9507   1.044   4.334  11.997 -0.1652 -0.1401 -0.4350
  642TMC3     H 9508   1.120   4.269  12.351 -1.6544  0.8031 -0.8279
  642TMC3    H1 9509   1.026   4.089  11.987  1.5517 -0.2760 -0.1357
  642TMC3    H2 9510   1.119   3.844  12.338  3.0412  0.7020 -0.6538
  642TMC3    C7 9511   0.999   3.842  12.082 -0.0964 -0.1175  0.0368
  642TMC3    C8 9512   1.135   4.035  12.496  0.5588 -0.4888 -0.7913
  642TMC3    O1 9513   0.994   3.856  11.957  0.0564 -0.2696 -0.0283
  642TMC3    O2 9514   1.128   3.917  12.529  0.6001  0.7190  0.6887
  643TMC3    C1 9515   0.115   3.694   0.655 -0.5274  0.3830  0.3061
  643TMC3    C2 9516   4.714   3.759   0.626 -0.1837 -0.6183  0.2849
  643TMC3    C3 9517   4.636   3.692   0.544  0.5149 -0.5825  0.1732
  643TMC3    C4 9518   0.164   3.583   0.588 -0.4607 -0.0177 -0.7351
  643TMC3    C5 9519   0.081   3.532   0.491  0.2231 -0.3916  0.2020
  643TMC3    C6 9520   4.674   3.579   0.476 -0.3464  0.6994 -0.6088
  643TMC3     C 9521   0.160   3.726   0.795 -0.0003  0.1065  0.3214
  643TMC3     O 9522   0.068   3.740   0.872 -0.8136 -0.2391  0.6274
  643TMC3     H 9523   4.675   3.843   0.681 -0.3210 -0.2380 -0.3973
  643TMC3    H1 9524   0.270   3.567   0.603 -0.3450  0.6162 -0.8846
  643TMC3    H2 9525   4.615   3.549   0.391  0.6201 -2.7131 -0.0661
  643TMC3    C7 9526   0.147   3.518   0.364 -0.2707 -0.0356 -0.5405
  643TMC3    C8 9527   4.525   3.766   0.487  0.0813 -0.2020  0.2734
  643TMC3    O1 9528   0.097   3.442   0.284 -0.0744  0.0287 -0.4325
  643TMC3    O2 9529   4.436   3.706   0.428  0.2540  0.2931 -0.2974
  644MPD2     C 9530   0.524   2.971   9.107 -0.1852 -0.6850 -0.7699
  644MPD2    C1 9531   0.420   3.060   9.084  0.0126 -0.7375 -0.1349
  644MPD2    C2 9532   0.328   3.039   8.977 -0.2025  0.3511  0.0270
  644MPD2    C3 9533   0.357   2.932   8.888  0.2288  0.0261 -0.0295
  644MPD2    C4 9534   0.473   2.857   8.902  0.8355  0.6696 -0.2655
  644MPD2    C5 9535   0.562   2.879   9.008 -0.7845  0.2488  0.0498
  644MPD2     H 9536   0.239   3.100   8.969 -1.1803 -1.1225 -0.4391
  644MPD2    H1 9537   0.508   2.774   8.840 -1.8717 -1.8658  1.6447
  644MPD2    H2 9538   0.595   2.983   9.188  0.7091 -0.9619 -1.5000
  644MPD2    H3 9539   0.656   2.829   9.026 -1.2222 -0.6054 -0.0172
  644MPD2     N 9540   0.255   2.897   8.795  0.3052  0.2746  0.1595
  644MPD2    H5 9541   0.173   2.956   8.804 -0.6286 -1.0712  0.5445
  644MPD2    N1 9542   0.398   3.163   9.183 -0.0575 -0.1102  0.2046
  644MPD2    H7 9543   0.450   3.153   9.270 -0.8374  2.6952  0.9767
  645TMC3    C1 9544   0.157   2.825   8.596  0.5092  0.1857 -0.4172
  645TMC3    C2 9545   0.081   2.942   8.584  0.0545 -0.4103  0.5304
  645TMC3    C3 9546   4.674   2.928   8.520 -0.0966 -0.7032 -0.4011
  645TMC3    C4 9547   0.121   2.714   8.521 -0.3882 -0.2524 -0.5035
  645TMC3    C5 9548   4.717   2.706   8.461 -0.7636 -0.4932 -0.0743
  645TMC3    C6 9549   4.629   2.807   8.462 -0.0837  0.4512 -0.9101
  645TMC3     C 9550   0.273   2.816   8.687  0.0580 -0.1768 -0.4605
  645TMC3     O 9551   0.349   2.722   8.662  0.3431 -0.6710  0.4947
  645TMC3     H 9552   0.124   3.027   8.636 -0.1544  0.7438 -1.1854
  645TMC3    H1 9553   0.184   2.626   8.525 -1.6483 -1.1610 -0.5708
  645TMC3    H2 9554   4.525   2.783   8.448 -0.5543  1.8493  0.2305
  645TMC3    C7 9555   4.678   2.589   8.388  0.1320 -0.6652 -0.3655
  645TMC3    C8 9556   4.582   3.033   8.538 -0.2411 -0.2128 -0.0206
  645TMC3    O1 9557   4.601   2.609   8.297  0.1514 -0.1440 -0.1302
  645TMC3    O2 9558   4.618   3.120   8.617  0.2348  0.7450  0.2258
  646MPD2     C 9559   4.274   3.056  14.469  0.2712 -0.0892  0.0124
  646MPD2    C1 9560   4.200   3.102  14.577  0.1959  0.3184 -0.0830
  646MPD2    C2 9561   4.078   3.162  14.562 -0.0783  0.1015  1.4549
  646MPD2    C3 9562   4.021   3.189  14.439 -0.1224  0.0419 -0.8389
  646MPD2    C4 9563   4.098   3.148  14.330  0.9550 -0.4675 -0.0884
  646MPD2    C5 9564   4.215   3.080  14.344  0.1445 -0.0344  0.2736
  646MPD2     H 9565   4.028   3.197  14.651 -0.5442 -1.5833  1.8479
  646MPD2    H1 9566   4.072   3.181  14.231  0.7304  0.2272  0.2049
  646MPD2    H2 9567   4.371   3.009  14.486 -0.8347 -3.0402 -1.9924
  646MPD2    H3 9568   4.269   3.054  14.254 -0.7443  0.2111 -0.3190
  646MPD2     N 9569   3.901   3.263  14.428  0.3352  0.1646 -0.5981
  646MPD2    H5 9570   3.877   3.314  14.513  0.5279  0.8972 -0.9844
  646MPD2    N1 9571   4.256   3.072  14.705 -0.3039 -0.7438 -0.6177
  646MPD2    H7 9572   4.343   3.021  14.708 -0.7954 -1.5964 -0.9623
  647TMC3    C1 9573   4.267   3.014  14.930 -0.8266 -0.5906 -0.2398
  647TMC3    C2 9574   4.187   2.939  15.015  0.5477 -0.1584 -0.9070
  647TMC3    C3 9575   4.235   2.906  15.138 -0.3690 -0.6951 -0.0906
  647TMC3    C4 9576   4.385   3.067  14.974 -0.9673  0.3938 -0.4416
  647TMC3    C5 9577   4.425   3.042  15.107  0.2527 -0.0369 -0.1224
  647TMC3    C6 9578   4.349   2.966  15.186 -0.2981  1.0783 -0.0145
  647TMC3     C 9579   4.195   3.076  14.825  0.8102 -0.1429 -0.3556
  647TMC3     O 9580   4.083   3.113  14.857  0.0300  0.2255 -0.2620
  647TMC3     H 9581   4.096   2.910  14.965 -0.8838  1.4900  0.7629
  647TMC3    H1 9582   4.441   3.138  14.914 -0.8777  0.8626  0.1866
  647TMC3    H2 9583   4.373   2.952  15.291 -1.0580 -3.5151 -0.4188
  647TMC3    C7 9584   4.565   3.032  15.148 -0.3862  0.1950  0.2004
  647TMC3    C8 9585   4.213   2.777  15.191  0.2418  0.4137 -0.4424
  647TMC3    O1 9586   4.582   3.010  15.264 -0.0526  0.1439 -0.2103
  647TMC3    O2 9587   4.298   2.743  15.271 -0.3481 -0.1719  0.3804
  648TMC3    C1 9588   3.349   0.770  16.305  0.4688 -0.7843 -0.2118
  648TMC3    C2 9589   3.391   0.645  16.271 -0.1687  1.0608  0.8797
  648TMC3    C3 9590   3.368   0.619  16.138 -0.1033 -0.0638  0.5974
  648TMC3    C4 9591   3.281   0.860  16.225  0.7830 -0.2427 -0.5327
  648TMC3    C5 9592   3.248   0.813  16.102  0.5321 -0.1067 -0.1344
  648TMC3    C6 9593   3.304   0.698  16.054 -0.0481 -0.4121  0.1919
  648TMC3     C 9594   3.353   0.817  16.439 -0.1905 -0.0206 -0.4551
  648TMC3     O 9595   3.353   0.938  16.456 -0.3105 -0.0996 -0.5959
  648TMC3     H 9596   3.454   0.576  16.326 -0.6222 -2.7221 -3.3611
  648TMC3    H1 9597   3.252   0.961  16.251  2.4290 -0.0100  0.4387
  648TMC3    H2 9598   3.289   0.667  15.951  2.3007  0.1927 -0.3465
  648TMC3    C7 9599   3.183   0.899  16.007  0.0951  0.5207  0.3775
  648TMC3    C8 9600   3.415   0.504  16.070  0.4403  0.8646 -0.5744
  648TMC3    O1 9601   3.204   0.872  15.891  0.0830  0.0097  0.0549
  648TMC3    O2 9602   3.420   0.496  15.947  0.2365  0.1860 -0.1265
  649TMC3    C1 9603   2.226   1.876  12.911 -0.0512 -0.4488  0.2114
  649TMC3    C2 9604   2.357   1.887  12.933 -0.5475 -0.5610 -0.2058
  649TMC3    C3 9605   2.412   1.805  13.027 -0.4285 -0.6329  0.8267
  649TMC3    C4 9606   2.145   1.787  12.976 -0.6433  0.5789  0.1281
  649TMC3    C5 9607   2.205   1.700  13.066  0.1166 -0.1767  0.5336
  649TMC3    C6 9608   2.342   1.705  13.093  0.1145  0.2649  0.2038
  649TMC3     C 9609   2.166   1.971  12.824  0.4328 -0.0398 -0.8060
  649TMC3     O 9610   2.069   2.035  12.865 -0.3874 -0.1498  0.1359
  649TMC3     H 9611   2.414   1.965  12.886  0.0018  0.1814  1.6963
  649TMC3    H1 9612   2.037   1.788  12.965 -1.0942  1.4504  4.4395
  649TMC3    H2 9613   2.390   1.655  13.176  1.1642  0.0364 -0.5425
  649TMC3    C7 9614   2.123   1.650  13.173 -0.1465 -0.0693  0.4174
  649TMC3    C8 9615   2.545   1.834  13.073 -0.4049  0.7489 -0.0979
  649TMC3    O1 9616   2.029   1.722  13.194  0.1927  0.2771  0.0344
  649TMC3    O2 9617   2.588   1.942  13.032 -0.0522  0.1975  0.3320
  650TMC3    C1 9618   0.578   3.574  12.574  0.2996  0.3046 -0.6257
  650TMC3    C2 9619   0.533   3.670  12.660 -0.3370 -0.4197  0.1490
  650TMC3    C3 9620   0.396   3.691  12.669 -0.7850  0.4161 -0.6128
  650TMC3    C4 9621   0.491   3.508  12.494 -0.3655  0.1706  0.2411
  650TMC3    C5 9622   0.359   3.528  12.504 -0.3232 -0.8700 -0.2617
  650TMC3    C6 9623   0.310   3.624  12.581 -0.2280  0.0922 -0.3889
  650TMC3     C 9624   0.717   3.533  12.581 -0.2502  0.2969  0.0939
  650TMC3     O 9625   0.799   3.613  12.618 -0.2427  0.0277  0.1832
  650TMC3     H 9626   0.603   3.734  12.713 -0.4965  1.8897 -2.4413
  650TMC3    H1 9627   0.520   3.447  12.409  1.2747 -0.8929  1.5890
  650TMC3    H2 9628   0.203   3.636  12.575  0.1474  4.1212  0.9807
  650TMC3    C7 9629   0.292   3.532  12.380 -0.8602  0.2011 -0.9108
  650TMC3    C8 9630   0.362   3.833  12.681 -0.8437 -0.3661  0.0004
  650TMC3    O1 9631   0.296   3.428  12.313  0.8261  0.3443 -0.8264
  650TMC3    O2 9632   0.451   3.914  12.660 -0.1040  0.9541  0.5579
  651MPD2     C 9633   4.371   0.658  10.708  0.5047 -0.1344  0.2734
  651MPD2    C1 9634   4.306   0.776  10.676  0.1953 -0.0956 -0.1990
  651MPD2    C2 9635   4.383   0.886  10.642  0.4829 -0.2413 -0.2043
  651MPD2    C3 9636   4.519   0.885  10.649  0.8015 -0.0252 -0.4642
  651MPD2    C4 9637   4.578   0.765  10.679 -0.3294 -0.8372  0.4906
  651MPD2    C5 9638   4.508   0.650  10.715  0.4780  0.2555 -0.2667
  651MPD2     H 9639   4.328   0.977  10.621  2.4551  0.6160 -1.6573
  651MPD2    H1 9640   4.687   0.764  10.684 -0.3181 -0.2657  0.3802
  651MPD2    H2 9641   4.318   0.566  10.730 -2.4193  1.2863 -0.8445
  651MPD2    H3 9642   4.555   0.553  10.725  0.9438  0.4194 -0.8482
  651MPD2     N 9643   4.586   1.001  10.594  0.2337  0.5567 -0.0837
  651MPD2    H5 9644   4.529   1.073  10.550  1.8598  1.2046 -1.1173
  651MPD2    N1 9645   4.164   0.778  10.658  0.3598 -0.3297  0.1626
  651MPD2    H7 9646   4.116   0.861  10.624 -1.1806 -0.1854  2.6808
  652TMC3    C1 9647   0.225   1.226  10.403  0.0803 -0.2516 -1.1356
  652TMC3    C2 9648   0.141   1.121  10.416  0.2350 -0.3655  0.0501
  652TMC3    C3 9649   0.033   1.132  10.496 -0.2939 -0.0759 -0.6100
  652TMC3    C4 9650   0.193   1.347  10.462 -0.0474  0.0407  0.0968
  652TMC3    C5 9651   0.066   1.368  10.523 -0.1776  0.6168 -0.4410
  652TMC3    C6 9652   4.713   1.252  10.549 -0.5177  0.3279  0.2409
  652TMC3     C 9653   0.367   1.186  10.420 -0.5318  0.2339 -0.2674
  652TMC3     O 9654   0.398   1.114  10.518 -0.3215 -0.3690  0.1224
  652TMC3     H 9655   0.189   1.026  10.397  1.0423 -0.0458  0.4475
  652TMC3    H1 9656   0.269   1.423  10.452  0.7281 -0.6488  0.7650
  652TMC3    H2 9657   4.633   1.252  10.621 -2.1219  1.4341 -1.5191
  652TMC3    C7 9658   0.063   1.464  10.627 -0.0059 -0.3092  0.1620
  652TMC3    C8 9659   0.002   1.016  10.580 -0.0197 -0.3762 -0.0410
  652TMC3    O1 9660   0.020   1.419  10.733  0.5236 -0.2006  0.4432
  652TMC3    O2 9661   0.089   0.933  10.606 -0.1347  0.3491 -0.3578
  653MPD2     C 9662   2.276   1.107   0.028  0.6276 -0.0134  0.0465
  653MPD2    C1 9663   2.326   1.195  17.610 -0.5370 -0.4418 -0.2823
  653MPD2    C2 9664   2.271   1.195  17.481 -0.1851  0.4688 -0.2923
  653MPD2    C3 9665   2.163   1.106  17.450 -0.2424 -0.0436 -0.1050
  653MPD2    C4 9666   2.136   1.005  17.533 -0.0659  0.4267  0.3147
  653MPD2    C5 9667   2.189   1.009  17.668 -0.1423 -0.4509  0.4289
  653MPD2     H 9668   2.302   1.263  17.403 -2.3124  0.2206 -1.3236
  653MPD2    H1 9669   2.079   0.915  17.512  1.1326 -0.1901 -0.3227
  653MPD2    H2 9670   2.298   1.104   0.134  0.7139 -0.8128  0.0067
  653MPD2    H3 9671   2.173   0.928   0.058 -0.9313 -0.7172 -0.0637
  653MPD2     N 9672   2.104   1.123  17.317 -0.0293  0.0474  0.4204
  653MPD2    H5 9673   2.136   1.198  17.256 -2.6556  1.8058  1.2231
  653MPD2    N1 9674   2.426   1.291  17.630 -0.3759  0.1495 -0.2303
  653MPD2    H7 9675   2.464   1.340  17.549 -1.1125 -0.2402 -0.8134
  654TMC3    C1 9676   1.999   1.079  17.120 -0.3459  1.3838 -0.3121
  654TMC3    C2 9677   1.880   1.095  17.059 -0.2956 -0.4375  0.1104
  654TMC3    C3 9678   1.872   1.096  16.923 -0.0623 -0.5999 -0.1177
  654TMC3    C4 9679   2.116   1.065  17.047  0.5031 -0.7103  0.3065
  654TMC3    C5 9680   2.106   1.069  16.914 -0.2710  0.0364  0.0158
  654TMC3    C6 9681   1.991   1.088  16.847 -0.7667 -0.2721 -0.4672
  654TMC3     C 9682   2.000   1.055  17.267 -0.6396  0.4485 -0.5139
  654TMC3     O 9683   1.944   0.960  17.316 -0.1375 -0.0386  0.3204
  654TMC3     H 9684   1.792   1.087  17.121 -0.6631 -1.7440 -0.5850
  654TMC3    H1 9685   2.209   1.040  17.097  0.3329 -1.7802  0.0895
  654TMC3    H2 9686   1.985   1.104  16.740 -1.0449 -0.4827 -0.4817
  654TMC3    C7 9687   2.210   0.990  16.843  0.9973 -0.0293  0.6771
  654TMC3    C8 9688   1.745   1.071  16.856 -0.4987 -0.1861 -0.3093
  654TMC3    O1 9689   2.258   1.035  16.741 -0.2580 -0.2427  0.7828
  654TMC3    O2 9690   1.674   1.168  16.826  0.1059 -0.7716 -0.2025
  655MPD2     C 9691   3.800   0.719  15.688 -0.3614  0.0156  0.2430
  655MPD2    C1 9692   3.786   0.829  15.608  0.3182 -0.0817  0.2171
  655MPD2    C2 9693   3.856   0.831  15.483 -0.4010 -0.4050  0.1495
  655MPD2    C3 9694   3.923   0.722  15.434 -0.1345  0.1005  0.4471
  655MPD2    C4 9695   3.926   0.606  15.520  0.4860 -0.2846 -0.0933
  655MPD2    C5 9696   3.873   0.610  15.643  0.3728  0.7208 -0.1764
  655MPD2     H 9697   3.848   0.924  15.428  0.7978  0.1672  0.9466
  655MPD2    H1 9698   3.974   0.513  15.492  0.9043  0.2122 -1.0196
  655MPD2    H2 9699   3.773   0.712  15.793  1.3507 -1.7822  0.5714
  655MPD2    H3 9700   3.874   0.519  15.702 -2.3898  0.4143 -0.5819
  655MPD2     N 9701   3.961   0.714  15.301  0.0307 -0.8251 -0.4784
  655MPD2    H5 9702   3.996   0.623  15.271  1.9617 -0.3943  0.4814
  655MPD2    N1 9703   3.713   0.944  15.645 -0.5098 -0.4560 -0.1442
  655MPD2    H7 9704   3.732   1.039  15.614 -0.1852  0.0719  1.6538
  656TMC3    C1 9705   3.560   1.072  15.788  0.7031 -0.3176 -0.0977
  656TMC3    C2 9706   3.529   1.101  15.915  0.1377  0.6443  0.3614
  656TMC3    C3 9707   3.461   1.208  15.945 -0.2766  0.0660 -0.2082
  656TMC3    C4 9708   3.513   1.153  15.684 -0.2366  0.7417 -0.4620
  656TMC3    C5 9709   3.422   1.247  15.721 -0.7564 -0.0387 -0.1844
  656TMC3    C6 9710   3.394   1.275  15.847 -0.0962 -0.1193  0.2664
  656TMC3     C 9711   3.626   0.945  15.753  0.2339 -0.3679  0.2160
  656TMC3     O 9712   3.602   0.849  15.821 -0.2257 -0.2354 -0.5361
  656TMC3     H 9713   3.575   1.036  15.989  1.3335  0.2423 -0.7425
  656TMC3    H1 9714   3.530   1.123  15.581  1.6899 -0.3477  0.1912
  656TMC3    H2 9715   3.325   1.353  15.878 -0.3655  0.0176 -0.6892
  656TMC3    C7 9716   3.360   1.317  15.610 -0.5235  0.9297  0.0019
  656TMC3    C8 9717   3.426   1.223  16.082 -0.3295 -0.6878 -0.1116
  656TMC3    O1 9718   3.389   1.270  15.500 -0.4271  0.0317 -0.0727
  656TMC3    O2 9719   3.418   1.126  16.156  0.1971  0.0004  0.2615
  657TMC3    C1 9720   2.754   0.200  14.591 -0.2775  0.3301 -0.8700
  657TMC3    C2 9721   2.731   0.168  14.722  0.3441  0.0972 -0.5248
  657TMC3    C3 9722   2.653   0.254  14.790  0.6200 -0.7426 -0.1344
  657TMC3    C4 9723   2.718   0.322  14.531 -1.2992  0.7689 -0.6240
  657TMC3    C5 9724   2.646   0.408  14.610  0.4758 -0.2157 -0.3082
  657TMC3    C6 9725   2.610   0.373  14.735 -0.0441  0.2512 -0.1753
  657TMC3     C 9726   2.816   0.099  14.513  0.0515 -0.7309 -0.0481
  657TMC3     O 9727   2.769   0.087  14.400  0.2140 -0.0791 -0.2814
  657TMC3     H 9728   2.772   0.074  14.759  0.2607  1.0435  1.9111
  657TMC3    H1 9729   2.738   0.338  14.426 -1.4874  2.2009 -0.4303
  657TMC3    H2 9730   2.559   0.450  14.792  1.4012  1.5577 -0.6393
  657TMC3    C7 9731   2.581   0.516  14.536  0.1608  0.3633  0.0124
  657TMC3    C8 9732   2.667   0.268  14.935 -0.5262  0.2983  0.3827
  657TMC3    O1 9733   2.629   0.540  14.429  0.3395  0.1577 -0.2479
  657TMC3    O2 9734   2.600   0.358  14.983  0.4973 -0.0196 -0.0893
  658MPD2     C 9735   4.436   0.816  14.702  0.4585 -0.4032 -0.1695
  658MPD2    C1 9736   4.317   0.749  14.681 -0.2178 -0.5451  0.7658
  658MPD2    C2 9737   4.278   0.745  14.551  0.1251  0.3398  0.0198
  658MPD2    C3 9738   4.364   0.781  14.450 -0.1404 -0.9246 -0.6229
  658MPD2    C4 9739   4.489   0.840  14.470  0.3875 -0.1369 -0.0454
  658MPD2    C5 9740   4.521   0.858  14.605  0.0160 -0.3075  0.3732
  658MPD2     H 9741   4.178   0.712  14.528  0.7366 -0.1285 -1.9702
  658MPD2    H1 9742   4.565   0.859  14.395  1.5350 -0.3566  1.0614
  658MPD2    H2 9743   4.467   0.826  14.805 -1.0468 -1.0799  0.3583
  658MPD2    H3 9744   4.612   0.903  14.641 -0.0563 -1.2300  1.7127
  658MPD2     N 9745   4.320   0.782  14.316  0.1267 -0.3907  0.7908
  658MPD2    H5 9746   4.224   0.751  14.301 -0.2889  0.5218  1.5372
  658MPD2    N1 9747   4.231   0.713  14.789 -0.5337  0.0192  0.3244
  658MPD2    H7 9748   4.253   0.765  14.873 -1.9237  1.0203  0.0726
  659TMC3    C1 9749   4.046   0.627  14.896 -0.3833  0.0068  0.8642
  659TMC3    C2 9750   4.055   0.725  14.997  0.0709 -0.7620 -0.1841
  659TMC3    C3 9751   3.936   0.731  15.076 -0.4166 -0.8962 -0.4004
  659TMC3    C4 9752   3.935   0.534  14.885  0.0384 -0.0660 -0.1132
  659TMC3    C5 9753   3.831   0.549  14.973 -0.3527 -0.1667 -0.2857
  659TMC3    C6 9754   3.840   0.638  15.077  0.5433  0.2978 -0.3457
  659TMC3     C 9755   4.122   0.633  14.770 -0.4291  0.0978  0.4556
  659TMC3     O 9756   4.095   0.554  14.680  0.1050  0.0154 -0.3307
  659TMC3     H 9757   4.136   0.796  15.011 -1.4321  0.4809  2.2237
  659TMC3    H1 9758   3.926   0.477  14.793 -2.3962 -1.3287  0.9122
  659TMC3    H2 9759   3.757   0.644  15.147 -0.7299 -0.8746 -1.7362
  659TMC3    C7 9760   3.702   0.561  14.903  0.6495 -0.3101  1.0006
  659TMC3    C8 9761   3.950   0.807  15.198 -0.2688 -0.1875 -0.2865
  659TMC3    O1 9762   3.597   0.558  14.961  0.5722  0.1288  0.4148
  659TMC3    O2 9763   3.967   0.928  15.205 -0.3308  0.2331 -0.2454
  660MPD2     C 9764   2.304   4.101  12.775 -0.1296 -0.2479  0.6916
  660MPD2    C1 9765   2.180   4.101  12.719 -0.7709  0.0330 -0.1212
  660MPD2    C2 9766   2.072   4.050  12.791  0.2812 -0.2185  0.2816
  660MPD2    C3 9767   2.086   4.013  12.921 -0.3716 -0.6466  0.7225
  660MPD2    C4 9768   2.213   4.016  12.979 -0.0581 -0.5778 -0.0468
  660MPD2    C5 9769   2.320   4.061  12.905  0.3182  0.2238 -0.9199
  660MPD2     H 9770   1.974   4.053  12.745 -1.4836  0.9443  4.1826
  660MPD2    H1 9771   2.233   3.983  13.081 -1.1849 -1.2071 -0.0341
  660MPD2    H2 9772   2.387   4.144  12.721 -1.4387  2.6267  0.9736
  660MPD2    H3 9773   2.418   4.061  12.953  0.4600  0.4314 -1.2137
  660MPD2     N 9774   1.983   3.954  13.000 -0.4246  0.2943  0.1680
  660MPD2    H5 9775   2.014   3.903  13.082  4.1604  2.4535 -0.2475
  660MPD2    N1 9776   2.167   4.146  12.588  0.0779 -0.5559  0.4282
  660MPD2    H7 9777   2.253   4.176  12.542 -0.9765  0.5810 -0.8012
  661TMC3    C1 9778   2.055   4.227  12.384  0.8388 -0.1364 -1.4635
  661TMC3    C2 9779   2.161   4.190  12.308 -0.0551  0.4447  0.2578
  661TMC3    C3 9780   2.144   4.221  12.172  0.0893  0.5914 -0.1319
  661TMC3    C4 9781   1.933   4.263  12.328  0.7287  0.8894 -0.0261
  661TMC3    C5 9782   1.920   4.279  12.195 -0.1001  0.4087  0.6004
  661TMC3    C6 9783   2.022   4.252  12.112  0.3560 -0.1840 -0.0826
  661TMC3     C 9784   2.045   4.172  12.524  0.2590 -0.9829  0.3376
  661TMC3     O 9785   1.930   4.157  12.563  0.1582 -0.1480 -0.7799
  661TMC3     H 9786   2.257   4.155  12.344  0.0293 -0.8630 -1.2889
  661TMC3    H1 9787   1.845   4.289  12.386  1.5472  1.5409  0.9143
  661TMC3    H2 9788   2.021   4.263  12.004  2.0275 -0.8032 -0.1713
  661TMC3    C7 9789   1.799   4.325  12.133 -0.5253 -0.2554 -0.3330
  661TMC3    C8 9790   2.258   4.248  12.089  0.8922  0.1839  0.4048
  661TMC3    O1 9791   1.769   4.273  12.029  0.1133  0.8787 -0.0184
  661TMC3    O2 9792   2.359   4.183  12.107  0.2986  0.5013 -0.1361
  662MPD2     C 9793   2.060   4.614  17.214  0.3104  0.6639 -0.4275
  662MPD2    C1 9794   2.026   4.540  17.327 -0.4308  0.0863 -0.6684
  662MPD2    C2 9795   1.962   4.605  17.430 -0.2258 -0.3543  0.1260
  662MPD2    C3 9796   1.933   0.016  17.425 -0.1381  0.1528 -0.2350
  662MPD2    C4 9797   1.965   0.092  17.318  0.0376 -0.2030 -0.3188
  662MPD2    C5 9798   2.024   0.030  17.212  0.3200  0.1399 -0.2709
  662MPD2     H 9799   1.908   4.554  17.509 -0.7465  1.3245  0.8808
  662MPD2    H1 9800   1.962   0.200  17.308  1.1006 -0.0962  0.5480
  662MPD2    H2 9801   2.118   4.572  17.133  0.6223 -0.8045  0.5514
  662MPD2    H3 9802   2.064   0.093  17.134  0.4937 -1.5031 -1.4993
  662MPD2     N 9803   1.860   0.084  17.527 -0.7738 -1.0004  0.0615
  662MPD2    H5 9804   1.810   0.170  17.506  0.6021 -0.1714  0.1664
  662MPD2    N1 9805   2.038   4.397  17.339  0.9840  0.3163  0.2122
  662MPD2    H7 9806   2.008   4.360  17.429 -0.3724  0.9862  0.0273
  663TMC3    C1 9807   2.058   4.170  17.263  0.9052 -0.2372  0.2511
  663TMC3    C2 9808   2.031   4.129  17.395 -0.5834 -0.7175  0.4998
  663TMC3    C3 9809   2.018   3.999  17.419  0.6651  0.3109  0.6721
  663TMC3    C4 9810   2.068   4.083  17.158 -0.3000 -0.3051  0.2568
  663TMC3    C5 9811   2.040   3.950  17.185  0.0697  0.3344  0.5614
  663TMC3    C6 9812   2.022   3.907  17.317  0.5382 -0.0486 -0.0537
  663TMC3     C 9813   2.074   4.310  17.239  0.1043  0.7068 -0.2866
  663TMC3     O 9814   2.133   4.336  17.136  0.5223  0.7301 -0.8006
  663TMC3     H 9815   2.048   4.193  17.481  0.0427 -0.7075  0.3723
  663TMC3    H1 9816   2.105   4.112  17.061 -2.7279 -1.0126 -0.8752
  663TMC3    H2 9817   1.996   3.804  17.336 -2.0605  0.8458  1.2135
  663TMC3    C7 9818   2.073   3.848  17.080 -0.0060  0.4262  0.0268
  663TMC3    C8 9819   1.957   3.956  17.550  0.2276  0.8432  0.3482
  663TMC3    O1 9820   2.106   3.887  16.969 -0.1062  0.2763  0.2343
  663TMC3    O2 9821   1.950   3.834  17.568 -0.6275  0.0079  0.0147
  664MPD2     C 9822   0.450   2.490  17.308  0.0390 -0.4042 -0.1836
  664MPD2    C1 9823   0.360   2.581  17.366  0.0742  0.8434  0.1901
  664MPD2    C2 9824   0.374   2.608  17.508  0.3845  0.3917  0.1513
  664MPD2    C3 9825   0.467   2.543  17.587  0.4682  0.5838 -0.7294
  664MPD2    C4 9826   0.558   2.460  17.526 -0.0250 -0.1616  0.2644
  664MPD2    C5 9827   0.552   2.444  17.391  0.5692 -0.3240  0.3421
  664MPD2     H 9828   0.301   2.680  17.545  0.5141  0.7510 -0.2891
  664MPD2    H1 9829   0.637   2.403  17.573  1.6460  1.8146 -0.0964
  664MPD2    H2 9830   0.446   2.470  17.202 -2.7396  2.2631 -0.5770
  664MPD2    H3 9831   0.628   2.380  17.348 -0.9109 -1.0086 -1.2866
  664MPD2     N 9832   0.471   2.571   0.048 -0.4052  0.0799  0.2558
  664MPD2    H5 9833   0.412   2.647   0.081  1.1923  1.8296 -0.8903
  664MPD2    N1 9834   0.261   2.653  17.301 -0.8548 -0.1112  0.6192
  664MPD2    H7 9835   0.207   2.717  17.358  0.1732  1.8104 -0.5327
  665TMC3    C1 9836   0.538   2.557   0.273 -0.2777  0.3939  0.4675
  665TMC3    C2 9837   0.610   2.487   0.368 -0.8336  0.4152  0.6500
  665TMC3    C3 9838   0.586   2.528   0.496 -0.0100  0.0373  0.0070
  665TMC3    C4 9839   0.463   2.669   0.293  0.6935  0.3342  0.0280
  665TMC3    C5 9840   0.452   2.706   0.426  0.5410 -0.1578  1.1794
  665TMC3    C6 9841   0.503   2.628   0.529  0.3413 -0.1592 -0.0999
  665TMC3     C 9842   0.558   2.510   0.140 -0.1290  0.0695 -0.2347
  665TMC3     O 9843   0.625   2.408   0.122  0.0787 -0.3221  1.1229
  665TMC3     H 9844   0.657   2.393   0.342 -2.5298  0.2443 -1.8405
  665TMC3    H1 9845   0.419   2.730   0.215 -3.9542 -1.0950  1.5007
  665TMC3    H2 9846   0.467   2.635   0.631  0.8790 -0.4687  0.1114
  665TMC3    C7 9847   0.337   2.787   0.464 -1.3801  0.1371 -0.4094
  665TMC3    C8 9848   0.633   2.445   0.602 -0.2965 -0.4363 -0.1335
  665TMC3    O1 9849   0.247   2.798   0.384  0.5065  0.0545 -0.4342
  665TMC3    O2 9850   0.564   2.420   0.697  0.3135 -0.1647 -0.4825
  666TMC3    C1 9851   0.162   2.294   9.849 -0.2311 -0.1834  0.0480
  666TMC3    C2 9852   0.275   2.261   9.921  0.2013 -1.2834 -0.6873
  666TMC3    C3 9853   0.351   2.363   9.973  0.4102  0.8447  0.5241
  666TMC3    C4 9854   0.124   2.423   9.830 -0.8740  0.2525  0.1669
  666TMC3    C5 9855   0.196   2.521   9.886 -0.4345  0.6448  0.1518
  666TMC3    C6 9856   0.309   2.489   9.960 -0.4425  0.4141  0.5428
  666TMC3     C 9857   0.058   2.200   9.817  0.0015 -0.1666  0.1729
  666TMC3     O 9858   0.006   2.212   9.706  0.0022  0.6504 -0.3809
  666TMC3     H 9859   0.298   2.156   9.931  2.7708 -0.7884 -1.3441
  666TMC3    H1 9860   0.030   2.445   9.782 -1.5109  1.3707  1.8927
  666TMC3    H2 9861   0.353   2.572  10.014 -0.4982  0.6744  0.1830
  666TMC3    C7 9862   0.121   2.630   9.929 -0.3185 -0.1250  0.1702
  666TMC3    C8 9863   0.457   2.329  10.066  0.0224  0.4694 -0.0680
  666TMC3    O1 9864   0.157   2.673  10.037  0.1720  0.6553  0.3492
  666TMC3    O2 9865   0.442   2.229  10.137 -0.3980 -0.4165  0.0574
  667MPD2     C 9866   1.525   2.478  14.864 -0.3452  0.7183 -0.0224
  667MPD2    C1 9867   1.426   2.558  14.909 -0.0870  0.2937 -0.1107
  667MPD2    C2 9868   1.296   2.513  14.924 -0.6345  0.4401  0.2114
  667MPD2    C3 9869   1.260   2.385  14.892  0.8313  0.1251 -0.2082
  667MPD2    C4 9870   1.362   2.303  14.850 -0.7681  0.2625 -0.1537
  667MPD2    C5 9871   1.491   2.348  14.840  0.3397 -0.7905 -0.2502
  667MPD2     H 9872   1.224   2.580  14.968  1.2085  0.8159  2.6720
  667MPD2    H1 9873   1.344   2.204  14.808  0.9305  0.9910 -2.6399
  667MPD2    H2 9874   1.627   2.513  14.854 -0.4755  0.2725 -2.7739
  667MPD2    H3 9875   1.570   2.285  14.801  0.0925 -1.6235  0.5907
  667MPD2     N 9876   1.129   2.331  14.895  0.0815  0.3619 -0.3126
  667MPD2    H5 9877   1.113   2.238  14.857 -2.0148  0.6677 -0.1530
  667MPD2    N1 9878   1.448   2.691  14.945 -0.3116  0.1997 -0.2153
  667MPD2    H7 9879   1.377   2.747  14.991 -1.4552  0.3786 -2.1886
  668TMC3    C1 9880   1.538   2.903  14.960  0.9910 -0.3398 -0.2237
  668TMC3    C2 9881   1.604   3.008  14.899  0.6031  0.0538  0.9747
  668TMC3    C3 9882   1.587   3.130  14.955 -0.1641 -0.5452  0.4585
  668TMC3    C4 9883   1.467   2.915  15.081  0.4711 -0.2940  0.7478
  668TMC3    C5 9884   1.465   3.039  15.137  0.1982 -0.0140  0.5566
  668TMC3    C6 9885   1.510   3.156  15.066 -0.0747 -0.0339 -0.6140
  668TMC3     C 9886   1.563   2.772  14.910 -0.2808  0.3956 -0.6726
  668TMC3     O 9887   1.659   2.738  14.845 -0.0328  0.0102 -0.3875
  668TMC3     H 9888   1.649   2.994  14.802 -1.2755 -1.1558  0.2850
  668TMC3    H1 9889   1.430   2.829  15.136 -0.0965 -0.8961 -0.5738
  668TMC3    H2 9890   1.515   3.254  15.110 -1.1508  0.0115 -0.6084
  668TMC3    C7 9891   1.411   3.067  15.272  0.1184  0.4172 -0.3023
  668TMC3    C8 9892   1.647   3.246  14.894  0.5575  0.2062 -0.3326
  668TMC3    O1 9893   1.443   3.178  15.319  0.1971  0.3932 -0.6066
  668TMC3    O2 9894   1.611   3.358  14.926  0.0612 -0.0907  0.0787
  669TMC3    C1 9895   4.190   1.888  14.582 -0.1057 -0.4897 -0.0457
  669TMC3    C2 9896   4.086   1.917  14.502 -0.4993  0.2437 -0.1173
  669TMC3    C3 9897   4.080   2.037  14.435  0.1050  0.1222  0.1172
  669TMC3    C4 9898   4.283   1.987  14.608 -0.0141 -0.0759  0.0539
  669TMC3    C5 9899   4.265   2.108  14.544  0.7161 -0.3152  0.1271
  669TMC3    C6 9900   4.170   2.133  14.456 -0.6130 -0.0634  0.1797
  669TMC3     C 9901   4.152   1.790  14.683 -0.2655 -0.4697 -0.3855
  669TMC3     O 9902   4.066   1.706  14.662  0.1379 -0.4615  0.1720
  669TMC3     H 9903   3.999   1.853  14.498  0.0055 -0.4793  0.4784
  669TMC3    H1 9904   4.381   1.959  14.645 -0.7834 -0.6206  1.6903
  669TMC3    H2 9905   4.175   2.212  14.382  0.1183  1.3989  1.7930
  669TMC3    C7 9906   4.366   2.215  14.548  0.0056 -0.7031  0.7641
  669TMC3    C8 9907   3.953   2.074  14.398  0.0062 -0.6793 -0.6572
  669TMC3    O1 9908   4.367   2.297  14.460  0.0040 -0.4217 -1.0176
  669TMC3    O2 9909   3.887   1.986  14.341 -0.4277  0.2654  0.1776
  670MPD2     C 9910   2.135   0.094  13.440  0.1590 -0.5585 -0.3313
  670MPD2    C1 9911   2.243   0.144  13.507  0.1507  0.2440  0.4245
  670MPD2    C2 9912   2.230   0.159  13.646 -0.0955  0.5962 -0.6115
  670MPD2    C3 9913   2.117   0.130  13.717  0.5992  0.2808  0.3192
  670MPD2    C4 9914   2.011   0.079  13.644 -0.0672  0.0135  0.0934
  670MPD2    C5 9915   2.020   0.064  13.509 -0.0943 -0.4921  0.1748
  670MPD2     H 9916   2.319   0.190  13.699  0.3946 -1.1308 -0.4214
  670MPD2    H1 9917   1.913   0.060  13.686  0.2920  0.5727  1.2080
  670MPD2    H2 9918   2.123   0.081  13.333 -1.8454  1.4051 -0.3501
  670MPD2    H3 9919   1.935   0.031  13.451 -0.0731 -0.7939  0.3145
  670MPD2     N 9920   2.129   0.130  13.860 -0.4148  0.7670  0.0451
  670MPD2    H5 9921   2.221   0.141  13.902 -0.4779 -2.0887  0.9291
  670MPD2    N1 9922   2.369   0.165  13.445 -0.2480 -0.2719  0.4953
  670MPD2    H7 9923   2.448   0.194  13.500 -0.5358  0.4235  0.5440
  671TMC3    C1 9924   2.047   0.093  14.086 -0.7252 -0.1549 -0.0045
  671TMC3    C2 9925   2.177   0.059  14.121  0.0757  0.3003 -0.4905
  671TMC3    C3 9926   2.208   4.718  14.235  0.9148  0.7247  0.4448
  671TMC3    C4 9927   1.941   0.052  14.161 -0.3380  0.1828  0.4080
  671TMC3    C5 9928   1.974   4.707  14.282  0.0268  0.1997  0.3466
  671TMC3    C6 9929   2.100   4.680  14.313  0.6313  0.3899 -1.3455
  671TMC3     C 9930   2.021   0.100  13.947 -0.2519 -0.4962 -0.3660
  671TMC3     O 9931   1.907   0.063  13.916 -0.0457 -0.2463 -0.1376
  671TMC3     H 9932   2.253   0.115  14.067  0.6806 -0.0524 -0.0029
  671TMC3    H1 9933   1.839   0.087  14.145 -0.0593  0.9661  0.3503
  671TMC3    H2 9934   2.104   4.610  14.396 -1.3249 -1.4827 -2.8498
  671TMC3    C7 9935   1.879   4.605  14.294  0.7005  0.0239  0.4138
  671TMC3    C8 9936   2.324   4.641  14.233 -0.1681 -1.1381  0.2168
  671TMC3    O1 9937   1.858   4.560  14.406 -0.1479  0.3020  0.3604
  671TMC3    O2 9938   2.334   4.573  14.130 -0.2593 -0.1630  0.5071
  672MPD2     C 9939   2.941   0.650   1.326  0.5839  0.7792 -0.3684
  672MPD2    C1 9940   2.843   0.737   1.281 -0.0026  0.7088  0.0622
  672MPD2    C2 9941   2.835   0.857   1.340 -0.2351 -0.1944 -0.3314
  672MPD2    C3 9942   2.921   0.891   1.438 -1.3577 -0.0199 -0.3385
  672MPD2    C4 9943   3.018   0.808   1.487  0.0782 -0.0001  0.0288
  672MPD2    C5 9944   3.037   0.693   1.419  0.0762 -1.2229 -0.3910
  672MPD2     H 9945   2.750   0.919   1.316 -0.1980  0.5271  1.4222
  672MPD2    H1 9946   3.090   0.824   1.566  1.4272  0.7830 -1.3425
  672MPD2    H2 9947   2.945   0.548   1.288  0.7408  0.1035  1.4684
  672MPD2    H3 9948   3.121   0.630   1.447  0.9287 -0.4006 -1.0932
  672MPD2     N 9949   2.908   1.016   1.506  0.0191 -0.3714  0.8364
  672MPD2    H5 9950   2.995   1.048   1.548  1.7177 -1.3192 -1.9399
  672MPD2    N1 9951   2.756   0.701   1.177  0.4964  0.2990 -0.6267
  672MPD2    H7 9952   2.699   0.777   1.141  0.7925 -0.1496 -2.0547
  673TMC3    C1 9953   2.655   0.600   0.996 -0.2633 -0.4982  0.3942
  673TMC3    C2 9954   2.716   0.651   0.882  0.4269  0.7718 -0.0870
  673TMC3    C3 9955   2.635   0.722   0.792 -0.3066  0.0535 -0.4632
  673TMC3    C4 9956   2.533   0.639   1.036 -0.8602 -0.2060 -0.3578
  673TMC3    C5 9957   2.455   0.705   0.947  0.3126 -0.6873  0.2415
  673TMC3    C6 9958   2.506   0.750   0.826  0.3385 -0.2955  0.1678
  673TMC3     C 9959   2.749   0.581   1.110 -0.1737  0.2762  0.0780
  673TMC3     O 9960   2.823   0.486   1.122  0.0220 -0.0340  0.7270
  673TMC3     H 9961   2.818   0.620   0.866  0.0162 -0.6816  0.1461
  673TMC3    H1 9962   2.488   0.619   1.133  0.5094 -0.5511  0.1971
  673TMC3    H2 9963   2.448   0.807   0.755  0.4567 -0.6313 -0.2002
  673TMC3    C7 9964   2.335   0.772   1.000  0.8747 -0.3625 -0.0780
  673TMC3    C8 9965   2.710   0.834   0.734 -0.2134 -0.8605  0.7887
  673TMC3    O1 9966   2.290   0.738   1.107  0.2593 -0.0515 -0.2208
  673TMC3    O2 9967   2.656   0.934   0.695  0.1810 -0.2523  0.2679
  674MPD2     C 9968   2.099   1.238   0.355  0.9310 -0.8158  0.4673
  674MPD2    C1 9969   2.174   1.150   0.435 -0.0392 -0.0333  0.4929
  674MPD2    C2 9970   2.109   1.065   0.529  0.4457  0.3812 -0.6320
  674MPD2    C3 9971   1.974   1.078   0.540 -0.2058  0.0334  0.2757
  674MPD2    C4 9972   1.907   1.176   0.462  0.0638 -0.2129 -0.3370
  674MPD2    C5 9973   1.971   1.257   0.372  0.1483 -0.3391 -0.0206
  674MPD2     H 9974   2.166   0.989   0.580  1.5147  0.9481 -0.9812
  674MPD2    H1 9975   1.804   1.205   0.481  0.2054 -0.5802  1.0059
  674MPD2    H2 9976   2.153   1.293   0.278 -3.7897  1.0995 -1.5195
  674MPD2    H3 9977   1.917   1.336   0.322 -0.5142 -1.4173 -1.0071
  674MPD2     N 9978   1.907   0.998   0.625  1.1112  0.3016 -0.1981
  674MPD2    H5 9979   1.952   0.915   0.660 -0.9942  0.1112  2.0315
  674MPD2    N1 9980   2.313   1.146   0.410  0.7036  0.0212 -0.1407
  674MPD2    H7 9981   2.350   1.218   0.350 -1.4027  1.1499 -0.0778
  675TMC3    C1 9982   2.527   1.052   0.384 -0.0608 -0.4946  0.5614
  675TMC3    C2 9983   2.589   0.934   0.363  0.7797 -0.4687  0.8582
  675TMC3    C3 9984   2.718   0.933   0.319 -0.4549 -0.7889 -0.2759
  675TMC3    C4 9985   2.585   1.169   0.352  0.1849 -0.1295  0.5878
  675TMC3    C5 9986   2.716   1.167   0.322  0.2861 -0.6976  0.0415
  675TMC3    C6 9987   2.784   1.051   0.306 -0.7571  1.0669  0.4144
  675TMC3     C 9988   2.397   1.048   0.455 -0.0863 -0.1303 -0.0007
  675TMC3     O 9989   2.381   0.940   0.504 -0.3688 -0.2389  0.4773
  675TMC3     H 9990   2.527   0.845   0.362  1.3491 -0.8449 -0.9509
  675TMC3    H1 9991   2.542   1.264   0.382  1.1479  0.6041 -0.3383
  675TMC3    H2 9992   2.888   1.051   0.273 -0.4952  0.1544  1.2483
  675TMC3    C7 9993   2.795   1.288   0.345  0.5002 -0.0518 -0.7312
  675TMC3    C8 9994   2.807   0.820   0.338 -0.0013  0.0097  0.2959
  675TMC3    O1 9995   2.765   1.360   0.441 -0.0209  0.2570 -0.0111
  675TMC3    O2 9996   2.919   0.830   0.295  0.0212  0.0598  0.7403
  676MPD2     C 9997   0.455   3.561  10.644  0.0094 -0.1084  0.5621
  676MPD2    C1 9998   0.425   3.465  10.739 -0.0402  0.8741 -0.2303
  676MPD2    C2 9999   0.481   3.340  10.743 -0.7571  0.1698  0.2781
  676MPD2    C310000   0.588   3.306  10.658  0.0541 -0.7660  0.6873
  676MPD2    C410001   0.609   3.397  10.554 -0.5972  0.2968  0.4789
  676MPD2    C510002   0.553   3.522  10.547  0.1214  0.2928 -0.1244
  676MPD2     H10003   0.442   3.266  10.812  1.2397 -2.1882 -1.1491
  676MPD2    H110004   0.687   3.369  10.484 -0.0944 -0.4814  1.3324
  676MPD2    H210005   0.419   3.664  10.643  2.9115  0.9127 -0.0343
  676MPD2    H310006   0.585   3.574  10.457  2.0171 -1.1501 -0.2924
  676MPD2     N10007   0.654   3.179  10.668 -0.1999 -0.2591 -0.0393
  676MPD2    H510008   0.716   3.163  10.589 -0.8300 -2.1751 -0.1284
  676MPD2    N110009   0.334   3.495  10.845 -0.1517  0.6837 -0.3664
  676MPD2    H710010   0.302   3.419  10.904  0.2844 -0.3170 -1.4180
  677TMC3    C110011   0.192   3.612  10.981 -0.7447 -0.3076  1.0371
  677TMC3    C210012   0.112   3.507  10.982  0.1125 -0.2943 -0.7107
  677TMC3    C310013   4.711   3.517  11.042 -0.1212 -0.8556  0.2524
  677TMC3    C410014   0.171   3.721  11.057  0.2572 -0.1859  0.7277
  677TMC3    C510015   0.050   3.728  11.123 -0.6079  0.2774 -0.6749
  677TMC3    C610016   4.674   3.632  11.116 -0.1943 -0.0999 -0.1847
  677TMC3     C10017   0.297   3.623  10.883  0.5238  0.1265 -0.9969
  677TMC3     O10018   0.342   3.729  10.837 -0.0388 -0.6953 -0.2112
  677TMC3     H10019   0.120   3.408  10.938  1.8949 -1.0610  1.3852
  677TMC3    H110020   0.247   3.798  11.060 -0.2538  0.2870  1.7963
  677TMC3    H210021   4.588   3.632  11.181  1.8365  0.4670  2.5158
  677TMC3    C710022   0.054   3.777  11.257 -0.4218  0.5538 -0.1559
  677TMC3    C810023   4.627   3.392  11.044  0.3163  0.2473 -0.2343
  677TMC3    O110024   4.683   3.763  11.334 -0.1103 -0.3917 -0.6279
  677TMC3    O210025   4.594   3.352  10.931 -0.4163 -0.0350  0.5803
  678MPD2     C10026   1.248   3.764   1.519 -0.0267  0.3150  0.4300
  678MPD2    C110027   1.293   3.689   1.408 -0.3238  0.1130  0.5790
  678MPD2    C210028   1.209   3.600   1.346 -0.1333  0.1883  0.1156
  678MPD2    C310029   1.074   3.592   1.392 -0.9656 -0.0376  0.1340
  678MPD2    C410030   1.032   3.669   1.499 -0.3008 -0.3372 -0.4193
  678MPD2    C510031   1.118   3.755   1.559 -0.2942 -0.2629  0.1963
  678MPD2     H10032   1.241   3.547   1.257 -0.7462 -0.8790  0.5291
  678MPD2    H110033   0.931   3.662   1.537  0.1316 -0.5966  0.7012
  678MPD2    H210034   1.309   3.830   1.579 -0.2202  2.1219 -1.3526
  678MPD2    H310035   1.081   3.824   1.634  1.1588 -0.7789  1.3951
  678MPD2     N10036   0.987   3.513   1.319 -0.6813  0.2915  0.2680
  678MPD2    H510037   1.032   3.466   1.241  1.8887  0.4328  1.6753
  678MPD2    N110038   1.427   3.711   1.361  0.0847  0.0351 -0.9358
  678MPD2    H710039   1.458   3.649   1.287  0.0404  0.5385 -1.3782
  679TMC3    C110040   1.810   3.664   1.244 -0.6837  0.3374  0.0028
  679TMC3    C210041   1.685   3.678   1.289 -0.1539  0.3023 -0.5331
  679TMC3    C310042   1.633   3.799   1.319 -0.0270 -0.4422  0.5697
  679TMC3    C410043   1.894   3.775   1.234  0.0134 -0.0415 -0.4643
  679TMC3    C510044   1.840   3.899   1.271  0.1139 -0.1577  0.4883
  679TMC3    C610045   1.707   3.914   1.307  0.6507 -0.0072  0.2503
  679TMC3     C10046   1.855   3.543   1.192 -0.3220  0.2601  0.3007
  679TMC3     O10047   1.804   3.440   1.236  0.0458  0.5741  0.1006
  679TMC3     H10048   1.639   3.584   1.316  0.2741  0.6230  1.3265
  679TMC3    H110049   2.001   3.767   1.223  0.0401  0.6664 -0.6866
  679TMC3    H210050   1.660   4.011   1.319 -0.6627 -0.5683 -0.3331
  679TMC3    C710051   1.901   4.028   1.224  0.0984 -0.5611  0.0566
  679TMC3    C810052   1.524   3.799   1.403  0.0382  0.0123 -0.0371
  679TMC3    O110053   1.975   4.034   1.130  0.4419 -0.3590  0.6597
  679TMC3    O210054   1.520   3.906   1.469 -0.2026 -0.0762 -0.4833
  680MPD2     C10055   1.872   2.346  13.666 -0.0565 -0.2885  0.1098
  680MPD2    C110056   1.955   2.299  13.766 -0.3565  0.1490  0.6301
  680MPD2    C210057   2.074   2.360  13.793 -0.0402  0.2992  0.2155
  680MPD2    C310058   2.095   2.489  13.758  0.3121 -0.2527 -0.3055
  680MPD2    C410059   2.008   2.540  13.664  0.3703  0.0545  0.2234
  680MPD2    C510060   1.909   2.465  13.615 -0.5974  0.2946  0.6766
  680MPD2     H10061   2.145   2.307  13.856 -0.1757  1.0204  0.9655
  680MPD2    H110062   2.021   2.639  13.621 -1.7351  0.2604  0.0517
  680MPD2    H210063   1.786   2.291  13.628 -0.2598  0.8192 -1.0490
  680MPD2    H310064   1.851   2.511  13.536  3.6763  1.2549 -1.8962
  680MPD2     N10065   2.211   2.559  13.783  0.0311 -0.1707  0.3899
  680MPD2    H510066   2.238   2.639  13.727  0.3574 -2.3462 -2.5233
  680MPD2    N110067   1.931   2.175  13.826 -0.2240 -0.2025 -0.9349
  680MPD2    H710068   1.990   2.150  13.904 -0.5858  1.6713 -0.0664
  681TMC3    C110069   1.828   1.973  13.886 -0.2596 -0.3694  1.1250
  681TMC3    C210070   1.838   1.989  14.023 -0.1981  0.3344  0.3213
  681TMC3    C310071   1.910   1.898  14.093 -0.5452 -0.3241  0.0212
  681TMC3    C410072   1.888   1.874  13.817 -0.1572  0.4661  0.0423
  681TMC3    C510073   1.965   1.785  13.891 -0.2624 -0.5910 -0.0583
  681TMC3    C610074   1.974   1.790  14.032  0.5665 -0.0490 -0.2292
  681TMC3     C10075   1.822   2.092  13.806 -0.2353  0.7183  0.6523
  681TMC3     O10076   1.732   2.093  13.722  0.1980  0.1749  0.3343
  681TMC3     H10077   1.789   2.063  14.085  1.4293  0.5838  1.3144
  681TMC3    H110078   1.886   1.879  13.709  3.0000  0.2199 -0.0268
  681TMC3    H210079   2.040   1.729  14.092  0.7654  0.0910 -0.3046
  681TMC3    C710080   2.024   1.673  13.825  0.2616 -0.2608  0.1085
  681TMC3    C810081   1.948   1.938  14.229  0.0340  0.2484  0.2485
  681TMC3    O110082   2.080   1.594  13.905 -0.0340  0.4997  0.0827
  681TMC3    O210083   1.855   1.974  14.301 -0.2995 -1.1081  0.0593
  682MPD2     C10084   4.379   3.557  10.718  0.2048  0.5828 -0.4198
  682MPD2    C110085   4.306   3.441  10.749 -0.9145 -0.2841  0.5911
  682MPD2    C210086   4.241   3.425  10.871  0.6442  0.0643  0.3719
  682MPD2    C310087   4.258   3.524  10.969 -0.3219 -0.0641  0.0462
  682MPD2    C410088   4.333   3.639  10.944 -0.0490 -0.4177  0.2155
  682MPD2    C510089   4.384   3.654  10.810 -0.3012  0.5555  0.7504
  682MPD2     H10090   4.185   3.334  10.891 -0.8047  0.6905 -0.7842
  682MPD2    H110091   4.356   3.709  11.023  1.9003 -0.0521 -0.6649
  682MPD2    H210092   4.423   3.573  10.620 -0.1054 -2.0680 -1.0068
  682MPD2    H310093   4.448   3.742  10.798  0.1989 -0.1323 -1.4919
  682MPD2     N10094   4.190   3.508  11.095 -0.0304 -0.1549 -0.4584
  682MPD2    H510095   4.221   3.575  11.165 -0.9416  0.7368 -0.9020
  682MPD2    N110096   4.295   3.341  10.656  0.2188 -0.5174  0.1355
  682MPD2    H710097   4.242   3.260  10.687  1.1932 -1.6168 -1.1199
  683TMC3    C110098   4.116   3.460  11.491  0.1908 -0.2632  0.5141
  683TMC3    C210099   4.045   3.359  11.540 -0.3746 -0.3303 -0.0809
  683TMC3    C310100   3.999   3.261  11.453  0.1805  0.0095 -0.3227
  683TMC3    C410101   4.139   3.486  11.358  0.4087  0.0282  0.1451
  683TMC3    C510102   4.092   3.391  11.270  0.0206 -0.1222 -0.4871
  683TMC3    C610103   4.020   3.281  11.318 -0.5091 -0.3495  0.0379
  683TMC3     C10104   4.188   3.531  11.588 -0.1570 -0.5867 -0.2151
  683TMC3     O10105   4.204   3.649  11.568 -0.0875 -0.6384 -0.1285
  683TMC3     H10106   4.023   3.343  11.645 -1.9320  0.8902 -0.2247
  683TMC3    H110107   4.200   3.574  11.338  0.5426  0.0693  0.7311
  683TMC3    H210108   3.982   3.209  11.246 -1.0896  0.2128 -0.2204
  683TMC3    C710109   4.091   3.415  11.126  0.0883  0.6461  0.1268
  683TMC3    C810110   3.894   3.176  11.507  0.0124  0.1550  0.3363
  683TMC3    O110111   4.024   3.337  11.054  0.0830 -0.1169  0.0656
  683TMC3    O210112   3.787   3.227  11.537 -0.1657 -0.2320  0.0584
  684MPD2     C10113   1.912   3.176  16.029  0.6840 -0.0253 -0.7421
  684MPD2    C110114   1.998   3.241  15.944  0.2273  0.4991 -0.0999
  684MPD2    C210115   2.056   3.355  15.986 -0.4282 -0.4518 -0.9334
  684MPD2    C310116   2.037   3.411  16.110  0.0639  0.3817  0.6320
  684MPD2    C410117   1.949   3.347  16.197 -0.0630  0.5684  0.3723
  684MPD2    C510118   1.888   3.227  16.153  0.0285  0.1530 -0.5121
  684MPD2     H10119   2.127   3.398  15.916 -1.6458 -0.5507 -2.2143
  684MPD2    H110120   1.944   3.382  16.299 -0.1871  2.3258 -0.2380
  684MPD2    H210121   1.870   3.079  16.009 -0.1555 -0.3672  2.7405
  684MPD2    H310122   1.821   3.166  16.214 -0.2223 -0.2873 -1.2280
  684MPD2     N10123   2.107   3.521  16.162  0.7032  0.1598 -0.3835
  684MPD2    H510124   2.099   3.541  16.261 -0.2111  0.7532 -0.5775
  684MPD2    N110125   2.035   3.194  15.817 -0.6443  0.4690  0.4942
  684MPD2    H710126   2.120   3.241  15.787  0.7726 -2.5026 -0.1889
  685TMC3    C110127   2.020   3.103  15.597  0.0660  0.3095 -0.3769
  685TMC3    C210128   1.919   3.084  15.506  1.0528 -0.1410 -0.2491
  685TMC3    C310129   1.944   3.019  15.397  0.0713  0.1577  0.0565
  685TMC3    C410130   2.136   3.036  15.581 -0.3530 -0.9833  0.5297
  685TMC3    C510131   2.153   2.956  15.469  0.8343  0.9049  0.3847
  685TMC3    C610132   2.056   2.953  15.371 -0.6932  0.3112  0.6946
  685TMC3     C10133   1.966   3.112  15.730  0.1662  0.2317  0.0744
  685TMC3     O10134   1.855   3.059  15.748  0.0994  0.4820  0.1013
  685TMC3     H10135   1.827   3.140  15.518  0.5604 -1.0010 -0.0494
  685TMC3    H110136   2.216   3.037  15.654  0.2691  1.0973 -0.1755
  685TMC3    H210137   2.052   2.874  15.296  0.1848  1.4055 -0.4995
  685TMC3    C710138   2.258   2.851  15.453 -0.5043  0.3426 -0.2566
  685TMC3    C810139   1.832   2.942  15.351 -0.2002  0.4493 -0.5621
  685TMC3    O110140   2.280   2.811  15.337  0.0927 -0.2293 -0.5041
  685TMC3    O210141   1.842   2.898  15.235 -0.6449 -0.2451 -0.1944
  686MPD2     C10142   3.723   2.577  15.545  0.0129  0.5492  0.4939
  686MPD2    C110143   3.763   2.562  15.674  0.2157  0.0060 -0.0099
  686MPD2    C210144   3.851   2.464  15.710  0.5218  0.3423 -0.0374
  686MPD2    C310145   3.875   2.367  15.613 -1.0448 -0.3639 -0.6413
  686MPD2    C410146   3.826   2.374  15.484  0.6257 -0.2255 -0.4422
  686MPD2    C510147   3.764   2.491  15.452  0.4030  0.3322  0.5134
  686MPD2     H10148   3.879   2.455  15.814 -0.3382 -0.1901  0.1528
  686MPD2    H110149   3.825   2.286  15.420  2.8110  0.1561 -1.0109
  686MPD2    H210150   3.658   2.657  15.512 -0.1080  0.8776  1.4998
  686MPD2    H310151   3.740   2.508  15.347 -1.6122 -0.4196  0.8575
  686MPD2     N10152   3.913   2.244  15.667 -0.1746  1.0562 -0.6060
  686MPD2    H510153   3.865   2.162  15.629  1.2558  0.8514 -1.9682
  686MPD2    N110154   3.712   2.651  15.773  0.2405 -0.0086  0.7448
  686MPD2    H710155   3.644   2.721  15.746  1.4168  0.9751  0.3466
  687TMC3    C110156   3.947   2.155  15.871 -0.1581  0.7814 -0.1862
  687TMC3    C210157   3.809   2.142  15.873  0.2127  0.0166  0.2609
  687TMC3    C310158   3.750   2.169  15.996 -0.1135 -0.2405 -0.0711
  687TMC3    C410159   4.018   2.187  15.985  0.0912  0.2828 -0.2344
  687TMC3    C510160   3.950   2.216  16.103  0.4413 -0.0704  0.2959
  687TMC3    C610161   3.814   2.209  16.106 -0.2127  0.1997  0.6011
  687TMC3     C10162   4.001   2.240  15.770  0.1616  0.3375  0.6147
  687TMC3     O10163   4.069   2.334  15.813  0.2300  0.6112 -0.7009
  687TMC3     H10164   3.751   2.115  15.785  1.4509  0.1909 -0.6095
  687TMC3    H110165   4.125   2.204  15.985 -0.0673  1.2343  2.8254
  687TMC3    H210166   3.760   2.249  16.191  3.8559  1.9375  2.3899
  687TMC3    C710167   4.006   2.309  16.201 -0.1512  0.1292 -0.0010
  687TMC3    C810168   3.610   2.188  16.000 -0.0301 -0.4351 -0.1993
  687TMC3    O110169   3.925   2.384  16.252  0.5097 -0.2456  0.7832
  687TMC3    O210170   3.544   2.101  16.053 -0.0180  0.2160  0.1344
  688MPD2     C10171   2.859   1.777  17.321  0.3507 -0.1493  0.1590
  688MPD2    C110172   2.874   1.656  17.386 -0.4523  0.4089  0.5237
  688MPD2    C210173   2.964   1.561  17.341  1.1200 -0.0002 -0.4996
  688MPD2    C310174   3.046   1.592  17.229 -0.4885  0.3753  1.0764
  688MPD2    C410175   3.033   1.718  17.167  0.1549 -0.8367  0.1734
  688MPD2    C510176   2.937   1.802  17.210 -0.2640  0.3755 -0.2884
  688MPD2     H10177   2.947   1.459  17.373 -1.1488 -0.1692 -2.2006
  688MPD2    H110178   3.085   1.746  17.076  0.9117 -1.6867  0.3378
  688MPD2    H210179   2.799   1.860  17.356 -0.4461 -0.2607 -0.9494
  688MPD2    H310180   2.915   1.894  17.157  2.1508  1.6378  0.8679
  688MPD2     N10181   3.152   1.513  17.185  0.7374  0.5906  0.4107
  688MPD2    H510182   3.201   1.534  17.098 -1.7691  0.4759 -1.0226
  688MPD2    N110183   2.788   1.612  17.492  0.0689  0.2823 -0.9637
  688MPD2    H710184   2.795   1.516  17.523  1.2997  0.6878 -0.0167
  689TMC3    C110185   2.650   1.640  17.676 -0.2985  0.3466  0.5815
  689TMC3    C210186   2.630   1.711   0.114 -0.8306 -0.0656  0.3548
  689TMC3    C310187   2.572   1.648   0.224 -0.0632  0.0302  0.4092
  689TMC3    C410188   2.612   1.512  17.672  0.0449  0.1122 -0.0228
  689TMC3    C510189   2.543   1.452   0.097  0.6758  0.3783 -0.0986
  689TMC3    C610190   2.519   1.523   0.217 -0.2720  0.1024 -0.1882
  689TMC3     C10191   2.717   1.701  17.566 -0.0408  0.3573 -0.1344
  689TMC3     O10192   2.717   1.821  17.574 -0.1179 -0.5956  0.0802
  689TMC3     H10193   2.661   1.815   0.120 -3.4297  0.8220 -1.9342
  689TMC3    H110194   2.626   1.454  17.581  0.2343  0.0906  0.0200
  689TMC3    H210195   2.457   1.485   0.298  1.9180 -1.6244  0.6883
  689TMC3    C710196   2.459   1.337   0.083  0.4263 -0.2250  0.4312
  689TMC3    C810197   2.564   1.707   0.360 -0.4014  0.4941 -0.0206
  689TMC3    O110198   2.400   1.314   0.186 -0.1349 -0.7991 -0.3481
  689TMC3    O210199   2.518   1.641   0.450  0.4857 -1.2560  0.2643
  690MPD2     C10200   4.494   3.447  15.641  0.3804 -0.3875  0.1451
  690MPD2    C110201   4.563   3.404  15.752  0.5780 -0.5346 -0.3864
  690MPD2    C210202   4.689   3.454  15.772 -0.2760 -0.2320 -0.0093
  690MPD2    C310203   0.033   3.540  15.684 -0.1064  0.2397  0.0624
  690MPD2    C410204   4.686   3.575  15.565  0.2965  0.3153 -0.0182
  690MPD2    C510205   4.560   3.520  15.548 -0.6068 -0.3642 -0.7054
  690MPD2     H10206   0.024   3.424  15.861 -0.5148  0.4724  0.3791
  690MPD2    H110207   0.004   3.634  15.483 -0.0630  3.3586  2.0227
  690MPD2    H210208   4.392   3.415  15.619 -0.3270  3.4402 -2.0354
  690MPD2    H310209   4.509   3.549  15.457  0.8878  2.0846 -0.7724
  690MPD2     N10210   0.167   3.577  15.709 -0.0662 -0.4300 -0.1742
  690MPD2    H510211   0.208   3.519  15.782  0.1325 -1.3434 -1.0033
  690MPD2    N110212   4.505   3.310  15.839  0.2222 -0.8292  0.0117
  690MPD2    H710213   4.561   3.258  15.906 -0.8859 -0.7486  1.0094
  691TMC3    C110214   4.331   3.186  15.943  0.0672  0.3845  0.3669
  691TMC3    C210215   4.197   3.179  15.975 -0.3155  0.4255  0.2953
  691TMC3    C310216   4.149   3.058  16.028  0.1618  0.3393  1.4995
  691TMC3    C410217   4.418   3.082  15.972  0.4676  0.1218  0.6760
  691TMC3    C510218   4.359   2.966  16.011 -0.7861  0.0236  0.2134
  691TMC3    C610219   4.229   2.954  16.046  0.2047 -0.3645 -0.3587
  691TMC3     C10220   4.368   3.289  15.850  0.1096 -0.0909 -0.5768
  691TMC3     O10221   4.271   3.345  15.798 -0.5917 -0.2400 -0.2327
  691TMC3     H10222   4.142   3.273  15.977 -1.9906 -0.5707  1.0255
  691TMC3    H110223   4.510   3.067  15.917 -0.3491 -0.6640 -0.4598
  691TMC3    H210224   4.191   2.856  16.071 -0.7363 -0.2459 -1.2937
  691TMC3    C710225   4.440   2.851  16.035 -0.2146 -0.1835 -0.0279
  691TMC3    C810226   4.009   3.028  16.036  0.3648  0.3510 -0.8849
  691TMC3    O110227   4.550   2.877  16.082  0.0499  0.1766 -0.3897
  691TMC3    O210228   3.974   2.929  16.109  0.4309  0.1773  0.6714
  692TMC3    C110229   1.989   0.091  16.187  0.2169 -0.2162  0.1765
  692TMC3    C210230   2.106   0.110  16.256  0.3234  0.7828 -0.0858
  692TMC3    C310231   2.223   0.052  16.215  0.2605 -0.6095  0.3460
  692TMC3    C410232   1.981   4.715  16.090  0.2938 -0.2378  0.2714
  692TMC3    C510233   2.095   4.654  16.054  0.2019 -0.2430 -0.0060
  692TMC3    C610234   2.214   4.686  16.111  0.1067  0.5655 -0.5389
  692TMC3     C10235   1.856   0.102  16.249  0.0791 -0.1588  0.1683
  692TMC3     O10236   1.759   0.068  16.182 -0.2876  0.0013  0.8044
  692TMC3     H10237   2.115   0.197  16.321 -2.2070  0.7505  0.3092
  692TMC3    H110238   1.892   4.691  16.034  1.2953 -0.1033 -1.3867
  692TMC3    H210239   2.307   4.661  16.061  0.8658 -2.1498  2.2682
  692TMC3    C710240   2.092   4.565  15.945 -0.6648  0.1693  0.1423
  692TMC3    C810241   2.279   4.690  16.323  0.0009  0.3072  0.4123
  692TMC3    O110242   2.014   4.588  15.854 -0.0667  0.1789  0.1588
  692TMC3    O210243   2.353   4.596  16.295  0.3478 -0.2444  0.1548
  693MPD2     C10244   1.928   2.679  10.398 -0.0653 -0.2351  0.8247
  693MPD2    C110245   1.851   2.564  10.412 -0.2868  0.1200 -0.5718
  693MPD2    C210246   1.919   2.451  10.456 -0.1512 -0.0422  0.4225
  693MPD2    C310247   2.058   2.455  10.466 -0.6541 -0.3349 -0.4955
  693MPD2    C410248   2.117   2.573  10.449 -0.7614  0.2448 -0.3912
  693MPD2    C510249   2.058   2.687  10.413 -0.3124 -0.0866 -0.5192
  693MPD2     H10250   1.862   2.360  10.473 -0.4009 -0.3050 -1.7244
  693MPD2    H110251   2.225   2.570  10.447 -0.6439  2.1685  2.2213
  693MPD2    H210252   1.875   2.761  10.350  0.4662  0.6533  1.7328
  693MPD2    H310253   2.109   2.780  10.392 -0.4190 -0.0148 -0.4545
  693MPD2     N10254   2.145   2.339  10.488 -0.0797 -0.3790 -0.2479
  693MPD2    H510255   2.241   2.371  10.498 -0.5315  1.4473 -1.7687
  693MPD2    N110256   1.709   2.568  10.399 -0.2181 -0.0877 -0.4624
  693MPD2    H710257   1.670   2.659  10.378 -1.1371 -0.2226  0.6715
  694TMC3    C110258   1.493   2.485  10.435  0.2762 -1.2912 -1.1973
  694TMC3    C210259   1.405   2.395  10.379  0.0062 -0.4737  0.3944
  694TMC3    C310260   1.313   2.336  10.458  0.2454  0.2529  0.0013
  694TMC3    C410261   1.482   2.520  10.567 -0.7063 -0.5253  0.4507
  694TMC3    C510262   1.379   2.463  10.638 -0.5118  0.7447 -0.2654
  694TMC3    C610263   1.289   2.368  10.592 -0.6646  0.3267  0.6074
  694TMC3     C10264   1.626   2.458  10.395 -0.5822  0.1466  0.3941
  694TMC3     O10265   1.649   2.344  10.356  0.1856 -0.1333  0.6862
  694TMC3     H10266   1.434   2.354  10.283 -0.2209  0.6187 -0.1418
  694TMC3    H110267   1.556   2.589  10.605  0.5907 -1.6107 -0.0964
  694TMC3    H210268   1.208   2.324  10.650 -0.3567 -1.4833 -0.3180
  694TMC3    C710269   1.384   2.496  10.774  0.1771  0.0517 -0.5331
  694TMC3    C810270   1.232   2.227  10.400 -0.3333  0.7589 -0.2787
  694TMC3    O110271   1.451   2.594  10.801 -0.1808  0.1052 -0.0688
  694TMC3    O210272   1.158   2.165  10.475 -0.7830  0.5203  0.0259
  695MPD2     C10273   2.446   3.993  13.516 -0.3572 -0.1092 -0.3408
  695MPD2    C110274   2.389   4.029  13.630  0.1541  0.3581 -0.0989
  695MPD2    C210275   2.261   4.091  13.626 -1.1430 -0.2388 -0.8923
  695MPD2    C310276   2.190   4.092  13.505  0.2383 -1.0526 -0.3238
  695MPD2    C410277   2.252   4.049  13.392 -0.8988 -0.1548  0.8918
  695MPD2    C510278   2.375   3.995  13.399  0.3818 -0.1827  0.1849
  695MPD2     H10279   2.211   4.126  13.715  2.4798  3.2093 -0.2134
  695MPD2    H110280   2.201   4.047  13.296  1.8516 -4.1714 -0.4680
  695MPD2    H210281   2.546   3.953  13.519 -0.0628  0.6765  0.4826
  695MPD2    H310282   2.428   3.964  13.309  0.0538  1.4740 -0.5806
  695MPD2     N10283   2.056   4.138  13.506 -0.1434 -0.2295  0.0219
  695MPD2    H510284   2.013   4.167  13.593 -1.3751 -0.8429 -0.3852
  695MPD2    N110285   2.457   4.022  13.760  1.0007 -0.1486 -0.4491
  695MPD2    H710286   2.400   4.043  13.841  0.8630  1.1585 -0.8954
  696TMC3    C110287   1.835   4.187  13.439 -0.0775 -0.5771  0.4143
  696TMC3    C210288   1.803   4.209  13.574 -0.2823  0.7161  0.1050
  696TMC3    C310289   1.686   4.275  13.601  0.9725 -0.0439  0.5794
  696TMC3    C410290   1.752   4.229  13.333 -0.0104  0.4372  0.2367
  696TMC3    C510291   1.647   4.309  13.372  0.4291  0.2448 -0.3608
  696TMC3    C610292   1.610   4.330  13.504 -0.7141  0.6876 -0.0173
  696TMC3     C10293   1.970   4.148  13.397 -0.4140 -0.2482  0.0987
  696TMC3     O10294   1.978   4.116  13.276 -0.3022 -0.4900  0.2891
  696TMC3     H10295   1.867   4.187  13.659 -1.0951  0.2047  0.5812
  696TMC3    H110296   1.769   4.221  13.226 -1.6686 -1.4507  0.1085
  696TMC3    H210297   1.525   4.392  13.529 -0.0091  2.6136 -2.3949
  696TMC3    C710298   1.627   4.422  13.288 -0.1653 -0.2716 -0.6434
  696TMC3    C810299   1.677   4.342  13.729  0.4604 -0.4191 -0.7244
  696TMC3    O110300   1.640   4.415  13.167 -0.0780  0.5302 -1.0297
  696TMC3    O210301   1.639   4.457  13.728  0.1395  0.2374  0.0673
  697MPD2     C10302   1.357   1.465  15.603  0.3299  0.6537 -0.0328
  697MPD2    C110303   1.425   1.404  15.499  0.1727  0.3085  0.3757
  697MPD2    C210304   1.509   1.478  15.424 -0.0666 -0.6183  0.2339
  697MPD2    C310305   1.525   1.618  15.443  0.5884  0.1297  0.4340
  697MPD2    C410306   1.460   1.673  15.547 -0.2660  0.1552  0.1273
  697MPD2    C510307   1.369   1.600  15.620 -0.8017  0.7219 -0.2795
  697MPD2     H10308   1.569   1.427  15.350 -0.7618 -0.1378 -0.6553
  697MPD2    H110309   1.473   1.778  15.569 -0.6295 -0.1970  1.9671
  697MPD2    H210310   1.280   1.421  15.665 -1.8301  2.4344 -1.4551
  697MPD2    H310311   1.317   1.636  15.708  2.0379  1.6739  0.9875
  697MPD2     N10312   1.622   1.694  15.370 -0.2690 -0.4918  0.5981
  697MPD2    H510313   1.659   1.644  15.290  0.6719  0.4325  0.4653
  697MPD2    N110314   1.411   1.267  15.470  0.3942 -0.3882 -0.2889
  697MPD2    H710315   1.458   1.231  15.387  2.2410 -1.1276  1.0722
  698TMC3    C110316   1.791   1.852  15.295  0.6650 -0.2775 -0.5877
  698TMC3    C210317   1.872   1.958  15.327 -0.4495 -0.0037  0.1478
  698TMC3    C310318   1.980   1.988  15.241  0.0526  0.5312 -0.6746
  698TMC3    C410319   1.800   1.791  15.173 -0.7105 -0.6250  0.2489
  698TMC3    C510320   1.912   1.812  15.093 -0.3864 -0.6825 -0.2304
  698TMC3    C610321   2.004   1.911  15.131  0.3351 -0.5442 -1.3134
  698TMC3     C10322   1.681   1.819  15.396  0.2600  1.1133 -0.6022
  698TMC3     O10323   1.645   1.909  15.476  0.0366  0.3433  0.8244
  698TMC3     H10324   1.854   2.015  15.417 -1.7105 -1.1286  0.6074
  698TMC3    H110325   1.726   1.720  15.136 -0.9006 -0.2728 -0.0428
  698TMC3    H210326   2.086   1.935  15.065  1.3142  0.3702  0.2513
  698TMC3    C710327   1.933   1.731  14.975 -0.0501  0.5178 -0.4908
  698TMC3    C810328   2.038   2.119  15.264 -0.3836  0.2639  0.6930
  698TMC3    O110329   1.836   1.672  14.937 -0.2150 -0.0454 -0.0038
  698TMC3    O210330   1.985   2.184  15.349 -0.7335 -0.0378 -0.7804
  699TMC3    C110331   1.771   3.910  13.080 -0.9829 -0.0389  0.6056
  699TMC3    C210332   1.831   3.861  13.195 -0.3064 -0.6035 -0.5861
  699TMC3    C310333   1.750   3.829  13.298 -0.2627 -0.1893 -0.4652
  699TMC3    C410334   1.634   3.895  13.061 -0.1780  0.4324 -0.7551
  699TMC3    C510335   1.561   3.839  13.159 -0.7828  0.0242 -0.2625
  699TMC3    C610336   1.617   3.804  13.277 -0.1822  0.7031 -0.3128
  699TMC3     C10337   1.849   3.972  12.976  1.1444  0.7468  0.2348
  699TMC3     O10338   1.787   4.032  12.888 -0.1032 -0.0337 -0.3923
  699TMC3     H10339   1.936   3.872  13.219 -0.1449 -3.5838  0.0367
  699TMC3    H110340   1.581   3.945  12.981  0.1122  1.3815 -0.3588
  699TMC3    H210341   1.555   3.765  13.357  1.6953  0.1922  0.8910
  699TMC3    C710342   1.433   3.781  13.133  0.0926  0.0546  0.1042
  699TMC3    C810343   1.793   3.803  13.440  0.7975  0.6281 -0.0486
  699TMC3    O110344   1.350   3.783  13.229 -0.7382 -0.4596 -0.0480
  699TMC3    O210345   1.700   3.801  13.519  0.0585  0.0658  0.1236
  700TMC3    C110346   0.507   2.169  16.828  0.0655  0.2848  0.2757
  700TMC3    C210347   0.463   2.043  16.798 -0.2432 -1.0505  0.1321
  700TMC3    C310348   0.472   1.948  16.891  0.5977 -0.0300  0.3105
  700TMC3    C410349   0.558   2.204  16.944  0.2594  0.3831  0.1808
  700TMC3    C510350   0.583   2.099  17.021 -0.2333  0.3198 -0.2689
  700TMC3    C610351   0.549   1.968  17.000 -0.2435 -0.1887 -0.1762
  700TMC3     C10352   0.509   2.260  16.720 -0.1366  0.6292  0.7828
  700TMC3     O10353   0.431   2.260  16.627  0.0851  0.2014 -0.8823
  700TMC3     H10354   0.423   2.023  16.699  0.7513 -3.6143  0.2675
  700TMC3    H110355   0.567   2.309  16.966 -0.4926  0.0826  1.9077
  700TMC3    H210356   0.569   1.879  17.059  0.2489  1.4606  2.1379
  700TMC3    C710357   0.644   2.127  17.148 -0.4259 -0.5243  0.6114
  700TMC3    C810358   0.471   1.814  16.834  0.0618 -0.5596  0.1234
  700TMC3    O110359   0.696   2.236  17.149 -0.7910 -0.2290  0.3940
  700TMC3    O210360   0.549   1.800  16.742 -0.3413 -0.5003 -0.0151
  701TMC3    C110361   0.997   0.530  15.441  0.3847  0.2565  0.0243
  701TMC3    C210362   1.048   0.507  15.317  0.8042  0.2924 -0.1726
  701TMC3    C310363   1.053   0.618  15.237 -0.5781  0.7831  0.1760
  701TMC3    C410364   0.973   0.654  15.493 -0.3159 -0.4068  0.2930
  701TMC3    C510365   0.992   0.761  15.414  1.0542  0.6103 -0.3119
  701TMC3    C610366   1.031   0.745  15.285 -0.3171 -0.0759 -0.0601
  701TMC3     C10367   0.905   0.434  15.490 -0.4797  0.5768  0.1997
  701TMC3     O10368   0.804   0.479  15.539  0.3327 -0.0036 -0.1944
  701TMC3     H10369   1.063   0.412  15.266 -2.8465  0.8914 -2.3920
  701TMC3    H110370   0.925   0.662  15.590  0.7922  0.2044  0.7996
  701TMC3    H210371   1.037   0.826  15.213  1.0791  0.8604  1.1104
  701TMC3    C710372   0.930   0.886  15.439 -0.3239  0.0106  0.2985
  701TMC3    C810373   1.068   0.594  15.100 -0.2305  0.1271  0.3938
  701TMC3    O110374   0.922   0.964  15.345 -0.1391 -0.0857  0.0251
  701TMC3    O210375   1.131   0.674  15.034 -0.0083  0.0851 -0.5187
  702MPD2     C10376   0.930   2.831  10.176 -0.0172 -0.1911  0.3198
  702MPD2    C110377   0.973   2.890  10.286  0.0559  0.3359  0.6451
  702MPD2    C210378   1.073   2.994  10.272 -0.0389  0.1856  0.0282
  702MPD2    C310379   1.110   3.034  10.147  0.1565  0.1346 -0.2688
  702MPD2    C410380   1.061   2.966  10.036 -0.1253 -0.0184 -0.0049
  702MPD2    C510381   0.964   2.875  10.053  0.4186 -0.0513 -0.5408
  702MPD2     H10382   1.108   3.044  10.362  1.2235 -0.1735 -0.2692
  702MPD2    H110383   1.083   3.005   9.938  0.0428  0.2176  0.1263
  702MPD2    H210384   0.860   2.748  10.178  1.1775 -1.2319 -1.2768
  702MPD2    H310385   0.912   2.837   9.966 -0.2181 -0.5652  0.0652
  702MPD2     N10386   1.195   3.142  10.124  0.2925  0.4711 -0.3513
  702MPD2    H510387   1.216   3.162  10.027  1.1328 -3.0303 -0.9059
  702MPD2    N110388   0.920   2.861  10.415 -0.1752  0.1207 -0.3595
  702MPD2    H710389   0.948   2.928  10.486 -2.2600 -0.9436  1.4868
  703TMC3    C110390   1.319   3.334  10.159  0.2847 -1.3662 -0.0526
  703TMC3    C210391   1.231   3.409  10.088  0.4368  0.1127 -0.7095
  703TMC3    C310392   1.279   3.526  10.046  0.1247  0.2376 -0.0984
  703TMC3    C410393   1.440   3.379  10.206  0.0142  0.0041 -0.2082
  703TMC3    C510394   1.479   3.503  10.159 -0.1976 -0.2129  0.2156
  703TMC3    C610395   1.406   3.574  10.068 -0.4055 -0.4089  0.7048
  703TMC3     C10396   1.260   3.214  10.221  0.2887  0.4364 -0.6025
  703TMC3     O10397   1.303   3.184  10.329 -0.0383  0.1812 -0.2630
  703TMC3     H10398   1.133   3.365  10.082  0.0388  1.2060 -2.1047
  703TMC3    H110399   1.489   3.323  10.285 -0.6331  0.9545  0.8605
  703TMC3    H210400   1.436   3.676  10.046 -0.0613 -0.7807 -0.5788
  703TMC3    C710401   1.583   3.573  10.231  0.4633 -0.0612  0.1140
  703TMC3    C810402   1.180   3.605   9.971  0.1378  0.3295  0.2267
  703TMC3    O110403   1.608   3.687  10.193 -0.1086  0.3000 -0.0970
  703TMC3    O210404   1.216   3.686   9.885 -0.1329  0.0842 -0.0350
  704TMC3    C110405   3.105   0.963  12.784 -0.3562  0.6220 -0.3244
  704TMC3    C210406   3.227   0.975  12.709  0.8684 -0.2244  0.1473
  704TMC3    C310407   3.331   0.898  12.757  0.2954  0.5272  0.9288
  704TMC3    C410408   3.091   0.879  12.890 -0.1641  0.1586  0.0271
  704TMC3    C510409   3.186   0.784  12.904  0.3992  0.1904  0.5805
  704TMC3    C610410   3.307   0.790  12.845  0.0202 -0.2334  0.6461
  704TMC3     C10411   2.988   1.036  12.730 -0.3266 -0.0632  0.2798
  704TMC3     O10412   2.883   1.036  12.795  0.1819  0.5030  0.0004
  704TMC3     H10413   3.245   1.055  12.638 -3.3373  1.7777  1.3104
  704TMC3    H110414   2.994   0.879  12.937  0.8417 -0.3785  2.1076
  704TMC3    H210415   3.387   0.720  12.868  0.9983  0.4691 -0.5733
  704TMC3    C710416   3.139   0.650  12.933  0.3207  0.2768  0.3034
  704TMC3    C810417   3.424   0.871  12.648 -0.6388 -0.2994  0.2309
  704TMC3    O110418   3.210   0.565  12.883  0.5305 -0.2114  0.1630
  704TMC3    O210419   3.382   0.906  12.535 -0.3488 -0.4142 -0.0215
  705MPD2     C10420   2.575   4.146  16.660 -0.2652  0.1684  0.2039
  705MPD2    C110421   2.500   4.120  16.546  0.8141  0.7567 -0.4801
  705MPD2    C210422   2.380   4.059  16.553 -0.4340 -0.1240  0.1776
  705MPD2    C310423   2.332   4.032  16.674 -0.1453  0.4014 -0.0492
  705MPD2    C410424   2.410   4.048  16.795  0.6186 -0.3144 -0.9546
  705MPD2    C510425   2.537   4.094  16.779 -0.0781 -0.0247  0.9217
  705MPD2     H10426   2.332   4.058  16.456  0.8286  1.7343 -0.4799
  705MPD2    H110427   2.376   4.017  16.894  1.3431 -5.4912 -2.3311
  705MPD2    H210428   2.666   4.204  16.659  0.8222 -1.5746 -2.5744
  705MPD2    H310429   2.595   4.124  16.866  0.0064  2.3913  0.0307
  705MPD2     N10430   2.196   3.993  16.696  0.8531 -0.0313  0.2820
  705MPD2    H510431   2.161   3.981  16.791 -1.2715  0.1220 -0.4851
  705MPD2    N110432   2.542   4.171  16.419  0.4266 -0.4064 -0.0103
  705MPD2    H710433   2.482   4.153  16.339 -0.1911  0.0700  0.3461
  706TMC3    C110434   2.691   4.249  16.043  0.2411 -0.1111  0.0459
  706TMC3    C210435   2.674   4.381  16.010 -0.0184  0.6628  0.5766
  706TMC3    C310436   2.658   4.479  16.100 -0.1750 -0.2348 -0.2134
  706TMC3    C410437   2.682   4.210  16.175  0.2177 -0.0072 -0.1862
  706TMC3    C510438   2.653   4.309  16.263 -0.2791 -0.3065  0.4137
  706TMC3    C610439   2.644   4.444  16.237 -0.1961  0.4986 -0.1467
  706TMC3     C10440   2.702   4.142  15.940  0.6274  0.4152  0.1257
  706TMC3     O10441   2.724   4.032  15.979 -0.2486 -1.0960  0.3596
  706TMC3     H10442   2.672   4.410  15.905 -0.4616 -1.0765  0.1013
  706TMC3    H110443   2.700   4.109  16.209  1.6543  0.6092  0.8996
  706TMC3    H210444   2.636   4.505  16.327 -0.2882  0.2927 -0.0137
  706TMC3    C710445   2.648   4.258  16.399  0.1451 -0.5899  0.0665
  706TMC3    C810446   2.591   4.600  16.045 -0.2011  0.1200  0.4705
  706TMC3    O110447   2.719   4.314  16.481 -0.6745  0.4958 -0.4317
  706TMC3    O210448   2.527   4.579  15.944  0.0969  0.1978  0.0703
  707TMC3    C110449   4.264   2.057   1.304  0.5028 -0.0710  0.4111
  707TMC3    C210450   4.371   2.016   1.375 -0.0744 -0.0367  0.3507
  707TMC3    C310451   4.367   1.890   1.426 -0.0605 -0.1863  0.6124
  707TMC3    C410452   4.163   1.969   1.270 -0.4527  0.5190 -0.4018
  707TMC3    C510453   4.157   1.847   1.335  0.0772  0.1079  0.6403
  707TMC3    C610454   4.263   1.803   1.405 -0.5431 -0.1525  0.1128
  707TMC3     C10455   4.282   2.186   1.233 -0.4291 -0.6832  0.5621
  707TMC3     O10456   4.388   2.241   1.251 -0.1927  0.1182  0.6810
  707TMC3     H10457   4.431   2.095   1.418  1.0777 -1.2339  0.9346
  707TMC3    H110458   4.101   1.991   1.183 -0.5003  0.1349 -0.4647
  707TMC3    H210459   4.265   1.700   1.440 -2.6675 -0.5830 -1.0129
  707TMC3    C710460   4.062   1.745   1.292  0.3873 -0.3571 -0.4544
  707TMC3    C810461   4.476   1.841   1.518  0.6770 -0.2905  0.5715
  707TMC3    O110462   4.080   1.629   1.325  0.0071  0.0935  0.0126
  707TMC3    O210463   4.441   1.767   1.608  0.1512  0.2131  0.5550
  708MPD2     C10464   1.371   2.612  13.899 -0.1887  0.2068 -0.3380
  708MPD2    C110465   1.243   2.657  13.935 -0.1218 -0.5550  0.5682
  708MPD2    C210466   1.195   2.621  14.059  0.0529  0.4302  0.5210
  708MPD2    C310467   1.276   2.547  14.152 -0.3920  0.7274 -0.3032
  708MPD2    C410468   1.412   2.526  14.119 -0.2781 -0.0653 -0.2495
  708MPD2    C510469   1.456   2.567  13.999 -0.1168 -0.5798 -0.3318
  708MPD2     H10470   1.091   2.643  14.082 -0.3623 -1.4883  0.5329
  708MPD2    H110471   1.476   2.483  14.195 -2.3608 -3.4128 -0.3897
  708MPD2    H210472   1.414   2.646  13.805 -2.9032 -0.7969 -1.9324
  708MPD2    H310473   1.559   2.545  13.974  0.1591  0.2759  0.0464
  708MPD2     N10474   1.233   2.509  14.277 -0.9557 -0.2857  0.1998
  708MPD2    H510475   1.308   2.481  14.339 -0.1991  0.1576 -0.5061
  708MPD2    N110476   1.157   2.722  13.848  0.2930 -0.4062 -0.3884
  708MPD2    H710477   1.071   2.754  13.890 -0.9459  0.2631 -3.4983
  709TMC3    C110478   1.039   2.772  13.661 -0.1761 -0.3465 -0.4715
  709TMC3    C210479   1.005   2.668  13.579  0.2770 -0.6119 -0.2403
  709TMC3    C310480   0.874   2.621  13.576  0.2123  0.6612 -0.3524
  709TMC3    C410481   0.947   2.817  13.754  0.5980  1.0928 -0.0960
  709TMC3    C510482   0.823   2.757  13.760  0.6850 -0.3159 -0.5312
  709TMC3    C610483   0.781   2.662  13.667 -0.0763 -0.2618  0.0934
  709TMC3     C10484   1.173   2.739  13.715 -0.1672  0.2223  0.1270
  709TMC3     O10485   1.269   2.709  13.645  0.5045 -0.1107  0.3063
  709TMC3     H10486   1.083   2.633  13.512  0.3766 -0.2223 -0.3248
  709TMC3    H110487   0.974   2.891  13.828  1.5995  2.1819 -1.5482
  709TMC3    H210488   0.681   2.620  13.671  0.3671 -1.4210 -0.9762
  709TMC3    C710489   0.781   2.739  13.890 -0.0823  0.0412  0.9596
  709TMC3    C810490   0.832   2.527  13.471 -0.0993 -0.1877 -0.2838
  709TMC3    O110491   0.866   2.767  13.976  0.4362  0.0132 -0.6396
  709TMC3    O210492   0.731   2.462  13.480  0.3939 -0.5323  0.5567
  710TMC3    C110493   1.631   4.547   0.603 -0.0740  0.1495 -0.1969
  710TMC3    C210494   1.702   4.520   0.482 -0.5649  0.2170  0.0241
  710TMC3    C310495   1.816   4.445   0.496  0.5253  0.3331  0.1682
  710TMC3    C410496   1.699   4.522   0.726 -0.2225  0.3044 -0.4948
  710TMC3    C510497   1.814   4.447   0.725  0.6868 -0.1036  0.6213
  710TMC3    C610498   1.878   4.406   0.614  0.7903 -0.3332 -0.3383
  710TMC3     C10499   1.485   4.565   0.596 -1.2905  0.2228 -0.8213
  710TMC3     O10500   1.436   4.599   0.487  0.3668  0.2183  0.1109
  710TMC3     H10501   1.651   4.524   0.387  0.1333 -0.1406 -0.3671
  710TMC3    H110502   1.646   4.552   0.815  0.6922  1.2170 -0.2552
  710TMC3    H210503   1.964   4.340   0.614  2.1608  1.4873  0.2528
  710TMC3    C710504   1.875   4.400   0.851  0.0531  0.4980 -0.1873
  710TMC3    C810505   1.845   4.363   0.387  0.2593 -0.3412 -0.3934
  710TMC3    O110506   1.953   4.306   0.852 -0.0837  0.3217 -0.3954
  710TMC3    O210507   1.836   4.417   0.280  0.3084 -0.1504  0.4501
  711TMC3    C110508   1.151   0.120  14.932 -0.6922 -0.9430  0.1418
  711TMC3    C210509   1.179   0.174  15.059 -0.2197 -0.1766 -0.4933
  711TMC3    C310510   1.306   0.166  15.104  0.6999  0.0888  0.1554
  711TMC3    C410511   1.247   0.057  14.865 -0.0934 -0.3807 -0.4070
  711TMC3    C510512   1.371   0.048  14.920  0.1606  0.5013  0.0212
  711TMC3    C610513   1.407   0.119  15.030 -0.2161 -0.1565  0.0383
  711TMC3     C10514   1.020   0.049  14.930 -0.2592  0.2654 -0.0364
  711TMC3     O10515   1.010   4.675  14.854  0.0621  0.7672  0.2304
  711TMC3     H10516   1.115   0.242  15.114  0.1913  1.2236 -1.7497
  711TMC3    H110517   1.219   4.719  14.778 -1.1950 -0.6274  0.1192
  711TMC3    H210518   1.507   0.104  15.069 -0.4792 -4.2186 -0.8071
  711TMC3    C710519   1.416   4.627  14.938 -0.5999 -0.4059  0.0906
  711TMC3    C810520   1.332   0.206  15.244  0.0408 -0.4155 -0.8912
  711TMC3    O110521   1.502   4.609  15.021  0.0219  0.2186 -0.0421
  711TMC3    O210522   1.235   0.196  15.321 -0.6087 -0.7348 -0.0226
  712MPD2     C10523   3.117   0.968  13.261  0.7846  0.2656 -0.1141
  712MPD2    C110524   3.014   1.025  13.328 -0.8311  0.0979 -0.6780
  712MPD2    C210525   3.046   1.120  13.427  0.4068 -0.2346  0.4487
  712MPD2    C310526   3.173   1.164  13.448 -0.8135 -0.8661  0.8612
  712MPD2    C410527   3.278   1.115  13.373  0.5000  0.4497 -0.0926
  712MPD2    C510528   3.246   1.021  13.277 -0.3707 -0.7379 -0.0781
  712MPD2     H10529   2.959   1.149  13.484  0.5795  0.1483  0.5142
  712MPD2    H110530   3.378   1.156  13.372 -0.8722  3.7793 -1.0274
  712MPD2    H210531   3.110   0.883  13.194  0.2291 -0.2279  0.5672
  712MPD2    H310532   3.326   0.969  13.226  0.0439  2.5759 -2.8248
  712MPD2     N10533   3.202   1.269  13.533  0.0974  0.1694  0.2465
  712MPD2    H510534   3.300   1.289  13.551  0.2725 -1.3323  0.9278
  712MPD2    N110535   2.880   0.991  13.307  0.8357 -0.1600 -0.2526
  712MPD2    H710536   2.810   1.016  13.376  0.0338  1.2431 -1.5826
  713TMC3    C110537   3.146   1.470  13.671  0.4217 -0.4597  0.1109
  713TMC3    C210538   3.271   1.523  13.638 -0.1573 -0.2700 -0.2875
  713TMC3    C310539   3.276   1.661  13.641 -0.2366 -0.5706  0.5817
  713TMC3    C410540   3.040   1.548  13.717  0.0784  0.1387 -0.4257
  713TMC3    C510541   3.046   1.679  13.717  0.2770  0.0919  0.2159
  713TMC3    C610542   3.165   1.740  13.671 -0.1193  0.4196  0.6708
  713TMC3     C10543   3.105   1.349  13.600  0.5666 -0.3369 -0.1504
  713TMC3     O10544   2.986   1.344  13.592  0.3136 -0.3532  0.0877
  713TMC3     H10545   3.353   1.462  13.602  1.5603  1.1812  1.1285
  713TMC3    H110546   2.949   1.501  13.753 -0.3693  1.2609 -0.1071
  713TMC3    H210547   3.162   1.847  13.651 -2.3810  0.3462  0.5732
  713TMC3    C710548   2.913   1.747  13.711 -0.4655  0.8292  0.0601
  713TMC3    C810549   3.380   1.718  13.551  0.5517  0.1134 -0.1901
  713TMC3    O110550   2.815   1.681  13.676  0.7901 -0.1683  0.1186
  713TMC3    O210551   3.350   1.819  13.490 -0.1222  0.1446  0.0717
  714MPD2     C10552   4.667   4.183   1.854 -0.3089  0.1893  0.4343
  714MPD2    C110553   0.053   4.188   1.760 -0.0547  0.6758  0.0492
  714MPD2    C210554   0.016   4.213   1.625 -0.0046 -0.7238 -0.8005
  714MPD2    C310555   4.599   4.233   1.594  0.3868 -0.5314 -0.1624
  714MPD2    C410556   4.503   4.213   1.690  0.7644 -0.3162 -0.9455
  714MPD2    C510557   4.535   4.197   1.819 -0.4986  0.0520 -0.4608
  714MPD2     H10558   0.086   4.237   1.546  1.1241 -0.6637  0.2098
  714MPD2    H110559   4.396   4.216   1.671  0.6425  2.5665  0.1949
  714MPD2    H210560   4.695   4.175   1.959 -1.7223  0.4366  0.8208
  714MPD2    H310561   4.455   4.195   1.893 -2.4013 -1.2848 -2.5508
  714MPD2     N10562   4.563   4.233   1.454  0.0737 -0.5058 -0.1924
  714MPD2    H510563   4.643   4.247   1.393  1.3303  0.2029  1.6113
  714MPD2    N110564   0.185   4.175   1.813 -0.7014 -0.2261  0.3790
  714MPD2    H710565   0.203   4.176   1.913  0.6519 -1.3459  0.1420
  715TMC3    C110566   0.418   4.159   1.797  0.6865  0.6794 -0.2439
  715TMC3    C210567   0.528   4.111   1.733  1.1238  0.0412  0.1218
  715TMC3    C310568   0.654   4.128   1.785  0.3376  0.0021 -0.7659
  715TMC3    C410569   0.428   4.226   1.915 -0.3528  0.7394  1.3008
  715TMC3    C510570   0.556   4.237   1.967  0.0987 -0.7718 -0.4061
  715TMC3    C610571   0.668   4.194   1.904 -0.3265 -0.2518 -0.2809
  715TMC3     C10572   0.291   4.137   1.733 -0.3312  0.2998 -0.7752
  715TMC3     O10573   0.285   4.100   1.616 -0.3783  0.7944 -0.4432
  715TMC3     H10574   0.527   4.067   1.634  1.8064 -0.4888  0.3432
  715TMC3    H110575   0.347   4.286   1.955 -1.5291  0.4504 -0.6603
  715TMC3    H210576   0.768   4.189   1.945 -0.9186  0.8742  1.2869
  715TMC3    C710577   0.580   4.321   2.081  0.1334 -0.2238  0.0052
  715TMC3    C810578   0.767   4.087   1.707 -0.2395  0.0095 -0.2989
  715TMC3    O110579   0.695   4.356   2.091  0.3338 -0.2050 -0.1901
  715TMC3    O210580   0.733   4.008   1.622 -0.2446  0.9889  0.0040
  716MPD2     C10581   0.667   2.634   9.373  0.4504  0.7394  0.5220
  716MPD2    C110582   0.559   2.565   9.312  0.9142  0.5122  0.0116
  716MPD2    C210583   0.563   2.424   9.308 -0.5676 -0.0010  0.8278
  716MPD2    C310584   0.653   2.351   9.375 -0.3355  0.2119 -0.1906
  716MPD2    C410585   0.750   2.422   9.445  0.3473  0.3614  0.0894
  716MPD2    C510586   0.760   2.558   9.432 -0.7886  0.0867  0.6104
  716MPD2     H10587   0.493   2.370   9.246  0.7966 -0.3217 -0.4380
  716MPD2    H110588   0.830   2.367   9.493  1.2902  1.4922 -0.1948
  716MPD2    H210589   0.678   2.742   9.363  0.3881  0.7539  0.6090
  716MPD2    H310590   0.833   2.620   9.482 -0.7393 -0.4611  1.2063
  716MPD2     N10591   0.638   2.217   9.359 -0.5593 -0.2181 -0.4063
  716MPD2    H510592   0.567   2.182   9.295 -0.8192 -0.3953 -0.0220
  716MPD2    N110593   0.463   2.644   9.235 -1.0171  0.6871 -0.6063
  716MPD2    H710594   0.464   2.745   9.234 -0.3745  0.6951  1.0242
  717TMC3    C110595   0.687   1.985   9.371  0.1629  0.1470  0.1262
  717TMC3    C210596   0.556   1.950   9.335 -0.5710  0.4896  1.1158
  717TMC3    C310597   0.552   1.849   9.243  0.5392  0.3013 -0.1980
  717TMC3    C410598   0.802   1.900   9.352 -0.9913 -0.4283 -0.1068
  717TMC3    C510599   0.777   1.782   9.288  0.1593  1.2238  0.1250
  717TMC3    C610600   0.661   1.762   9.218 -0.1049 -0.0362  0.6443
  717TMC3     C10601   0.715   2.118   9.418  0.3446  0.4371  0.1599
  717TMC3     O10602   0.797   2.123   9.506  0.3088  0.1096 -0.2129
  717TMC3     H10603   0.473   2.019   9.344  0.8714  2.3993 -0.1237
  717TMC3    H110604   0.896   1.918   9.402 -0.4020 -0.4851 -1.1939
  717TMC3    H210605   0.641   1.665   9.173  1.9877 -0.8137  1.3720
  717TMC3    C710606   0.896   1.697   9.265  0.4026 -0.3145 -0.4484
  717TMC3    C810607   0.435   1.831   9.159  0.0122  0.0938  0.1132
  717TMC3    O110608   0.996   1.761   9.241  0.0222  0.3242 -0.1870
  717TMC3    O210609   0.326   1.867   9.211 -0.1828 -0.2901 -0.0198
  718MPD2     C10610   4.637   1.791  13.152  0.1266  0.9088 -0.7592
  718MPD2    C110611   4.610   1.871  13.041 -0.5867  0.9436  0.0793
  718MPD2    C210612   4.483   1.900  13.008 -0.4324 -0.0186  0.4898
  718MPD2    C310613   4.380   1.832  13.064  0.7339  0.0623  0.1324
  718MPD2    C410614   4.405   1.755  13.172  0.5769 -0.3792  0.8562
  718MPD2    C510615   4.531   1.745  13.223  0.4412 -0.2045  0.4503
  718MPD2     H10616   4.460   1.962  12.922 -0.7608  0.7720  1.1462
  718MPD2    H110617   4.324   1.706  13.225 -1.2807 -1.2273 -2.7607
  718MPD2    H210618   0.017   1.768  13.190  0.1919  0.1712 -1.3787
  718MPD2    H310619   4.545   1.687  13.313 -2.2052 -2.0899 -0.3335
  718MPD2     N10620   4.256   1.851  13.001  0.4644  0.1202 -0.5269
  718MPD2    H510621   4.254   1.916  12.923 -0.0711 -0.7484 -1.2320
  718MPD2    N110622   4.709   1.913  12.954  0.3456  0.4333  0.2065
  718MPD2    H710623   0.070   1.851  12.958  0.8608  1.3352  3.6800
  719TMC3    C110624   0.072   1.940  12.734 -0.5208  0.3975 -0.4425
  719TMC3    C210625   0.068   1.805  12.696  0.5854  0.0625  0.1638
  719TMC3    C310626   0.117   1.775  12.568 -0.6389 -0.1279 -0.0136
  719TMC3    C410627   0.107   2.039  12.647 -0.3062  0.1061 -0.0031
  719TMC3    C510628   0.176   1.996  12.533 -0.2766 -0.1896 -0.0390
  719TMC3    C610629   0.159   1.873  12.487 -1.0037  0.2439  0.9865
  719TMC3     C10630   4.700   1.990  12.838 -0.2917  0.1872 -0.9159
  719TMC3     O10631   4.617   2.074  12.806  0.0664 -0.1216  0.4424
  719TMC3     H10632   0.048   1.724  12.766  0.7643  0.7503  1.0111
  719TMC3    H110633   0.123   2.138  12.688 -2.8501  1.6367 -2.6198
  719TMC3    H210634   0.206   1.852  12.391 -2.0749  0.7100  0.3482
  719TMC3    C710635   0.258   2.088  12.455 -0.1425  0.6824 -0.3381
  719TMC3    C810636   0.019   1.690  12.511 -0.7257  0.3609  0.3462
  719TMC3    O110637   0.298   2.048  12.348 -0.5655 -0.0072  0.1754
  719TMC3    O210638   4.679   1.612  12.589 -0.5981  0.0600  0.1845
  720MPD2     C10639   3.158   2.712  13.782 -0.9283  0.4543 -0.2676
  720MPD2    C110640   3.176   2.847  13.786  0.1315  0.7141  0.2218
  720MPD2    C210641   3.257   2.900  13.886 -0.4100  0.5991  0.0370
  720MPD2    C310642   3.304   2.819  13.982 -0.2505 -0.0037 -0.8065
  720MPD2    C410643   3.276   2.678  13.985  0.1441  0.3603  0.0606
  720MPD2    C510644   3.216   2.626  13.874 -0.1369 -0.2702 -0.1527
  720MPD2     H10645   3.286   3.003  13.900  0.8952  0.6430 -3.0905
  720MPD2    H110646   3.311   2.615  14.066 -0.4119 -1.9152 -1.4583
  720MPD2    H210647   3.096   2.664  13.707 -0.8399  1.3105 -0.8850
  720MPD2    H310648   3.204   2.520  13.854  1.2672 -0.2526 -1.1253
  720MPD2     N10649   3.380   2.886  14.078  0.3945  0.1638  0.2357
  720MPD2    H510650   3.374   2.987  14.079  0.8732  0.2045 -1.2623
  720MPD2    N110651   3.108   2.927  13.689 -0.0711 -0.0200  0.7082
  720MPD2    H710652   3.078   2.877  13.606 -3.6387  0.7063  1.5870
  721TMC3    C110653   3.544   2.905  14.253  0.5012  0.5115  0.3507
  721TMC3    C210654   3.556   2.865  14.380  0.6757  0.2388  0.3333
  721TMC3    C310655   3.680   2.883  14.440 -0.5823  0.1653  0.4543
  721TMC3    C410656   3.650   2.948  14.178  0.0492  0.0808 -0.1651
  721TMC3    C510657   3.773   2.947  14.236  0.5367  0.4942  0.2285
  721TMC3    C610658   3.786   2.930  14.371  0.2405  0.0314 -0.1761
  721TMC3     C10659   3.463   2.821  14.170 -0.4004  0.9212  0.4635
  721TMC3     O10660   3.483   2.700  14.182 -0.5305  0.3690  0.2197
  721TMC3     H10661   3.475   2.813  14.429  1.2615  0.4969  1.5646
  721TMC3    H110662   3.633   2.975  14.074 -4.8095  0.9983  0.8561
  721TMC3    H210663   3.880   2.950  14.422 -0.7772  0.9779  1.3495
  721TMC3    C710664   3.884   2.894  14.166 -0.4523  0.1184  0.3906
  721TMC3    C810665   3.717   2.785  14.532 -0.2723  0.2820  1.2867
  721TMC3    O110666   3.899   2.928  14.047 -0.2990  0.2876 -0.1121
  721TMC3    O210667   3.834   2.744  14.539  0.0384  0.1008 -0.5910
  722MPD2     C10668   1.794   1.934  13.431  0.1318  0.0026 -0.0912
  722MPD2    C110669   1.865   1.961  13.315  0.3058 -0.2507  0.3370
  722MPD2    C210670   1.805   1.943  13.195  0.9095  0.2848  0.2829
  722MPD2    C310671   1.667   1.925  13.196 -0.3737  0.8411  0.8222
  722MPD2    C410672   1.596   1.903  13.312 -0.0651  0.4651  0.2660
  722MPD2    C510673   1.661   1.907  13.429  0.2322 -0.0992  0.2937
  722MPD2     H10674   1.867   1.959  13.107  2.0263 -1.5773  0.7273
  722MPD2    H110675   1.493   1.870  13.321  0.5616 -1.5674 -0.1233
  722MPD2    H210676   1.840   1.942  13.529  0.7026 -1.4258 -0.2479
  722MPD2    H310677   1.609   1.894  13.523 -0.8746 -0.9711 -0.4487
  722MPD2     N10678   1.609   1.915  13.070 -0.3734 -0.0605 -0.4086
  722MPD2    H510679   1.659   1.943  12.986  1.0123 -1.2275  0.0242
  722MPD2    N110680   1.993   2.007  13.318 -0.7245  0.3426  0.1231
  722MPD2    H710681   2.021   2.051  13.230  1.9388 -1.6817 -0.0272
  723TMC3    C110682   1.426   1.877  12.917  0.0715 -0.1088  0.3618
  723TMC3    C210683   1.343   1.779  12.865 -0.3682  0.6037 -0.7509
  723TMC3    C310684   1.280   1.812  12.744 -0.2868  0.4294  0.0042
  723TMC3    C410685   1.446   2.002  12.862  0.2976  0.2809  0.3359
  723TMC3    C510686   1.373   2.027  12.745 -0.3626  0.4455 -0.8877
  723TMC3    C610687   1.286   1.938  12.684  0.1483 -0.3782 -0.0528
  723TMC3     C10688   1.484   1.858  13.047  0.4710  0.6457  0.1037
  723TMC3     O10689   1.414   1.780  13.112  0.7672  0.7062  0.1275
  723TMC3     H10690   1.319   1.684  12.909 -2.1285  0.4468 -2.0371
  723TMC3    H110691   1.512   2.074  12.910  0.7311  0.5057 -0.5911
  723TMC3    H210692   1.225   1.960  12.597 -0.5086 -1.6793  0.0704
  723TMC3    C710693   1.380   2.159  12.682 -0.6780 -0.6895  0.2609
  723TMC3    C810694   1.171   1.727  12.712  0.1932 -0.3033 -0.3597
  723TMC3    O110695   1.320   2.183  12.578  0.2199 -0.0698 -1.0781
  723TMC3    O210696   1.069   1.780  12.668  0.2005  0.1461 -0.1442
  724TMC3    C110697   1.870   0.475   9.560  0.2422  0.7355  0.1351
  724TMC3    C210698   1.867   0.595   9.495 -0.5572 -0.1800 -1.0204
  724TMC3    C310699   1.986   0.660   9.486 -0.1502  0.3793  0.6662
  724TMC3    C410700   1.982   0.411   9.600  0.1103 -0.4647  0.9921
  724TMC3    C510701   2.102   0.476   9.568  0.5857  0.3077  0.0370
  724TMC3    C610702   2.106   0.601   9.506  0.1992 -0.4251  0.1956
  724TMC3     C10703   1.746   0.399   9.564  0.2460  0.2165  1.0832
  724TMC3     O10704   1.754   0.306   9.643 -0.1229  0.0134 -0.1486
  724TMC3     H10705   1.780   0.655   9.473  0.5326  1.2202 -1.5145
  724TMC3    H110706   1.976   0.315   9.651 -1.1379 -0.6593  0.4793
  724TMC3    H210707   2.196   0.662   9.500 -0.8814  1.3331  1.6630
  724TMC3    C710708   2.228   0.436   9.632  0.0127 -0.3913 -0.3391
  724TMC3    C810709   1.976   0.804   9.452 -0.0277 -0.1196  0.1385
  724TMC3    O110710   2.321   0.517   9.624  0.2116 -0.3184  0.4945
  724TMC3    O210711   1.892   0.829   9.369  0.5196 -0.1893 -0.2238
  725TMC3    C110712   3.548   3.201  12.930 -0.3500  0.2034  0.2265
  725TMC3    C210713   3.435   3.225  12.859 -0.6917 -0.6896  0.2104
  725TMC3    C310714   3.379   3.126  12.787  0.5169  0.2242  0.5619
  725TMC3    C410715   3.599   3.080  12.943  0.0860 -0.0378  0.1636
  725TMC3    C510716   3.535   2.978  12.879 -0.4026  0.2661  0.4119
  725TMC3    C610717   3.423   2.997  12.805  0.2594 -0.5520 -0.1354
  725TMC3     C10718   3.654   3.293  12.905 -0.6527 -0.2059 -0.1179
  725TMC3     O10719   3.639   3.412  12.923  0.1670 -0.0946 -0.0928
  725TMC3     H10720   3.406   3.330  12.848 -4.0731 -1.7440 -1.0560
  725TMC3    H110721   3.675   3.064  13.018  1.0235  0.1413 -0.7462
  725TMC3    H210722   3.381   2.916  12.747 -0.2563  0.0605 -0.6069
  725TMC3    C710723   3.626   2.890  12.817  0.5953 -0.1540  0.6555
  725TMC3    C810724   3.262   3.161  12.696  0.0360  0.3058 -0.2640
  725TMC3    O110725   3.737   2.940  12.798 -0.5248  0.4633 -0.4072
  725TMC3    O210726   3.210   3.065  12.659  0.8310 -0.0261 -0.3154
  726MPD2     C10727   1.555   0.245  10.285  0.0724 -0.1801  0.2556
  726MPD2    C110728   1.505   0.334  10.377  0.3257  0.0346  0.0655
  726MPD2    C210729   1.408   0.291  10.467 -0.7846 -0.0625  0.3259
  726MPD2    C310730   1.346   0.168  10.448  0.2428 -0.1560 -1.2747
  726MPD2    C410731   1.384   0.086  10.344 -0.4458 -0.6782 -0.4874
  726MPD2    C510732   1.497   0.122  10.275  0.3852 -0.2987  0.7838
  726MPD2     H10733   1.366   0.367  10.532 -1.5771 -0.9141  0.8163
  726MPD2    H110734   1.335   4.711  10.323 -0.4757 -0.4494 -1.4557
  726MPD2    H210735   1.638   0.271  10.220  0.8612 -0.5255  1.1352
  726MPD2    H310736   1.531   0.055  10.198  2.9785  1.8654  0.0488
  726MPD2     N10737   1.237   0.122  10.530 -0.3872  0.0832 -0.1365
  726MPD2    H510738   1.197   0.031  10.509  2.0058 -1.2133  0.9067
  726MPD2    N110739   1.566   0.458  10.388  0.8582  0.1232  0.1252
  726MPD2    H710740   1.553   0.514  10.472  0.4441 -1.2995  1.0145
  727TMC3    C110741   1.655   0.665  10.294 -0.0778 -0.1130  0.2631
  727TMC3    C210742   1.723   0.706  10.406 -0.7037 -0.1737  0.4366
  727TMC3    C310743   1.771   0.833  10.395  0.0218  0.9293 -0.5475
  727TMC3    C410744   1.641   0.736  10.180  0.6527 -0.4805  0.6608
  727TMC3    C510745   1.689   0.860  10.174 -0.1403  0.3491  0.0093
  727TMC3    C610746   1.757   0.908  10.285  0.2859  0.1495  0.0412
  727TMC3     C10747   1.603   0.527  10.272  0.4087 -0.2434  0.2749
  727TMC3     O10748   1.582   0.489  10.158 -0.5789  0.3163 -0.2473
  727TMC3     H10749   1.721   0.651  10.499 -0.0537 -0.1863  0.4440
  727TMC3    H110750   1.586   0.704  10.092 -0.8988 -0.1857  1.5166
  727TMC3    H210751   1.813   1.000  10.280  1.6003 -0.6440  0.0483
  727TMC3    C710752   1.640   0.952  10.078  0.5404 -0.6759 -0.6638
  727TMC3    C810753   1.880   0.870  10.477 -0.4468  0.0086 -0.2722
  727TMC3    O110754   1.529   0.928  10.036  0.2339 -0.9449 -0.3120
  727TMC3    O210755   1.967   0.939  10.426  0.1854 -0.1182  0.1866
  728TMC3    C110756   0.390   3.630  15.654 -1.2073  0.1595  0.5382
  728TMC3    C210757   0.425   3.623  15.788 -0.1191 -0.0523  0.1723
  728TMC3    C310758   0.557   3.595  15.814 -0.0362 -0.2328  0.1299
  728TMC3    C410759   0.478   3.604  15.553  0.1045  0.5998  0.1068
  728TMC3    C510760   0.609   3.576  15.585 -0.5595 -0.2716  0.7181
  728TMC3    C610761   0.651   3.569  15.715 -0.0292  0.2009 -0.4748
  728TMC3     C10762   0.250   3.641  15.615 -0.0267  0.3176 -0.5709
  728TMC3     O10763   0.224   3.668  15.497 -0.4423 -0.6003  0.5647
  728TMC3     H10764   0.366   3.647  15.876 -0.4692  1.2608 -0.4113
  728TMC3    H110765   0.434   3.591  15.454 -1.6748 -0.5342  1.0555
  728TMC3    H210766   0.756   3.548  15.732 -0.0823  1.4901  1.4646
  728TMC3    C710767   0.710   3.580  15.485 -0.2069  0.4963  0.2233
  728TMC3    C810768   0.594   3.564  15.950  0.2501  0.1867 -0.1010
  728TMC3    O110769   0.827   3.557  15.513 -0.4567 -0.1015 -0.2139
  728TMC3    O210770   0.515   3.488  16.009 -0.4430  0.2262 -0.0479
  729MPD2     C10771   2.590   0.410  17.072 -0.0155 -0.7014  0.7972
  729MPD2    C110772   2.672   0.303  17.099 -0.1444  0.1517 -0.4990
  729MPD2    C210773   2.687   0.263  17.231 -0.3362  0.5789  0.0118
  729MPD2    C310774   2.626   0.340  17.330 -0.5528  0.6207  0.3179
  729MPD2    C410775   2.540   0.448  17.299  0.1651 -0.4751 -0.1984
  729MPD2    C510776   2.528   0.481  17.170 -0.0915  0.8604 -0.3012
  729MPD2     H10777   2.750   0.178  17.256 -0.9275  0.0473 -0.3014
  729MPD2    H110778   2.495   0.508  17.376 -2.0002  0.3971 -2.1421
  729MPD2    H210779   2.575   0.441  16.969  0.0188 -0.5102  0.8492
  729MPD2    H310780   2.458   0.557  17.139  2.1099  3.1980  0.5320
  729MPD2     N10781   2.641   0.323  17.471 -0.1682 -0.0788 -0.1093
  729MPD2    H510782   2.603   0.394  17.533 -2.4689 -2.7453  1.6042
  729MPD2    N110783   2.717   0.245  16.980  0.0755  0.3727  0.5416
  729MPD2    H710784   2.707   0.300  16.895  1.2908  1.0934  0.8669
  730TMC3    C110785   2.742   0.264  17.677 -0.1356 -0.1990  0.7615
  730TMC3    C210786   2.851   0.198   0.039 -0.0019 -0.5740  0.6226
  730TMC3    C310787   2.964   0.262   0.080  0.5918  0.1256  0.5222
  730TMC3    C410788   2.728   0.397   0.025  0.1284 -0.3429  0.3009
  730TMC3    C510789   2.836   0.467   0.084  0.8303 -0.1309 -0.1017
  730TMC3    C610790   2.953   0.395   0.108 -0.3297  0.2556 -0.1653
  730TMC3     C10791   2.709   0.228  17.539  0.6635 -0.6386 -0.7012
  730TMC3     O10792   2.776   0.136  17.488  0.1194 -0.3205 -0.1977
  730TMC3     H10793   2.845   0.093   0.012 -0.9519 -0.2740 -0.3547
  730TMC3    H110794   2.649   0.460  17.666  2.0455  1.2105 -1.1208
  730TMC3    H210795   3.045   0.449   0.123  0.9755 -1.6506 -1.2318
  730TMC3    C710796   2.861   0.600   0.023  0.4963  0.4171  0.1662
  730TMC3    C810797   3.082   0.250  17.673  0.0303  0.2835  0.1375
  730TMC3    O110798   2.974   0.637  17.676  0.0158  0.1114  0.6579
  730TMC3    O210799   3.189   0.271   0.052 -0.4052 -0.2457 -0.7245
  731MPD2     C10800   3.621   3.189  12.414 -0.0375 -0.0398  0.1478
  731MPD2    C110801   3.512   3.219  12.336  0.5260 -0.9787  0.5157
  731MPD2    C210802   3.411   3.124  12.333 -0.0430  0.4586 -0.2979
  731MPD2    C310803   3.420   3.006  12.403  0.4300  0.2119 -0.3699
  731MPD2    C410804   3.534   2.981  12.476  0.7623 -0.2945  0.6919
  731MPD2    C510805   3.635   3.072  12.479  0.2585 -0.0929 -0.1467
  731MPD2     H10806   3.319   3.141  12.278 -0.5940  1.6655  0.9996
  731MPD2    H110807   3.541   2.898  12.545 -1.3757 -0.8891  0.1851
  731MPD2    H210808   3.697   3.264  12.426  0.6642 -0.6199 -0.7101
  731MPD2    H310809   3.726   3.047  12.532 -0.6474 -1.1227  0.9296
  731MPD2     N10810   3.308   2.917  12.407  0.3571  0.1462 -0.0871
  731MPD2    H510811   3.225   2.951  12.360  1.4102  0.0289 -2.0190
  731MPD2    N110812   3.506   3.336  12.264  0.5642 -0.1562  0.1103
  731MPD2    H710813   3.576   3.405  12.289 -0.4875  1.3868 -1.2230
  732TMC3    C110814   3.486   3.470  12.072 -0.1675 -0.1230 -0.1151
  732TMC3    C210815   3.437   3.452  11.949 -1.1653  0.7310 -0.1316
  732TMC3    C310816   3.520   3.444  11.843  0.5417  0.7183 -0.3485
  732TMC3    C410817   3.628   3.474  12.082 -0.0056 -0.1327  0.0356
  732TMC3    C510818   3.711   3.467  11.978 -0.5732  0.4307  0.1208
  732TMC3    C610819   3.663   3.452  11.846  0.5530 -0.1494 -0.1144
  732TMC3     C10820   3.422   3.368  12.156 -0.7709  0.1940 -0.0959
  732TMC3     O10821   3.319   3.310  12.119  0.1171 -0.4352 -0.3124
  732TMC3     H10822   3.332   3.459  11.923 -1.1728  2.3677  0.2952
  732TMC3    H110823   3.677   3.480  12.179  0.7233  1.2690 -0.4085
  732TMC3    H210824   3.732   3.440  11.763  0.5571  0.6501 -0.2337
  732TMC3    C710825   3.844   3.406  12.001 -0.1128  0.1805  0.1173
  732TMC3    C810826   3.474   3.364  11.728  0.5401  0.6146 -0.1425
  732TMC3    O110827   3.879   3.314  11.926  0.3855  0.2283  0.1759
  732TMC3    O210828   3.499   3.405  11.609  0.2147  0.1185 -0.1438
  733TMC3    C110829   3.856   1.682  12.833 -0.6580 -0.5321  0.2736
  733TMC3    C210830   3.931   1.714  12.941 -0.5453 -0.1916 -0.1810
  733TMC3    C310831   4.065   1.745  12.917 -0.1686  0.1533 -0.6905
  733TMC3    C410832   3.904   1.696  12.701 -0.3289 -0.0457 -0.0356
  733TMC3    C510833   4.039   1.726  12.684 -0.3082  1.2172 -0.5908
  733TMC3    C610834   4.124   1.747  12.794 -0.2736 -0.2754 -0.3591
  733TMC3     C10835   3.722   1.628  12.850 -0.3055 -0.7183 -0.4286
  733TMC3     O10836   3.642   1.655  12.762 -0.0361  0.0503  0.4854
  733TMC3     H10837   3.884   1.737  13.036  0.3741  1.3654 -0.1027
  733TMC3    H110838   3.836   1.677  12.618  0.5479  1.7131 -1.1485
  733TMC3    H210839   4.224   1.788  12.783 -0.8433  1.3639  0.4831
  733TMC3    C710840   4.091   1.741  12.547 -0.1294  0.7818 -0.1450
  733TMC3    C810841   4.143   1.779  13.034 -0.6418  0.0401 -0.4081
  733TMC3    O110842   4.011   1.779  12.460 -0.0151  0.3425 -0.1298
  733TMC3    O210843   4.098   1.737  13.142  0.0327 -0.1821 -0.6208
  734MPD2     C10844   1.420   3.527  12.359 -0.0610 -0.3631  0.7156
  734MPD2    C110845   1.348   3.503  12.245  0.5095  0.2342 -0.4121
  734MPD2    C210846   1.339   3.602  12.144 -0.6168  0.0148  0.1021
  734MPD2    C310847   1.400   3.726  12.158 -0.0458  0.3293  0.6100
  734MPD2    C410848   1.448   3.756  12.283  0.7474  0.0548 -0.2695
  734MPD2    C510849   1.456   3.662  12.382 -0.0295 -0.6070 -0.6566
  734MPD2     H10850   1.302   3.575  12.046 -1.5270 -2.1487  1.0423
  734MPD2    H110851   1.499   3.848  12.309 -1.2491  1.2517 -0.6096
  734MPD2    H210852   1.418   3.462  12.445 -0.8755  0.7491  1.5388
  734MPD2    H310853   1.503   3.678  12.478  1.5481  0.2758 -1.5777
  734MPD2     N10854   1.391   3.818  12.047  0.3457 -0.7390  1.0467
  734MPD2    H510855   1.370   3.783  11.954  2.6963  0.7770 -0.0302
  734MPD2    N110856   1.299   3.374  12.226  0.4597  0.3354 -0.3500
  734MPD2    H710857   1.323   3.305  12.296 -0.8406 -0.5095 -0.7165
  735TMC3    C110858   1.162   3.202  12.102  0.1140  0.0806 -0.0244
  735TMC3    C210859   1.076   3.206  11.996 -0.2038 -0.7417  0.7782
  735TMC3    C310860   1.107   3.137  11.880 -0.1566  0.3935 -0.0410
  735TMC3    C410861   1.285   3.140  12.096  0.0320  0.8235 -0.1840
  735TMC3    C510862   1.318   3.093  11.972  0.4357 -0.4799  0.3913
  735TMC3    C610863   1.235   3.088  11.862  0.7647  1.3493  0.2753
  735TMC3     C10864   1.191   3.345  12.137 -0.1779 -0.2882  0.0566
  735TMC3     O10865   1.136   3.417  12.055 -0.0665 -0.2659 -0.1488
  735TMC3     H10866   0.980   3.257  12.003 -0.6904 -1.4999 -0.4736
  735TMC3    H110867   1.343   3.132  12.188 -1.9903 -0.0538  1.0172
  735TMC3    H210868   1.270   3.060  11.763  0.2500  2.1500 -0.1382
  735TMC3    C710869   1.459   3.077  11.935  0.3026 -0.0347  0.4914
  735TMC3    C810870   1.081   3.216  11.765 -0.1731  0.3956  0.3112
  735TMC3    O110871   1.487   3.053  11.819  0.4943 -0.2731 -0.6359
  735TMC3    O210872   1.074   3.164  11.656  0.4491 -0.3555 -0.3156
  736MPD2     C10873   1.746   3.142  12.171 -0.6159  0.3266 -0.4610
  736MPD2    C110874   1.689   3.107  12.050 -0.0668  0.2445  0.6220
  736MPD2    C210875   1.773   3.092  11.939  0.2325  0.0487 -0.3800
  736MPD2    C310876   1.905   3.096  11.956 -0.0482 -0.9633  0.3619
  736MPD2    C410877   1.959   3.139  12.070 -0.4685 -0.0006  0.5373
  736MPD2    C510878   1.881   3.158  12.183 -0.0065  0.1821 -0.3478
  736MPD2     H10879   1.741   3.056  11.842 -0.4068  0.7312 -0.4236
  736MPD2    H110880   2.065   3.151  12.091 -0.5263  1.1040  0.1867
  736MPD2    H210881   1.688   3.153  12.263 -1.8378  0.7884 -1.2818
  736MPD2    H310882   1.925   3.198  12.273  0.3597  2.4927 -1.5570
  736MPD2     N10883   2.001   3.086  11.856 -0.6502 -0.0227  0.0754
  736MPD2    H510884   2.095   3.101  11.893 -1.3909  1.9053  1.2108
  736MPD2    N110885   1.544   3.096  12.042 -0.8161 -0.3192 -0.1860
  736MPD2    H710886   1.489   3.122  12.123  0.8715 -1.4928  1.3645
  737TMC3    C110887   2.118   3.052  11.668 -0.6512  0.2772 -0.2265
  737TMC3    C210888   2.200   3.158  11.688 -0.0384 -0.0933  0.0769
  737TMC3    C310889   2.306   3.165  11.603 -0.1927  0.0175 -0.3400
  737TMC3    C410890   2.128   2.966  11.559  0.2978 -0.3487  0.0573
  737TMC3    C510891   2.228   2.991  11.474  0.7034 -0.2177  0.4735
  737TMC3    C610892   2.324   3.082  11.497  0.1512  0.4413  0.6640
  737TMC3     C10893   1.983   3.064  11.728 -0.1985 -0.0539  0.5514
  737TMC3     O10894   1.888   3.043  11.656 -0.1539  0.3820 -0.4328
  737TMC3     H10895   2.185   3.237  11.760 -1.1701 -2.2541  2.2167
  737TMC3    H110896   2.048   2.892  11.554  0.0039 -0.0848  0.7958
  737TMC3    H210897   2.413   3.092  11.436  0.1508 -0.1138  0.5747
  737TMC3    C710898   2.226   2.909  11.356 -0.5390  0.3555 -0.0369
  737TMC3    C810899   2.411   3.268  11.614  0.3604 -0.0650 -0.2023
  737TMC3    O110900   2.167   2.801  11.352 -0.0365 -0.7218 -0.0188
  737TMC3    O210901   2.522   3.245  11.573  0.2522  0.0386  0.2358
  738MPD2     C10902   2.177   2.379  15.224  0.4058  0.5539 -1.0405
  738MPD2    C110903   2.231   2.253  15.190  0.3408  1.0403 -0.2651
  738MPD2    C210904   2.354   2.252  15.130  0.3166  0.6277  0.0260
  738MPD2    C310905   2.430   2.365  15.103 -0.2076 -0.3129  0.5620
  738MPD2    C410906   2.372   2.486  15.135 -0.4678 -0.1030  0.3108
  738MPD2    C510907   2.248   2.487  15.192 -0.1210 -0.5110  0.0266
  738MPD2     H10908   2.399   2.158  15.101 -1.0091  0.5733 -1.8655
  738MPD2    H110909   2.426   2.580  15.127 -0.6197  0.1305  1.9762
  738MPD2    H210910   2.078   2.392  15.264  0.8801  1.1953 -0.0827
  738MPD2    H310911   2.204   2.586  15.205 -0.8489 -1.0180  1.4456
  738MPD2     N10912   2.558   2.363  15.042  0.1274 -0.5984 -0.1931
  738MPD2    H510913   2.600   2.449  15.010 -0.5005  1.1860  3.7165
  738MPD2    N110914   2.158   2.133  15.200 -0.0531 -0.1088  1.1562
  738MPD2    H710915   2.200   2.055  15.150 -1.7794 -1.3451  1.5885
  739TMC3    C110916   2.771   2.280  14.970 -0.2564  0.0457  0.2046
  739TMC3    C210917   2.775   2.355  14.857 -0.1843  0.8036 -0.2283
  739TMC3    C310918   2.897   2.363  14.794 -0.1592  0.0933  0.3536
  739TMC3    C410919   2.874   2.201  15.017 -0.0225 -0.8048 -0.4073
  739TMC3    C510920   2.997   2.226  14.953  0.5202 -0.1702  0.3445
  739TMC3    C610921   3.010   2.297  14.838 -0.1291 -0.4079  0.0402
  739TMC3     C10922   2.638   2.249  15.023 -0.0755 -0.2632 -0.5699
  739TMC3     O10923   2.621   2.142  15.072 -0.0975 -0.4149  0.1355
  739TMC3     H10924   2.681   2.393  14.818 -1.6249 -0.7450  1.7295
  739TMC3    H110925   2.857   2.147  15.110 -2.4502 -0.2483 -0.5404
  739TMC3    H210926   3.106   2.323  14.795 -0.7898  0.5625 -0.8859
  739TMC3    C710927   3.115   2.168  15.010  0.3343  0.2226  0.0279
  739TMC3    C810928   2.874   2.388  14.651 -0.3231 -0.3537 -0.0712
  739TMC3    O110929   3.106   2.112  15.122  0.3173  0.0189  0.0245
  739TMC3    O210930   2.767   2.425  14.610 -0.1233  0.4745 -0.0266
  740TMC3    C110931   3.037   3.433  14.321 -0.2686 -0.5587  0.2833
  740TMC3    C210932   3.094   3.406  14.442  0.1526 -0.2333  0.0513
  740TMC3    C310933   3.210   3.336  14.439  0.0042 -0.1767 -0.0535
  740TMC3    C410934   3.096   3.391  14.203  0.6949  0.7374 -0.0517
  740TMC3    C510935   3.221   3.335  14.201 -0.7237 -0.4797  0.0310
  740TMC3    C610936   3.272   3.290  14.324 -0.1151  0.0417  0.0714
  740TMC3     C10937   2.896   3.483  14.302 -0.5280  0.5350  0.3614
  740TMC3     O10938   2.857   3.496  14.186  0.4110 -0.1887  0.2890
  740TMC3     H10939   3.046   3.455  14.526  0.3179  1.6258 -0.9364
  740TMC3    H110940   3.052   3.421  14.108  0.7123  0.9969  0.0210
  740TMC3    H210941   3.370   3.245  14.329  0.4541  1.0860 -1.6385
  740TMC3    C710942   3.301   3.310  14.083 -0.0592  0.2569  0.2784
  740TMC3    C810943   3.278   3.307  14.563 -0.4103  0.4267 -0.1050
  740TMC3    O110944   3.384   3.219  14.086 -0.3078 -0.2330  0.1544
  740TMC3    O210945   3.387   3.253  14.555  0.3268  0.3332  0.3794
  741TMC3    C110946   2.771   2.832  14.196  0.2050  0.0630  0.5626
  741TMC3    C210947   2.645   2.801  14.252 -0.8642 -0.9191  0.0066
  741TMC3    C310948   2.645   2.744  14.378  0.1166  0.5089  0.4302
  741TMC3    C410949   2.893   2.819  14.268 -0.1125  0.0439  0.9394
  741TMC3    C510950   2.880   2.760  14.394  0.4978  0.1813  0.3182
  741TMC3    C610951   2.759   2.718  14.447 -0.2907  0.1086  0.3300
  741TMC3     C10952   2.788   2.870  14.056  0.2409 -0.4150  0.4271
  741TMC3     O10953   2.888   2.819  13.996 -0.3162  0.1930 -0.0483
  741TMC3     H10954   2.554   2.822  14.198  0.1485 -0.5026 -1.5203
  741TMC3    H110955   2.982   2.876  14.244 -0.4548 -0.0069 -0.4093
  741TMC3    H210956   2.760   2.685  14.551  0.6863  0.0536  0.3092
  741TMC3    C710957   2.997   2.724  14.471  0.8586  0.0317  0.2513
  741TMC3    C810958   2.511   2.690  14.418 -0.4250 -0.0501 -0.3220
  741TMC3    O110959   3.102   2.719  14.412 -0.0199 -0.5911  0.4285
  741TMC3    O210960   2.418   2.757  14.377  0.1629 -0.6280  0.2827
  742TMC3    C110961   2.160   1.339  14.937 -0.1374 -0.3278  0.0695
  742TMC3    C210962   2.066   1.311  14.841 -0.9536  0.1534  1.1530
  742TMC3    C310963   2.110   1.236  14.736  0.6534 -0.3498  0.2837
  742TMC3    C410964   2.279   1.265  14.952 -0.0435  1.0761  0.4539
  742TMC3    C510965   2.312   1.188  14.845 -0.0161  0.4892 -0.0300
  742TMC3    C610966   2.234   1.182  14.730 -0.1004  0.0179  0.4376
  742TMC3     C10967   2.115   1.394  15.061  0.0274 -0.2044 -0.4646
  742TMC3     O10968   1.998   1.376  15.099  0.1592 -0.1711  0.0865
  742TMC3     H10969   1.978   1.375  14.848 -0.6915  0.5984  0.3440
  742TMC3    H110970   2.356   1.283  15.026  0.0713 -1.2457  0.8955
  742TMC3    H210971   2.265   1.124  14.644  1.0409  2.7002 -0.9544
  742TMC3    C710972   2.404   1.078  14.859 -0.6230 -0.7126 -0.0229
  742TMC3    C810973   2.030   1.231  14.617 -0.4843 -0.1371  0.2023
  742TMC3    O110974   2.446   1.035  14.755 -0.1421  0.0518 -0.7125
  742TMC3    O210975   2.085   1.205  14.512  0.3752 -0.3062  0.1962
  743MPD2     C10976   0.885   1.851   1.789  0.0543 -0.5341 -0.2863
  743MPD2    C110977   0.931   1.934   1.688 -0.4433 -0.2233 -0.0463
  743MPD2    C210978   1.055   1.991   1.687 -0.1502  0.1969  0.6530
  743MPD2    C310979   1.140   1.965   1.797  0.6380 -0.1979  0.3791
  743MPD2    C410980   1.098   1.875   1.890  0.1336 -0.0194  0.1779
  743MPD2    C510981   0.970   1.828   1.892  0.0176  0.0560  0.3078
  743MPD2     H10982   1.083   2.065   1.612 -0.6057  1.0040  1.2811
  743MPD2    H110983   1.169   1.834   1.961  1.7164  2.3525 -0.0481
  743MPD2    H210984   0.781   1.821   1.797 -0.6701  1.7213 -1.2979
  743MPD2    H310985   0.940   1.762   1.973  1.9390  0.9842  1.7780
  743MPD2     N10986   1.263   2.033   1.806  0.2790  0.4200  0.0090
  743MPD2    H510987   1.284   2.096   1.730 -1.6382  0.5072 -0.4526
  743MPD2    N110988   0.839   1.949   1.582  0.2094 -0.2404  0.1977
  743MPD2    H710989   0.750   1.899   1.586  0.1891 -0.2683 -0.5914
  744TMC3    C110990   0.748   2.044   1.370 -0.5657 -0.1078  0.3628
  744TMC3    C210991   0.626   2.020   1.420  0.3555  0.6990  0.1377
  744TMC3    C310992   0.522   2.023   1.335 -0.1949  0.9919  0.5396
  744TMC3    C410993   0.781   2.077   1.243 -0.6510 -0.1084 -0.3920
  744TMC3    C510994   0.666   2.105   1.167  0.0830  0.7310 -0.1172
  744TMC3    C610995   0.541   2.082   1.211  0.2138  0.6279  0.4139
  744TMC3     C10996   0.863   2.013   1.458  0.2896  0.1378  0.2147
  744TMC3     O10997   0.977   2.047   1.415 -0.2039  0.5986  0.9146
  744TMC3     H10998   0.606   2.014   1.527 -0.5934  1.1524 -0.0085
  744TMC3    H110999   0.880   2.108   1.212  0.1984 -1.1649  1.2239
  744TMC3    H211000   0.462   2.094   1.138 -0.7515 -1.2234  1.1500
  744TMC3    C711001   0.675   2.159   1.037 -0.1916 -0.4304 -0.8593
  744TMC3    C811002   0.383   2.005   1.378  0.2453  0.0045 -0.6473
  744TMC3    O111003   0.579   2.217   0.990 -0.0368 -0.7503 -0.0235
  744TMC3    O211004   0.300   2.039   1.297 -0.1806  0.2552 -0.3749
  745TMC3    C111005   2.703   0.867  13.239  0.6559  0.0695 -0.6168
  745TMC3    C211006   2.650   0.889  13.362  0.9315 -0.5285  0.0791
  745TMC3    C311007   2.515   0.904  13.367 -0.4327  0.1848 -0.6196
  745TMC3    C411008   2.632   0.869  13.123 -0.7607  0.1797 -0.0850
  745TMC3    C511009   2.492   0.891  13.138 -0.2261  0.1839  0.4606
  745TMC3    C611010   2.431   0.919  13.259 -0.0922  0.0688  0.0478
  745TMC3     C11011   2.842   0.891  13.222  0.3948  0.3256 -0.3579
  745TMC3     O11012   2.893   0.832  13.130  0.4268  0.0634  0.0608
  745TMC3     H11013   2.715   0.865  13.445  1.0455 -0.9467 -0.1313
  745TMC3    H111014   2.685   0.839  13.033  0.1232  0.2212  0.4189
  745TMC3    H211015   2.324   0.932  13.268 -0.1450 -0.8703  0.7593
  745TMC3    C711016   2.437   0.955  13.024 -0.1853 -0.5193 -0.9129
  745TMC3    C811017   2.467   0.974  13.486  0.4930  0.6846  0.0612
  745TMC3    O111018   2.317   0.948  12.981  0.0856 -0.5736 -1.2242
  745TMC3    O211019   2.352   1.015  13.492  0.0131  0.0175 -0.3919
  746TMC3    C111020   0.689   2.952  10.730  0.5223 -0.4110  0.4546
  746TMC3    C211021   0.748   2.929  10.603  0.3278 -0.1149 -0.5443
  746TMC3    C311022   0.762   2.795  10.572  0.1477  0.0397 -0.1730
  746TMC3    C411023   0.657   2.851  10.815  0.2607 -0.0716 -0.1254
  746TMC3    C511024   0.673   2.721  10.777  0.9905 -0.1518 -0.0712
  746TMC3    C611025   0.729   2.695  10.658  0.2398  0.3208  0.4728
  746TMC3     C11026   0.635   3.085  10.768 -0.3371 -0.1018 -0.2472
  746TMC3     O11027   0.574   3.099  10.875  0.0523  0.1353 -0.2238
  746TMC3     H11028   0.752   3.010  10.531 -0.6164  0.1875 -0.2716
  746TMC3    H111029   0.600   2.874  10.905 -0.4747 -1.9820 -0.1044
  746TMC3    H211030   0.727   2.596  10.612 -1.9648  0.7356 -0.3582
  746TMC3    C711031   0.577   2.629  10.819 -0.7854  0.4528  0.4771
  746TMC3    C811032   0.828   2.764  10.452 -0.1123 -0.5875 -0.1706
  746TMC3    O111033   0.490   2.599  10.738 -1.1027 -0.0011  0.2291
  746TMC3    O211034   0.789   2.671  10.386 -0.0472  0.9433 -0.0895
  747TMC3    C111035   2.888   3.110  10.524  0.5623 -0.0379 -0.2688
  747TMC3    C211036   2.787   3.034  10.583  0.7660 -0.0491  0.8111
  747TMC3    C311037   2.764   3.038  10.716  0.5486 -0.3672  0.3885
  747TMC3    C411038   2.977   3.181  10.607  0.0719  0.2598 -0.4692
  747TMC3    C511039   2.948   3.190  10.741 -0.2192  0.8523 -0.1595
  747TMC3    C611040   2.845   3.113  10.794 -0.1051  0.7843 -0.5756
  747TMC3     C11041   2.873   3.154  10.390 -0.1448 -0.7093 -0.0406
  747TMC3     O11042   2.895   3.270  10.367  0.2790 -0.2345  0.4866
  747TMC3     H11043   2.720   2.978  10.520 -1.6322  2.5883  1.0506
  747TMC3    H111044   3.044   3.254  10.564 -1.3904  1.5892 -0.5024
  747TMC3    H211045   2.816   3.133  10.896  0.4568  2.4120 -0.7350
  747TMC3    C711046   3.012   3.286  10.829 -0.5215  0.6729  0.5136
  747TMC3    C811047   2.674   2.939  10.775 -0.6882  0.0114  1.2072
  747TMC3    O111048   2.982   3.276  10.948 -0.0709 -0.4729 -0.3880
  747TMC3    O211049   2.676   2.826  10.722  0.0456 -0.0472  0.1900
  748MPD2     C11050   3.624   4.119   1.814  0.0838 -0.2640  0.4351
  748MPD2    C111051   3.692   4.124   1.697  0.1520 -0.3964  0.0838
  748MPD2    C211052   3.811   4.058   1.688 -0.1867 -0.2350 -0.1407
  748MPD2    C311053   3.854   3.973   1.790  0.5128 -0.6974  0.0778
  748MPD2    C411054   3.784   3.959   1.909  0.3884 -0.2948 -0.0145
  748MPD2    C511055   3.670   4.032   1.912  0.2212  0.1305  0.5244
  748MPD2     H11056   3.870   4.060   1.597  1.4861  1.6684  0.9913
  748MPD2    H111057   3.810   3.897   1.994 -1.0090 -3.1266 -1.6625
  748MPD2    H211058   3.528   4.170   1.818 -0.3792 -1.1508  0.8562
  748MPD2    H311059   3.598   4.013   1.990  1.2603 -1.7279  1.0186
  748MPD2     N11060   3.965   3.892   1.755 -0.5170 -0.8890  0.5217
  748MPD2    H511061   4.009   3.930   1.672  1.4670  1.9480  2.8708
  748MPD2    N111062   3.624   4.169   1.586  0.3119  0.1178 -0.1227
  748MPD2    H711063   3.525   4.179   1.607  0.1584 -1.1504 -0.2761
  749TMC3    C111064   4.124   3.716   1.745 -0.5273  0.2465  0.3460
  749TMC3    C211065   4.209   3.635   1.810 -0.7143 -0.3126 -0.2403
  749TMC3    C311066   4.309   3.567   1.733 -0.4994 -0.1204  0.8607
  749TMC3    C411067   4.133   3.736   1.603 -0.6479  0.3276 -0.2759
  749TMC3    C511068   4.232   3.671   1.539 -0.3934  0.6427  0.4537
  749TMC3    C611069   4.324   3.594   1.599  0.5907 -0.0812  0.4483
  749TMC3     C11070   4.023   3.783   1.818 -0.1044  0.3586  1.2286
  749TMC3     O11071   3.984   3.737   1.923  0.3407  0.2331 -0.3736
  749TMC3     H11072   4.212   3.618   1.917  0.4557 -0.1070 -0.2364
  749TMC3    H111073   4.046   3.774   1.552 -2.7937 -1.2087  2.2336
  749TMC3    H211074   4.405   3.551   1.540  1.2210 -0.3255  1.4862
  749TMC3    C711075   4.277   3.723   1.406  0.0418  0.4793  0.1156
  749TMC3    C811076   4.410   3.503   1.806 -0.4884 -0.4734 -0.1779
  749TMC3    O111077   4.390   3.693   1.364 -1.0921  0.0051 -0.5279
  749TMC3    O211078   4.413   3.529   1.926  0.2376 -0.8218  0.2419
  750MPD2     C11079   0.285   4.631  11.389  0.2923  0.4313 -0.0682
  750MPD2    C111080   0.418   4.650  11.348 -0.2389 -0.3043 -0.7168
  750MPD2    C211081   0.468   4.578  11.242  0.3758 -1.0718  0.4787
  750MPD2    C311082   0.384   4.480  11.178  0.3346  0.5249  0.3644
  750MPD2    C411083   0.260   4.454  11.227  0.0820  0.0049 -0.0566
  750MPD2    C511084   0.209   4.531  11.329 -0.7258 -0.0444 -0.0672
  750MPD2     H11085   0.573   4.575  11.214 -0.2858 -5.7223 -1.5209
  750MPD2    H111086   0.202   4.370  11.188 -0.3065 -0.0691  0.6902
  750MPD2    H211087   0.233   4.689  11.465  1.7165  0.5446  0.8008
  750MPD2    H311088   0.109   4.508  11.364 -1.0658  3.2384  1.1211
  750MPD2     N11089   0.426   4.405  11.070  0.4937  0.9044  0.1419
  750MPD2    H511090   0.367   4.324  11.051  0.0511  1.1709  0.3662
  750MPD2    N111091   0.489   0.037  11.409 -0.3249  0.7376  0.3496
  750MPD2    H711092   0.463   0.076  11.499 -4.0747  3.3205 -1.9116
  751TMC3    C111093   0.519   4.350  10.857 -0.7957 -0.4384  0.4234
  751TMC3    C211094   0.398   4.311  10.809  1.0804 -0.2070  0.3146
  751TMC3    C311095   0.389   4.247  10.683  0.7925  0.5424 -0.0621
  751TMC3    C411096   0.630   4.305  10.791  0.1658 -0.5518 -0.8455
  751TMC3    C511097   0.626   4.251  10.668 -0.0713 -0.0956  0.4394
  751TMC3    C611098   0.501   4.226  10.609 -0.6286  0.1789 -1.1244
  751TMC3     C11099   0.536   4.421  10.985 -0.0397 -0.3092  0.1085
  751TMC3     O11100   0.641   4.483  11.002  0.4904 -0.0712 -0.5629
  751TMC3     H11101   0.304   4.323  10.861  1.6596  0.3456  1.2223
  751TMC3    H111102   0.723   4.317  10.845  0.2712 -0.0450 -1.1389
  751TMC3    H211103   0.490   4.161  10.522 -2.3924 -0.8206 -0.1514
  751TMC3    C711104   0.734   4.175  10.620 -0.0715  0.2353  0.3867
  751TMC3    C811105   0.270   4.179  10.645 -0.0285  0.2819  0.0807
  751TMC3    O111106   0.845   4.216  10.633  0.7865 -0.4048 -0.0405
  751TMC3    O211107   0.259   4.174  10.522 -0.5659 -0.4168 -0.0969
  752TMC3    C111108   3.255   3.934  17.262 -0.2106 -0.5380  0.1006
  752TMC3    C211109   3.325   3.824  17.295  0.2839 -0.1424 -0.0727
  752TMC3    C311110   3.251   3.711  17.327 -0.2657  0.0679 -0.1384
  752TMC3    C411111   3.116   3.937  17.256  0.9646  0.6910 -0.3103
  752TMC3    C511112   3.047   3.823  17.290 -0.0585 -0.4829  0.1959
  752TMC3    C611113   3.113   3.707  17.332  0.7279  0.5381 -0.2811
  752TMC3     C11114   3.333   4.019  17.166  0.5231  0.6709 -0.4858
  752TMC3     O11115   3.449   3.986  17.140 -0.3674 -0.0701 -0.2161
  752TMC3     H11116   3.432   3.815  17.306  0.5812  0.6842 -2.3283
  752TMC3    H111117   3.066   4.032  17.241 -0.6435  0.1398  1.5080
  752TMC3    H211118   3.061   3.613  17.349  1.4719 -0.0984 -1.5761
  752TMC3    C711119   2.922   3.794  17.224 -0.3524  0.1787  0.6037
  752TMC3    C811120   3.319   3.582  17.308 -0.0133  0.1875 -0.1308
  752TMC3    O111121   2.906   3.861  17.121 -0.7859  0.1512  0.6450
  752TMC3    O211122   3.444   3.583  17.321 -0.4916  0.1637 -0.3894
  753TMC3    C111123   1.239   1.187  13.369 -0.5023  0.0829 -0.3410
  753TMC3    C211124   1.373   1.185  13.380  0.2538  0.4917 -0.2226
  753TMC3    C311125   1.438   1.065  13.381  0.0009  0.6305 -0.6449
  753TMC3    C411126   1.169   1.072  13.356  0.3369 -0.0014  0.5666
  753TMC3    C511127   1.233   0.951  13.357  0.1426  0.5194  0.5608
  753TMC3    C611128   1.366   0.949  13.367 -0.5194 -0.2703 -0.3896
  753TMC3     C11129   1.173   1.314  13.399  0.6771 -0.6034 -0.1906
  753TMC3     O11130   1.241   1.414  13.392 -0.3315 -0.9346 -0.1893
  753TMC3     H11131   1.424   1.280  13.391 -0.9760  0.6145  4.3479
  753TMC3    H111132   1.061   1.078  13.347  0.3812  0.1270  0.0792
  753TMC3    H211133   1.427   0.860  13.380  0.8786  0.9201  1.2101
  753TMC3    C711134   1.165   0.822  13.374 -0.2165 -0.2769  0.6209
  753TMC3    C811135   1.574   1.055  13.441  0.1134  0.4794  0.2634
  753TMC3    O111136   1.057   0.826  13.432  0.3799 -0.0690 -0.0011
  753TMC3    O211137   1.651   0.972  13.403  0.1365  0.1257 -0.0804
  754MPD2     C11138   0.036   4.054  13.233  0.2827 -0.0717 -0.1024
  754MPD2    C111139   4.716   3.936  13.172 -0.3333  1.1172  0.4697
  754MPD2    C211140   4.607   3.920  13.095  0.0856 -0.2822 -0.4063
  754MPD2    C311141   4.530   4.032  13.073  0.5078  0.2200  0.2114
  754MPD2    C411142   4.561   4.155  13.130  0.2617 -0.1507 -0.2798
  754MPD2    C511143   4.671   4.165  13.212  0.0817 -0.7231  0.1146
  754MPD2     H11144   4.566   3.824  13.067  0.7142 -0.5868 -0.2778
  754MPD2    H111145   4.494   4.240  13.125  0.4351  0.1436  2.6343
  754MPD2    H211146   0.120   4.062  13.302  1.6227  1.6249 -1.9317
  754MPD2    H311147   4.686   4.258  13.265  0.4525  0.9540 -2.9185
  754MPD2     N11148   4.409   4.032  13.000 -0.1698  1.3098  0.5843
  754MPD2    H511149   4.353   4.116  12.996  0.5090  1.7692  0.6149
  754MPD2    N111150   0.064   3.821  13.216 -0.3796  0.6028 -0.6994
  754MPD2    H711151   0.127   3.826  13.296 -0.5676 -0.1509 -0.5004
  755MPD2     C11152   3.486   4.226  13.159 -0.2524  0.1540  0.1388
  755MPD2    C111153   3.596   4.307  13.148 -0.1302  0.3461 -0.3412
  755MPD2    C211154   3.703   4.255  13.078  0.0860  0.0040  0.3278
  755MPD2    C311155   3.706   4.126  13.023  0.1004  0.0906 -0.4440
  755MPD2    C411156   3.595   4.047  13.046  0.4005 -0.5955 -0.2338
  755MPD2    C511157   3.482   4.100  13.116  0.5070 -0.2437  0.3284
  755MPD2     H11158   3.787   4.322  13.066  0.2387 -0.0557  1.0897
  755MPD2    H111159   3.580   3.944  13.015  0.1133 -0.9468  1.0574
  755MPD2    H211160   3.403   4.260  13.220 -1.4786 -0.2561 -1.2891
  755MPD2    H311161   3.396   4.035  13.127 -1.2848  2.0615 -0.1615
  755MPD2     N11162   3.811   4.069  12.954 -0.1913 -0.6486 -0.7560
  755MPD2    H511163   3.810   3.970  12.935  1.7323 -0.7890 -0.1639
  755MPD2    N111164   3.609   4.427  13.218  0.1735  0.0638 -0.4018
  755MPD2    H711165   3.701   4.471  13.215  0.4598 -0.4181  1.5634
  756MPD2     C11166   4.656   0.840   9.355 -0.1973 -0.5775 -0.2576
  756MPD2    C111167   0.001   0.720   9.354 -0.5417  0.4711 -0.6273
  756MPD2    C211168   4.652   0.603   9.325 -0.7707 -0.2277  0.4595
  756MPD2    C311169   4.516   0.602   9.319 -0.6420 -0.5247 -0.4496
  756MPD2    C411170   4.454   0.727   9.316  0.2564 -0.2075  0.4508
  756MPD2    C511171   4.522   0.841   9.336 -0.8116 -0.6323 -0.1929
  756MPD2     H11172   4.706   0.510   9.313 -0.3432 -0.1222  1.5829
  756MPD2    H111173   4.347   0.740   9.299 -0.0110  0.5390  2.6682
  756MPD2    H211174   4.708   0.934   9.371  1.4571 -1.5298 -0.1335
  756MPD2    H311175   4.471   0.937   9.337 -1.0100 -0.7448  0.8803
  756MPD2     N11176   4.441   0.483   9.302 -0.7398  0.3152 -0.0859
  756MPD2    H511177   4.343   0.494   9.276 -0.7170  2.0642  0.5656
  756MPD2    N111178   0.136   0.705   9.398 -0.1818  0.1126 -0.0657
  756MPD2    H711179   0.168   0.610   9.412 -2.1981 -0.5007  0.5026
  757MPD2     C11180   4.107   4.246   9.672  0.2464 -0.6063  0.2184
  757MPD2    C111181   4.108   4.219   9.540  0.3161 -0.0235 -0.6542
  757MPD2    C211182   4.164   4.309   9.450 -0.5066 -0.0075  0.1214
  757MPD2    C311183   4.208   4.431   9.497 -0.2624 -0.0789  0.0747
  757MPD2    C411184   4.214   4.448   9.635 -0.1843  1.0452 -0.0976
  757MPD2    C511185   4.162   4.361   9.719 -0.7672 -0.8324 -0.4447
  757MPD2     H11186   4.151   4.299   9.343 -1.7716 -2.4962  0.5027
  757MPD2    H111187   4.247   4.541   9.680 -0.3571  0.8716  0.3855
  757MPD2    H211188   4.073   4.171   9.742 -1.3238  0.1764  0.2873
  757MPD2    H311189   4.172   4.379   9.825  0.2725 -0.7864 -0.5471
  757MPD2     N11190   4.241   4.542   9.412 -0.0348  0.7016  0.1413
  757MPD2    H511191   4.229   4.521   9.314 -4.2224 -1.0422  1.0391
  757MPD2    N111192   4.069   4.088   9.505 -0.2105 -0.8403  0.3282
  757MPD2    H711193   4.009   4.040   9.571 -2.6445 -0.1824 -1.3885
  758MPD2     C11194   4.519   4.123  16.483  0.2863  0.0703  1.0053
  758MPD2    C111195   4.590   4.156  16.596 -0.7714  0.1474  0.7418
  758MPD2    C211196   4.544   4.239  16.694 -0.4403  0.5791 -0.1312
  758MPD2    C311197   4.413   4.282  16.697  0.1402  0.2739 -0.0087
  758MPD2    C411198   4.341   4.252  16.582 -0.1491 -0.0857 -0.4660
  758MPD2    C511199   4.399   4.184  16.474 -0.5011 -0.4472 -0.5241
  758MPD2     H11200   4.607   4.262  16.780 -1.5838 -0.9047  1.1033
  758MPD2    H111201   4.242   4.297  16.574  0.4860  1.8280  2.7166
  758MPD2    H211202   4.561   4.066  16.400  1.0601  0.4215  1.1533
  758MPD2    H311203   4.337   4.169  16.387 -2.4159  0.0718  0.7480
  758MPD2     N11204   4.355   4.368  16.794  0.0819 -0.4634 -0.3150
  758MPD2    H511205   4.258   4.396  16.785 -0.1732 -1.4289 -0.5679
  758MPD2    N111206   4.716   4.104  16.602 -0.0985 -0.4222  0.1960
  758MPD2    H711207   0.043   4.057  16.524 -0.3268 -2.5784  1.3736
  759MPD2     C11208   4.022   2.852  10.520  0.2286 -0.4673  0.1493
  759MPD2    C111209   4.068   2.725  10.494 -0.6210 -0.0742  0.2105
  759MPD2    C211210   4.098   2.685  10.362  0.9855  0.1310 -0.0297
  759MPD2    C311211   4.086   2.767  10.254 -0.4329 -0.9667 -1.0122
  759MPD2    C411212   4.035   2.899  10.277  0.3481 -0.5942  0.0462
  759MPD2    C511213   4.002   2.936  10.406  0.5056  0.0636 -0.4022
  759MPD2     H11214   4.154   2.594  10.346 -0.9046 -1.1487  0.6818
  759MPD2    H111215   4.020   2.981  10.208 -1.4434 -0.9289  0.0366
  759MPD2    H211216   3.986   2.895  10.612 -3.9584  1.7818 -2.5231
  759MPD2    H311217   3.968   3.039  10.419 -1.0829 -0.5198  0.0452
  759MPD2     N11218   4.137   2.729  10.127  0.2155 -0.0582 -0.2598
  759MPD2    H511219   4.185   2.641  10.106 -3.1651 -2.1185  0.7180
  759MPD2    N111220   4.059   2.616  10.585 -0.7947  0.7874  0.9621
  759MPD2    H711221   4.074   2.522  10.549  0.5740  2.3313 -2.4624
  760MPD2     C11222   2.971   4.518  11.881  0.0324 -0.3737  0.0311
  760MPD2    C111223   3.104   4.548  11.921 -0.0874  0.5484  0.0892
  760MPD2    C211224   3.173   4.449  11.987  0.0017 -0.4953  0.0730
  760MPD2    C311225   3.113   4.331  12.021  0.5640 -0.5164  0.0568
  760MPD2    C411226   2.981   4.314  11.994 -0.3671 -0.1779  0.8220
  760MPD2    C511227   2.909   4.404  11.926  0.4632 -0.3919  0.3807
  760MPD2     H11228   3.280   4.453  12.006  0.3847 -0.3558 -2.2112
  760MPD2    H111229   2.935   4.218  12.015 -2.3413  0.6760  0.4418
  760MPD2    H211230   2.913   4.578  11.812  3.2875  0.0840 -2.2898
  760MPD2    H311231   2.802   4.391  11.917  0.5934 -0.4433 -1.0468
  760MPD2     N11232   3.178   4.212  12.072  0.1523  0.1478  0.3680
  760MPD2    H511233   3.114   4.140  12.103  0.0243  0.5240  0.9968
  760MPD2    N111234   3.173   4.661  11.873 -0.3270 -0.5747  0.4442
  760MPD2    H711235   3.126   4.717  11.802  2.9673 -0.3552 -1.5660
  761MPD2     C11236   4.711   3.761  10.713  0.1739  0.1896 -0.3170
  761MPD2    C111237   0.083   3.797  10.620  0.9076  0.3952  0.2742
  761MPD2    C211238   0.143   3.923  10.632 -0.1684  0.6257 -0.0344
  761MPD2    C311239   0.111   4.008  10.731  0.0962  0.4123  0.9146
  761MPD2    C411240   0.015   3.973  10.826  0.2548 -0.4098 -0.9685
  761MPD2    C511241   4.681   3.847  10.816 -0.1105 -0.1262 -0.2643
  761MPD2     H11242   0.211   3.959  10.556  1.2340 -0.6907  0.6198
  761MPD2    H111243   4.712   4.034  10.913  0.3918 -0.9506 -0.5549
  761MPD2    H211244   4.669   3.661  10.718  0.1502  0.3012  1.7348
  761MPD2    H311245   4.610   3.826  10.895  0.9954 -2.9589  0.0051
  761MPD2     N11246   0.199   4.120  10.748  0.8690 -0.5202  0.0319
  761MPD2    H511247   0.204   4.162  10.841  5.1630 -1.0360  0.0172
  761MPD2    N111248   0.116   3.714  10.512 -0.1330 -0.5516 -0.9781
  761MPD2    H711249   0.065   3.626  10.500 -1.6615  0.0004  1.5749
  762MPD2     C11250   0.704   3.781   9.940 -0.0886  0.4167  0.0526
  762MPD2    C111251   0.702   3.686  10.040 -0.3749 -0.3900  0.2461
  762MPD2    C211252   0.821   3.621  10.072 -0.3074  0.6400 -0.3716
  762MPD2    C311253   0.939   3.659  10.002 -0.0669  0.2365  0.5088
  762MPD2    C411254   0.939   3.763   9.922 -0.0137 -0.2536 -0.1182
  762MPD2    C511255   0.826   3.825   9.882  0.2773  0.0823  0.0031
  762MPD2     H11256   0.827   3.552  10.156  1.4402  0.7970 -0.3772
  762MPD2    H111257   1.032   3.804   9.884 -0.4464 -0.4571 -1.3879
  762MPD2    H211258   0.606   3.821   9.917  0.2572 -0.0394 -2.1912
  762MPD2    H311259   0.813   3.902   9.807 -0.5734  0.3073  0.3840
  762MPD2     N11260   1.055   3.589  10.035 -0.0297 -0.5046  0.0308
  762MPD2    H511261   1.055   3.531  10.118 -0.4727 -0.6680 -0.0821
  762MPD2    N111262   0.576   3.640  10.094  0.1562  0.2848 -0.3209
  762MPD2    H711263   0.498   3.702  10.073  0.7731  1.4006  0.7257
  763MPD2     C11264   2.084   4.195  16.230 -0.2190  0.7353 -0.3267
  763MPD2    C111265   1.955   4.226  16.190 -0.8556  0.2531  0.4778
  763MPD2    C211266   1.875   4.297  16.277  0.2378 -0.0896 -0.0128
  763MPD2    C311267   1.925   4.342  16.398  0.4518  0.0454  0.0428
  763MPD2    C411268   2.046   4.297  16.438  0.1006  0.8429  0.2364
  763MPD2    C511269   2.124   4.223  16.361 -1.3604 -0.3066 -0.0028
  763MPD2     H11270   1.773   4.326  16.251  0.2578 -0.4491 -0.4922
  763MPD2    H111271   2.081   4.334  16.534 -3.8464  1.0077  1.6016
  763MPD2    H211272   2.159   4.143  16.171  1.2867  1.6959  0.7391
  763MPD2    H311273   2.226   4.209  16.394 -0.6451 -0.9656 -2.5572
  763MPD2     N11274   1.853   4.415  16.492 -0.3629 -0.3523  0.0282
  763MPD2    H511275   1.896   4.459  16.573  1.9764 -1.2878 -0.6855
  763MPD2    N111276   1.907   4.204  16.060 -0.2366  0.1428 -0.4056
  763MPD2    H711277   1.833   4.262  16.020 -1.6192  0.1729  2.2036
  764MPD2     C11278   4.695   1.118   0.220  0.2359 -0.1893  0.3728
  764MPD2    C111279   4.601   1.058   0.147 -0.2611  0.2222 -0.4627
  764MPD2    C211280   4.575   0.929   0.175  0.7337 -0.4522  0.3104
  764MPD2    C311281   4.644   0.850   0.258  0.0084 -0.1509 -1.3669
  764MPD2    C411282   0.030   0.912   0.328  0.0718  0.1417 -0.9385
  764MPD2    C511283   0.051   1.047   0.308  0.4532 -0.1360  0.9449
  764MPD2     H11284   4.494   0.878   0.124  0.4210 -0.9318  1.2862
  764MPD2    H111285   0.106   0.847   0.370 -1.0055  2.3118  4.2541
  764MPD2    H211286   4.712   1.225   0.214  1.4651 -0.4591 -1.1282
  764MPD2    H311287   0.121   1.105   0.368  1.6412  0.6968 -1.2584
  764MPD2     N11288   4.614   0.721   0.263 -0.6159  0.3294  0.5802
  764MPD2    H511289   4.531   0.689   0.213  0.1610 -2.2806  0.9611
  764MPD2    N111290   4.519   1.125   0.049  0.3161 -0.1332 -0.2625
  764MPD2    H711291   4.454   1.072  17.672 -2.6323  1.0282  2.0455
  765MPD2     C11292   3.541   3.234  15.982  0.5216 -0.9510  0.0381
  765MPD2    C111293   3.639   3.312  15.931  0.5161 -0.5771  0.1470
  765MPD2    C211294   3.769   3.267  15.916  0.0460  0.5568  0.1950
  765MPD2    C311295   3.801   3.155  15.989  1.0030  1.1169 -0.4174
  765MPD2    C411296   3.702   3.076  16.050 -1.5720  0.0048  0.4097
  765MPD2    C511297   3.574   3.120  16.053 -0.0517  0.5185  0.0340
  765MPD2     H11298   3.849   3.318  15.863  2.0226  0.8806  3.5033
  765MPD2    H111299   3.727   2.980  16.095  3.0948  0.8450 -0.4283
  765MPD2    H211300   3.439   3.268  15.998  1.6020  1.3939  1.9465
  765MPD2    H311301   3.497   3.063  16.103 -1.8777  1.8135 -1.2812
  765MPD2     N11302   3.938   3.126  15.986 -0.1565 -0.1442 -0.0778
  765MPD2    H511303   3.989   3.201  15.940 -1.4907  0.4192 -0.6554
  765MPD2    N111304   3.605   3.432  15.867  0.0218  0.9993  0.0165
  765MPD2    H711305   3.505   3.438  15.851 -0.2412  1.4023  1.8134
  766MPD2     C11306   3.650   3.186  15.322  0.3186  0.4239 -0.3044
  766MPD2    C111307   3.698   3.319  15.330 -0.2601 -0.2640 -0.3400
  766MPD2    C211308   3.798   3.353  15.246  0.1906 -0.5752  0.5222
  766MPD2    C311309   3.842   3.272  15.146  0.9500 -0.0339  0.3006
  766MPD2    C411310   3.802   3.138  15.144 -0.3147  0.2484 -0.6565
  766MPD2    C511311   3.710   3.101  15.235  0.0951 -0.2882  0.7868
  766MPD2     H11312   3.839   3.453  15.249  0.7963 -0.8244  0.5793
  766MPD2    H111313   3.854   3.063  15.085  0.0509 -0.9559  1.2085
  766MPD2    H211314   3.578   3.147  15.393  0.0763  1.7380  0.1776
  766MPD2    H311315   3.695   2.994  15.230  0.2023 -0.3241  1.2233
  766MPD2     N11316   3.940   3.317  15.059 -0.1484  0.0614  0.2757
  766MPD2    H511317   3.950   3.264  14.973  0.5408 -0.3252  0.5997
  766MPD2    N111318   3.629   3.417  15.405  0.8499  0.1103 -0.8412
  766MPD2    H711319   3.548   3.384  15.457 -0.1226  0.6692 -2.0318
  767MPD2     C11320   3.684   3.737  15.070  0.0599 -0.4676  0.2473
  767MPD2    C111321   3.795   3.731  14.988 -0.3063  0.1196  0.1558
  767MPD2    C211322   3.775   3.676  14.857 -0.1823  0.0975 -0.1259
  767MPD2    C311323   3.651   3.628  14.817  0.4643 -0.3905  0.0905
  767MPD2    C411324   3.543   3.629  14.905 -0.8524 -0.3636 -0.5293
  767MPD2    C511325   3.561   3.690  15.028  0.0255  0.0378 -0.2570
  767MPD2     H11326   3.851   3.685  14.780  0.0282 -4.0958 -0.3935
  767MPD2    H111327   3.447   3.582  14.885 -1.4439 -0.3312  2.1600
  767MPD2    H211328   3.684   3.767  15.174  0.8087  0.6553 -0.0681
  767MPD2    H311329   3.479   3.687  15.099  1.2421 -2.5551  1.0313
  767MPD2     N11330   3.644   3.569  14.693  0.0717  0.1804 -0.1433
  767MPD2    H511331   3.739   3.548  14.665  1.2060 -1.2385  4.7292
  767MPD2    N111332   3.922   3.780  15.037  0.4652 -1.1357 -0.0332
  767MPD2    H711333   3.926   3.817  15.132  1.0817 -1.1159 -0.0722
  768MPD2     C11334   0.363   2.219  10.539 -1.0162  0.4749  0.8912
  768MPD2    C111335   0.347   2.156  10.667  0.5592 -0.3066  0.0481
  768MPD2    C211336   0.447   2.167  10.757 -0.4189 -0.2823  0.0471
  768MPD2    C311337   0.543   2.261  10.738 -0.5825 -0.5781  0.3946
  768MPD2    C411338   0.557   2.317  10.615 -0.4179 -0.2312  0.1615
  768MPD2    C511339   0.469   2.303  10.514  0.2956 -0.1321 -0.3296
  768MPD2     H11340   0.437   2.115  10.851 -0.2796 -2.6031 -1.2186
  768MPD2    H111341   0.643   2.375  10.584 -0.4152 -1.2321 -1.7165
  768MPD2    H211342   0.291   2.222  10.458 -0.8342 -3.7696  0.5491
  768MPD2    H311343   0.478   2.355  10.420  0.8309  1.9181  0.8516
  768MPD2     N11344   0.646   2.282  10.833  0.0367 -0.8371  0.0113
  768MPD2    H511345   0.716   2.349  10.804 -1.9641  0.9324 -0.7068
  768MPD2    N111346   0.234   2.084  10.716  0.9962  0.2688 -0.1416
  768MPD2    H711347   0.236   2.052  10.812 -0.5730  3.4653  0.9451
  769MPD2     C11348   0.944   0.382  14.647 -0.2474 -0.1198 -0.2986
  769MPD2    C111349   0.856   0.332  14.738 -0.2665 -0.2226  0.1684
  769MPD2    C211350   0.864   0.384  14.869 -0.3851 -0.7630 -0.2929
  769MPD2    C311351   0.971   0.465  14.912 -0.1498  0.5415 -0.7394
  769MPD2    C411352   1.060   0.509  14.815  0.7276  0.1349 -0.9390
  769MPD2    C511353   1.042   0.468  14.681  0.7001  0.0073  0.0642
  769MPD2     H11354   0.788   0.344  14.935 -0.5336  2.2632  1.3750
  769MPD2    H111355   1.142   0.572  14.846  0.8941 -0.2957 -0.4935
  769MPD2    H211356   0.938   0.358  14.542 -1.5419  1.9479 -0.6875
  769MPD2    H311357   1.115   0.491  14.604  0.7772 -0.0795  0.1111
  769MPD2     N11358   0.981   0.502  15.047  0.0747 -0.4240  0.5990
  769MPD2    H511359   0.907   0.468  15.107 -1.1648  0.7608 -0.2660
  769MPD2    N111360   0.762   0.236  14.706  0.0502 -0.4029  0.1893
  769MPD2    H711361   0.784   0.169  14.633  3.5364  0.3013  0.5627
  770MPD2     C11362   4.694   4.540  15.205  0.2512  0.8580  0.6966
  770MPD2    C111363   0.104   4.546  15.257  0.4654  0.1471 -1.0350
  770MPD2    C211364   0.207   4.594  15.173  0.9753  0.5325  0.0796
  770MPD2    C311365   0.180   4.616  15.041 -0.0350 -0.5488  0.0136
  770MPD2    C411366   0.054   4.602  14.984 -0.0815 -0.4418 -0.1487
  770MPD2    C511367   4.672   4.572  15.076 -0.1112 -0.2660  0.2588
  770MPD2     H11368   0.308   4.613  15.206  1.0383 -0.7733  0.6300
  770MPD2    H111369   0.024   4.631  14.884 -0.8310  0.9519  0.4842
  770MPD2    H211370   4.614   4.492  15.259 -0.6766  2.6211  0.9014
  770MPD2    H311371   4.570   4.571  15.040 -0.0299 -1.1376  0.0483
  770MPD2     N11372   0.287   4.647  14.957  0.4331  0.0165  0.3520
  770MPD2    H511373   0.371   4.680  15.003  0.4826 -0.4260  0.5692
  770MPD2    N111374   0.123   4.503  15.389 -0.2538 -0.2356 -0.5002
  770MPD2    H711375   0.046   4.465  15.443 -1.4300  2.5171 -0.2244
  771MPD2     C11376   1.762   2.811  13.875  0.3349 -0.7056  0.3598
  771MPD2    C111377   1.690   2.926  13.844  0.8027  0.6810 -0.8301
  771MPD2    C211378   1.617   2.935  13.725  0.0036  0.2428  0.0034
  771MPD2    C311379   1.626   2.836  13.628 -0.8675  0.7045  0.3927
  771MPD2    C411380   1.696   2.720  13.661  0.1129 -0.6301 -0.5289
  771MPD2    C511381   1.758   2.707  13.785  0.4588  0.7394 -0.2170
  771MPD2     H11382   1.549   3.018  13.711  0.0023  0.1235 -0.6704
  771MPD2    H111383   1.700   2.637  13.592 -0.0436  1.4452 -3.0256
  771MPD2    H211384   1.814   2.791  13.968  0.1376  1.8538  1.0255
  771MPD2    H311385   1.802   2.612  13.810 -2.7469 -0.6752  0.1313
  771MPD2     N11386   1.547   2.863  13.512 -0.1036 -0.0100 -0.7403
  771MPD2    H511387   1.505   2.955  13.513 -0.3881 -0.1407  0.5478
  771MPD2    N111388   1.685   3.040  13.936 -0.1949  0.3297  0.2148
  771MPD2    H711389   1.622   3.113  13.905 -0.0380  0.9913  1.4623
  772MPD2     C11390   1.291   3.606  14.131  0.1222 -0.6980 -0.8750
  772MPD2    C111391   1.317   3.480  14.089  0.1538 -0.3767  0.2621
  772MPD2    C211392   1.220   3.388  14.055 -0.6102  0.5954 -0.1429
  772MPD2    C311393   1.089   3.445  14.064  0.8696 -0.3992  0.2426
  772MPD2    C411394   1.064   3.567  14.107  1.1168 -0.1642 -0.7165
  772MPD2    C511395   1.162   3.647  14.147  0.1651 -0.3822  0.0483
  772MPD2     H11396   1.244   3.289  14.018 -3.1992  0.0302 -0.3105
  772MPD2    H111397   0.962   3.601  14.118  1.0254 -1.4078  2.1892
  772MPD2    H211398   1.367   3.678  14.161 -0.6038 -0.3642  0.1608
  772MPD2    H311399   1.134   3.741  14.194 -1.2254 -0.0645 -1.4502
  772MPD2     N11400   0.974   3.378  14.024 -0.0334  0.2428  0.4774
  772MPD2    H511401   0.885   3.418  14.052  0.2623 -0.2254  2.1286
  772MPD2    N111402   1.447   3.429  14.076  0.8099 -0.1921  0.6627
  772MPD2    H711403   1.447   3.335  14.037  1.8620  0.1987 -0.2983
  773MPD2     C11404   0.443   4.603   0.386 -0.0043 -0.0835 -0.0675
  773MPD2    C111405   0.350   4.500   0.387 -0.0835 -0.0090 -0.6840
  773MPD2    C211406   0.410   4.378   0.434 -0.8853 -1.3448  1.4181
  773MPD2    C311407   0.541   4.362   0.450 -0.3464  0.1014  0.3664
  773MPD2    C411408   0.625   4.470   0.456  0.0053  0.0218 -0.5255
  773MPD2    C511409   0.575   4.586   0.411  0.1276 -0.0081 -0.9968
  773MPD2     H11410   0.350   4.288   0.433 -3.4983  0.4267 -1.2963
  773MPD2    H111411   0.729   4.467   0.487 -0.3793  0.1670  0.7964
  773MPD2    H211412   0.415   4.706   0.367 -0.4426 -0.3009 -0.6072
  773MPD2    H311413   0.640   4.672   0.406  1.8696 -1.4978 -3.7855
  773MPD2     N11414   0.587   4.237   0.478  0.1263 -0.0027 -0.3994
  773MPD2    H511415   0.520   4.175   0.523 -0.4899  1.3981  0.6038
  773MPD2    N111416   0.216   4.502   0.348 -0.3921 -0.3549 -0.3426
  773MPD2    H711417   0.155   4.424   0.372  0.5268 -0.7988  0.5582
  774MPD2     C11418   4.559   2.751  13.163  0.7646  0.0377  0.3567
  774MPD2    C111419   4.523   2.799  13.291  0.1631 -0.5240 -0.3093
  774MPD2    C211420   4.522   2.939  13.310  0.0662  0.4934 -0.3114
  774MPD2    C311421   4.563   3.022  13.204  0.4760  0.0301 -0.6955
  774MPD2    C411422   4.594   2.964  13.083  0.1950 -0.0006 -0.4552
  774MPD2    C511423   4.576   2.836  13.057  0.3189 -0.4029  0.1302
  774MPD2     H11424   4.512   2.983  13.408 -1.4851 -2.4942  0.8691
  774MPD2    H111425   4.622   3.018  12.993  1.9321  1.1844  0.8039
  774MPD2    H211426   4.555   2.650  13.125 -0.5330 -0.1551  0.9895
  774MPD2    H311427   4.594   2.803  12.955  1.9716  0.6627  0.0749
  774MPD2     N11428   4.572   3.158  13.238 -0.6001 -0.1372 -0.0758
  774MPD2    H511429   4.544   3.192  13.330  0.6603  1.4909 -0.2936
  774MPD2    N111430   4.494   2.702  13.385  0.5350  0.5153  0.2300
  774MPD2    H711431   4.538   2.613  13.363 -0.0974  0.3478 -0.3716
  775MPD2     C11432   1.034   0.301  15.860 -0.1859 -0.8887  0.4570
  775MPD2    C111433   0.973   0.420  15.856  0.2904 -0.0408 -1.1421
  775MPD2    C211434   1.054   0.529  15.808 -0.3875  0.2425 -0.5036
  775MPD2    C311435   1.183   0.509  15.748  0.0725  0.1908  0.2682
  775MPD2    C411436   1.238   0.388  15.769  0.2351 -0.8021  0.2227
  775MPD2    C511437   1.159   0.289  15.817 -0.1638  0.0827  1.3567
  775MPD2     H11438   1.011   0.628  15.796  1.3091  0.7478 -2.4840
  775MPD2    H111439   1.340   0.365  15.742  0.0071 -1.6969  0.1382
  775MPD2    H211440   0.986   0.210  15.893 -0.3362 -1.2078 -0.6340
  775MPD2    H311441   1.205   0.193  15.843  0.0137  0.0166  0.7870
  775MPD2     N11442   1.254   0.617  15.684 -0.1336  0.0744  0.5994
  775MPD2    H511443   1.346   0.600  15.643 -0.0504  0.7873  0.4974
  775MPD2    N111444   0.840   0.446  15.903 -0.7834 -1.3970 -0.7339
  775MPD2    H711445   0.804   0.371  15.962  1.0296 -1.0885  0.7687
  776MPD2     C11446   1.169   0.531  11.259 -0.5090 -0.1517  0.1662
  776MPD2    C111447   1.060   0.552  11.337  0.6117  0.2877 -0.0110
  776MPD2    C211448   1.000   0.679  11.344 -0.0499 -0.3370 -0.2167
  776MPD2    C311449   1.057   0.784  11.273 -0.0338 -0.2921 -0.0918
  776MPD2    C411450   1.172   0.771  11.196 -1.0730 -0.3621 -0.2629
  776MPD2    C511451   1.216   0.644  11.186 -0.0138  0.0734  0.7812
  776MPD2     H11452   0.911   0.695  11.404  0.7993 -1.9084  1.4829
  776MPD2    H111453   1.216   0.852  11.139 -0.2137 -0.2049  0.6266
  776MPD2    H211454   1.217   0.435  11.242  0.3267 -0.0255  1.7403
  776MPD2    H311455   1.303   0.631  11.122 -1.7251  2.2784 -2.0045
  776MPD2     N11456   1.000   0.911  11.262 -0.0638  0.3250 -0.4306
  776MPD2    H511457   1.044   0.980  11.201  0.2479 -1.7624 -2.5652
  776MPD2    N111458   1.007   0.442  11.405  0.1592 -0.1584  0.3232
  776MPD2    H711459   1.027   0.347  11.377  0.3450 -0.7670  2.5518
  777MPD2     C11460   0.070   2.985   0.857 -0.3464  0.9612 -0.5612
  777MPD2    C111461   0.203   3.004   0.878  0.7083  0.6503 -0.2064
  777MPD2    C211462   0.291   2.967   0.776 -0.1484 -0.3894  0.3731
  777MPD2    C311463   0.252   2.913   0.657  0.1420  0.6686  0.0264
  777MPD2    C411464   0.114   2.905   0.628 -0.3383  0.0750  0.1741
  777MPD2    C511465   0.028   2.944   0.731  0.7209 -0.1919 -0.4070
  777MPD2     H11466   0.397   2.977   0.796 -0.1064 -2.4031  1.1149
  777MPD2    H111467   0.067   2.873   0.536  0.7719  1.0304 -0.7176
  777MPD2    H211468   4.712   3.009   0.929  1.0904  0.6357  1.0869
  777MPD2    H311469   4.639   2.939   0.721  0.3732  1.3620  2.5214
  777MPD2     N11470   0.352   2.858   0.579 -0.7236  0.3382  0.6214
  777MPD2    H511471   0.446   2.859   0.617 -1.0779  0.1458  1.4915
  777MPD2    N111472   0.242   3.048   1.009  0.3144  0.1485  0.5160
  777MPD2    H711473   0.168   3.048   1.078 -0.2275 -1.8232 -0.0690
  778MPD2     C11474   1.707   3.448  14.673  0.5150  0.4097 -0.2325
  778MPD2    C111475   1.768   3.325  14.684  0.1040  0.3857 -0.4744
  778MPD2    C211476   1.875   3.300  14.604 -0.2332  0.1210 -0.2200
  778MPD2    C311477   1.932   3.400  14.526  0.2463 -0.1153 -0.2191
  778MPD2    C411478   1.865   3.516  14.512 -0.1461  0.8986  0.2274
  778MPD2    C511479   1.755   3.547  14.587 -0.4000 -0.1592 -0.3328
  778MPD2     H11480   1.924   3.203  14.613 -0.5233  0.0877  0.9048
  778MPD2    H111481   1.891   3.591  14.438 -1.0487 -0.3435 -1.3487
  778MPD2    H211482   1.617   3.476  14.727 -1.2243 -1.2356 -2.2775
  778MPD2    H311483   1.700   3.640  14.579 -0.9276 -0.4630 -0.2247
  778MPD2     N11484   2.063   3.388  14.472 -0.2178  0.2217 -0.2306
  778MPD2    H511485   2.115   3.307  14.506 -1.8093  0.0894  1.8821
  778MPD2    N111486   1.724   3.224  14.781  0.4031  0.4238  0.3206
  778MPD2    H711487   1.759   3.131  14.761  1.3163  0.4426  1.8860
  779MPD2     C11488   1.374   2.008  14.364  0.1734 -0.0037  0.8009
  779MPD2    C111489   1.508   2.011  14.369  0.9394  0.3566  0.0778
  779MPD2    C211490   1.571   2.126  14.420 -0.3393 -0.0866 -0.1186
  779MPD2    C311491   1.507   2.242  14.454 -0.3635  0.2314  0.5811
  779MPD2    C411492   1.371   2.235  14.445  0.1869  0.3490 -0.7101
  779MPD2    C511493   1.304   2.120  14.399  0.4317 -0.0337  0.3686
  779MPD2     H11494   1.680   2.122  14.423 -0.4252 -1.1830  1.3079
  779MPD2    H111495   1.309   2.317  14.478  0.7971  0.2108  0.7601
  779MPD2    H211496   1.317   1.919  14.341 -0.1612  0.7356 -1.1774
  779MPD2    H311497   1.196   2.122  14.393  0.3598 -2.3546  0.7804
  779MPD2     N11498   1.576   2.351  14.505 -0.1723  0.1052  0.6577
  779MPD2    H511499   1.672   2.330  14.530  0.0835  1.4841  0.8433
  779MPD2    N111500   1.589   1.907  14.322 -0.5115  0.4388  0.5429
  779MPD2    H711501   1.689   1.916  14.333 -0.4806 -1.0101  1.4199
  780MPD2     C11502   4.672   0.708   1.103 -0.0498 -0.1302 -0.4165
  780MPD2    C111503   4.650   0.805   1.008  0.6702 -0.9789 -0.0517
  780MPD2    C211504   0.039   0.849   0.943 -0.0581  0.0241 -0.0434
  780MPD2    C311505   0.167   0.802   0.959  0.1797  0.6663 -0.8220
  780MPD2    C411506   0.186   0.710   1.059  0.0072  0.2285 -0.4708
  780MPD2    C511507   0.077   0.659   1.119 -0.2216  0.5086  0.3620
  780MPD2     H11508   0.016   0.921   0.865  2.4940  0.6618 -0.2022
  780MPD2    H111509   0.283   0.667   1.077 -0.6569 -1.2420 -0.4209
  780MPD2    H211510   4.595   0.677   1.173 -0.8957 -0.5535 -1.5294
  780MPD2    H311511   0.100   0.578   1.187 -1.1462 -1.2872 -1.4563
  780MPD2     N11512   0.274   0.852   0.890  0.2218 -0.4944 -0.2244
  780MPD2    H511513   0.247   0.913   0.815 -1.1446  0.4805  1.0581
  780MPD2    N111514   4.524   0.870   0.996 -0.7142  0.2204  0.4186
  780MPD2    H711515   4.457   0.831   1.060  0.8731  1.2314  2.7257
  781MPD2     C11516   2.840   3.295  11.962  0.3299  0.5894  0.5088
  781MPD2    C111517   2.857   3.429  11.991  0.5490 -0.5028 -0.0705
  781MPD2    C211518   2.947   3.500  11.921 -0.8224  0.3097 -0.0440
  781MPD2    C311519   3.015   3.445  11.817 -0.4148 -0.0703 -1.3225
  781MPD2    C411520   2.999   3.313  11.783 -0.0662  0.3259  0.4553
  781MPD2    C511521   2.919   3.239  11.868  0.4330 -0.3625 -0.2893
  781MPD2     H11522   2.957   3.608  11.928 -0.6716  0.2091  1.3280
  781MPD2    H111523   3.056   3.261  11.707 -3.5559 -2.1286 -0.4648
  781MPD2    H211524   2.778   3.234  12.027 -1.8286  1.0371 -1.1092
  781MPD2    H311525   2.921   3.133  11.849  0.5023 -0.1368 -1.5939
  781MPD2     N11526   3.099   3.531  11.745 -0.2381  0.3130  0.3138
  781MPD2    H511527   3.099   3.628  11.775  0.6875  0.1922  0.6961
  781MPD2    N111528   2.791   3.495  12.093 -0.1557  0.2818 -0.3821
  781MPD2    H711529   2.809   3.594  12.104  2.8552 -0.3061  0.0068
  782MPD2     C11530   0.788   4.262  10.223 -0.3235  0.3077 -0.6899
  782MPD2    C111531   0.906   4.339  10.203  0.0491 -1.0727  0.0709
  782MPD2    C211532   0.930   4.456  10.271  0.1671 -0.2827  0.2565
  782MPD2    C311533   0.830   4.501  10.359 -0.3181  0.4272  0.2770
  782MPD2    C411534   0.715   4.435  10.372  0.4054  0.6606  0.1794
  782MPD2    C511535   0.690   4.313  10.308  0.6177 -0.3207  0.2885
  782MPD2     H11536   1.025   4.507  10.265  0.4717 -0.8286  0.5026
  782MPD2    H111537   0.637   4.471  10.439  0.3427 -0.3151  0.6269
  782MPD2    H211538   0.770   4.171  10.167 -0.8291 -0.1437  0.2186
  782MPD2    H311539   0.589   4.276  10.318  1.0011 -1.6202 -0.6348
  782MPD2     N11540   0.875   4.602  10.449 -0.0649  0.0776  0.0243
  782MPD2    H511541   0.965   4.648  10.439 -0.5304  0.4484 -2.4222
  782MPD2    N111542   1.002   4.270  10.119 -0.4068 -0.2457  0.3842
  782MPD2    H711543   0.972   4.184  10.074  0.7897 -0.0935 -0.7137
  783MPD2     C11544   0.757   3.829  10.514  0.1827 -0.2617 -0.4184
  783MPD2    C111545   0.790   3.965  10.512  0.3106 -0.5910  0.0967
  783MPD2    C211546   0.898   4.011  10.431 -0.1952  0.1647 -0.1396
  783MPD2    C311547   0.972   3.924  10.351  0.5415 -0.2288  0.3551
  783MPD2    C411548   0.929   3.789  10.357 -0.5388 -0.3791 -0.6192
  783MPD2    C511549   0.828   3.745  10.438  0.6081 -0.0091  0.8019
  783MPD2     H11550   0.916   4.117  10.423  1.5357  0.0071  1.7858
  783MPD2    H111551   0.979   3.722  10.288  1.0865 -0.5090  0.6680
  783MPD2    H211552   0.680   3.795  10.582  1.9399 -2.1443  0.6144
  783MPD2    H311553   0.785   3.646  10.433 -1.3281  1.0324 -2.7400
  783MPD2     N11554   1.067   3.966  10.261 -0.3238 -0.0806  0.8822
  783MPD2    H511555   1.090   4.065  10.256 -0.2670 -0.1825 -0.7006
  783MPD2    N111556   0.701   4.051  10.576 -0.2180 -0.3506 -0.4575
  783MPD2    H711557   0.609   4.013  10.600 -0.3568 -0.5972 -1.3630
  784MPD2     C11558   3.146   1.107   0.696  0.2618 -0.4496  0.5718
  784MPD2    C111559   3.164   0.997   0.779  0.6548  0.1740  0.4484
  784MPD2    C211560   3.070   0.892   0.771 -0.4287  0.3424  0.1138
  784MPD2    C311561   2.948   0.907   0.716 -0.6639  0.1349  0.3120
  784MPD2    C411562   2.925   1.016   0.629 -0.1061 -0.2294 -0.0279
  784MPD2    C511563   3.028   1.107   0.618 -0.7084 -0.0807 -0.1041
  784MPD2     H11564   3.091   0.804   0.832  0.4177  0.4631  0.0023
  784MPD2    H111565   2.835   1.030   0.569 -0.4475 -0.7524  0.3653
  784MPD2    H211566   3.217   1.189   0.690  0.4285 -0.6827 -0.5224
  784MPD2    H311567   3.013   1.193   0.553  1.6447 -0.2388 -0.8605
  784MPD2     N11568   2.845   0.806   0.742 -0.0274 -0.3905 -0.0397
  784MPD2    H511569   2.868   0.709   0.762  1.4136 -0.1223 -0.3471
  784MPD2    N111570   3.278   0.987   0.868  0.8653  0.1971 -0.2780
  784MPD2    H711571   3.278   0.901   0.922 -0.1424  0.3649 -0.0091
  785MPD2     C11572   3.842   2.666  11.113  0.4831 -0.8247  0.2117
  785MPD2    C111573   3.716   2.711  11.137 -0.2819 -0.3018 -0.0929
  785MPD2    C211574   3.613   2.628  11.104 -0.1121  0.0988 -0.8098
  785MPD2    C311575   3.631   2.508  11.031 -0.3034  0.1075  0.1405
  785MPD2    C411576   3.755   2.464  11.001  0.0083  0.0193  0.2507
  785MPD2    C511577   3.859   2.541  11.053 -0.3377  0.2179 -0.2564
  785MPD2     H11578   3.510   2.651  11.129  0.1714  2.8962 -2.1986
  785MPD2    H111579   3.786   2.377  10.944 -0.8494 -0.0017 -0.1897
  785MPD2    H211580   3.932   2.724  11.135 -0.0702 -0.6293  1.9723
  785MPD2    H311581   3.958   2.515  11.017 -0.1961 -0.3880  0.5745
  785MPD2     N11582   3.507   2.441  11.012  0.1129 -1.1544 -0.5744
  785MPD2    H511583   3.428   2.495  11.046  0.2335 -1.5467  0.3277
  785MPD2    N111584   3.680   2.845  11.182  0.4261 -0.2718 -0.0161
  785MPD2    H711585   3.581   2.867  11.184  0.8170  1.4280  0.0273
  786MPD2     C11586   1.600   1.231  14.355  0.9154 -0.7215 -0.2209
  786MPD2    C111587   1.726   1.215  14.312 -0.2748  0.3903 -0.3670
  786MPD2    C211588   1.829   1.236  14.405  0.4271  0.0265 -0.5167
  786MPD2    C311589   1.804   1.260  14.539  0.4924  0.0216  0.2680
  786MPD2    C411590   1.671   1.277  14.573 -0.2271 -0.0030  0.3212
  786MPD2    C511591   1.574   1.261  14.488  0.2353  0.0533 -0.9440
  786MPD2     H11592   1.926   1.210  14.364 -0.1982 -0.1142 -1.8961
  786MPD2    H111593   1.643   1.282  14.677 -0.0148  0.3153  0.3641
  786MPD2    H211594   1.513   1.213  14.293  0.9024  3.6228 -1.4780
  786MPD2    H311595   1.473   1.269  14.526 -0.3015 -1.1975 -2.1231
  786MPD2     N11596   1.898   1.255  14.642  0.5230  0.5387  0.3695
  786MPD2    H511597   1.860   1.267  14.735  1.1288 -0.7391  0.7860
  786MPD2    N111598   1.752   1.161  14.183 -0.1144 -0.2029  0.2196
  786MPD2    H711599   1.843   1.126  14.155 -0.0993 -0.8114  1.0475
  787MPD2     C11600   1.794   0.913  14.531 -0.4853 -0.5563 -0.3833
  787MPD2    C111601   1.798   0.805  14.440  0.1323  0.1148  0.1672
  787MPD2    C211602   1.846   0.677  14.482 -0.0694  0.0780  0.6973
  787MPD2    C311603   1.886   0.662  14.613  0.2911 -0.4451 -0.2252
  787MPD2    C411604   1.869   0.763  14.701 -1.1814  0.4121  0.6176
  787MPD2    C511605   1.823   0.887  14.663 -0.6221  0.1130  0.0973
  787MPD2     H11606   1.860   0.593  14.414  1.0002 -0.3662  1.4734
  787MPD2    H111607   1.880   0.749  14.808  1.2406  0.2825  0.3609
  787MPD2    H211608   1.761   1.014  14.507 -1.1954 -0.3959  1.3237
  787MPD2    H311609   1.797   0.966  14.732  0.0785 -0.9902  1.6276
  787MPD2     N11610   1.960   0.548  14.643  0.1222  0.2133  0.3847
  787MPD2    H511611   1.970   0.484  14.565 -0.0610 -1.3986  1.6779
  787MPD2    N111612   1.773   0.838  14.305 -0.5594  0.2121 -1.2557
  787MPD2    H711613   1.742   0.932  14.282  3.4685  1.7595 -0.4932
  788MPD2     C11614   2.814   3.548   0.961 -0.6099  0.0345 -0.4317
  788MPD2    C111615   2.784   3.541   0.827  0.5190 -0.3227  0.0963
  788MPD2    C211616   2.826   3.651   0.756  0.1866 -0.2501  0.4080
  788MPD2    C311617   2.897   3.753   0.809  0.2176 -0.1139  0.3188
  788MPD2    C411618   2.945   3.749   0.936  0.1147 -0.0035 -0.6338
  788MPD2    C511619   2.902   3.643   1.011  0.2792 -0.0295 -0.2629
  788MPD2     H11620   2.801   3.661   0.651  0.1888  2.3281  0.6326
  788MPD2    H111621   2.994   3.827   0.994  2.2977 -1.0006 -1.1295
  788MPD2    H211622   2.778   3.472   1.030  0.0475 -0.1100 -0.2488
  788MPD2    H311623   2.910   3.646   1.119 -1.1446 -1.2783 -0.1230
  788MPD2     N11624   2.942   3.863   0.730  0.4819  0.4277 -0.4251
  788MPD2    H511625   2.994   3.934   0.779 -0.3294  0.5729  0.2110
  788MPD2    N111626   2.713   3.435   0.765  0.3298  0.3162  0.2832
  788MPD2    H711627   2.702   3.440   0.664 -2.4096  1.3042  0.6136
  789MPD2     C11628   3.810   3.890  16.122 -0.3968  0.5651 -0.1006
  789MPD2    C111629   3.779   3.867  16.255 -0.6936  1.2221 -0.1552
  789MPD2    C211630   3.662   3.921  16.317  0.0549  0.6815 -0.5681
  789MPD2    C311631   3.581   4.000  16.238  0.3954 -0.3167  0.1443
  789MPD2    C411632   3.618   4.029  16.106 -0.0340  0.3949  0.3360
  789MPD2    C511633   3.729   3.970  16.051  0.1516 -0.0942 -0.0044
  789MPD2     H11634   3.635   3.888  16.417 -1.7920  2.0447 -0.6067
  789MPD2    H111635   3.551   4.089  16.045 -0.3244 -1.0421 -0.7777
  789MPD2    H211636   3.898   3.851  16.072  0.5753  3.6217 -0.7660
  789MPD2    H311637   3.742   3.995  15.947 -0.8171 -1.9752 -0.5647
  789MPD2     N11638   3.449   4.040  16.285 -0.2044  0.5526  0.7181
  789MPD2    H511639   3.379   4.061  16.214  0.4098 -2.2000 -0.7227
  789MPD2    N111640   3.866   3.779  16.337  0.1257 -0.3360  1.0727
  789MPD2    H711641   3.839   3.774  16.435  0.9183 -0.2278  1.2926
  790MPD2     C11642   0.599   1.173  13.359 -0.1156 -0.7143  0.2056
  790MPD2    C111643   0.513   1.073  13.387 -0.3009  0.8114 -0.4180
  790MPD2    C211644   0.463   0.999  13.279 -0.4931  0.3811 -0.2942
  790MPD2    C311645   0.496   1.029  13.150 -0.1180 -0.2805  0.3287
  790MPD2    C411646   0.582   1.131  13.125  0.1263 -0.2992  0.4987
  790MPD2    C511647   0.636   1.204  13.225 -0.4124 -1.0256 -0.2324
  790MPD2     H11648   0.394   0.918  13.301 -0.5466  0.6266  0.4681
  790MPD2    H111649   0.611   1.167  13.026  1.7479 -0.4177  0.9331
  790MPD2    H211650   0.640   1.242  13.432 -0.7645  0.2756 -0.3704
  790MPD2    H311651   0.709   1.282  13.208 -2.0925  1.0016  1.7817
  790MPD2     N11652   0.441   0.949  13.046 -0.2414 -0.0215  0.3492
  790MPD2    H511653   0.371   0.880  13.071  2.2251 -2.3395  0.8421
  790MPD2    N111654   0.471   1.043  13.517  0.6377  0.1679 -0.4051
  790MPD2    H711655   0.522   1.091  13.590  0.2827 -0.7477  0.4336
  791MPD2     C11656   4.585   0.853  12.678 -0.0395  0.6973 -1.4182
  791MPD2    C111657   4.636   0.744  12.735 -0.1822  0.1714 -0.1172
  791MPD2    C211658   4.574   0.628  12.720 -0.7273 -0.1830  0.7472
  791MPD2    C311659   4.449   0.620  12.680  0.6654  0.4161  0.7188
  791MPD2    C411660   4.379   0.736  12.637  0.2462 -0.7745 -0.2610
  791MPD2    C511661   4.458   0.845  12.621 -0.4661 -0.2342 -0.4067
  791MPD2     H11662   4.619   0.531  12.739 -1.3928 -0.5685  0.3794
  791MPD2    H111663   4.274   0.743  12.613 -0.3896 -1.2959  2.3610
  791MPD2    H211664   4.640   0.946  12.680  1.5413 -0.2918  2.6473
  791MPD2    H311665   4.417   0.940  12.586  1.8143  0.3413 -1.5127
  791MPD2     N11666   4.376   0.497  12.694 -0.7345 -0.3377  0.3175
  791MPD2    H511667   4.426   0.415  12.727  0.2209 -0.7037 -2.0376
  791MPD2    N111668   0.052   0.745  12.785 -1.0244  0.5901 -0.2226
  791MPD2    H711669   0.104   0.832  12.784 -0.5357  0.3066  0.5515
  792MPD2     C11670   0.847   0.597  11.051  0.1992 -0.4284 -0.5429
  792MPD2    C111671   0.872   0.612  10.915 -0.9324 -0.3205  0.4102
  792MPD2    C211672   0.830   0.507  10.832  0.1299 -0.8861 -0.1144
  792MPD2    C311673   0.777   0.387  10.882 -0.7500 -0.2681  0.0334
  792MPD2    C411674   0.765   0.381  11.019 -0.0723 -0.6675 -0.5227
  792MPD2    C511675   0.798   0.478  11.108  0.5238  0.7969  0.2477
  792MPD2     H11676   0.834   0.534  10.728  0.7208  0.2201  0.1952
  792MPD2    H111677   0.713   0.293  11.056 -0.7209  0.0802  0.3282
  792MPD2    H211678   0.873   0.673  11.125  1.1013  0.4752 -1.7921
  792MPD2    H311679   0.779   0.480  11.215  0.1055 -1.2959  0.2229
  792MPD2     N11680   0.721   0.283  10.802 -0.1558  0.2094 -0.7095
  792MPD2    H511681   0.681   0.201  10.846  0.3670 -0.5702 -1.6772
  792MPD2    N111682   0.942   0.728  10.878 -0.1874 -0.4950  0.2175
  792MPD2    H711683   0.966   0.793  10.952  1.3873 -1.7527  0.8038
  793MPD2     C11684   0.483   0.163   9.799 -0.2380  0.1244 -0.1835
  793MPD2    C111685   0.477   0.280   9.868 -0.4646 -0.0433  0.1084
  793MPD2    C211686   0.510   0.284  10.004  0.2250  0.1608 -0.1752
  793MPD2    C311687   0.551   0.165  10.060  0.3592  0.0660 -0.0494
  793MPD2    C411688   0.581   0.053   9.987  0.0247 -0.1259  0.3463
  793MPD2    C511689   0.545   0.053   9.858  0.5639 -0.0588 -0.5450
  793MPD2     H11690   0.502   0.375  10.062 -1.9676 -0.4232  0.4511
  793MPD2    H111691   0.628   4.691  10.041  0.4685  0.0979  0.3035
  793MPD2    H211692   0.459   0.154   9.693 -0.2824  1.3829 -0.2799
  793MPD2    H311693   0.575   4.691   9.793  2.7011  0.6385 -0.4317
  793MPD2     N11694   0.554   0.164  10.203  0.2005  0.3523 -0.2383
  793MPD2    H511695   0.532   0.252  10.249  0.7819  0.0174  0.6754
  793MPD2    N111696   0.432   0.404   9.806 -0.0624 -0.0761  0.4715
  793MPD2    H711697   0.440   0.484   9.867 -0.3704  1.7382 -1.8816
  794MPD2     C11698   4.650   0.049  17.362 -0.1648 -0.2893 -0.4117
  794MPD2    C111699   4.561   0.092  17.458 -0.5191 -0.3904  0.2454
  794MPD2    C211700   4.436   0.140  17.409 -0.1601 -0.2843 -0.2685
  794MPD2    C311701   4.409   0.148  17.274 -0.3804  0.4671 -1.0346
  794MPD2    C411702   4.496   0.096  17.188 -0.1120 -0.8700 -0.1076
  794MPD2    C511703   4.620   0.059  17.225  0.3701  0.4241  0.6769
  794MPD2     H11704   4.364   0.169  17.485  0.8871 -0.4589  0.7923
  794MPD2    H111705   4.470   0.088  17.083 -1.3899  0.8552  0.0823
  794MPD2    H211706   0.024   0.011  17.402 -0.9788 -0.4112  1.3672
  794MPD2    H311707   4.692   0.015  17.157  0.3784  0.6454  0.5408
  794MPD2     N11708   4.285   0.213  17.240 -0.0605 -0.0536  0.0358
  794MPD2    H511709   4.230   0.257  17.313 -0.0870 -0.7981  0.4706
  794MPD2    N111710   4.589   0.061  17.594  0.0075  0.0324 -0.1358
  794MPD2    H711711   4.682   0.029  17.619  0.2982  1.4585  0.6220
  795MPD2     C11712   2.660   2.195  13.836 -0.2398  0.9094  0.3570
  795MPD2    C111713   2.618   2.085  13.759  0.4327  0.6564  0.2148
  795MPD2    C211714   2.696   1.971  13.743  0.1627 -0.0793  0.0581
  795MPD2    C311715   2.828   1.967  13.794 -0.2687 -0.1108  0.0913
  795MPD2    C411716   2.864   2.078  13.870 -0.1250 -0.4730 -0.1795
  795MPD2    C511717   2.785   2.188  13.890 -0.4170 -0.4653 -0.3088
  795MPD2     H11718   2.664   1.895  13.672  1.5060 -1.3745  0.8364
  795MPD2    H111719   2.962   2.079  13.917 -0.2822  2.8231  0.0701
  795MPD2    H211720   2.610   2.291  13.844 -0.8144  0.5860  0.6382
  795MPD2    H311721   2.825   2.269  13.949 -0.5281 -0.5605 -0.1042
  795MPD2     N11722   2.927   1.869  13.770 -0.2715 -0.4461 -0.2681
  795MPD2    H511723   3.022   1.895  13.797  0.2849  0.5655 -3.2043
  795MPD2    N111724   2.508   2.099  13.672 -0.4583 -0.0615 -0.7140
  795MPD2    H711725   2.510   2.033  13.595 -1.7351  0.7068 -1.4088
  796MPD2     C11726   2.314   4.135  15.761 -0.0559  0.3279 -0.3247
  796MPD2    C111727   2.341   4.150  15.893 -0.0990 -0.2229 -0.1739
  796MPD2    C211728   2.307   4.268  15.951 -0.5883 -0.4083  0.1482
  796MPD2    C311729   2.223   4.365  15.889  0.4687 -0.2611 -0.4489
  796MPD2    C411730   2.183   4.334  15.760 -0.8982  0.8753  0.3983
  796MPD2    C511731   2.236   4.223  15.696 -0.4752 -0.4418  0.5288
  796MPD2     H11732   2.337   4.281  16.054  0.6653  0.0388 -0.2609
  796MPD2    H111733   2.117   4.401  15.706 -1.1264 -2.0452 -2.9190
  796MPD2    H211734   2.347   4.041  15.717 -1.8061 -1.5962  2.4587
  796MPD2    H311735   2.207   4.201  15.594  1.0488 -0.0779  0.0110
  796MPD2     N11736   2.195   4.477  15.966  0.3736 -0.3164 -0.0051
  796MPD2    H511737   2.239   4.481  16.057 -0.2899 -0.7267  0.3306
  796MPD2    N111738   2.382   4.039  15.965  0.1196 -0.2579 -0.6517
  796MPD2    H711739   2.386   3.954  15.910  0.6263  0.9951 -2.5454
  797MPD2     C11740   2.486   2.612  17.144  0.5825 -0.1217  0.5752
  797MPD2    C111741   2.584   2.677  17.216 -0.4093  0.2160  0.6286
  797MPD2    C211742   2.602   2.818  17.197  0.0992 -0.0233  0.2453
  797MPD2    C311743   2.518   2.893  17.122 -0.6643  0.2685 -0.0496
  797MPD2    C411744   2.425   2.825  17.046  0.0362 -0.6079 -0.2549
  797MPD2    C511745   2.419   2.687  17.047  0.9474  0.0594 -0.9425
  797MPD2     H11746   2.682   2.863  17.255  1.6186 -1.7632 -0.5049
  797MPD2    H111747   2.378   2.871  16.960  1.4344  1.5450  0.1232
  797MPD2    H211748   2.460   2.509  17.164  2.1457 -0.3018  1.7081
  797MPD2    H311749   2.355   2.636  16.976  1.6540  0.2686 -1.7289
  797MPD2     N11750   2.543   3.031  17.123  0.0363  0.6859  0.1578
  797MPD2    H511751   2.631   3.054  17.169  1.5014 -4.4100 -0.0308
  797MPD2    N111752   2.672   2.620  17.312  0.4493 -0.3253  0.3332
  797MPD2    H711753   2.762   2.664  17.330  1.2166 -2.5413  1.9672
  798MPD2     C11754   3.139   3.150  17.477 -0.0878 -0.0087  0.4424
  798MPD2    C111755   3.000   3.126  17.473 -0.2281 -0.4031  0.9198
  798MPD2    C211756   2.951   3.007  17.520  0.5422  0.6063 -0.4210
  798MPD2    C311757   3.025   2.904  17.562 -0.8181  0.7646  0.3711
  798MPD2    C411758   3.157   2.932  17.576 -0.5907  0.9544  0.0016
  798MPD2    C511759   3.207   3.055  17.537 -0.0688  0.2054 -0.0231
  798MPD2     H11760   2.847   2.988  17.497  0.7023 -0.4753 -0.2133
  798MPD2    H111761   3.232   2.860  17.607 -1.7794 -0.3630 -0.1760
  798MPD2    H211762   3.173   3.248  17.445  0.9084 -0.7587 -0.7970
  798MPD2    H311763   3.313   3.073  17.547  0.0303  0.0753 -0.8286
  798MPD2     N11764   2.969   2.781  17.580  0.5967  0.2913 -0.2771
  798MPD2    H511765   2.869   2.784  17.563  0.8294 -2.7343 -2.1241
  798MPD2    N111766   2.915   3.214  17.401  0.3137 -0.0303 -0.0081
  798MPD2    H711767   2.973   3.284  17.356  0.5112 -0.0614  0.1971
  799MPD2     C11768   1.631   0.286  14.577  0.1834  0.6962 -0.4382
  799MPD2    C111769   1.626   0.184  14.483 -0.2276  0.4399  0.2020
  799MPD2    C211770   1.631   0.210  14.346 -0.0592 -0.5919 -0.3988
  799MPD2    C311771   1.647   0.344  14.312  0.4153  0.5679  0.6971
  799MPD2    C411772   1.631   0.444  14.406 -0.5865 -0.5648 -0.5503
  799MPD2    C511773   1.624   0.419  14.540 -0.8401  0.1161  0.5877
  799MPD2     H11774   1.632   0.135  14.268 -0.6405  0.6715 -1.6200
  799MPD2    H111775   1.638   0.549  14.379 -2.1565  0.1368  1.7882
  799MPD2    H211776   1.634   0.265  14.683 -0.3842  0.8404 -0.3922
  799MPD2    H311777   1.607   0.493  14.617 -1.1670 -0.9973  1.6028
  799MPD2     N11778   1.680   0.391  14.187 -0.1206 -0.0981  0.2920
  799MPD2    H511779   1.718   0.484  14.177  0.7724 -0.6251 -1.2211
  799MPD2    N111780   1.597   0.050  14.517  0.3353  0.3064 -0.0968
  799MPD2    H711781   1.574   4.709  14.438  0.5648 -0.2314  0.2457
  800MPD2     C11782   2.605   1.247  13.912 -0.4598  0.2450  0.2852
  800MPD2    C111783   2.711   1.198  13.844  0.7372  0.6748 -0.0547
  800MPD2    C211784   2.696   1.118  13.730  0.1225 -0.2177  0.6773
  800MPD2    C311785   2.572   1.090  13.680 -0.0176  0.6914  0.0920
  800MPD2    C411786   2.464   1.142  13.747 -0.3264 -0.1805 -0.3953
  800MPD2    C511787   2.483   1.211  13.865  0.3027  0.3288  0.5358
  800MPD2     H11788   2.779   1.085  13.668 -0.6117 -0.2996 -0.2475
  800MPD2    H111789   2.362   1.113  13.722 -0.3562 -0.4646  0.0500
  800MPD2    H211790   2.614   1.299  14.007  0.2584  0.8663 -0.1247
  800MPD2    H311791   2.393   1.237  13.919 -0.7872  3.4191 -2.7413
  800MPD2     N11792   2.572   1.000  13.568  0.2005  0.3977 -0.1732
  800MPD2    H511793   2.659   0.959  13.534 -2.4474 -2.3219 -3.7040
  800MPD2    N111794   2.835   1.224  13.906  0.5320 -0.0784  0.3795
  800MPD2    H711795   2.827   1.267  13.997  1.1208 -0.8553  0.7963
  801MPD2     C11796   3.235   1.867  14.023  0.4449 -0.7157  0.6522
  801MPD2    C111797   3.117   1.799  14.061  0.9162 -0.0700  0.4973
  801MPD2    C211798   3.021   1.869  14.131 -0.2962  0.4609 -0.2237
  801MPD2    C311799   3.035   2.005  14.170 -0.2249  0.3487  0.7712
  801MPD2    C411800   3.150   2.069  14.130  0.3013  0.3444 -0.2061
  801MPD2    C511801   3.245   2.001  14.050  1.0552 -0.3036 -0.1136
  801MPD2     H11802   2.936   1.815  14.170 -1.1731  1.0409 -1.3506
  801MPD2    H111803   3.179   2.171  14.153 -1.0117  0.2828  1.6830
  801MPD2    H211804   3.313   1.815  13.969  1.8078  1.7910  0.2011
  801MPD2    H311805   3.329   2.058  14.011 -0.0475  0.9288 -0.6586
  801MPD2     N11806   2.959   2.072  14.265  0.5025  0.4562 -0.7109
  801MPD2    H511807   3.002   2.149  14.315 -1.8098 -0.2177  2.3099
  801MPD2    N111808   3.101   1.655  14.052  0.2631 -0.9719 -0.2516
  801MPD2    H711809   3.008   1.628  14.082 -0.0138 -0.3765 -0.5587
  802MPD2     C11810   1.870   1.390  17.662  0.2883  0.3310  0.8889
  802MPD2    C111811   1.770   1.449  17.584 -0.2044  0.1088  0.4998
  802MPD2    C211812   1.803   1.491  17.458 -0.9337  0.5931  0.0385
  802MPD2    C311813   1.929   1.482  17.403  0.2969  0.1197 -0.9009
  802MPD2    C411814   2.025   1.426  17.488 -0.1059 -0.9283  0.3578
  802MPD2    C511815   1.996   1.384  17.611 -0.2439  0.1165  0.2558
  802MPD2     H11816   1.726   1.528  17.392  1.0568  3.9167 -0.4200
  802MPD2    H111817   2.123   1.416  17.444 -0.2827  0.1908 -0.2937
  802MPD2    H211818   1.852   1.330   0.071  2.5105 -0.1849  0.9806
  802MPD2    H311819   2.065   1.322  17.666 -3.5735 -1.5195  2.5328
  802MPD2     N11820   1.949   1.530  17.272 -0.7094 -0.2153  0.3675
  802MPD2    H511821   1.878   1.566  17.209  0.4304  1.2725 -0.0556
  802MPD2    N111822   1.631   1.449  17.625  0.0423 -0.4743  0.0763
  802MPD2    H711823   1.561   1.472  17.556  0.5263 -0.5864 -0.4506
  803MPD2     C11824   3.210   0.448  11.874  0.2889  0.0906  0.4143
  803MPD2    C111825   3.302   0.447  11.972  0.0685  0.0899 -0.9873
  803MPD2    C211826   3.292   0.369  12.087 -0.7464  0.3045 -0.2976
  803MPD2    C311827   3.185   0.294  12.103  0.7285  0.2626 -0.2093
  803MPD2    C411828   3.090   0.292  12.003 -0.1282 -0.0961 -0.4402
  803MPD2    C511829   3.113   0.356  11.887 -0.3822 -0.3656  0.1735
  803MPD2     H11830   3.370   0.373  12.163  0.4379 -3.5163 -1.2931
  803MPD2    H111831   3.003   0.227  12.010  1.2441 -2.0057 -1.1404
  803MPD2    H211832   3.222   0.511  11.787 -0.6029 -0.5232 -0.1535
  803MPD2    H311833   3.042   0.335  11.808 -0.8923  1.9148  0.0129
  803MPD2     N11834   3.164   0.240  12.236 -0.2344  0.0891 -0.7693
  803MPD2    H511835   3.235   0.250  12.308 -1.1978  0.1276  0.1735
  803MPD2    N111836   3.422   0.513  11.953 -0.4097 -0.0090 -0.0839
  803MPD2    H711837   3.490   0.506  12.027 -0.4874  2.3988  0.2103
  804MPD2     C11838   2.577   2.150  17.010 -0.7468 -0.0960  0.0494
  804MPD2    C111839   2.607   2.099  17.131 -0.5670 -0.7602  0.1329
  804MPD2    C211840   2.738   2.123  17.176 -0.2259  0.2967  0.3249
  804MPD2    C311841   2.827   2.207  17.103  0.1338  0.4885  0.3691
  804MPD2    C411842   2.792   2.259  16.981  0.3049  0.1346 -0.3464
  804MPD2    C511843   2.667   2.226  16.934 -0.0838 -0.4916  0.4582
  804MPD2     H11844   2.767   2.080  17.271  1.4894  0.5512 -0.0822
  804MPD2    H111845   2.855   2.317  16.914  2.2574 -1.9054 -0.2733
  804MPD2    H211846   2.477   2.134  16.973 -0.9820  0.5958  0.3985
  804MPD2    H311847   2.639   2.274  16.841  0.0752  0.2134  0.7733
  804MPD2     N11848   2.946   2.234  17.172 -0.3051  0.5865 -0.0690
  804MPD2    H511849   2.961   2.188  17.261  2.0257  1.4420 -0.0418
  804MPD2    N111850   2.526   2.005  17.203 -0.8522 -0.2845  0.0565
  804MPD2    H711851   2.557   1.980  17.296  1.4257 -3.1546 -1.4815
  805MPD2     C11852   1.475   0.212  15.509 -0.9122 -1.3554 -0.4061
  805MPD2    C111853   1.535   0.236  15.384  0.2814 -0.6381 -0.2777
  805MPD2    C211854   1.669   0.259  15.384 -0.4627  0.0641  0.3738
  805MPD2    C311855   1.742   0.272  15.496 -0.8324  0.6109 -0.1032
  805MPD2    C411856   1.681   0.250  15.619  0.3768  0.1966 -0.7158
  805MPD2    C511857   1.548   0.215  15.626 -0.7173 -0.7495  0.4603
  805MPD2     H11858   1.718   0.274  15.288  1.1732 -0.6849  1.0877
  805MPD2    H111859   1.727   0.252  15.717  0.5869 -0.7112 -0.7991
  805MPD2    H211860   1.371   0.179  15.513 -2.2257  2.5949 -1.4987
  805MPD2    H311861   1.504   0.182  15.719 -1.6254  1.3931  0.7676
  805MPD2     N11862   1.878   0.301  15.489 -0.7742 -0.2265  0.3820
  805MPD2    H511863   1.924   0.333  15.404 -0.0429 -0.1809  0.7924
  805MPD2    N111864   1.464   0.232  15.262 -0.4415 -0.0605 -0.2093
  805MPD2    H711865   1.510   0.247  15.172 -0.7593  0.2755 -0.3169
  806MPD2     C11866   2.935   0.405   0.594  0.2548 -0.5575  0.0043
  806MPD2    C111867   2.802   0.422   0.622 -0.3746 -0.0614 -0.4739
  806MPD2    C211868   2.739   0.519   0.550 -0.6728  0.2054  0.4360
  806MPD2    C311869   2.811   0.606   0.467 -0.0598  1.0744  0.2171
  806MPD2    C411870   2.948   0.593   0.453 -0.1934 -0.4595 -0.2478
  806MPD2    C511871   3.006   0.482   0.510 -1.0901  0.1781 -1.1353
  806MPD2     H11872   2.633   0.531   0.533 -0.6026  0.1682 -0.0263
  806MPD2    H111873   3.013   0.664   0.404 -2.0123  1.6925  0.4351
  806MPD2    H211874   2.986   0.320   0.638 -1.0981 -1.2826  0.1601
  806MPD2    H311875   3.113   0.469   0.503 -0.9431 -0.5435  2.4601
  806MPD2     N11876   2.747   0.716   0.403  0.1483  0.6392 -0.0841
  806MPD2    H511877   2.648   0.716   0.425 -0.7168  2.6367 -3.8975
  806MPD2    N111878   2.729   0.338   0.713 -0.5100 -0.1702  0.0278
  806MPD2    H711879   2.792   0.274   0.759  0.9250  1.7048  0.6799
  807MPD2     C11880   2.169   0.234   1.377  0.3500 -0.2670 -0.1395
  807MPD2    C111881   2.238   0.122   1.338  0.7438  0.4048 -0.2511
  807MPD2    C211882   2.204   0.001   1.398 -0.2380  0.0826  0.5388
  807MPD2    C311883   2.104   4.710   1.485 -0.3112  0.0807 -0.0167
  807MPD2    C411884   2.025   0.101   1.516  0.3339 -0.1348  1.0865
  807MPD2    C511885   2.058   0.226   1.454 -0.0387 -0.2446 -0.1924
  807MPD2     H11886   2.258   4.631   1.370 -1.1819  0.4526 -2.5422
  807MPD2    H111887   1.941   0.092   1.584  1.8695 -2.0342  2.7406
  807MPD2    H211888   2.189   0.334   1.338  0.9855 -0.1135  0.5785
  807MPD2    H311889   2.012   0.323   1.472 -0.2299 -0.1010 -1.4598
  807MPD2     N11890   2.079   4.586   1.546 -0.1677  0.4583 -0.5439
  807MPD2    H511891   1.992   4.570   1.597 -0.0103  2.5007  0.3690
  807MPD2    N111892   2.337   0.118   1.240 -0.1471 -0.1555 -0.6841
  807MPD2    H711893   2.388   0.031   1.225  1.4195  0.8605 -1.2064
  808MPD2     C11894   2.655   1.950   9.769  0.9424  0.0871 -0.8090
  808MPD2    C111895   2.741   1.858   9.828  0.4567  0.2735 -0.0689
  808MPD2    C211896   2.867   1.891   9.860  0.4263  0.3938 -0.1608
  808MPD2    C311897   2.910   2.026   9.839 -0.1735 -0.6027  0.3605
  808MPD2    C411898   2.822   2.117   9.782  0.2780  0.7478  0.3446
  808MPD2    C511899   2.697   2.074   9.750 -0.1305  0.1779  0.9428
  808MPD2     H11900   2.926   1.814   9.909 -0.8585 -0.5910 -0.1531
  808MPD2    H111901   2.847   2.211   9.734  2.4452  0.6434  1.2704
  808MPD2    H211902   2.560   1.912   9.733 -0.2308  0.3869  2.0049
  808MPD2    H311903   2.635   2.150   9.703  1.2417 -0.1010 -1.3128
  808MPD2     N11904   3.046   2.061   9.845  0.1686 -0.0629 -0.0422
  808MPD2    H511905   3.063   2.160   9.838  1.0660 -0.2630 -0.6653
  808MPD2    N111906   2.705   1.725   9.858  0.3238  0.1912  0.6262
  808MPD2    H711907   2.777   1.659   9.886  0.0299 -0.5400 -0.3567
  809MPD2     C11908   3.855   1.572   9.507  0.1129 -0.7972 -0.0760
  809MPD2    C111909   3.739   1.527   9.571  0.1804 -0.1124  0.1837
  809MPD2    C211910   3.642   1.624   9.606 -0.4911 -0.3957 -0.0283
  809MPD2    C311911   3.672   1.759   9.593  0.0961  0.0635  0.4061
  809MPD2    C411912   3.780   1.791   9.522  0.0851 -0.1955  0.2094
  809MPD2    C511913   3.866   1.700   9.476  0.5259 -0.4056  0.5367
  809MPD2     H11914   3.549   1.589   9.648  0.8566 -1.3401  2.1341
  809MPD2    H111915   3.790   1.896   9.498  0.1063  0.3228  2.5532
  809MPD2    H211916   3.932   1.505   9.471  0.5282  0.3788 -1.4022
  809MPD2    H311917   3.957   1.731   9.427  0.3236 -1.0183 -0.2280
  809MPD2     N11918   3.580   1.850   9.655  0.5473  0.5083  0.0270
  809MPD2    H511919   3.506   1.805   9.709  1.8359 -1.4040  0.2157
  809MPD2    N111920   3.732   1.390   9.610 -0.3603 -0.1897 -0.2915
  809MPD2    H711921   3.816   1.336   9.595  0.7241  1.5292 -0.3458
  810MPD2     C11922   2.618   0.274  10.410  0.8534 -0.2447  0.3715
  810MPD2    C111923   2.533   0.370  10.369 -0.4949  0.7805  0.1523
  810MPD2    C211924   2.551   0.504  10.410 -0.0283  0.0130  1.1123
  810MPD2    C311925   2.656   0.533  10.490  0.3655  0.2917  0.2123
  810MPD2    C411926   2.747   0.439  10.530 -0.4124  0.0290 -0.1624
  810MPD2    C511927   2.725   0.305  10.489  0.3764  0.5376  0.1095
  810MPD2     H11928   2.483   0.578  10.369  1.3908  1.6915  1.8132
  810MPD2    H111929   2.844   0.469  10.569 -0.8560  1.1290  0.0661
  810MPD2    H211930   2.620   0.173  10.371 -3.4335 -0.3342  0.3872
  810MPD2    H311931   2.804   0.236  10.516  0.1174  0.6657  1.1921
  810MPD2     N11932   2.671   0.667  10.532  0.0551 -0.2323  0.7501
  810MPD2    H511933   2.591   0.727  10.515  0.2871 -0.2062 -0.2203
  810MPD2    N111934   2.413   0.328  10.295  0.3208 -0.3192  0.3645
  810MPD2    H711935   2.384   0.231  10.303  0.7173 -0.6286 -2.0191
  811MPD2     C11936   1.661   0.608   9.799  0.9467 -0.2071  0.0291
  811MPD2    C111937   1.790   0.629   9.839 -0.4344 -0.2797 -0.2187
  811MPD2    C211938   1.837   0.760   9.818  0.2940 -0.2264 -0.3414
  811MPD2    C311939   1.770   0.855   9.742 -0.0750 -0.2644  0.2066
  811MPD2    C411940   1.643   0.822   9.694  0.0723 -0.2948 -0.0612
  811MPD2    C511941   1.588   0.702   9.732  0.2954  0.3823 -0.4138
  811MPD2     H11942   1.937   0.791   9.846  0.7782 -1.7593 -0.3903
  811MPD2    H111943   1.582   0.898   9.648  1.3460  0.4728 -0.4678
  811MPD2    H211944   1.610   0.518   9.832  0.4542 -0.6007 -1.8074
  811MPD2    H311945   1.490   0.675   9.693 -0.6862  0.3612  2.0669
  811MPD2     N11946   1.822   0.986   9.728  0.2491 -0.2079 -0.2031
  811MPD2    H511947   1.908   1.009   9.778 -1.0053  0.7924  1.4957
  811MPD2    N111948   1.859   0.520   9.907 -0.2481 -0.1049  0.3717
  811MPD2    H711949   1.807   0.435   9.923 -0.6614  0.1190  0.2307
  812MPD2     C11950   0.605   0.787  12.135  0.0113  0.2479 -0.7168
  812MPD2    C111951   0.737   0.763  12.151 -0.4299 -0.1775  0.7849
  812MPD2    C211952   0.778   0.644  12.209 -0.2039 -0.2047  0.1433
  812MPD2    C311953   0.684   0.556  12.255  0.7061  0.2739 -0.7736
  812MPD2    C411954   0.551   0.585  12.242  0.6073 -0.2107 -0.0287
  812MPD2    C511955   0.515   0.699  12.179  0.0405  0.4573  0.3693
  812MPD2     H11956   0.882   0.618  12.228 -0.2755  1.3448  2.6823
  812MPD2    H111957   0.472   0.513  12.264  2.2040 -1.0045  3.1326
  812MPD2    H211958   0.564   0.877  12.090 -1.0630  0.2694  0.3293
  812MPD2    H311959   0.407   0.713  12.173 -0.1721 -0.1520  2.6916
  812MPD2     N11960   0.728   0.427  12.296 -0.3569 -0.4139 -0.4438
  812MPD2    H511961   0.830   0.424  12.298 -0.3492 -0.6576 -1.3712
  812MPD2    N111962   0.819   0.864  12.112 -0.1604 -0.8277 -0.3031
  812MPD2    H711963   0.777   0.943  12.065 -2.0563 -0.1088  2.5926
  813MPD2     C11964   0.756   2.208  12.523  0.7478  0.1050  0.4784
  813MPD2    C111965   0.743   2.325  12.598  0.4839 -0.1527  0.4226
  813MPD2    C211966   0.637   2.341  12.688  0.3516 -0.2593 -0.2277
  813MPD2    C311967   0.561   2.230  12.715  0.1040 -0.8114  0.0803
  813MPD2    C411968   0.571   2.114  12.637  0.0667  0.3909  0.3414
  813MPD2    C511969   0.675   2.100  12.547 -0.3389 -0.2107 -0.6363
  813MPD2     H11970   0.613   2.430  12.745 -0.7944 -0.7554  0.0654
  813MPD2    H111971   0.496   2.035  12.642 -0.0331  0.3397 -2.1057
  813MPD2    H211972   0.833   2.193  12.448  0.9887  1.1902  0.5193
  813MPD2    H311973   0.674   2.006  12.494 -3.6481 -1.4119  1.5570
  813MPD2     N11974   0.460   2.242  12.811 -0.8049  0.3117  0.6240
  813MPD2    H511975   0.446   2.334  12.851 -0.5664  0.3777  0.5619
  813MPD2    N111976   0.817   2.440  12.585  0.2717  0.8013 -0.4971
  813MPD2    H711977   0.792   2.521  12.640 -0.6704 -0.1625  0.5068
  814MPD2     C11978   0.750   3.390  12.026  0.3177  0.0524  0.1777
  814MPD2    C111979   0.762   3.497  11.944  1.0609  0.4953  0.3582
  814MPD2    C211980   0.837   3.604  11.988 -0.4993  0.8309 -0.8050
  814MPD2    C311981   0.887   3.619  12.115 -0.3675  0.2213 -0.8507
  814MPD2    C411982   0.864   3.513  12.203 -0.3883  0.7567  0.7131
  814MPD2    C511983   0.802   3.400  12.155 -0.3322 -0.0171  0.3675
  814MPD2     H11984   0.832   3.674  11.905  0.4678  4.0660  1.8756
  814MPD2    H111985   0.903   3.528  12.303  0.1843  0.3607  0.5462
  814MPD2    H211986   0.689   3.304  11.998 -2.8485  1.8055  1.7669
  814MPD2    H311987   0.781   3.312  12.215 -0.7276  0.1670  0.4992
  814MPD2     N11988   0.966   3.730  12.156 -0.4027  0.1702 -0.4864
  814MPD2    H511989   0.979   3.731  12.256 -0.0798 -1.9002 -0.5077
  814MPD2    N111990   0.702   3.514  11.814  0.3457  0.0365 -0.7591
  814MPD2    H711991   0.703   3.613  11.792 -1.7373  0.4959  1.2440
  815MPD2     C11992   1.442   2.688  11.606 -0.1885 -0.3293  0.0122
  815MPD2    C111993   1.472   2.562  11.653  0.2603 -0.0762  0.4540
  815MPD2    C211994   1.411   2.518  11.771  1.0255 -0.0837  0.3258
  815MPD2    C311995   1.310   2.594  11.834  0.3429  0.0370 -0.5483
  815MPD2    C411996   1.280   2.720  11.787  1.0188 -0.4044 -0.4525
  815MPD2    C511997   1.351   2.767  11.675  0.2646 -0.0990  0.3906
  815MPD2     H11998   1.437   2.420  11.812  0.7365 -0.2701  0.0667
  815MPD2    H111999   1.193   2.769  11.829  1.1694 -0.4793 -0.0494
  815MPD2    H212000   1.479   2.727  11.512  2.3587 -1.0282  0.7232
  815MPD2    H312001   1.342   2.868  11.636  0.2201 -0.1068  0.3806
  815MPD2     N12002   1.235   2.533  11.933 -0.0655 -0.0813 -0.5100
  815MPD2    H512003   1.267   2.437  11.947  0.2259 -0.2384 -2.2636
  815MPD2    N112004   1.558   2.490  11.573  0.2071 -0.0275 -0.3228
  815MPD2    H712005   1.590   2.536  11.489  0.5765 -1.2373 -0.8507
  816MPD2     C12006   0.391   1.506  17.017  0.2821  0.9632  0.5840
  816MPD2    C112007   0.458   1.583  16.927 -0.0234 -0.7652  0.0068
  816MPD2    C212008   0.557   1.525  16.852  0.1483 -0.1670  0.9153
  816MPD2    C312009   0.575   1.380  16.860 -0.8303 -0.9074  0.6694
  816MPD2    C412010   0.493   1.304  16.945 -0.6239 -0.6174 -0.0262
  816MPD2    C512011   0.410   1.369  17.029 -0.1397 -0.1789 -0.4996
  816MPD2     H12012   0.602   1.584  16.773  0.5243  0.3099  1.4875
  816MPD2    H112013   0.503   1.197  16.957  0.1353 -0.7922 -2.1654
  816MPD2    H212014   0.324   1.556  17.085 -1.1540 -1.0803  0.6808
  816MPD2    H312015   0.358   1.319  17.110  1.9710 -1.2593  0.1792
  816MPD2     N12016   0.674   1.321  16.782 -0.5626  0.4119  0.1459
  816MPD2    H512017   0.742   1.382  16.738  1.4767 -1.1509  1.1116
  816MPD2    N112018   0.429   1.723  16.927  0.7376 -0.5947 -0.1054
  816MPD2    H712019   0.364   1.754  16.998 -0.7311 -0.1732 -1.6138
  817MPD2     C12020   0.894   3.309   9.852 -0.3158 -0.7025  0.1557
  817MPD2    C112021   0.909   3.276   9.722 -0.4163 -0.2557 -0.5311
  817MPD2    C212022   0.810   3.291   9.637 -1.0233 -0.4097 -0.0746
  817MPD2    C312023   0.688   3.347   9.673  0.7730  0.0238  0.1910
  817MPD2    C412024   0.678   3.384   9.809 -0.2114 -0.6395  0.7085
  817MPD2    C512025   0.779   3.357   9.893 -0.2122 -0.6814  0.2521
  817MPD2     H12026   0.824   3.260   9.534 -2.1174  0.8992 -0.6247
  817MPD2    H112027   0.583   3.421   9.844  0.5382  2.7948 -0.8744
  817MPD2    H212028   0.959   3.279   9.934  0.1634 -0.1617 -0.0246
  817MPD2    H312029   0.782   3.378   9.999 -0.9439  4.3230 -0.7231
  817MPD2     N12030   0.582   3.356   9.586  0.1390 -0.2528 -0.1980
  817MPD2    H512031   0.594   3.304   9.500  1.2252  1.3801 -1.0287
  817MPD2    N112032   1.031   3.219   9.679 -0.0913  0.5900 -0.0134
  817MPD2    H712033   1.037   3.199   9.580  1.0593  0.1107  0.1538
  818MPD2     C12034   4.467   2.957   9.863 -0.1415 -0.6361  0.1567
  818MPD2    C112035   4.527   2.911   9.983 -0.4072 -0.0327  0.2672
  818MPD2    C212036   4.615   2.808   9.976 -0.4612  0.3204  0.0199
  818MPD2    C312037   4.650   2.758   9.851 -0.2573  0.0809  0.4529
  818MPD2    C412038   4.599   2.809   9.736 -0.7461  0.0731 -0.5438
  818MPD2    C512039   4.510   2.911   9.738 -0.5118 -0.1256 -0.4579
  818MPD2     H12040   4.660   2.773  10.068  0.1584  0.2320 -0.3129
  818MPD2    H112041   4.632   2.774   9.638  2.0815 -0.7479  0.7024
  818MPD2    H212042   4.390   3.034   9.868  0.5994  0.0647  0.7697
  818MPD2    H312043   4.474   2.957   9.647 -1.4681  1.0461  0.5136
  818MPD2     N12044   0.033   2.668   9.837 -0.1067 -0.0641 -0.3971
  818MPD2    H512045   0.041   2.619   9.748  0.1867  0.9616 -0.9282
  818MPD2    N112046   4.479   2.948  10.114 -0.3643  0.6491  0.8518
  818MPD2    H712047   4.529   2.901  10.189 -1.7746 -0.9360  0.7928
  819MPD2     C12048   2.060   4.544  15.503  0.5037  0.2345  0.3262
  819MPD2    C112049   2.139   4.454  15.434  0.1415  0.1092  0.0745
  819MPD2    C212050   2.277   4.484  15.432 -0.0770 -0.0194 -0.2414
  819MPD2    C312051   2.339   4.590  15.503  0.1596  0.9040 -0.2082
  819MPD2    C412052   2.251   4.668  15.572 -0.6022  0.9968  0.6499
  819MPD2    C512053   2.118   4.648  15.573 -0.9530 -0.1182  0.1671
  819MPD2     H12054   2.341   4.428  15.365  0.2008 -1.8578  1.5557
  819MPD2    H112055   2.285   0.040  15.619  1.2364  0.5458  0.1843
  819MPD2    H212056   1.952   4.535  15.501  0.4723  0.0757  2.6818
  819MPD2    H312057   2.055   4.708  15.638 -0.8348  3.0836 -2.7155
  819MPD2     N12058   2.476   4.604  15.496 -0.3376  0.3312 -0.5010
  819MPD2    H512059   2.535   4.539  15.446 -0.5758 -0.0796 -0.2542
  819MPD2    N112060   2.075   4.350  15.366  0.3892  0.3216  0.5503
  819MPD2    H712061   1.975   4.361  15.372  0.3737  0.3964  0.1499
  820MPD2     C12062   1.276   4.302  14.815  0.3500  0.9149 -0.4811
  820MPD2    C112063   1.369   4.389  14.868 -0.0076 -0.4898 -0.9810
  820MPD2    C212064   1.494   4.350  14.908  0.3456 -0.1289 -0.2673
  820MPD2    C312065   1.516   4.212  14.920 -0.6685  0.1685  0.3465
  820MPD2    C412066   1.424   4.118  14.871 -0.6330  0.1587  0.7412
  820MPD2    C512067   1.302   4.165  14.828  0.1830 -0.6068 -0.2280
  820MPD2     H12068   1.571   4.425  14.927 -0.8460 -0.0686  4.2097
  820MPD2    H112069   1.432   4.011  14.882 -1.0420 -0.0940 -1.2250
  820MPD2    H212070   1.177   4.332  14.783  0.2464  0.9299 -0.1519
  820MPD2    H312071   1.226   4.094  14.798  0.9688 -1.9473  0.9628
  820MPD2     N12072   1.640   4.166  14.978  0.1373 -0.1138  0.4573
  820MPD2    H512073   1.647   4.067  14.997  0.3143 -0.2829 -0.4527
  820MPD2    N112074   1.346   4.529  14.865 -0.3452  0.1740  0.3110
  820MPD2    H712075   1.256   4.566  14.834 -0.9472 -2.1602 -0.7393
  821MPD2     C12076   2.434   1.123  12.773  0.0170 -1.5971 -0.1321
  821MPD2    C112077   2.525   1.138  12.870 -0.2846  0.2176 -0.1550
  821MPD2    C212078   2.606   1.252  12.866  0.1539  0.2335  0.3138
  821MPD2    C312079   2.588   1.347  12.768  0.2993 -0.4555  0.2460
  821MPD2    C412080   2.493   1.333  12.670  0.0620  0.1971  0.3663
  821MPD2    C512081   2.420   1.219  12.675 -0.4186  0.1785 -0.8753
  821MPD2     H12082   2.686   1.258  12.940 -0.9957 -1.9014  1.7085
  821MPD2    H112083   2.472   1.390  12.580  1.2057 -1.7652 -1.1584
  821MPD2    H212084   2.372   1.034  12.764 -1.0184 -0.7766 -1.1641
  821MPD2    H312085   2.352   1.194  12.594 -1.4450  0.4129 -0.0802
  821MPD2     N12086   2.665   1.462  12.767  0.4125 -0.1572 -0.0197
  821MPD2    H512087   2.666   1.521  12.685 -0.6927  1.0164  0.8140
  821MPD2    N112088   2.533   1.039  12.977 -0.2229  0.4027 -0.5237
  821MPD2    H712089   2.615   1.049  13.035 -0.0112 -2.0748 -0.4028
  822MPD2     C12090   3.043   1.114  15.830 -0.3867  0.1868 -0.3893
  822MPD2    C112091   3.065   1.120  15.970 -0.0198  0.2226  0.0401
  822MPD2    C212092   3.013   1.230  16.031  0.0728  0.5099 -0.0305
  822MPD2    C312093   2.955   1.339  15.974 -0.3738  0.4290 -0.0008
  822MPD2    C412094   2.943   1.331  15.837 -0.5892  0.3596 -0.5600
  822MPD2    C512095   2.986   1.223  15.768  0.0394  0.8761 -0.2241
  822MPD2     H12096   3.013   1.233  16.139 -0.2827 -0.7686  0.0119
  822MPD2    H112097   2.900   1.410  15.777 -0.0791  0.7863 -0.3639
  822MPD2    H212098   3.080   1.037  15.763  1.8638  0.2007  0.8446
  822MPD2    H312099   2.968   1.218  15.661  0.1256  2.6831 -0.3139
  822MPD2     N12100   2.932   1.451  16.055  0.0279 -0.8014 -0.0696
  822MPD2    H512101   2.951   1.430  16.152 -1.7646 -0.4523  0.3422
  822MPD2    N112102   3.118   1.010  16.049  0.2620 -0.5173  0.0284
  822MPD2    H712103   3.130   1.022  16.149 -0.3078  1.4884 -0.1340
  823MPD2     C12104   2.709   1.801  16.810  0.0673  0.3757 -0.0935
  823MPD2    C112105   2.763   1.708  16.718 -0.1132 -0.5990  0.2788
  823MPD2    C212106   2.824   1.594  16.774  0.0480  0.3071  0.4044
  823MPD2    C312107   2.815   1.563  16.907 -0.3262 -0.5616  0.7045
  823MPD2    C412108   2.752   1.653  16.994 -0.3908  0.4551  0.5199
  823MPD2    C512109   2.697   1.770  16.939 -0.0423 -0.0535  0.3998
  823MPD2     H12110   2.868   1.519  16.709 -0.8001  0.1027  0.0748
  823MPD2    H112111   2.750   1.639  17.102  0.0945 -3.9861 -0.0377
  823MPD2    H212112   2.677   1.903  16.789 -0.7873 -0.2524 -1.9320
  823MPD2    H312113   2.651   1.844  17.003 -1.9319  0.3395 -1.4132
  823MPD2     N12114   2.863   1.439  16.969  0.2733 -0.1281  0.1315
  823MPD2    H512115   2.843   1.426  17.067 -3.7471 -0.1293 -0.6800
  823MPD2    N112116   2.766   1.740  16.579  0.1461  0.0806 -0.3830
  823MPD2    H712117   2.755   1.836  16.548  2.3286 -0.1787 -1.9788
  824MPD2     C12118   3.466   0.174  16.217  0.0510  0.0065  0.2619
  824MPD2    C112119   3.488   0.272  16.124 -0.8515  0.1110 -0.3105
  824MPD2    C212120   3.559   0.248  16.013 -0.0585  0.5249  0.4872
  824MPD2    C312121   3.608   0.121  15.988 -0.4896  0.4320 -0.0818
  824MPD2    C412122   3.591   0.021  16.085 -0.4976 -0.4150  0.1072
  824MPD2    C512123   3.527   0.052  16.197 -0.1204  0.2436 -0.7210
  824MPD2     H12124   3.569   0.327  15.940 -0.1725  2.9553  3.1163
  824MPD2    H112125   3.647   4.648  16.083  1.1449  0.5895  0.7546
  824MPD2    H212126   3.413   0.182  16.311  0.3894  1.7419  0.3075
  824MPD2    H312127   3.529   4.700  16.279 -1.9048  0.0838 -0.8153
  824MPD2     N12128   3.685   0.102  15.874 -0.5602  0.6441  0.3024
  824MPD2    H512129   3.707   0.179  15.812 -2.8781  2.7006  2.0763
  824MPD2    N112130   3.425   0.398  16.152 -0.3252  0.3418 -0.6430
  824MPD2    H712131   3.386   0.410  16.246  0.7435  0.5944 -0.2338
  825MPD2     C12132   4.332   0.353  15.361  1.2523 -0.8385  0.1372
  825MPD2    C112133   4.252   0.367  15.472 -0.2553  0.1687 -0.7318
  825MPD2    C212134   4.245   0.495  15.526 -0.2076  0.2636  0.3374
  825MPD2    C312135   4.319   0.598  15.466  0.4803 -0.4254  0.3763
  825MPD2    C412136   4.413   0.574  15.364 -0.1953 -0.1558  0.0296
  825MPD2    C512137   4.422   0.443  15.314  0.0906  0.3433  0.6839
  825MPD2     H12138   4.182   0.521  15.610 -1.5757  0.6932 -0.8332
  825MPD2    H112139   4.483   0.647  15.327 -0.7896 -0.0528 -0.8913
  825MPD2    H212140   4.346   0.258  15.310 -0.9009 -1.3698  0.5766
  825MPD2    H312141   4.488   0.417  15.232 -0.8608 -2.9259  0.9573
  825MPD2     N12142   4.304   0.736  15.502  0.2324 -0.3746  0.1326
  825MPD2    H512143   4.337   0.811  15.443 -0.3551  2.1664  3.0580
  825MPD2    N112144   4.176   0.260  15.516  0.0306 -0.1088  0.1761
  825MPD2    H712145   4.181   0.174  15.462  3.3503 -0.3963  0.9468
  826MPD2     C12146   4.329   0.356  13.508  0.3971  0.0787  0.2618
  826MPD2    C112147   4.238   0.254  13.490  1.0728 -0.2989  0.3784
  826MPD2    C212148   4.106   0.281  13.466 -0.2657  0.0087 -0.0150
  826MPD2    C312149   4.074   0.415  13.473  1.3347 -0.1639 -0.3397
  826MPD2    C412150   4.169   0.516  13.481  0.2975 -0.0742  0.5919
  826MPD2    C512151   4.299   0.488  13.508  0.2974 -0.4672 -0.0088
  826MPD2     H12152   4.040   0.197  13.448  0.9708 -1.4194  2.0563
  826MPD2    H112153   4.130   0.617  13.478  0.4133 -0.0410  0.1956
  826MPD2    H212154   4.436   0.337  13.508 -0.1175 -2.9006  0.8248
  826MPD2    H312155   4.373   0.566  13.526 -0.3022 -0.0130  0.4817
  826MPD2     N12156   3.937   0.467  13.476 -0.3325  0.5982  0.0654
  826MPD2    H512157   3.916   0.566  13.480 -0.6073  0.4531  2.1008
  826MPD2    N112158   4.298   0.123  13.484 -0.4589 -0.1329  0.5847
  826MPD2    H712159   4.397   0.116  13.503 -0.6588  0.4806  1.8846
  827MPD2     C12160   0.313   1.839   9.970  0.1668 -0.1314  0.0895
  827MPD2    C112161   0.320   1.736  10.060  0.6644  0.1724 -0.5656
  827MPD2    C212162   0.233   1.631  10.052 -0.0418 -0.1098 -0.8573
  827MPD2    C312163   0.136   1.624   9.957  0.5405  0.1950 -0.8879
  827MPD2    C412164   0.124   1.729   9.862  0.7965  0.4418  0.0351
  827MPD2    C512165   0.218   1.835   9.870 -1.2545  0.0133 -0.8019
  827MPD2     H12166   0.240   1.543  10.115 -1.5160 -1.4388 -2.5425
  827MPD2    H112167   0.045   1.735   9.789 -1.1029 -0.2253  2.0247
  827MPD2    H212168   0.385   1.920   9.981 -0.6485  0.9418 -2.4249
  827MPD2    H312169   0.221   1.912   9.794  0.6192  1.7986  1.1015
  827MPD2     N12170   0.046   1.521   9.958  0.1304  0.2216  0.0436
  827MPD2    H512171   0.051   1.463  10.041 -0.6700  0.4419  0.2490
  827MPD2    N112172   0.425   1.729  10.156  0.3750  0.4283 -0.0515
  827MPD2    H712173   0.490   1.807  10.158 -0.2170  0.9351 -0.4922
  828MPD2     C12174   3.312   1.348  12.730  0.0029 -0.0241  0.1797
  828MPD2    C112175   3.311   1.325  12.590  0.6360 -0.3778 -0.5282
  828MPD2    C212176   3.418   1.270  12.529 -0.4288  0.4699  0.1456
  828MPD2    C312177   3.537   1.234  12.597  0.7606 -0.2717 -0.3826
  828MPD2    C412178   3.536   1.265  12.730  0.1353  0.6149  0.0597
  828MPD2    C512179   3.430   1.312  12.798 -0.1603  0.3381 -0.3383
  828MPD2     H12180   3.412   1.243  12.424  1.5934 -1.9398  0.6562
  828MPD2    H112181   3.625   1.240  12.788  1.3824 -2.1886 -3.0568
  828MPD2    H212182   3.233   1.399  12.784  0.5892  0.9391  0.1256
  828MPD2    H312183   3.442   1.326  12.905 -0.4894  2.1673 -0.5483
  828MPD2     N12184   3.658   1.188  12.542 -0.0132  0.1517 -0.5708
  828MPD2    H512185   3.738   1.185  12.604 -1.0455  1.7711  0.8480
  828MPD2    N112186   3.206   1.365  12.510 -0.0792  0.1589 -0.0712
  828MPD2    H712187   3.219   1.354  12.409 -1.6823 -1.2732 -0.1251
  829MPD2     C12188   3.356   1.451  11.698 -0.7128  0.5308 -0.5084
  829MPD2    C112189   3.235   1.520  11.695  0.8353  0.0960 -0.2766
  829MPD2    C212190   3.164   1.537  11.813 -0.6807 -0.1569  0.3120
  829MPD2    C312191   3.209   1.481  11.933 -0.0243  1.2488 -0.0093
  829MPD2    C412192   3.326   1.410  11.933  0.4366  0.1383  0.3143
  829MPD2    C512193   3.404   1.399  11.823 -0.0915  0.2319 -0.4716
  829MPD2     H12194   3.069   1.589  11.821  0.8768  2.3038  2.8385
  829MPD2    H112195   3.371   1.374  12.025 -1.6613  1.9202  2.0238
  829MPD2    H212196   3.415   1.436  11.608  0.0290  1.2942 -0.1570
  829MPD2    H312197   3.502   1.353  11.819 -0.5446 -0.9050  1.4373
  829MPD2     N12198   3.139   1.487  12.059  0.1784 -0.1621  0.2397
  829MPD2    H512199   3.189   1.451  12.139  2.0936  3.4211  0.6450
  829MPD2    N112200   3.189   1.568  11.567 -0.5337  0.0644 -0.0218
  829MPD2    H712201   3.257   1.552  11.493 -0.2964  0.7233  0.0536
  830MPD2     C12202   2.866   4.538  14.972  0.1853  0.5009  0.6264
  830MPD2    C112203   2.938   4.501  15.083 -0.5167 -0.3553 -0.2671
  830MPD2    C212204   3.061   4.433  15.065 -0.7927 -0.2555  0.6104
  830MPD2    C312205   3.104   4.398  14.935 -0.3159 -0.0677  0.2772
  830MPD2    C412206   3.029   4.434  14.826  0.7824  0.0983  0.5007
  830MPD2    C512207   2.915   4.511  14.851  0.1355 -0.0082 -0.2931
  830MPD2     H12208   3.124   4.408  15.150 -2.8143 -0.7629  1.9670
  830MPD2    H112209   3.056   4.403  14.726 -0.6116  0.2509  0.0819
  830MPD2    H212210   2.765   4.577  14.982  0.1123  0.1011  1.4253
  830MPD2    H312211   2.864   4.544  14.762  0.5061 -1.9654 -1.2194
  830MPD2     N12212   3.233   4.342  14.902 -0.2424 -0.9107 -0.3966
  830MPD2    H512213   3.248   4.337  14.802 -1.1284 -1.2530 -0.5083
  830MPD2    N112214   2.881   4.534  15.210  0.0732 -0.6244 -0.7166
  830MPD2    H712215   2.799   4.595  15.215  0.1777 -0.5381  0.0500
  831MPD2     C12216   3.306   1.532  16.243  0.6969 -0.7462  0.1973
  831MPD2    C112217   3.315   1.397  16.228  0.2299 -0.3163  0.0280
  831MPD2    C212218   3.223   1.317  16.294 -0.0131  0.1526  0.5485
  831MPD2    C312219   3.123   1.367  16.379  0.0842  0.7925 -0.5545
  831MPD2    C412220   3.143   1.504  16.409 -0.3831  0.2058 -0.6370
  831MPD2    C512221   3.225   1.584  16.335 -0.4291 -0.2773 -0.0548
  831MPD2     H12222   3.227   1.210  16.274 -0.2790  0.2600 -0.0628
  831MPD2    H112223   3.074   1.561  16.470  3.0332  1.5888  2.0020
  831MPD2    H212224   3.370   1.592  16.180 -1.5732  1.0467 -0.3942
  831MPD2    H312225   3.212   1.691  16.350  1.3501 -0.1575  0.6890
  831MPD2     N12226   3.006   1.299  16.420  0.0699 -0.3394 -0.9791
  831MPD2    H512227   2.934   1.350  16.470  0.0316  1.1255 -2.5577
  831MPD2    N112228   3.398   1.359  16.117  0.1218  0.9241 -0.1223
  831MPD2    H712229   3.446   1.438  16.077  1.3831  0.2608  0.0746
  832MPD2     C12230   1.615   2.531  17.391  0.2018  0.4166 -0.3072
  832MPD2    C112231   1.634   2.662  17.357 -0.1298  0.9267  0.3743
  832MPD2    C212232   1.531   2.724  17.287  0.2767 -0.0598 -0.3213
  832MPD2    C312233   1.412   2.655  17.255  1.0902  0.2441 -1.6662
  832MPD2    C412234   1.398   2.515  17.282  0.0596 -1.2620 -0.6507
  832MPD2    C512235   1.506   2.455  17.347  0.1534 -0.1858 -0.1895
  832MPD2     H12236   1.538   2.824  17.246  1.6034 -0.1925 -0.4191
  832MPD2    H112237   1.308   2.463  17.251 -1.3878  1.2686 -0.7412
  832MPD2    H212238   1.690   2.484  17.453 -0.4613 -0.9494 -0.5406
  832MPD2    H312239   1.484   2.354  17.381  0.2559 -0.7860 -1.8931
  832MPD2     N12240   1.306   2.716  17.196  0.6176 -0.2661  0.8099
  832MPD2    H512241   1.224   2.662  17.171  3.2644 -2.8626 -2.3199
  832MPD2    N112242   1.758   2.719  17.385 -0.2280 -0.0251 -0.4966
  832MPD2    H712243   1.815   2.672  17.455 -0.5479  2.7277  1.5786
  833MPD2     C12244   3.893   3.900  12.475  0.1929  0.2477 -0.1859
  833MPD2    C112245   3.934   4.022  12.516 -0.8506 -0.3129 -0.2914
  833MPD2    C212246   4.073   4.053  12.491 -0.6698  0.0018  0.0941
  833MPD2    C312247   4.161   3.956  12.439  0.2021  0.7306 -0.4588
  833MPD2    C412248   4.110   3.835  12.395  0.2871  0.1641 -0.2976
  833MPD2    C512249   3.977   3.807  12.413 -0.0851 -0.6931 -0.1885
  833MPD2     H12250   4.114   4.150  12.518 -0.5979  0.5949 -2.1717
  833MPD2    H112251   4.173   3.763  12.344 -0.9806 -1.3898  0.3428
  833MPD2    H212252   3.790   3.867  12.486 -0.4238  1.4600 -2.3206
  833MPD2    H312253   3.937   3.710  12.385 -3.7695  0.0011  2.6768
  833MPD2     N12254   4.295   3.982  12.393  0.2993  1.0700 -0.9666
  833MPD2    H512255   4.339   3.915  12.332 -0.4899  0.4552 -0.8594
  833MPD2    N112256   3.831   4.116  12.545 -0.0083 -0.0213 -0.1868
  833MPD2    H712257   3.736   4.083  12.558  0.3992 -1.1186  0.0416
  834MPD2     C12258   4.324   3.390  11.884 -0.3201  0.0123  0.4974
  834MPD2    C112259   4.308   3.489  11.790 -0.4192 -0.2996  0.1299
  834MPD2    C212260   4.351   3.617  11.818 -0.2434 -0.2193 -0.1264
  834MPD2    C312261   4.391   3.648  11.944 -0.7108 -0.3599  0.4728
  834MPD2    C412262   4.408   3.546  12.031  0.1035 -0.2866 -0.6358
  834MPD2    C512263   4.376   3.418  12.006 -0.1987  0.0538  0.6415
  834MPD2     H12264   4.355   3.697  11.744 -0.3064  0.6586  0.8189
  834MPD2    H112265   4.445   3.564  12.131  0.9954 -1.7333 -0.7005
  834MPD2    H212266   4.288   3.288  11.880 -0.6048  0.1378 -0.0763
  834MPD2    H312267   4.388   3.343  12.083 -2.3542  0.8588  1.7774
  834MPD2     N12268   4.435   3.782  11.978 -0.7423  0.0934  0.3587
  834MPD2    H512269   4.450   3.851  11.904 -0.2870  1.1050  1.3897
  834MPD2    N112270   4.237   3.448  11.676 -0.3599 -0.7826 -0.5071
  834MPD2    H712271   4.217   3.348  11.668 -2.4187 -0.2136 -2.5716
  835MPD2     C12272   4.303   1.412  11.316  0.8312  0.0742 -0.1654
  835MPD2    C112273   4.186   1.483  11.291  0.4786 -0.1913 -0.7561
  835MPD2    C212274   4.093   1.494  11.389  0.1507 -0.1811 -0.6266
  835MPD2    C312275   4.106   1.445  11.518  0.7587 -0.0085  1.0091
  835MPD2    C412276   4.233   1.395  11.540  0.1883 -0.1883 -0.4429
  835MPD2    C512277   4.326   1.372  11.442 -0.2166  0.5056 -0.1417
  835MPD2     H12278   4.002   1.547  11.362 -1.8149 -3.3223 -0.1999
  835MPD2    H112279   4.257   1.347  11.634 -0.0564  3.0107  1.2342
  835MPD2    H212280   4.372   1.389  11.236  0.9775  3.5379 -1.0548
  835MPD2    H312281   4.414   1.315  11.468 -0.7532  1.1461  3.0864
  835MPD2     N12282   4.008   1.450  11.619  0.0253  0.2436 -0.0955
  835MPD2    H512283   4.036   1.427  11.714 -0.3142  0.3265  0.0243
  835MPD2    N112284   4.159   1.547  11.168 -0.1147 -0.0453 -0.4014
  835MPD2    H712285   4.072   1.600  11.166 -0.4661 -0.4678  4.4759
  836MPD2     C12286   3.437   1.939  11.401  0.4596  1.3596  0.3269
  836MPD2    C112287   3.399   1.867  11.514  0.7223 -0.2693  0.0844
  836MPD2    C212288   3.272   1.882  11.564 -0.3320  0.3013  0.4743
  836MPD2    C312289   3.180   1.962  11.508 -0.4298 -0.1254  0.1449
  836MPD2    C412290   3.218   2.015  11.383 -0.6490  0.0061 -0.8797
  836MPD2    C512291   3.345   2.004  11.328  0.3968  0.9861 -0.0116
  836MPD2     H12292   3.250   1.819  11.650  0.9817  1.3102  1.5520
  836MPD2    H112293   3.139   2.058  11.323 -0.7364  2.8750  1.3065
  836MPD2    H212294   3.535   1.922  11.358 -0.0894 -0.4925 -0.1930
  836MPD2    H312295   3.366   2.041  11.228 -0.4762  3.4741  0.7227
  836MPD2     N12296   3.046   1.978  11.556 -0.1256  0.4352  0.3079
  836MPD2    H512297   2.979   2.020  11.492  1.9541 -1.5402 -3.1324
  836MPD2    N112298   3.503   1.794  11.575 -0.0162 -0.1182  0.2508
  836MPD2    H712299   3.579   1.768  11.514 -0.1606 -0.3436  0.1703
  837MPD2     C12300   2.253   1.557  10.088 -0.5254  0.1751  0.4930
  837MPD2    C112301   2.200   1.600   9.964 -0.8162 -0.0193  0.1049
  837MPD2    C212302   2.201   1.733   9.936 -0.2562  0.2769 -0.4136
  837MPD2    C312303   2.256   1.818  10.029  0.6033 -0.1686 -0.2253
  837MPD2    C412304   2.325   1.769  10.139  0.0983  0.5354  0.1833
  837MPD2    C512305   2.316   1.639  10.176 -0.5293 -0.4733 -0.0527
  837MPD2     H12306   2.155   1.767   9.844  0.0624  0.2325 -0.5886
  837MPD2    H112307   2.371   1.830  10.215  0.1572 -0.3836  0.8854
  837MPD2    H212308   2.239   1.455  10.120 -1.0711 -1.0014 -3.5093
  837MPD2    H312309   2.345   1.602  10.274  1.3005 -0.3386 -0.5439
  837MPD2     N12310   2.239   1.962   9.994 -0.5294 -0.0102 -0.0675
  837MPD2    H512311   2.198   1.984   9.904  0.9118 -1.1841 -1.0016
  837MPD2    N112312   2.114   1.527   9.877 -0.2122 -0.1561 -0.2852
  837MPD2    H712313   2.082   1.572   9.791 -3.4420  0.9608  1.5242
  838MPD2     C12314   0.218   0.005  11.730  0.1331  0.0753  0.4744
  838MPD2    C112315   0.215   4.595  11.745 -0.0797  0.0946 -0.3520
  838MPD2    C212316   0.097   4.529  11.779  0.0820 -0.1801  0.3338
  838MPD2    C312317   4.693   4.597  11.781  0.4295 -0.2510  0.4358
  838MPD2    C412318   4.693   0.014  11.741  0.2942  0.6408 -0.6248
  838MPD2    C512319   0.099   0.078  11.734  0.2866 -0.0360 -0.5535
  838MPD2     H12320   0.098   4.420  11.782 -0.7593 -0.2163 -0.6468
  838MPD2    H112321   4.610   0.082  11.728  0.6459  1.0569 -0.6742
  838MPD2    H212322   0.309   0.063  11.723  0.1775 -0.1083 -0.4651
  838MPD2    H312323   0.104   0.185  11.718 -0.3688  0.1293  0.3386
  838MPD2     N12324   4.571   4.531  11.806 -0.2790 -0.0240 -0.2629
  838MPD2    H512325   4.494   4.563  11.748 -0.1238 -1.0924 -1.0494
  838MPD2    N112326   0.330   4.508  11.731  0.2696 -0.2867  0.4492
  838MPD2    H712327   0.304   4.410  11.720 -1.3872  0.3116 -1.0456
  839MPD2     C12328   0.176   3.773  11.541  0.1144  0.1405 -1.4167
  839MPD2    C112329   0.235   3.831  11.429 -0.3518 -0.3796 -0.1419
  839MPD2    C212330   0.341   3.913  11.454  0.0899  0.2068  0.0063
  839MPD2    C312331   0.385   3.943  11.580  0.1762 -0.0397 -0.2598
  839MPD2    C412332   0.327   3.879  11.687 -0.9187 -0.0213 -0.5463
  839MPD2    C512333   0.217   3.799  11.668  0.7705 -0.0208 -0.5303
  839MPD2     H12334   0.385   3.963  11.368  0.0493  0.9184  0.4085
  839MPD2    H112335   0.357   3.901  11.789 -1.0175  0.8461 -0.6978
  839MPD2    H212336   0.088   3.710  11.526 -0.9880  1.3459  0.0642
  839MPD2    H312337   0.167   3.765  11.757  0.9370  2.9606  0.6862
  839MPD2     N12338   0.475   4.053  11.604 -0.7764  0.0570  0.0348
  839MPD2    H512339   0.502   4.069  11.700 -1.7507 -0.4745  0.4052
  839MPD2    N112340   0.181   3.825  11.294 -0.4460 -0.7170  0.2707
  839MPD2    H712341   0.237   3.857  11.215  1.8225 -1.2003  1.7081
  840MPD2     C12342   0.995   1.977  10.005  0.2847 -0.4708  0.4776
  840MPD2    C112343   0.999   1.951  10.140 -0.6014 -0.1682 -0.0951
  840MPD2    C212344   1.083   2.026  10.229 -0.4128 -0.1189 -0.9268
  840MPD2    C312345   1.155   2.133  10.179  0.1144 -0.0606  0.2678
  840MPD2    C412346   1.155   2.155  10.041 -0.5813 -0.2756  0.3116
  840MPD2    C512347   1.077   2.075   9.960  0.2506  0.5409 -0.3446
  840MPD2     H12348   1.085   2.001  10.334  1.7587 -1.3951 -1.2738
  840MPD2    H112349   1.206   2.240   9.997 -1.8260 -0.3786 -1.3347
  840MPD2    H212350   0.925   1.932   9.936  0.8211  2.3109 -1.8878
  840MPD2    H312351   1.072   2.120   9.862 -0.1656  0.5120 -0.3367
  840MPD2     N12352   1.232   2.224  10.261  0.5028  0.2253  0.6632
  840MPD2    H512353   1.284   2.299  10.215  1.2909 -0.3968  0.5331
  840MPD2    N112354   0.917   1.837  10.174 -0.7072 -0.0621 -0.4846
  840MPD2    H712355   0.861   1.797  10.100 -2.1787  1.0351  0.0480
  841MPD2     C12356   0.116   2.274  15.226 -0.6084 -1.0920  0.5364
  841MPD2    C112357   0.155   2.171  15.145  0.1299  1.3891 -0.0436
  841MPD2    C212358   0.264   2.185  15.067 -0.2719 -0.4157 -0.0152
  841MPD2    C312359   0.328   2.302  15.061 -0.3317  0.1057  0.2326
  841MPD2    C412360   0.305   2.402  15.155 -0.4445  0.3142  0.2306
  841MPD2    C512361   0.189   2.389  15.230  0.5845  0.3494 -0.1466
  841MPD2     H12362   0.290   2.101  15.004  1.0093 -0.0313  0.0194
  841MPD2    H112363   0.367   2.490  15.148  1.2165 -0.9849 -1.3860
  841MPD2    H212364   0.032   2.271  15.295  1.0086  0.0719  2.5590
  841MPD2    H312365   0.156   2.472  15.291 -0.1813  1.0055 -1.4553
  841MPD2     N12366   0.445   2.302  14.976  0.4542 -0.0964  0.1286
  841MPD2    H512367   0.455   2.225  14.910 -1.5264  1.0671 -1.5249
  841MPD2    N112368   0.085   2.046  15.133 -0.3062 -0.4304 -0.0079
  841MPD2    H712369   0.135   1.974  15.083 -1.7006 -0.6878 -1.0505
  842MPD2     C12370   0.622   3.062  16.555 -0.6766 -0.1417 -0.1246
  842MPD2    C112371   0.494   3.109  16.534  0.0409 -0.3322  0.3921
  842MPD2    C212372   0.390   3.050  16.600 -0.2513 -0.5243  0.0468
  842MPD2    C312373   0.414   2.955  16.695 -0.2027 -0.0889 -0.1720
  842MPD2    C412374   0.544   2.912  16.720  0.1049  0.2275  0.7876
  842MPD2    C512375   0.647   2.971  16.653  0.1104  0.2742 -0.2118
  842MPD2     H12376   0.289   3.079  16.573 -0.5824  1.0782  3.0079
  842MPD2    H112377   0.559   2.833  16.792  1.0544 -0.6687 -0.3819
  842MPD2    H212378   0.705   3.100  16.497 -0.9712 -0.8104 -0.9696
  842MPD2    H312379   0.745   2.936  16.684 -0.3743 -2.0318 -1.2794
  842MPD2     N12380   0.311   2.891  16.773  0.5823 -0.0407 -0.1196
  842MPD2    H512381   0.341   2.826  16.844  2.8823  0.3679 -0.7136
  842MPD2    N112382   0.477   3.216  16.450 -0.9193  0.0943 -0.1539
  842MPD2    H712383   0.557   3.274  16.426 -1.3966  0.3833 -1.0442
  843MPD2     C12384   2.288   2.719  17.452 -0.2970 -0.4698 -0.0279
  843MPD2    C112385   2.352   2.663  17.554 -0.8252  0.7165  0.7488
  843MPD2    C212386   2.449   2.740  17.620 -0.1610 -0.5162 -0.0884
  843MPD2    C312387   2.486   2.863  17.570  0.5671  0.6695  0.3226
  843MPD2    C412388   2.417   2.918  17.463  0.1060 -0.1759  0.2108
  843MPD2    C512389   2.321   2.841  17.401  0.7740  0.3337  0.0850
  843MPD2     H12390   2.512   2.695   0.016  1.1904  0.6529 -0.5280
  843MPD2    H112391   2.441   3.018  17.429 -1.8463  0.1970 -0.0605
  843MPD2    H212392   2.205   2.662  17.411  1.6283 -1.8641 -2.0013
  843MPD2    H312393   2.274   2.877  17.310  2.6092  1.5081 -0.3952
  843MPD2     N12394   2.589   2.945  17.624 -0.6425  0.0036  0.0756
  843MPD2    H512395   2.598   3.033  17.574 -0.4716 -0.6546 -1.0553
  843MPD2    N112396   2.309   2.539  17.602 -0.0946  0.3105 -0.4857
  843MPD2    H712397   2.229   2.495  17.558 -0.7716  1.5193 -0.4909
  844MPD2     C12398   0.639   1.889  16.317 -0.4779 -0.6439 -0.2376
  844MPD2    C112399   0.727   1.954  16.230  0.4066 -0.0204 -0.6128
  844MPD2    C212400   0.805   2.052  16.289  0.4972 -0.6963 -0.0317
  844MPD2    C312401   0.801   2.087  16.422 -0.0933  0.7013 -0.0438
  844MPD2    C412402   0.717   2.015  16.506  0.3953 -0.1838 -0.0404
  844MPD2    C512403   0.633   1.926  16.446 -0.0958  0.0225  0.4107
  844MPD2     H12404   0.874   2.105  16.224 -1.7817 -1.4139 -3.0218
  844MPD2    H112405   0.714   2.032  16.613  0.3067 -0.4850  0.0047
  844MPD2    H212406   0.583   1.799  16.296 -0.2638 -0.8861  0.2174
  844MPD2    H312407   0.561   1.878  16.511 -1.5611  0.6444 -0.7374
  844MPD2     N12408   0.883   2.197  16.466  0.0096 -1.0378  0.1911
  844MPD2    H512409   0.914   2.268  16.400  1.2877 -0.7354  1.1171
  844MPD2    N112410   0.754   1.923  16.091 -0.0325 -0.0526 -0.1906
  844MPD2    H712411   0.828   1.974  16.044 -0.5079  1.3697  0.6135
  845MPD2     C12412   1.448   3.051  16.553  0.1110  0.0935 -0.5262
  845MPD2    C112413   1.464   2.993  16.680 -0.0413  0.0232  0.0050
  845MPD2    C212414   1.407   2.866  16.697  0.5462 -0.1766  0.1739
  845MPD2    C312415   1.329   2.810  16.601 -0.5403 -1.1375  0.1974
  845MPD2    C412416   1.312   2.879  16.476 -0.5014 -0.3967  0.1388
  845MPD2    C512417   1.367   3.000  16.459  0.1786  0.0959 -0.7934
  845MPD2     H12418   1.411   2.810  16.789  3.5809 -1.7288 -0.8920
  845MPD2    H112419   1.246   2.829  16.405  0.5715  1.2325 -2.0108
  845MPD2    H212420   1.486   3.151  16.535 -0.1919  0.4628  0.8350
  845MPD2    H312421   1.337   3.068  16.380  2.2247 -2.2618 -3.5990
  845MPD2     N12422   1.281   2.679  16.616 -0.3537  0.3317  0.0081
  845MPD2    H512423   1.305   2.635  16.705  0.7287  1.8068  0.4408
  845MPD2    N112424   1.534   3.068  16.778 -0.2532 -0.0110 -0.1206
  845MPD2    H712425   1.550   3.168  16.764  1.9271 -0.1564  1.3060
  846MPD2     C12426   3.391   3.349  13.581 -0.5558  0.0862  0.7593
  846MPD2    C112427   3.329   3.461  13.633  0.6421  0.2456  0.0910
  846MPD2    C212428   3.293   3.478  13.762 -0.9315  0.1070 -0.0201
  846MPD2    C312429   3.319   3.374  13.849 -0.1647 -0.0760  0.5967
  846MPD2    C412430   3.384   3.257  13.802 -0.3414 -0.3332  0.5209
  846MPD2    C512431   3.420   3.248  13.670  0.1492  0.5908 -0.0358
  846MPD2     H12432   3.240   3.564  13.801  3.6385  2.3718  1.1766
  846MPD2    H112433   3.431   3.175  13.856 -0.5507 -0.3961  0.6089
  846MPD2    H212434   3.426   3.342  13.478 -2.8832 -1.5501  0.1001
  846MPD2    H312435   3.491   3.172  13.640 -0.4937 -0.2471  0.5911
  846MPD2     N12436   3.272   3.399  13.980 -0.7691  0.1391  0.6650
  846MPD2    H512437   3.207   3.474  14.001  0.3385  2.1577 -3.0588
  846MPD2    N112438   3.276   3.571  13.554  0.0426  0.3616  0.2733
  846MPD2    H712439   3.231   3.638  13.615 -0.6888  1.0549 -1.0448
  847MPD2     C12440   3.216   4.232  14.107 -0.5841  0.5304 -0.5782
  847MPD2    C112441   3.269   4.358  14.096  0.5149  0.3066 -0.1174
  847MPD2    C212442   3.400   4.385  14.138  0.1838  0.1204 -0.0093
  847MPD2    C312443   3.478   4.283  14.191  0.5382  0.0945  0.5254
  847MPD2    C412444   3.425   4.154  14.189  0.3653 -0.1417 -0.3802
  847MPD2    C512445   3.295   4.129  14.156  1.0293  0.0494  0.7704
  847MPD2     H12446   3.430   4.489  14.143 -0.7725  0.3673  0.6135
  847MPD2    H112447   3.472   4.066  14.232  1.0329  0.6613  0.5050
  847MPD2    H212448   3.114   4.206  14.083  0.3672 -2.7969 -1.0671
  847MPD2    H312449   3.255   4.028  14.158  0.5188  0.2354 -0.1354
  847MPD2     N12450   3.606   4.317  14.241  0.5636 -0.1337 -0.0388
  847MPD2    H512451   3.625   4.416  14.234 -2.0385  0.2127 -2.3959
  847MPD2    N112452   3.195   4.467  14.050 -0.0227  0.1055  0.8736
  847MPD2    H712453   3.252   4.551  14.051  0.2058 -0.0299 -2.5687
  848MPD2     C12454   0.761   3.333  17.042  0.4537 -0.1506 -0.3680
  848MPD2    C112455   0.895   3.339  17.024 -0.6652  0.0902 -0.8428
  848MPD2    C212456   0.957   3.464  16.999  0.3594  0.4582  0.1334
  848MPD2    C312457   0.882   3.572  16.967 -0.2297 -0.1535  0.0075
  848MPD2    C412458   0.752   3.557  16.979  0.0027 -0.0004  0.3525
  848MPD2    C512459   0.689   3.442  17.008 -0.5654 -0.7545  0.5594
  848MPD2     H12460   1.065   3.470  17.006  0.6484 -1.3099 -2.8971
  848MPD2    H112461   0.685   3.636  16.945 -0.8860 -0.7317  0.3987
  848MPD2    H212462   0.725   3.243  17.090 -2.2787  0.3167 -1.4942
  848MPD2    H312463   0.581   3.452  17.009 -0.5838 -0.9003 -0.6785
  848MPD2     N12464   0.930   3.699  16.918  0.0090 -0.0039 -0.4713
  848MPD2    H512465   0.861   3.765  16.882  0.5781  2.0435  2.1744
  848MPD2    N112466   0.972   3.225  17.004  0.2199  0.0623  0.6085
  848MPD2    H712467   1.071   3.235  16.986  0.6184 -0.5984  2.3715
  849MPD2     C12468   0.475   2.612  14.047 -0.1639 -0.5489  0.0767
  849MPD2    C112469   0.614   2.635  14.034  0.6307  0.1872 -0.0437
  849MPD2    C212470   0.698   2.599  14.136 -0.0196 -0.1701 -0.0882
  849MPD2    C312471   0.645   2.544  14.253 -0.7623 -0.6117 -0.0213
  849MPD2    C412472   0.513   2.507  14.261 -0.0581  0.3941 -0.0078
  849MPD2    C512473   0.427   2.546  14.155 -0.3181  0.5997 -1.1776
  849MPD2     H12474   0.806   2.608  14.128  0.1522 -2.5157 -0.3599
  849MPD2    H112475   0.471   2.465  14.352  0.8368 -0.3193  0.0792
  849MPD2    H212476   0.416   2.635  13.959 -1.7780  0.3374  1.4164
  849MPD2    H312477   0.324   2.518  14.170  0.2961 -1.6080 -1.1087
  849MPD2     N12478   0.744   2.521  14.355 -0.1031  0.4691  0.1402
  849MPD2    H512479   0.839   2.523  14.318 -0.7183  0.9537 -1.4362
  849MPD2    N112480   0.654   2.700  13.913 -0.1408  0.2445 -0.1694
  849MPD2    H712481   0.579   2.713  13.846 -1.2837 -0.0836  1.0530
  850MPD2     C12482   3.437   0.723  14.501  0.5747  0.1510  0.1995
  850MPD2    C112483   3.399   0.619  14.591  0.2339 -0.3269 -0.5527
  850MPD2    C212484   3.498   0.575  14.682 -0.7301  0.0497 -0.7145
  850MPD2    C312485   3.627   0.628  14.677 -0.1328  0.1413 -0.0119
  850MPD2    C412486   3.661   0.726  14.579 -0.1321  0.1113 -0.6817
  850MPD2    C512487   3.565   0.773  14.498 -0.2764 -0.5897  0.6842
  850MPD2     H12488   3.471   0.495  14.750 -1.4198  0.7038 -0.2026
  850MPD2    H112489   3.767   0.750  14.567  0.3609 -2.1169 -0.7134
  850MPD2    H212490   3.364   0.772  14.437  0.1874 -1.0507 -0.2893
  850MPD2    H312491   3.586   0.848  14.422 -2.5824 -1.1080 -0.4429
  850MPD2     N12492   3.725   0.590  14.767  0.3652 -0.5242  0.3396
  850MPD2    H512493   3.818   0.620  14.743  0.1628  0.8573  1.2872
  850MPD2    N112494   3.263   0.567  14.603  0.0553  0.4302 -0.3877
  850MPD2    H712495   3.254   0.506  14.684 -0.2859 -0.9460 -1.4750
  851MPD2     C12496   3.315   0.363  15.093 -0.0598  0.5085 -0.2880
  851MPD2    C112497   3.256   0.294  14.988  0.1340  0.0401 -0.2797
  851MPD2    C212498   3.313   0.171  14.945  0.4378  0.7884  0.5457
  851MPD2    C312499   3.426   0.128  15.009  0.4319  0.1559 -0.0607
  851MPD2    C412500   3.473   0.186  15.125 -0.2985  0.4358 -0.1606
  851MPD2    C512501   3.423   0.305  15.166  0.5595 -0.1614 -0.1848
  851MPD2     H12502   3.279   0.120  14.856 -0.9136  0.3120  1.3332
  851MPD2    H112503   3.562   0.153  15.179  0.3412 -0.3560 -1.7124
  851MPD2    H212504   3.274   0.459  15.119 -1.5397 -0.5029  1.0646
  851MPD2    H312505   3.469   0.356  15.250 -1.8251  1.6321  0.0050
  851MPD2     N12506   3.489   0.016  14.944 -0.6244  0.5812 -0.0400
  851MPD2    H512507   3.455   4.699  14.855  1.7245  0.6773 -0.9780
  851MPD2    N112508   3.144   0.354  14.927  0.2256 -0.3735 -0.3619
  851MPD2    H712509   3.136   0.454  14.947  1.7169 -0.3832  0.2760
  852MPD2     C12510   3.154   2.424  10.338  0.1346 -0.5723 -0.3547
  852MPD2    C112511   3.253   2.469  10.430 -0.4671 -0.1450  0.0753
  852MPD2    C212512   3.345   2.565  10.390  0.8162  0.1946  0.0240
  852MPD2    C312513   3.343   2.610  10.261  0.1942  0.2986  0.6564
  852MPD2    C412514   3.262   2.555  10.164 -0.0685 -0.0091 -0.5275
  852MPD2    C512515   3.164   2.462  10.206 -0.4275 -0.4521 -0.3695
  852MPD2     H12516   3.412   2.611  10.462 -0.7183 -1.0585  2.2676
  852MPD2    H112517   3.277   2.577  10.059 -0.0447 -0.7495 -0.6787
  852MPD2    H212518   3.063   2.370  10.362  0.5713 -0.3625  1.7500
  852MPD2    H312519   3.081   2.432  10.143 -1.0113 -0.3976  0.3808
  852MPD2     N12520   3.428   2.717  10.226 -0.6301 -0.1068  0.2431
  852MPD2    H512521   3.494   2.748  10.296  0.4507 -0.6311 -0.5396
  852MPD2    N112522   3.259   2.428  10.566  0.1811 -0.1501 -0.1322
  852MPD2    H712523   3.312   2.488  10.628  0.5638  0.0962 -0.6919
  853MPD2     C12524   4.510   3.004  11.715 -0.8935 -0.0909 -0.8446
  853MPD2    C112525   4.630   3.018  11.781  0.0028 -0.3058  0.2273
  853MPD2    C212526   0.029   3.043  11.704 -0.3332 -0.3667 -0.0280
  853MPD2    C312527   0.018   3.046  11.566  0.9331 -0.0231  0.4371
  853MPD2    C412528   4.614   3.033  11.500 -0.6931  0.0355 -0.4148
  853MPD2    C512529   4.510   3.014  11.585 -0.0714 -0.0565  0.5949
  853MPD2     H12530   0.120   3.053  11.762  0.1029 -0.4055 -0.7108
  853MPD2    H112531   4.599   3.034  11.393  0.7074 -1.4597 -0.6135
  853MPD2    H212532   4.421   2.969  11.767  1.3045 -0.3536  2.7438
  853MPD2    H312533   4.409   3.008  11.544  0.8975 -0.4565 -1.7301
  853MPD2     N12534   0.124   3.079  11.477  0.6416  0.3394  0.4820
  853MPD2    H512535   0.125   3.061  11.377 -0.2842 -0.7199  0.6662
  853MPD2    N112536   4.629   3.002  11.926  0.6811  0.2909 -0.0624
  853MPD2    H712537   4.537   3.011  11.968  1.1376  0.6726  0.8435
  854MPD2     C12538   2.240   2.949  13.131 -0.1813 -0.7050  0.3480
  854MPD2    C112539   2.202   2.933  12.998  1.1288  0.4469 -0.7615
  854MPD2    C212540   2.216   2.804  12.941 -0.4861  0.1390 -0.3666
  854MPD2    C312541   2.263   2.701  13.014 -0.1299  0.4286 -0.3568
  854MPD2    C412542   2.307   2.722  13.142 -0.0332  0.2743  1.0170
  854MPD2    C512543   2.291   2.844  13.206  0.8400  0.7166  0.5485
  854MPD2     H12544   2.180   2.779  12.841  0.2381  0.7268 -0.7729
  854MPD2    H112545   2.354   2.645  13.202 -0.0089 -0.4079  0.1354
  854MPD2    H212546   2.224   3.040  13.186  0.1640 -0.1624 -0.4477
  854MPD2    H312547   2.297   2.859  13.313  1.3214  2.0345  0.3320
  854MPD2     N12548   2.281   2.569  12.966  0.1067 -0.2257  0.2554
  854MPD2    H512549   2.334   2.509  13.028 -0.5118 -2.1305 -1.0440
  854MPD2    N112550   2.166   3.056  12.940 -0.0326 -0.0812  0.6180
  854MPD2    H712551   2.144   3.135  13.001 -0.2555  1.5457 -1.5870
  855MPD2     C12552   2.780   2.271  13.513 -0.3679 -0.2214  0.3183
  855MPD2    C112553   2.679   2.358  13.478  0.5821 -0.3606 -0.3134
  855MPD2    C212554   2.601   2.339  13.365 -0.2679 -0.7313 -0.6212
  855MPD2    C312555   2.612   2.221  13.294  0.5760  0.6657 -0.0030
  855MPD2    C412556   2.706   2.132  13.330 -0.3164 -0.0366 -0.0046
  855MPD2    C512557   2.795   2.161  13.434 -0.5201  0.0868  0.0752
  855MPD2     H12558   2.529   2.415  13.338  1.1848  0.6947 -0.4583
  855MPD2    H112559   2.709   2.037  13.279  1.7720 -0.0230  0.0866
  855MPD2    H212560   2.853   2.276  13.593 -0.2062 -1.6338  0.2615
  855MPD2    H312561   2.873   2.089  13.455  0.8439  2.0953  1.9465
  855MPD2     N12562   2.540   2.191  13.171 -0.5677  0.1533  0.4976
  855MPD2    H512563   2.572   2.119  13.108 -1.9337  0.2758 -0.3266
  855MPD2    N112564   2.660   2.480  13.551 -0.4466 -0.3565  0.0099
  855MPD2    H712565   2.583   2.540  13.524 -0.5360 -0.3013  0.3885
  856MPD2     C12566   3.925   3.675  13.851 -0.6901 -0.1774 -0.2806
  856MPD2    C112567   4.008   3.750  13.929 -0.1591 -0.1494  0.3103
  856MPD2    C212568   3.998   3.890  13.928  0.1009 -0.0885  0.3818
  856MPD2    C312569   3.895   3.948  13.849  0.1797  0.2119 -0.2591
  856MPD2    C412570   3.806   3.873  13.773  0.3789  0.2907  0.0628
  856MPD2    C512571   3.829   3.741  13.770 -1.0422 -0.3295  0.4956
  856MPD2     H12572   4.066   3.948  13.990  0.2118  1.7192 -1.4261
  856MPD2    H112573   3.736   3.927  13.710 -1.0332  1.3822  2.5838
  856MPD2    H212574   3.936   3.568  13.842  1.0131  0.1747 -2.5815
  856MPD2    H312575   3.766   3.672  13.716 -2.8819  0.2499  1.8834
  856MPD2     N12576   3.888   4.092  13.841 -0.1383 -0.8531 -0.3403
  856MPD2    H512577   3.807   4.122  13.789  0.1639  1.6417  0.6022
  856MPD2    N112578   4.116   3.690  14.008  0.5393  0.2027  0.3865
  856MPD2    H712579   4.180   3.747  14.061  1.5302 -0.2236 -0.3468
  857MPD2     C12580   0.985   1.292  12.523  0.4756  0.0545 -0.5175
  857MPD2    C112581   1.119   1.269  12.545 -0.5745 -0.2023 -0.6406
  857MPD2    C212582   1.181   1.370  12.612 -0.3761 -0.0604  0.4321
  857MPD2    C312583   1.129   1.486  12.650  0.4278 -0.3791 -0.2537
  857MPD2    C412584   0.997   1.503  12.624 -0.0663  0.7470  0.4225
  857MPD2    C512585   0.925   1.399  12.568  0.2493 -0.0233  0.3778
  857MPD2     H12586   1.286   1.356  12.634 -0.2113  0.7688  0.1877
  857MPD2    H112587   0.941   1.592  12.650 -2.0898 -0.3105 -0.2768
  857MPD2    H212588   0.918   1.215  12.487  1.3070 -1.6344  1.5305
  857MPD2    H312589   0.818   1.414  12.555  0.1873  0.0515  0.9671
  857MPD2     N12590   1.209   1.594  12.702  0.2416  0.7609  0.4827
  857MPD2    H512591   1.305   1.570  12.725 -0.5178 -0.7196  2.0632
  857MPD2    N112592   1.164   1.142  12.501 -0.5874  0.6811  0.0178
  857MPD2    H712593   1.098   1.083  12.451 -0.4640  0.6056 -0.0568
  858MPD2     C12594   1.231   0.250  16.772  0.1096 -0.0206 -0.0178
  858MPD2    C112595   1.352   0.265  16.844 -0.2087  0.3302  0.2476
  858MPD2    C212596   1.371   0.370  16.931  0.7875  0.1674  0.0983
  858MPD2    C312597   1.269   0.455  16.959 -0.0035  0.6737  0.0555
  858MPD2    C412598   1.152   0.437  16.886 -0.0184  0.2670  0.1394
  858MPD2    C512599   1.124   0.334  16.808  0.0311 -0.2470 -0.0180
  858MPD2     H12600   1.471   0.375  16.973 -0.0057  0.2627  1.9822
  858MPD2    H112601   1.075   0.512  16.904  0.1408  0.3802  0.3584
  858MPD2    H212602   1.212   0.177  16.694  0.0072  0.1575 -0.1592
  858MPD2    H312603   1.027   0.334  16.760 -1.1791 -0.0140  2.4364
  858MPD2     N12604   1.278   0.564  17.050  0.5034 -0.6757 -0.3499
  858MPD2    H512605   1.199   0.626  17.062  0.3285 -1.1432  0.9087
  858MPD2    N112606   1.465   0.189  16.801 -0.3642  0.1502  0.4783
  858MPD2    H712607   1.557   0.222  16.828  0.8170 -2.1677 -0.6416
  859MPD2     C12608   0.272   2.536  15.885 -0.0955  0.5590  0.2619
  859MPD2    C112609   0.305   2.513  15.757  0.0883 -0.3904  0.1036
  859MPD2    C212610   0.290   2.388  15.703 -1.0849 -0.0467  0.3756
  859MPD2    C312611   0.242   2.289  15.782 -0.7406 -0.7440  0.1224
  859MPD2    C412612   0.203   2.313  15.914  0.1370  0.2167 -0.2562
  859MPD2    C512613   0.230   2.437  15.965 -0.4686 -0.0346 -0.0519
  859MPD2     H12614   0.331   2.367  15.605 -0.1466 -1.8809  1.1645
  859MPD2    H112615   0.157   2.233  15.969  1.5732  0.9553  2.0271
  859MPD2    H212616   0.298   2.628  15.936  2.1099 -0.4915  1.0321
  859MPD2    H312617   0.208   2.464  16.067 -1.2560 -0.3344 -0.1347
  859MPD2     N12618   0.218   2.154  15.737  0.2045  0.0048  0.1335
  859MPD2    H512619   0.180   2.089  15.805 -0.0666  1.5792  1.4851
  859MPD2    N112620   0.364   2.615  15.688 -0.3530 -0.4709  0.2198
  859MPD2    H712621   0.370   2.699  15.744 -2.2176  0.8613 -1.5564
  860MPD2     C12622   3.325   3.148  11.578  0.1831 -0.0184  0.2445
  860MPD2    C112623   3.316   3.159  11.710  0.0452  0.0242 -0.0865
  860MPD2    C212624   3.230   3.075  11.785  0.1628  0.2056  0.6349
  860MPD2    C312625   3.155   2.979  11.722  0.2014 -0.1378 -0.6032
  860MPD2    C412626   3.159   2.968  11.586  0.2903  0.2758 -0.6102
  860MPD2    C512627   3.240   3.054  11.516 -0.3124 -0.3159 -0.6773
  860MPD2     H12628   3.216   3.085  11.892 -0.3317  2.1421  0.4022
  860MPD2    H112629   3.090   2.900  11.536 -1.1493  1.4772 -0.2518
  860MPD2    H212630   3.389   3.207  11.514  2.3655 -0.1579  2.3024
  860MPD2    H312631   3.236   3.055  11.408 -0.8546 -3.1690 -0.6799
  860MPD2     N12632   3.073   2.896  11.803  0.4515 -0.1934  0.9817
  860MPD2    H512633   3.079   2.906  11.904  1.2099 -0.6691  0.9808
  860MPD2    N112634   3.388   3.263  11.779  0.3224 -0.1399  0.1174
  860MPD2    H712635   3.376   3.249  11.879  0.5463 -2.0876 -0.1205
  861MPD2     C12636   1.962   1.243  10.653  0.0649 -0.7351 -0.4835
  861MPD2    C112637   1.896   1.308  10.753 -0.6322  0.1425  0.0951
  861MPD2    C212638   1.791   1.381  10.718  0.7630 -0.6295 -0.0318
  861MPD2    C312639   1.742   1.388  10.589  0.1235 -0.1979  0.4416
  861MPD2    C412640   1.796   1.307  10.497  2.0193 -0.2176 -0.5789
  861MPD2    C512641   1.904   1.232  10.529 -0.1404  0.3929  0.1982
  861MPD2     H12642   1.756   1.446  10.797 -2.0289  0.0660 -1.8410
  861MPD2    H112643   1.758   1.299  10.396  0.0429 -0.2597  0.1612
  861MPD2    H212644   2.061   1.200  10.668  0.0705 -0.8089 -0.7294
  861MPD2    H312645   1.966   1.181  10.457 -0.5827  0.5166 -0.2687
  861MPD2     N12646   1.634   1.467  10.547  0.5062 -0.6422  0.0417
  861MPD2    H512647   1.607   1.465  10.449 -0.0609 -1.1917  0.2064
  861MPD2    N112648   1.953   1.316  10.882  0.4451  0.0185 -0.0762
  861MPD2    H712649   1.892   1.353  10.953 -0.6414  0.0764 -1.0399
  862MPD2     C12650   1.174   1.665  10.039  0.5460 -0.3289 -0.8074
  862MPD2    C112651   1.244   1.581  10.130 -0.0922  0.6835 -0.6511
  862MPD2    C212652   1.218   1.445  10.145  0.8992  0.1969  0.5484
  862MPD2    C312653   1.118   1.388  10.053 -0.2052 -0.9025 -0.5448
  862MPD2    C412654   1.046   1.477   9.970 -0.4552 -0.2887  0.0056
  862MPD2    C512655   1.070   1.613   9.967  0.0439 -0.0181  0.0057
  862MPD2     H12656   1.275   1.386  10.216  1.1875 -0.8356 -0.5306
  862MPD2    H112657   0.974   1.439   9.899  0.8889 -1.2469 -0.8446
  862MPD2    H212658   1.195   1.771  10.049  2.7071 -0.8236 -0.0741
  862MPD2    H312659   1.018   1.679   9.898  0.9762 -0.0283 -0.6945
  862MPD2     N12660   1.085   1.252  10.045 -0.5331 -0.1672  0.4069
  862MPD2    H512661   1.016   1.229   9.974 -0.7723 -1.3263  1.0235
  862MPD2    N112662   1.337   1.630  10.218 -0.2522  0.2065  0.2782
  862MPD2    H712663   1.357   1.566  10.294 -1.5662  1.6202  1.8114
  863MPD2     C12664   4.347   4.398  17.611  0.3047  0.1357  1.4377
  863MPD2    C112665   4.430   4.458  17.511  0.0225  0.0739  0.4986
  863MPD2    C212666   4.566   4.455  17.535 -0.5743  0.5940  0.7925
  863MPD2    C312667   4.619   4.399  17.651 -0.3187 -0.5795  0.1290
  863MPD2    C412668   4.539   4.334   0.060  0.4379 -0.1295  0.0321
  863MPD2    C512669   4.402   4.331   0.040 -0.5679  0.1397  0.1294
  863MPD2     H12670   4.637   4.501  17.467 -1.8230  0.2631 -0.7263
  863MPD2    H112671   4.580   4.287   0.149  1.9508  2.1511  0.5138
  863MPD2    H212672   4.239   4.388  17.603  0.4793  2.0453 -3.6799
  863MPD2    H312673   4.340   4.281   0.114 -1.0220  0.4754 -0.0192
  863MPD2     N12674   0.038   4.387  17.678 -0.1640 -0.0194  0.1425
  863MPD2    H512675   0.061   4.311   0.061 -2.0584  0.1536  1.0464
  863MPD2    N112676   4.392   4.509  17.388  0.0650  0.0211  0.6730
  863MPD2    H712677   4.466   4.540  17.326  1.8707 -1.2608  2.1839
  864MPD2     C12678   0.118   0.924  17.089  0.0434  0.2928  0.0638
  864MPD2    C112679   0.176   0.823  17.010  0.4090  0.0594 -0.3854
  864MPD2    C212680   0.240   0.874  16.895  0.3209  0.6343 -0.3940
  864MPD2    C312681   0.245   1.010  16.861 -0.0631  0.5171 -0.1554
  864MPD2    C412682   0.177   1.105  16.934 -0.0779 -0.5530 -0.4908
  864MPD2    C512683   0.124   1.060  17.053 -0.3131 -0.0334  0.2816
  864MPD2     H12684   0.276   0.793  16.833 -2.4331 -1.0437  0.1594
  864MPD2    H112685   0.188   1.213  16.921  1.0847 -0.6916 -0.6873
  864MPD2    H212686   0.065   0.899  17.181  0.4828 -0.0288  0.2290
  864MPD2    H312687   0.076   1.133  17.116 -1.4363  0.1831 -0.8217
  864MPD2     N12688   0.317   1.057  16.757 -0.2638  0.1368  0.6425
  864MPD2    H512689   0.309   1.156  16.737 -2.4528 -0.5816 -2.1571
  864MPD2    N112690   0.167   0.690  17.035  0.1128 -0.2945  0.3396
  864MPD2    H712691   0.181   0.640  16.948  1.3000 -0.1317  0.4480
  865MPD2     C12692   0.376   1.098  15.846  0.5836 -0.7280  0.0034
  865MPD2    C112693   0.367   1.029  15.966 -0.5300  0.3079  0.3450
  865MPD2    C212694   0.322   1.100  16.074  0.2410  0.6080  0.1583
  865MPD2    C312695   0.313   1.237  16.066 -0.1131  0.3986 -0.6224
  865MPD2    C412696   0.325   1.300  15.944  0.5768 -1.0225  0.4192
  865MPD2    C512697   0.350   1.233  15.827 -0.5504 -1.3556  0.0624
  865MPD2     H12698   0.289   1.048  16.163 -0.3837  0.8001  0.0414
  865MPD2    H112699   0.326   1.408  15.942  1.8714 -0.9729  2.7637
  865MPD2    H212700   0.408   1.044  15.757  0.5861  2.4951 -1.9598
  865MPD2    H312701   0.367   1.281  15.731 -0.0354 -0.5788  0.5482
  865MPD2     N12702   0.271   1.314  16.181 -0.3877 -0.6811  0.1274
  865MPD2    H512703   0.233   1.407  16.168 -1.8217 -1.5223 -1.7326
  865MPD2    N112704   0.412   0.896  15.966 -0.6273 -0.7062 -0.2033
  865MPD2    H712705   0.426   0.850  15.876 -0.0458  0.0148 -0.4845
  866MPD2     C12706   2.374   1.539  11.413 -0.3295  0.2831 -0.5466
  866MPD2    C112707   2.371   1.526  11.274 -0.7548  0.3620 -0.1799
  866MPD2    C212708   2.280   1.593  11.198  0.3586 -0.0059 -0.4453
  866MPD2    C312709   2.186   1.680  11.255 -0.1865  0.3948 -1.0791
  866MPD2    C412710   2.195   1.704  11.396  0.0912 -0.2620  0.1384
  866MPD2    C512711   2.294   1.632  11.469  0.0493  0.4460 -0.8484
  866MPD2     H12712   2.274   1.568  11.093 -0.0500  1.3652 -0.7536
  866MPD2    H112713   2.120   1.762  11.448  0.0674  0.9618 -1.2518
  866MPD2    H212714   2.456   1.491  11.465 -0.0457  1.0042 -0.3332
  866MPD2    H312715   2.295   1.651  11.575  1.8007 -1.2918 -0.5557
  866MPD2     N12716   2.078   1.744  11.192  0.5259 -0.1697  0.0977
  866MPD2    H512717   2.007   1.789  11.249 -0.1244  0.3536 -1.1248
  866MPD2    N112718   2.460   1.429  11.219 -0.6247  0.2278 -0.0437
  866MPD2    H712719   2.523   1.376  11.280 -2.7757 -0.1271  1.8776
  867MPD2     C12720   4.120   0.966  16.878 -0.1295 -0.1580  0.1530
  867MPD2    C112721   4.134   0.900  16.996  0.0924 -0.2248  0.5370
  867MPD2    C212722   4.143   0.972  17.120  0.0288 -0.2264  1.0642
  867MPD2    C312723   4.138   1.109  17.113 -0.1027 -0.3421  0.3840
  867MPD2    C412724   4.128   1.172  16.992 -0.7745  0.3600  0.0702
  867MPD2    C512725   4.110   1.102  16.871  0.2844 -0.2761 -0.2205
  867MPD2     H12726   4.150   0.924  17.217 -1.3823 -1.9919  0.2900
  867MPD2    H112727   4.126   1.280  17.004 -0.5732  0.2166  1.4208
  867MPD2    H212728   4.101   0.906  16.790 -0.0457 -1.7213  1.2083
  867MPD2    H312729   4.106   1.160  16.779 -0.6663  0.0426  0.0140
  867MPD2     N12730   4.159   1.196  17.227  0.5714 -0.0084  1.0497
  867MPD2    H512731   4.168   1.295  17.206 -0.0773 -0.0213  0.6889
  867MPD2    N112732   4.111   0.759  16.990 -0.7226 -0.4260  0.1521
  867MPD2    H712733   4.116   0.724  16.895 -4.5866 -0.7658  0.0917
  868MPD2     C12734   1.303   3.690  12.793 -0.5664  0.2605 -0.8638
  868MPD2    C112735   1.315   3.690  12.932 -1.1209  0.0520 -0.7241
  868MPD2    C212736   1.209   3.633  13.003  0.5680  0.8273  0.6750
  868MPD2    C312737   1.113   3.567  12.940 -0.0374  0.6627  0.9046
  868MPD2    C412738   1.100   3.559  12.803 -0.4713 -0.6545 -0.1239
  868MPD2    C512739   1.197   3.628  12.729  0.0626  0.4029 -0.3800
  868MPD2     H12740   1.198   3.645  13.110  1.3255  2.0795  0.6017
  868MPD2    H112741   1.023   3.501  12.755 -1.2162 -0.8704  1.3382
  868MPD2    H212742   1.378   3.747  12.739 -0.4719 -0.2835 -1.3095
  868MPD2    H312743   1.193   3.626  12.620 -0.6628 -2.3505 -0.2951
  868MPD2     N12744   1.022   3.497  13.032  0.4189 -0.1181  0.0661
  868MPD2    H512745   1.021   3.507  13.133  2.4990  1.3639 -0.0830
  868MPD2    N112746   1.426   3.749  13.005  0.8455 -0.4630  0.5559
  868MPD2    H712747   1.499   3.777  12.940  1.2823 -1.6823  0.5215
  869MPD2     C12748   2.013   2.642   1.882 -0.6135 -0.7493 -0.6402
  869MPD2    C112749   2.009   2.525   1.805 -0.0727  0.5019 -0.3072
  869MPD2    C212750   1.990   2.544   1.671  1.1880 -0.1532 -0.3830
  869MPD2    C312751   2.012   2.668   1.613 -0.2015 -0.3438  1.0884
  869MPD2    C412752   2.032   2.774   1.692  0.1473  0.7036  0.2047
  869MPD2    C512753   2.040   2.763   1.829 -0.3786  0.1752  0.0981
  869MPD2     H12754   1.991   2.457   1.606 -0.4421 -0.3647 -0.1196
  869MPD2    H112755   2.046   2.874   1.652  0.0793  0.2905 -0.8436
  869MPD2    H212756   2.018   2.626   1.989  0.3183 -3.0447 -1.0286
  869MPD2    H312757   2.081   2.849   1.881 -0.0166 -1.9024  3.2287
  869MPD2     N12758   2.013   2.695   1.473  0.2481  0.3012  0.1311
  869MPD2    H512759   2.025   2.792   1.444  0.0165  0.8405  1.7984
  869MPD2    N112760   2.011   2.397   1.871 -0.2502  0.4040  0.6121
  869MPD2    H712761   2.031   2.394   1.971  0.7847 -4.1280  0.2968
  870MPD2     C12762   1.090   1.263   1.497 -0.4531  0.5044  0.4343
  870MPD2    C112763   1.203   1.298   1.427 -0.1612 -0.4259 -0.1115
  870MPD2    C212764   1.199   1.313   1.288 -0.0478  0.6359 -0.2085
  870MPD2    C312765   1.082   1.300   1.219  0.0008  0.2017  0.9305
  870MPD2    C412766   0.966   1.256   1.286 -0.1955 -0.2412  0.5429
  870MPD2    C512767   0.978   1.230   1.420  0.0454 -0.3442 -0.1818
  870MPD2     H12768   1.285   1.354   1.237 -0.9769 -0.0132 -2.2941
  870MPD2    H112769   0.871   1.234   1.240  0.1953  0.1479 -0.4635
  870MPD2    H212770   1.098   1.234   1.601  0.0902 -0.2729  0.1771
  870MPD2    H312771   0.887   1.195   1.466 -0.6477  0.1574 -1.1723
  870MPD2     N12772   1.073   1.337   1.082  0.2805 -0.7199  0.5219
  870MPD2    H512773   1.162   1.366   1.042 -0.3980  0.0702 -0.3917
  870MPD2    N112774   1.315   1.323   1.511 -0.3116  0.4552 -0.1553
  870MPD2    H712775   1.313   1.291   1.608 -0.4513  1.3922  0.1552
  871MPD2     C12776   3.036   0.807  16.538 -0.1160 -0.3517  0.7025
  871MPD2    C112777   3.022   0.779  16.673  0.2947 -0.4381 -0.3522
  871MPD2    C212778   3.028   0.646  16.710  0.2630  0.1714  0.3201
  871MPD2    C312779   3.019   0.540  16.617 -0.3554  0.5772 -0.0838
  871MPD2    C412780   3.003   0.577  16.483  0.0656  0.0046 -0.9555
  871MPD2    C512781   3.015   0.707  16.449 -0.1207  0.0345  0.7889
  871MPD2     H12782   3.040   0.622  16.815 -2.7756  0.2887  0.6981
  871MPD2    H112783   2.980   0.493  16.419 -2.4212 -0.7634  0.9488
  871MPD2    H212784   3.050   0.910  16.510  1.3316 -0.6887  0.1553
  871MPD2    H312785   2.984   0.732  16.348  0.8298  1.5718  0.8826
  871MPD2     N12786   3.014   0.407  16.662  0.3116  0.1404 -0.4025
  871MPD2    H512787   3.006   0.393  16.763  1.9345  0.2043 -0.2681
  871MPD2    N112788   3.015   0.879  16.765  0.2739 -0.0030  0.9410
  871MPD2    H712789   3.039   0.971  16.731 -0.5213  0.3510  1.3507
  872MPD2     C12790   4.228   2.493  14.163  0.2596  0.3730 -0.2247
  872MPD2    C112791   4.222   2.600  14.078  0.2475 -0.1726  0.0347
  872MPD2    C212792   4.120   2.699  14.085 -0.4675  0.4098 -0.3209
  872MPD2    C312793   4.038   2.699  14.202  0.5535  0.4399 -0.0860
  872MPD2    C412794   4.050   2.598  14.292  0.0000 -0.6712 -0.3489
  872MPD2    C512795   4.146   2.495  14.270 -0.0984  0.1281 -0.4263
  872MPD2     H12796   4.117   2.775  14.008 -1.3304 -0.2910 -0.9668
  872MPD2    H112797   3.984   2.594  14.377  0.2111  0.2881 -0.1381
  872MPD2    H212798   4.313   2.426  14.159 -0.1730 -0.1608 -0.4686
  872MPD2    H312799   4.166   2.410  14.334  1.1121  0.4601 -0.3548
  872MPD2     N12800   3.946   2.797  14.239  0.1999  0.6293 -0.0270
  872MPD2    H512801   3.903   2.786  14.330  0.8605 -0.9770  0.0908
  872MPD2    N112802   4.313   2.618  13.966  0.3708  0.1665  0.2583
  872MPD2    H712803   4.283   2.684  13.895 -0.1550  2.4058  2.5678
  873MPD2     C12804   0.709   2.804   0.902  0.6900 -0.2638  0.3794
  873MPD2    C112805   0.804   2.894   0.948 -0.0668 -0.0310  0.5387
  873MPD2    C212806   0.938   2.852   0.967 -0.7334  0.3330 -0.7054
  873MPD2    C312807   0.975   2.724   0.927  0.0037 -0.0729  1.1172
  873MPD2    C412808   0.882   2.624   0.901 -0.5695  0.0700 -0.3429
  873MPD2    C512809   0.752   2.675   0.878 -0.7011  0.0270  0.2867
  873MPD2     H12810   1.008   2.919   1.016 -2.3217  0.2747  1.6744
  873MPD2    H112811   0.917   2.527   0.870 -0.7604 -0.0077 -0.3151
  873MPD2    H212812   0.607   2.831   0.877  0.8306 -0.5925 -0.5390
  873MPD2    H312813   0.670   2.615   0.839  0.8930 -1.4554 -0.7904
  873MPD2     N12814   1.111   2.688   0.920 -0.7014 -0.0900 -0.6651
  873MPD2    H512815   1.128   2.590   0.898  0.4562  0.2143 -1.1005
  873MPD2    N112816   0.770   3.025   0.985 -0.5588  1.2826  0.1709
  873MPD2    H712817   0.670   3.041   0.990 -0.7941 -0.1186 -0.0452
  874MPD2     C12818   0.663   3.955  16.174 -1.1147  0.1787  0.2256
  874MPD2    C112819   0.634   3.879  16.289  0.3699  0.7727  0.1503
  874MPD2    C212820   0.713   3.887  16.399  0.7552 -0.3772 -0.3174
  874MPD2    C312821   0.828   3.966  16.399  0.3655  0.2052 -0.2057
  874MPD2    C412822   0.860   4.032  16.283 -0.6626  0.6850  0.0680
  874MPD2    C512823   0.779   4.029  16.177 -0.1837 -0.4975  0.1609
  874MPD2     H12824   0.685   3.837  16.491  3.5642 -2.0366 -0.3640
  874MPD2    H112825   0.953   4.085  16.270 -0.4123  0.1233 -0.4551
  874MPD2    H212826   0.612   3.934  16.081 -1.0389  0.3013  0.1553
  874MPD2    H312827   0.804   4.078  16.083  0.2150  2.0663  1.6108
  874MPD2     N12828   0.913   3.968  16.509  0.0430 -0.0362  0.0289
  874MPD2    H512829   0.883   3.909  16.586  1.7655  0.7059  1.2646
  874MPD2    N112830   0.522   3.794  16.285  0.8848 -0.5337 -0.5030
  874MPD2    H712831   0.476   3.779  16.196  0.4553  1.8726 -0.6924
  875MPD2     C12832   2.170   1.582  14.543 -0.2319 -0.0758  0.5978
  875MPD2    C112833   2.034   1.606  14.569 -0.6209 -0.1609 -0.5150
  875MPD2    C212834   1.995   1.659  14.693 -0.0170 -0.3379 -0.1775
  875MPD2    C312835   2.091   1.686  14.793 -0.3716  0.7833  0.9082
  875MPD2    C412836   2.223   1.656  14.765  0.1269  0.1566  0.2680
  875MPD2    C512837   2.260   1.606  14.643  0.4512  0.3413 -0.0098
  875MPD2     H12838   1.891   1.687  14.707 -0.4375 -1.8680 -0.2156
  875MPD2    H112839   2.304   1.688  14.829 -1.0437  1.6703  0.9888
  875MPD2    H212840   2.213   1.561  14.445 -0.7454  0.4685  0.2575
  875MPD2    H312841   2.364   1.626  14.618  0.1018  1.6698 -0.4168
  875MPD2     N12842   2.058   1.733  14.917  0.0113  0.7836  0.0193
  875MPD2    H512843   2.136   1.775  14.967 -0.7512 -0.4777  2.2574
  875MPD2    N112844   1.936   1.604  14.469 -0.2661 -0.4739  0.3274
  875MPD2    H712845   1.843   1.636  14.491 -1.1218 -2.2089 -0.6871
  876MPD2     C12846   0.172   2.835  16.404 -0.2914 -0.0716  0.7056
  876MPD2    C112847   0.281   2.798  16.335  0.4859 -0.0958  0.6895
  876MPD2    C212848   0.301   2.660  16.318  0.5808  0.2900 -0.5570
  876MPD2    C312849   0.218   2.566  16.378 -0.1498  0.4216 -0.0871
  876MPD2    C412850   0.116   2.613  16.459  0.3624 -0.3095  0.1033
  876MPD2    C512851   0.099   2.748  16.470  0.0775 -0.2430  0.0793
  876MPD2     H12852   0.385   2.631  16.256  0.7840 -0.8256  0.2351
  876MPD2    H112853   0.048   2.554  16.520 -0.8862  1.8698  0.8213
  876MPD2    H212854   0.143   2.939  16.405  0.6097  0.1983 -0.7811
  876MPD2    H312855   0.008   2.784  16.517 -0.7298 -0.9053 -0.9517
  876MPD2     N12856   0.241   2.430  16.362  0.2448 -0.5035 -0.6986
  876MPD2    H512857   0.322   2.401  16.309  0.6554  0.4625 -0.5993
  876MPD2    N112858   0.367   2.897  16.276 -0.9933  0.6573  0.2384
  876MPD2    H712859   0.333   2.991  16.295 -2.4360  0.1221  0.3725
  877MPD2     C12860   0.272   3.274  15.647 -0.2357  0.2202 -0.3258
  877MPD2    C112861   0.411   3.261  15.662 -0.0204  0.0990 -0.1643
  877MPD2    C212862   0.489   3.273  15.549  0.0018  0.0353 -0.0323
  877MPD2    C312863   0.438   3.286  15.420 -0.3702  0.4526 -0.1531
  877MPD2    C412864   0.301   3.298  15.412  0.0743 -0.1665  0.3531
  877MPD2    C512865   0.221   3.293  15.521 -0.3789  0.1916  0.1326
  877MPD2     H12866   0.597   3.273  15.563  0.0769  1.0948 -0.6489
  877MPD2    H112867   0.250   3.307  15.317 -0.6313 -5.0222  0.2559
  877MPD2    H212868   0.202   3.270  15.730  1.1065  0.6145  0.8200
  877MPD2    H312869   0.113   3.303  15.520 -0.2916  1.1528  0.7513
  877MPD2     N12870   0.515   3.294  15.298 -0.5265 -0.1474  0.4522
  877MPD2    H512871   0.466   3.314  15.212 -3.2152 -0.1954  1.9692
  877MPD2    N112872   0.476   3.243  15.791  0.2121  0.1164  1.1158
  877MPD2    H712873   0.577   3.230  15.789  0.2020  0.1189  0.3670
  878MPD2     C12874   0.908   2.336  13.008 -0.4457 -0.3461 -0.3060
  878MPD2    C112875   0.984   2.442  13.020 -0.4715  0.3502  0.7713
  878MPD2    C212876   0.993   2.507  13.137 -0.0788 -0.9236 -0.5571
  878MPD2    C312877   0.925   2.463  13.252  0.3761 -0.0492  0.0036
  878MPD2    C412878   0.859   2.343  13.236  0.5809  0.3259 -0.2699
  878MPD2    C512879   0.840   2.286  13.113  0.1869 -0.3429 -0.0349
  878MPD2     H12880   1.053   2.596  13.150 -1.9531  0.3494 -0.6607
  878MPD2    H112881   0.808   2.289  13.314 -2.4519  1.6780 -1.3141
  878MPD2    H212882   0.894   2.299  12.907  2.0519  0.4571 -0.9581
  878MPD2    H312883   0.781   2.195  13.101 -0.9676  0.0317  2.7679
  878MPD2     N12884   0.916   2.537  13.369  0.7016  0.2299 -0.1369
  878MPD2    H512885   0.981   2.615  13.378  0.7228 -0.1412  3.1273
  878MPD2    N112886   1.036   2.495  12.900  0.0657 -0.4057 -0.4680
  878MPD2    H712887   1.017   2.435  12.820 -0.5521  0.5380 -1.0212
  879MPD2     C12888   1.401   3.214   0.061  0.1389  0.7534  0.0698
  879MPD2    C112889   1.398   3.337  17.680 -0.3697  0.4329  0.6824
  879MPD2    C212890   1.290   3.364  17.596  0.3495 -0.9611  0.5962
  879MPD2    C312891   1.188   3.275  17.575  0.3156  0.1767  0.0124
  879MPD2    C412892   1.189   3.153  17.645  0.6448 -0.2450  0.7613
  879MPD2    C512893   1.296   3.123   0.047  0.0789  0.4611 -0.3509
  879MPD2     H12894   1.293   3.449  17.529  2.1991 -1.9460 -0.6025
  879MPD2    H112895   1.106   3.084  17.639 -0.0219  0.5719  0.6297
  879MPD2    H212896   1.487   3.170   0.111  1.4498  0.4141 -2.4728
  879MPD2    H312897   1.291   3.026   0.094  0.3262  0.3829 -0.4918
  879MPD2     N12898   1.072   3.310  17.505 -0.2215  0.2589 -0.6270
  879MPD2    H512899   0.990   3.250  17.497  0.7807 -1.2187  0.2488
  879MPD2    N112900   1.504   3.424   0.011 -0.0633 -0.0969 -0.5765
  879MPD2    H712901   1.562   3.414   0.094 -0.5947  1.9749  0.0460
  880MPD2     C12902   1.971   1.138   0.978 -0.2542  0.4594  0.4726
  880MPD2    C112903   2.076   1.179   0.897 -0.1546  0.0617 -0.4383
  880MPD2    C212904   2.190   1.104   0.893 -0.6192  0.4180 -0.3453
  880MPD2    C312905   2.198   0.976   0.962  0.3199 -0.0209 -0.2323
  880MPD2    C412906   2.094   0.938   1.040  0.3470 -0.4504 -0.5072
  880MPD2    C512907   1.982   1.019   1.046  0.0652  0.0985 -1.2136
  880MPD2     H12908   2.268   1.141   0.828  1.6795 -0.6784  1.7743
  880MPD2    H112909   2.082   0.841   1.087 -0.7213 -0.7535 -1.4103
  880MPD2    H212910   1.877   1.191   0.992  2.1752  4.2900  2.1863
  880MPD2    H312911   1.897   0.982   1.101 -0.2722 -1.5032 -2.7973
  880MPD2     N12912   2.318   0.904   0.952  0.5108  0.3651  0.3593
  880MPD2    H512913   2.390   0.948   0.894  1.7421 -2.6268 -0.3708
  880MPD2    N112914   2.054   1.302   0.826 -0.4105  0.3497  0.2128
  880MPD2    H712915   1.961   1.341   0.831  0.0736  1.4978  0.1875
  881MPD2     C12916   2.399   2.046   0.154 -0.7402 -0.0445  0.3396
  881MPD2    C112917   2.341   1.937   0.096  0.0182  0.2656 -0.5049
  881MPD2    C212918   2.245   1.872   0.171  0.0553  0.4131  0.2815
  881MPD2    C312919   2.240   1.894   0.304  0.3668 -0.1000  0.2966
  881MPD2    C412920   2.305   2.001   0.365  0.6732  0.8025  0.1704
  881MPD2    C512921   2.381   2.079   0.283 -0.6672 -0.7685 -0.6348
  881MPD2     H12922   2.169   1.806   0.129 -2.0409  1.1451  2.9204
  881MPD2    H112923   2.305   2.031   0.470  1.0873 -0.1768  0.4470
  881MPD2    H212924   2.452   2.118   0.093  0.3125  0.3309  1.6855
  881MPD2    H312925   2.422   2.174   0.316  1.3437 -2.4993  1.9061
  881MPD2     N12926   2.181   1.798   0.381  0.0706  0.0840 -0.1389
  881MPD2    H512927   2.133   1.724   0.329 -1.5275  0.4588  0.8044
  881MPD2    N112928   2.357   1.915  17.638 -0.2786  1.1697  0.2084
  881MPD2    H712929   2.401   1.989  17.584  1.9482 -1.3784 -1.4579
  882MPD2     C12930   0.690   2.896  14.891 -0.8998 -0.1187 -0.0745
  882MPD2    C112931   0.664   3.013  14.820 -0.2382  0.6814  0.4370
  882MPD2    C212932   0.581   3.002  14.705 -0.9498 -0.3640  0.3024
  882MPD2    C312933   0.517   2.878  14.682  0.0225 -0.4731 -0.0865
  882MPD2    C412934   0.547   2.764  14.754  0.3323  1.0202  0.7288
  882MPD2    C512935   0.629   2.775  14.855  0.1345  0.3073 -0.3958
  882MPD2     H12936   0.554   3.090  14.649 -0.5339 -0.5166 -0.1399
  882MPD2    H112937   0.500   2.669  14.732 -0.4006  1.3488  0.8717
  882MPD2    H212938   0.743   2.892  14.985  1.1986  2.4273 -1.1602
  882MPD2    H312939   0.658   2.691  14.917 -0.4842 -0.5818 -1.3065
  882MPD2     N12940   0.424   2.862  14.574 -0.0550  0.0851  0.1827
  882MPD2    H512941   0.387   2.768  14.575 -0.6152  0.2986 -0.5774
  882MPD2    N112942   0.718   3.135  14.870 -0.1245 -0.0469 -0.4258
  882MPD2    H712943   0.783   3.128  14.947  1.0052  1.3803 -1.2566
  883MPD2     C12944   2.446   3.292  16.148  0.4562 -0.2215 -0.5391
  883MPD2    C112945   2.520   3.398  16.099 -0.5406  0.3018 -1.2578
  883MPD2    C212946   2.617   3.450  16.176 -0.3019  0.0267  0.7513
  883MPD2    C312947   2.652   3.397  16.301 -0.3609 -0.0124 -0.0370
  883MPD2    C412948   2.572   3.290  16.354  0.3087 -0.8428 -1.1009
  883MPD2    C512949   2.463   3.250  16.277  0.3333 -0.0666  0.0669
  883MPD2     H12950   2.685   3.530  16.149  0.0546 -0.5144  0.0217
  883MPD2    H112951   2.584   3.259  16.457  0.7431  2.1948 -0.2371
  883MPD2    H212952   2.372   3.236  16.092 -0.6453  1.7614 -1.0385
  883MPD2    H312953   2.403   3.166  16.308 -1.3945  0.6190 -1.4430
  883MPD2     N12954   2.757   3.461  16.371  0.3943  0.0715 -0.0396
  883MPD2    H512955   2.808   3.534  16.323  0.4760  1.2585  1.8252
  883MPD2    N112956   2.496   3.464  15.977 -1.0579  0.6413  0.5772
  883MPD2    H712957   2.549   3.550  15.968  0.6872 -0.4325  0.6957
  884MPD2     C12958   4.650   3.900  15.706 -0.0377  0.3804  0.5881
  884MPD2    C112959   4.669   3.995  15.605  0.8432 -0.0769 -0.4882
  884MPD2    C212960   4.582   3.996  15.498  0.0113 -1.0642 -0.1972
  884MPD2    C312961   4.473   3.912  15.492 -0.2320  0.0639 -0.4367
  884MPD2    C412962   4.441   3.833  15.599  0.0469  0.2287  1.1029
  884MPD2    C512963   4.536   3.826  15.702 -0.0453  0.3593  0.0585
  884MPD2     H12964   4.607   4.070  15.423 -3.0904 -0.5203 -0.6823
  884MPD2    H112965   4.351   3.772  15.604 -0.5668  1.0571  0.0159
  884MPD2    H212966   4.709   3.901  15.797 -0.4974 -1.0707  0.9025
  884MPD2    H312967   4.523   3.761  15.789  1.8224 -2.4230 -1.7435
  884MPD2     N12968   4.394   3.929  15.375  0.8037 -0.2090  0.1100
  884MPD2    H512969   4.436   3.979  15.297  1.8114 -0.2063  0.6434
  884MPD2    N112970   0.053   4.087  15.605 -0.7779  0.1420 -0.4828
  884MPD2    H712971   0.057   4.154  15.529 -0.3401 -0.5642 -1.0836
  885MPD2     C12972   2.368   4.678   0.063 -0.2340  0.6508 -0.4764
  885MPD2    C112973   2.375   4.564  17.669 -0.6560 -0.2626 -0.8697
  885MPD2    C212974   2.372   4.585  17.528  0.4154  0.0867  0.2551
  885MPD2    C312975   2.371   4.714  17.475  0.2016 -0.6609 -0.5144
  885MPD2    C412976   2.371   0.108  17.556  0.2030 -0.0159 -0.2270
  885MPD2    C512977   2.366   0.083   0.011 -0.3844 -0.3862 -0.3825
  885MPD2     H12978   2.372   4.496  17.466  2.5990  0.8259 -0.8104
  885MPD2    H112979   2.370   0.212  17.524 -3.0795  0.6135  1.9885
  885MPD2    H212980   2.365   4.672   0.172 -0.2931  1.6938 -0.4183
  885MPD2    H312981   2.363   0.162   0.086 -1.5725 -0.4447 -0.3559
  885MPD2     N12982   2.380   4.719  17.333 -0.0721  0.3303 -0.6419
  885MPD2    H512983   2.386   4.632  17.280 -1.7716 -1.4653  2.0869
  885MPD2    N112984   2.370   4.441   0.059  0.5051  0.7139 -0.1514
  885MPD2    H712985   2.389   4.440   0.158 -2.6275 -0.5338  0.4363
  886MPD2     C12986   4.015   2.311  15.193  0.2457 -0.2002 -0.0773
  886MPD2    C112987   4.113   2.366  15.269  0.4316 -0.1763 -0.5068
  886MPD2    C212988   4.157   2.492  15.242  0.1430 -0.0486  0.1093
  886MPD2    C312989   4.084   2.576  15.158  0.6525 -0.3301  0.0074
  886MPD2    C412990   3.985   2.516  15.085  0.3674 -0.3113  0.4237
  886MPD2    C512991   3.952   2.387  15.109  0.2824 -0.2225 -0.3805
  886MPD2     H12992   4.239   2.531  15.301  0.3196  0.2140 -0.3076
  886MPD2    H112993   3.929   2.566  15.008  1.7928  1.8810  0.8101
  886MPD2    H212994   3.963   2.219  15.217 -1.3223  0.3063 -1.6065
  886MPD2    H312995   3.880   2.335  15.046  0.6436 -2.3047  0.9185
  886MPD2     N12996   4.119   2.707  15.124  0.6445  0.2020  0.3959
  886MPD2    H512997   4.068   2.753  15.049  3.7478  1.9237 -0.6373
  886MPD2    N112998   4.179   2.276  15.357  0.0951  0.0550 -0.1704
  886MPD2    H712999   4.243   2.321  15.421  0.6847 -1.2428  0.1510
  887MPD2     C13000   4.563   2.358  15.952 -0.3002  0.2151 -0.7794
  887MPD2    C113001   4.463   2.398  15.866 -0.6668 -0.5952  0.2180
  887MPD2    C213002   4.412   2.527  15.859  0.1819 -0.7901  0.9067
  887MPD2    C313003   4.467   2.622  15.951 -0.1268 -0.9460  0.3149
  887MPD2    C413004   4.563   2.575  16.039  0.2133  0.0409  0.1193
  887MPD2    C513005   4.613   2.451  16.038  0.2703 -0.3032 -0.1671
  887MPD2     H13006   4.333   2.545  15.786  0.3815  1.9624  1.3695
  887MPD2    H113007   4.598   2.643  16.116  0.2947 -0.9907  0.9958
  887MPD2    H213008   4.606   2.259  15.951 -1.5876 -0.3571 -0.0137
  887MPD2    H313009   4.697   2.424  16.102 -0.3168 -0.2477  0.6228
  887MPD2     N13010   4.401   2.746  15.962 -0.0419 -1.0183  0.2882
  887MPD2    H513011   4.320   2.764  15.905  1.8353  1.3168 -1.6236
  887MPD2    N113012   4.401   2.307  15.782 -0.3064  0.1463 -0.9599
  887MPD2    H713013   4.331   2.346  15.719 -0.0804 -0.6685 -1.7060
  888MPD2     C13014   2.071   2.763  14.831  0.1817 -0.2209  0.8098
  888MPD2    C113015   2.026   2.812  14.951 -0.6521  0.2887  0.4974
  888MPD2    C213016   2.028   2.952  14.971  0.1182  0.1295  0.3349
  888MPD2    C313017   2.092   3.037  14.880  0.0712 -0.2657  0.1074
  888MPD2    C413018   2.154   2.973  14.770 -0.2173  0.1009  0.3069
  888MPD2    C513019   2.142   2.837  14.744 -0.3745  0.7619  0.2030
  888MPD2     H13020   1.974   2.992  15.056 -0.2710  2.1138 -0.8387
  888MPD2    H113021   2.204   3.033  14.695 -2.5886  2.0065  0.2307
  888MPD2    H213022   2.083   2.656  14.818  0.4025  0.1538 -1.9747
  888MPD2    H313023   2.194   2.797  14.658  0.4385  3.0522 -0.3627
  888MPD2     N13024   2.099   3.179  14.897  0.0919  0.1637  0.2916
  888MPD2    H513025   2.059   3.219  14.982  1.3332  1.6497  0.1861
  888MPD2    N113026   1.960   2.740  15.051 -0.2346  0.1808 -0.0872
  888MPD2    H713027   1.910   2.798  15.116  0.4727  1.9435 -1.1228
  889MPD2     C13028   1.479   2.420  12.607 -0.0549 -0.3690  0.4659
  889MPD2    C113029   1.445   2.387  12.736 -0.2237  0.3137 -0.0535
  889MPD2    C213030   1.458   2.480  12.832  0.0357 -0.4281  0.3664
  889MPD2    C313031   1.492   2.609  12.808 -0.4696 -0.0266  0.0965
  889MPD2    C413032   1.513   2.645  12.678 -0.8021 -0.2998  0.0490
  889MPD2    C513033   1.517   2.551  12.581  0.5753 -0.1377 -0.3006
  889MPD2     H13034   1.422   2.455  12.932 -1.1104  0.9955  0.3082
  889MPD2    H113035   1.545   2.746  12.653 -0.3779 -0.4616 -0.0672
  889MPD2    H213036   1.508   2.341  12.539 -1.6340 -0.7240  0.1884
  889MPD2    H313037   1.566   2.570  12.486  1.1169 -1.7280 -0.3327
  889MPD2     N13038   1.498   2.698  12.917  0.2181 -0.1842  0.7084
  889MPD2    H513039   1.517   2.653  13.006  0.7940 -1.9723 -0.3155
  889MPD2    N113040   1.432   2.251  12.770  0.1005 -0.3009 -0.1260
  889MPD2    H713041   1.443   2.213  12.863  0.6091 -1.7935 -0.7985
  890MPD2     C13042   0.798   3.725  14.996  0.2683  0.6359  0.0631
  890MPD2    C113043   0.670   3.765  15.034  0.3694  0.4795  0.0853
  890MPD2    C213044   0.625   3.733  15.161 -0.0353 -0.3182  0.1350
  890MPD2    C313045   0.708   3.664  15.249  0.2245 -0.8714  0.0850
  890MPD2    C413046   0.839   3.640  15.217  0.1444 -0.2848 -0.8774
  890MPD2    C513047   0.880   3.674  15.089 -0.1414  0.2803 -0.3456
  890MPD2     H13048   0.523   3.752  15.191  0.6022  1.2935  1.3089
  890MPD2    H113049   0.920   3.613  15.285 -0.5763  0.1805  0.1699
  890MPD2    H213050   0.828   3.741  14.893 -0.0305 -0.4773 -0.1882
  890MPD2    H313051   0.978   3.644  15.054  0.4983  0.0972  1.5942
  890MPD2     N13052   0.653   3.638  15.375 -0.2934  0.4444 -0.2636
  890MPD2    H513053   0.556   3.668  15.382 -0.7250 -1.2107  0.6844
  890MPD2    N113054   0.589   3.838  14.941  0.4934  0.0129 -0.1870
  890MPD2    H713055   0.640   3.878  14.862 -0.0096 -0.4147 -0.7300
  891MPD2     C13056   3.083   2.505  16.677 -0.2257  0.8049 -0.3383
  891MPD2    C113057   3.107   2.557  16.549 -0.2876 -0.3751  0.5634
  891MPD2    C213058   3.233   2.615  16.530 -0.1719  0.8152  0.0605
  891MPD2    C313059   3.334   2.606  16.625  0.2401  0.1211 -0.3339
  891MPD2    C413060   3.305   2.531  16.742  0.4176 -0.0842 -0.3060
  891MPD2    C513061   3.180   2.481  16.760 -0.3304  0.3963  0.2454
  891MPD2     H13062   3.250   2.659  16.433 -1.8921 -0.4480 -0.8147
  891MPD2    H113063   3.381   2.514  16.817  0.3998 -0.4970 -0.3778
  891MPD2    H213064   2.981   2.478  16.703  0.4198  0.0784  1.3672
  891MPD2    H313065   3.158   2.443  16.860 -0.9993  0.0091 -0.0506
  891MPD2     N13066   3.462   2.661  16.605 -0.6316  0.5398  0.5398
  891MPD2    H513067   3.481   2.702  16.514  0.2174  0.1470  0.5438
  891MPD2    N113068   2.995   2.577  16.466  0.5650 -0.1347  0.0378
  891MPD2    H713069   2.911   2.525  16.489 -0.9409  1.9015 -0.7902
  892MPD2     C13070   0.011   3.424  14.766  0.0683  0.4240  0.3905
  892MPD2    C113071   4.629   3.366  14.692 -0.2399 -0.1125 -0.0784
  892MPD2    C213072   4.651   3.276  14.590 -0.5754 -0.5236 -0.0621
  892MPD2    C313073   0.065   3.238  14.568 -1.0071 -0.2309  0.5463
  892MPD2    C413074   0.168   3.299  14.631 -0.0809 -0.1259  0.5474
  892MPD2    C513075   0.139   3.399  14.726 -0.0084 -0.1156 -0.2463
  892MPD2     H13076   4.566   3.240  14.532 -1.9102  0.1566  1.4624
  892MPD2    H113077   0.270   3.267  14.616  0.5984  1.0850  2.5418
  892MPD2    H213078   4.709   3.508  14.830 -1.0994 -1.0989  1.9835
  892MPD2    H313079   0.221   3.456  14.769 -1.7120  1.8772  0.3320
  892MPD2     N13080   0.100   3.140  14.477 -0.0674  0.1844 -0.2778
  892MPD2    H513081   0.199   3.123  14.465 -0.4343 -1.4166 -1.0919
  892MPD2    N113082   4.493   3.394  14.731  0.5338 -0.0035  0.0136
  892MPD2    H713083   4.423   3.350  14.672  1.0762 -0.8230 -0.0155
  893MPD2     C13084   0.673   1.797   1.001  0.4979 -0.2585 -0.1742
  893MPD2    C113085   0.690   1.742   1.131 -0.1518 -0.8120 -0.5999
  893MPD2    C213086   0.576   1.714   1.202  0.1230  0.1574 -0.3350
  893MPD2    C313087   0.446   1.730   1.145  0.6060  0.6250 -0.2596
  893MPD2    C413088   0.437   1.788   1.027  0.3070 -0.4024  0.1085
  893MPD2    C513089   0.548   1.816   0.954  0.1073 -0.0454  0.1492
  893MPD2     H13090   0.593   1.666   1.298 -0.1667  1.6647  0.4647
  893MPD2    H113091   0.340   1.805   0.981  1.1176  1.2599 -1.0116
  893MPD2    H213092   0.758   1.824   0.939 -1.2527  0.4624 -2.2772
  893MPD2    H313093   0.526   1.856   0.856  0.8566 -0.1725 -0.0731
  893MPD2     N13094   0.330   1.687   1.202 -0.4168  0.7955  0.4663
  893MPD2    H513095   0.243   1.720   1.161  1.2139  1.3408 -2.6116
  893MPD2    N113096   0.824   1.705   1.161 -0.4593 -0.2537 -0.0555
  893MPD2    H713097   0.894   1.748   1.101  0.7755 -1.3806  0.5727
  894MPD2     C13098   3.676   4.566   1.045 -0.2473 -0.6982  1.0093
  894MPD2    C113099   3.711   4.546   1.175 -0.5306 -0.2669 -0.9352
  894MPD2    C213100   3.841   4.494   1.199 -0.1226  1.1776  0.1505
  894MPD2    C313101   3.928   4.463   1.095  0.3877  0.0645  0.5755
  894MPD2    C413102   3.890   4.494   0.963 -0.3903 -0.1985  0.9121
  894MPD2    C513103   3.763   4.545   0.942  0.1234 -0.2039  0.6194
  894MPD2     H13104   3.873   4.494   1.303  0.6193 -0.1565 -0.0816
  894MPD2    H113105   3.954   4.486   0.876 -1.1034 -0.6420  0.4327
  894MPD2    H213106   3.578   4.603   1.017  0.4526 -0.0717 -0.5997
  894MPD2    H313107   3.724   4.571   0.844  1.3631  2.2609  0.7782
  894MPD2     N13108   4.058   4.418   1.129  0.3283 -0.3328  0.1160
  894MPD2    H513109   4.087   4.411   1.226  0.0594  0.2329  0.2443
  894MPD2    N113110   3.620   4.574   1.284  0.0995  0.0996  0.6233
  894MPD2    H713111   3.662   4.570   1.377 -2.4401  1.9026  1.8412
  895MPD2     C13112   3.276   2.647  13.465 -0.1723  0.1361 -0.6935
  895MPD2    C113113   3.217   2.603  13.350 -0.1760 -0.2163 -0.5605
  895MPD2    C213114   3.284   2.506  13.271  0.7799 -0.2432 -0.0270
  895MPD2    C313115   3.406   2.460  13.312 -0.5699 -0.0743 -0.2214
  895MPD2    C413116   3.464   2.514  13.424 -0.2577 -0.4806 -0.2668
  895MPD2    C513117   3.402   2.614  13.499  0.3780  0.3663  0.0598
  895MPD2     H13118   3.229   2.457  13.191  2.2104  1.1289 -1.8538
  895MPD2    H113119   3.562   2.486  13.460 -0.5489 -0.2151  0.7282
  895MPD2    H213120   3.230   2.728  13.520  1.4595  1.5554 -1.3870
  895MPD2    H313121   3.440   2.648  13.595 -0.6568 -0.3339  0.7043
  895MPD2     N13122   3.480   2.356  13.243  0.0197 -0.1966  0.0467
  895MPD2    H513123   3.562   2.319  13.290  0.1725  0.6938  0.4800
  895MPD2    N113124   3.084   2.637  13.317 -0.3121 -0.9380  0.2533
  895MPD2    H713125   3.059   2.614  13.221  0.3458 -3.5874  0.6972
  896MPD2     C13126   0.785   0.497   2.129 -0.2181 -0.5583 -0.0951
  896MPD2    C113127   0.820   0.435   2.011  0.3949 -0.4907 -0.8191
  896MPD2    C213128   0.736   0.327   1.976 -0.4260  0.1630 -0.0854
  896MPD2    C313129   0.617   0.287   2.044 -0.7927 -0.0433 -0.3974
  896MPD2    C413130   0.583   0.357   2.159 -0.2407 -0.3491  0.0963
  896MPD2    C513131   0.672   0.459   2.196 -0.0939  0.1642 -0.3427
  896MPD2     H13132   0.761   0.262   1.893  0.7865 -0.0199  0.4237
  896MPD2    H113133   0.505   0.333   2.230 -1.3683 -2.7991 -1.9616
  896MPD2    H213134   0.858   0.568   2.166  1.1912 -2.2307  0.3330
  896MPD2    H313135   0.631   0.510   2.282 -2.1439  1.4126 -2.0512
  896MPD2     N13136   0.553   0.164   2.003  0.2558 -0.1539  0.3970
  896MPD2    H513137   0.594   0.125   1.919  0.2854  1.3405 -0.2721
  896MPD2    N113138   0.940   0.472   1.944 -0.5888  0.6298  0.2103
  896MPD2    H713139   1.003   0.540   1.985  0.6184 -0.6409  0.4763
  897MPD2     C13140   2.814   2.271  10.129  0.3611  0.4587  0.2638
  897MPD2    C113141   2.687   2.269  10.089  0.3674 -0.2203 -0.1971
  897MPD2    C213142   2.602   2.184  10.161 -0.0233 -1.0095 -0.5401
  897MPD2    C313143   2.639   2.130  10.287  0.0239 -0.5024  0.2195
  897MPD2    C413144   2.768   2.127  10.317 -0.6664  0.1560  0.9170
  897MPD2    C513145   2.857   2.200  10.239 -0.4971  0.2031  0.6549
  897MPD2     H13146   2.497   2.182  10.133 -0.6501  2.0231  1.5865
  897MPD2    H113147   2.806   2.091  10.412 -0.0813 -0.8236  0.3145
  897MPD2    H213148   2.888   2.333  10.080  1.0805  0.4429  1.3278
  897MPD2    H313149   2.960   2.200  10.272 -0.6348 -0.2301  1.0825
  897MPD2     N13150   2.533   2.075  10.365  0.2183  0.0407  0.7632
  897MPD2    H513151   2.439   2.095  10.332  0.5468 -2.0420 -1.3862
  897MPD2    N113152   2.647   2.345   9.973  0.3602 -0.3849 -0.5749
  897MPD2    H713153   2.724   2.400   9.936  0.8295 -0.6623 -0.0094
  898MPD2     C13154   3.963   2.815   0.007 -0.6849 -0.1969  0.7689
  898MPD2    C113155   4.071   2.896  17.678 -0.3655  0.1492 -0.5123
  898MPD2    C213156   4.058   3.036   0.027  1.3370 -0.0655  1.0373
  898MPD2    C313157   3.935   3.091   0.059 -0.0883 -0.0938  0.5265
  898MPD2    C413158   3.826   3.001   0.075 -0.1207 -0.0187 -0.5629
  898MPD2    C513159   3.844   2.865   0.044  0.4961  0.3573 -0.7820
  898MPD2     H13160   4.141   3.105   0.015  0.6471  0.2829 -1.7634
  898MPD2    H113161   3.730   3.029   0.118 -0.9941 -1.9760 -1.2123
  898MPD2    H213162   3.968   2.709  17.667 -0.2135 -0.0172 -0.1163
  898MPD2    H313163   3.767   2.788   0.049  0.1122  0.8106  0.5278
  898MPD2     N13164   3.928   3.230   0.073  0.1261 -0.0141  0.2500
  898MPD2    H513165   4.009   3.287   0.054  0.7704 -0.7683  0.7543
  898MPD2    N113166   4.203   2.847  17.643  0.3108 -0.0415 -0.0565
  898MPD2    H713167   4.284   2.906  17.659 -0.1553  0.4288  0.5740
  899MPD2     C13168   0.334   3.779  17.646 -0.4529  0.8050  0.2313
  899MPD2    C113169   0.342   3.857   0.080 -0.2340  0.1125  0.7637
  899MPD2    C213170   0.322   3.799   0.203 -0.1034  0.8731 -0.3319
  899MPD2    C313171   0.271   3.675   0.209 -0.6527 -0.2438  0.2396
  899MPD2    C413172   0.256   3.598   0.102  0.3198  0.3180 -0.0809
  899MPD2    C513173   0.301   3.642  17.661  0.2905 -0.3003 -0.4170
  899MPD2     H13174   0.336   3.851   0.297 -2.3419  1.7264 -0.4841
  899MPD2    H113175   0.219   3.497   0.112  0.4463  0.3039  0.2342
  899MPD2    H213176   0.360   3.817  17.547  0.7066  0.5350  0.4276
  899MPD2    H313177   0.294   3.586  17.569 -0.2792 -0.5894 -0.1961
  899MPD2     N13178   0.230   3.628   0.335  0.1953 -0.1026 -0.2704
  899MPD2    H513179   0.243   3.691   0.413 -2.3191 -1.3704  1.1901
  899MPD2    N113180   0.379   3.990   0.058  0.4866 -0.5487 -0.1423
  899MPD2    H713181   0.414   4.007  17.644  0.1196  1.7777  0.1524
  900MPD2     C13182   0.305   0.518  12.488  0.0087 -0.2020 -0.2012
  900MPD2    C113183   0.208   0.428  12.476 -0.5879  0.6114 -0.1819
  900MPD2    C213184   0.077   0.472  12.450 -0.2440 -0.2473 -0.1939
  900MPD2    C313185   0.057   0.606  12.420  1.1341 -0.2416  0.2925
  900MPD2    C413186   0.153   0.695  12.436 -0.2733 -0.9430  0.0437
  900MPD2    C513187   0.275   0.648  12.465  0.0323 -0.2792  0.5469
  900MPD2     H13188   4.710   0.406  12.452 -0.8407  0.6271  2.7612
  900MPD2    H113189   0.147   0.803  12.431 -1.2485 -1.0759 -1.5066
  900MPD2    H213190   0.411   0.498  12.503  0.0706 -0.3768 -0.8732
  900MPD2    H313191   0.363   0.711  12.462  0.4036 -0.8475 -0.2715
  900MPD2     N13192   4.642   0.626  12.382  0.2504 -0.4098 -0.4549
  900MPD2    H513193   4.575   0.552  12.399  0.2162 -1.2153 -3.9257
  900MPD2    N113194   0.242   0.292  12.477  0.1136 -0.3247  0.0892
  900MPD2    H713195   0.342   0.274  12.474 -0.3253 -2.6897 -0.5944
  901MPD2     C13196   0.004   3.947  12.704 -0.0232 -0.3549 -0.9822
  901MPD2    C113197   0.138   3.956  12.671 -0.0552  0.8055  0.4955
  901MPD2    C213198   0.184   4.081  12.631  0.5308  0.7454  0.0695
  901MPD2    C313199   0.096   4.192  12.615  0.3320  0.5644  0.6449
  901MPD2    C413200   4.681   4.173  12.651  0.2814  0.5465  0.5752
  901MPD2    C513201   4.636   4.050  12.690  0.3787  0.0957  0.0685
  901MPD2     H13202   0.290   4.096  12.617  0.9602  0.1245  2.6720
  901MPD2    H113203   4.604   4.248  12.640 -1.1466 -1.0765 -0.5292
  901MPD2    H213204   4.692   3.854  12.750  0.6146  0.6425  1.4833
  901MPD2    H313205   4.531   4.033  12.712  0.2249  0.4919 -0.3572
  901MPD2     N13206   0.154   4.318  12.571  0.5000 -0.4510 -0.0225
  901MPD2    H513207   0.253   4.306  12.553  0.5844 -0.8385  0.6971
  901MPD2    N113208   0.225   3.847  12.690  0.1069 -0.0324  0.1437
  901MPD2    H713209   0.188   3.767  12.741  2.7446 -0.2695  1.7367
  902MPD2     C13210   3.612   2.530  12.805  0.1896 -0.2374  0.0892
  902MPD2    C113211   3.650   2.657  12.765 -0.3463  0.6954  0.3761
  902MPD2    C213212   3.741   2.675  12.665  0.0404 -0.2352 -0.0565
  902MPD2    C313213   3.809   2.569  12.606  0.0080  0.3481 -0.4162
  902MPD2    C413214   3.782   2.444  12.655  0.2741  0.2903 -0.1701
  902MPD2    C513215   3.688   2.424  12.751  0.5870  0.3867  0.5539
  902MPD2     H13216   3.766   2.774  12.630  1.8240  0.2420  2.5722
  902MPD2    H113217   3.826   2.351  12.620 -2.0633 -1.2940  1.0840
  902MPD2    H213218   3.528   2.517  12.872  1.3664  0.0560  1.6301
  902MPD2    H313219   3.654   2.324  12.777 -0.9630  1.1223  1.3184
  902MPD2     N13220   3.916   2.583  12.508  0.5456 -0.2929  0.4597
  902MPD2    H513221   3.978   2.505  12.492  0.5210 -0.2917  0.3578
  902MPD2    N113222   3.577   2.767  12.808 -0.1856 -0.0312 -0.4591
  902MPD2    H713223   3.487   2.754  12.853 -0.2857  1.7146 -0.1666
  903MPD2     C13224   4.223   3.340  12.327  0.4557 -0.9390 -0.0622
  903MPD2    C113225   4.142   3.250  12.265  0.5383  1.0173 -0.1766
  903MPD2    C213226   4.030   3.293  12.198 -0.3675 -0.0925  0.8892
  903MPD2    C313227   4.024   3.430  12.168 -0.3232 -0.6630 -0.4657
  903MPD2    C413228   4.117   3.519  12.214 -0.3484  0.2889  1.0891
  903MPD2    C513229   4.206   3.470  12.309 -0.3398 -0.8927  0.9582
  903MPD2     H13230   3.949   3.224  12.177 -0.0171 -0.2224 -0.0204
  903MPD2    H113231   4.126   3.625  12.192  0.7022  0.3991  2.0182
  903MPD2    H213232   4.312   3.313  12.383  2.3809  1.8702 -1.7461
  903MPD2    H313233   4.273   3.545  12.350 -0.6389 -0.9780  1.6074
  903MPD2     N13234   3.915   3.482  12.092  0.3311 -0.1474  0.4062
  903MPD2    H513235   3.896   3.582  12.093  0.5146 -0.0796 -1.4546
  903MPD2    N113236   4.156   3.111  12.273  0.4335 -0.1830 -0.7307
  903MPD2    H713237   4.086   3.058  12.222  1.3642  0.2774 -2.5091
  904MPD2     C13238   3.982   2.246  13.522  0.4042 -0.2417  0.8905
  904MPD2    C113239   3.954   2.154  13.619 -0.6333 -0.1290  0.7699
  904MPD2    C213240   4.057   2.113  13.700  0.0519 -0.5002  0.4287
  904MPD2    C313241   4.189   2.172  13.692  0.0620  0.5040  0.8499
  904MPD2    C413242   4.209   2.271  13.600  0.3206  0.4465 -0.7481
  904MPD2    C513243   4.110   2.305  13.515  0.2975 -0.1025  0.0935
  904MPD2     H13244   4.043   2.037  13.777 -0.3682 -0.8845 -0.0262
  904MPD2    H113245   4.300   2.326  13.579  1.3331 -0.9182  0.0875
  904MPD2    H213246   3.909   2.284  13.452 -0.1023 -2.5335  0.1919
  904MPD2    H313247   4.133   2.365  13.428 -1.5599  1.5449  0.7476
  904MPD2     N13248   4.288   2.129  13.789 -0.8183  0.1456  0.0954
  904MPD2    H513249   4.261   2.074  13.870  0.2398  2.1848  1.8216
  904MPD2    N113250   3.832   2.096  13.651  0.7183 -0.5482 -0.5436
  904MPD2    H713251   3.827   2.039  13.735  0.1340 -1.5863 -1.2972
  905MPD2     C13252   3.108   2.223  13.320  0.1444  0.2335  0.4053
  905MPD2    C113253   3.209   2.130  13.343  0.4690 -1.1267 -0.5816
  905MPD2    C213254   3.257   2.061  13.233 -0.0341  0.2753 -0.0757
  905MPD2    C313255   3.226   2.090  13.099  0.2836  0.6468  0.5141
  905MPD2    C413256   3.135   2.193  13.079  1.0764  0.0200  1.1260
  905MPD2    C513257   3.081   2.259  13.190 -0.0484  0.3738 -0.2926
  905MPD2     H13258   3.330   1.982  13.245  0.3603  0.7769  0.7593
  905MPD2    H113259   3.119   2.227  12.978 -2.5281  0.7500  1.9369
  905MPD2    H213260   3.058   2.274  13.402 -0.5885 -1.2266  0.8627
  905MPD2    H313261   3.013   2.342  13.176 -0.6197 -0.5258 -2.8782
  905MPD2     N13262   3.297   2.037  12.990 -0.0433 -0.0768  0.3323
  905MPD2    H513263   3.281   2.076  12.898  0.8496  2.7692  1.3722
  905MPD2    N113264   3.267   2.101  13.463  0.2569 -0.3326 -0.0134
  905MPD2    H713265   3.348   2.040  13.456  1.2677  1.2953 -2.6039
  906MPD2     C13266   1.363   2.522  11.060 -0.7792  0.2671  0.0140
  906MPD2    C113267   1.338   2.408  10.993 -1.0003 -0.2119  0.2410
  906MPD2    C213268   1.319   2.290  11.069 -1.2919 -0.1196  0.3558
  906MPD2    C313269   1.324   2.285  11.210 -0.3495  0.5584 -0.7417
  906MPD2    C413270   1.341   2.404  11.273 -0.5881 -0.0803  0.3147
  906MPD2    C513271   1.368   2.522  11.196 -0.3442  0.0770  0.4973
  906MPD2     H13272   1.317   2.196  11.015  2.6737 -0.3349  0.5461
  906MPD2    H113273   1.348   2.404  11.381  1.5283 -0.5812  0.1806
  906MPD2    H213274   1.386   2.617  11.013 -0.8515  0.0657 -0.4254
  906MPD2    H313275   1.398   2.612  11.249  2.3948 -0.5837  0.0808
  906MPD2     N13276   1.316   2.167  11.284 -0.6190  0.1547 -0.3600
  906MPD2    H513277   1.291   2.168  11.383  0.5861 -0.8194 -0.0540
  906MPD2    N113278   1.333   2.403  10.856  0.6037 -0.0227 -0.4608
  906MPD2    H713279   1.298   2.321  10.808  1.4348 -1.0166  0.6250
  907MPD2     C13280   4.173   1.352  16.053  0.0044 -0.2288 -0.7354
  907MPD2    C113281   4.230   1.230  16.043  0.1077 -0.3349 -0.1543
  907MPD2    C213282   4.320   1.190  16.147  0.2424 -0.1232 -0.3132
  907MPD2    C313283   4.340   1.269  16.256  0.0375  0.0174  0.3673
  907MPD2    C413284   4.277   1.388  16.265  0.1533  0.3811  0.5690
  907MPD2    C513285   4.191   1.427  16.167 -0.3515  0.3915 -0.2459
  907MPD2     H13286   4.372   1.096  16.135  0.7628 -0.1214  1.9847
  907MPD2    H113287   4.277   1.449  16.355  0.1732 -1.3963  1.7731
  907MPD2    H213288   4.096   1.386  15.984 -1.4228 -0.6926  0.6278
  907MPD2    H313289   4.125   1.512  16.180  0.3751  1.4038 -3.2143
  907MPD2     N13290   4.414   1.224  16.366  0.0126  0.0937 -0.4628
  907MPD2    H513291   4.470   1.142  16.346  0.5819 -0.2069  2.3624
  907MPD2    N113292   4.193   1.146  15.941 -0.1588  0.1513  0.3774
  907MPD2    H713293   4.259   1.070  15.930 -0.2397  0.1013  0.2304
  908MPD2     C13294   1.890   2.219   9.322  0.7130  0.0176  0.3483
  908MPD2    C113295   2.001   2.145   9.353 -0.2434  0.2142 -0.5701
  908MPD2    C213296   2.112   2.206   9.415 -0.0431 -0.1376  0.0262
  908MPD2    C313297   2.109   2.337   9.463  0.5928 -0.2517 -0.6714
  908MPD2    C413298   1.995   2.404   9.430 -0.0542  0.1364 -0.3268
  908MPD2    C513299   1.884   2.346   9.365 -0.4138  0.2452 -0.3605
  908MPD2     H13300   2.194   2.138   9.434 -1.3177 -1.8687 -0.6704
  908MPD2    H113301   1.978   2.506   9.464 -1.7722  0.1867 -1.3395
  908MPD2    H213302   1.811   2.163   9.273 -1.9395  2.3478  1.9139
  908MPD2    H313303   1.790   2.401   9.362 -1.2058 -1.2194 -2.2216
  908MPD2     N13304   2.209   2.386   9.548  0.0797 -0.0509 -0.1047
  908MPD2    H513305   2.287   2.321   9.541  0.2366  0.1448 -0.1992
  908MPD2    N113306   2.019   2.014   9.307 -0.7870 -0.8965  0.1507
  908MPD2    H713307   2.111   1.975   9.327 -0.2788 -0.9010 -2.2800
  909MPD2     C13308   2.833   0.121  11.843  0.0549 -0.0390  0.1155
  909MPD2    C113309   2.808   0.208  11.739 -0.0854 -0.6913 -0.0927
  909MPD2    C213310   2.692   0.282  11.739 -0.5841  0.1032 -0.0383
  909MPD2    C313311   2.605   0.278  11.847  0.7507 -0.3278 -0.8602
  909MPD2    C413312   2.624   0.188  11.946 -0.7094  0.4042  0.1167
  909MPD2    C513313   2.743   0.119  11.947  1.0486  0.7280 -0.3311
  909MPD2     H13314   2.681   0.358  11.662  3.2358  0.9659  0.2646
  909MPD2    H113315   2.557   0.176  12.030  1.7374 -2.8805  1.5780
  909MPD2    H213316   2.930   0.075  11.862  0.1745  0.4488  0.6972
  909MPD2    H313317   2.779   0.058  12.029 -0.4767 -0.8549 -0.8479
  909MPD2     N13318   2.492   0.357  11.839  0.5613 -0.2315 -0.1742
  909MPD2    H513319   2.486   0.419  11.759  2.1192 -0.7525 -0.6828
  909MPD2    N113320   2.902   0.224  11.629 -0.3718  0.1874  0.2796
  909MPD2    H713321   2.886   0.296  11.559 -3.0915 -0.6515  0.0029
  910MPD2     C13322   3.619   1.540  15.885 -0.3823 -0.6218  0.0452
  910MPD2    C113323   3.718   1.449  15.862 -0.0113  0.0428  0.6102
  910MPD2    C213324   3.750   1.418  15.731 -1.2884  0.6454 -0.1281
  910MPD2    C313325   3.686   1.473  15.624  0.4757  0.3911  0.2226
  910MPD2    C413326   3.581   1.559  15.644 -0.7141  0.0115 -0.1082
  910MPD2    C513327   3.546   1.589  15.779 -0.6791 -0.0161 -0.0476
  910MPD2     H13328   3.824   1.341  15.714 -0.3200  1.3386  0.9443
  910MPD2    H113329   3.522   1.591  15.560  2.5155 -0.3397 -2.4861
  910MPD2    H213330   3.590   1.563  15.987 -1.6230  1.7598 -0.8547
  910MPD2    H313331   3.467   1.657  15.809 -2.4177 -1.9962 -0.1712
  910MPD2     N13332   3.708   1.426  15.493 -0.9248  0.8047 -0.2878
  910MPD2    H513333   3.664   1.470  15.412 -2.1199  2.9768  1.5481
  910MPD2    N113334   3.791   1.391  15.971 -0.3673  0.0222 -0.3418
  910MPD2    H713335   3.867   1.329  15.943  0.0453 -0.6944  2.3690
  911MPD2     C13336   1.417   2.019  16.328 -0.0228  0.8316  0.8910
  911MPD2    C113337   1.498   2.128  16.360 -0.1706  0.5085 -0.2579
  911MPD2    C213338   1.454   2.256  16.327  0.1659  0.1315  0.5698
  911MPD2    C313339   1.342   2.274  16.252 -0.3440 -0.2476  0.1864
  911MPD2    C413340   1.268   2.166  16.213 -0.2087  0.3161 -0.1246
  911MPD2    C513341   1.305   2.042  16.252  0.2527  0.0181  0.0683
  911MPD2     H13342   1.507   2.338  16.373 -3.6033  2.1083  1.3420
  911MPD2    H113343   1.188   2.173  16.140  1.8093  1.2814 -2.2622
  911MPD2    H213344   1.441   1.914  16.344  0.1742  0.7641  0.1661
  911MPD2    H313345   1.240   1.960  16.224  1.0323 -0.4356 -0.3914
  911MPD2     N13346   1.302   2.397  16.195  0.3109  0.5011  0.1551
  911MPD2    H513347   1.215   2.402  16.143 -1.1824 -1.5427  2.4570
  911MPD2    N113348   1.613   2.097  16.431 -0.5215  0.1407  0.1188
  911MPD2    H713349   1.627   1.996  16.439  0.5603  0.3169  0.5183
  912MPD2     C13350   0.969   2.436  15.552 -0.0283  0.2740  0.3926
  912MPD2    C113351   1.008   2.405  15.680 -0.5428  0.4715 -0.2837
  912MPD2    C213352   1.014   2.274  15.719 -0.2946  0.7028 -0.1285
  912MPD2    C313353   0.960   2.180  15.636 -1.0174  0.8479 -0.3671
  912MPD2    C413354   0.910   2.206  15.506 -0.7987  0.6991  0.4783
  912MPD2    C513355   0.924   2.337  15.468 -0.3623  0.2507  0.2548
  912MPD2     H13356   1.049   2.248  15.819  1.9646  0.1724 -1.0426
  912MPD2    H113357   0.873   2.135  15.432 -0.7681  0.4908  0.6613
  912MPD2    H213358   0.974   2.534  15.506 -1.9419 -0.1521 -0.7396
  912MPD2    H313359   0.907   2.359  15.363  0.7918 -2.8233 -0.5875
  912MPD2     N13360   0.951   2.046  15.690  0.2922  0.2319  0.1041
  912MPD2    H513361   0.970   2.034  15.789  1.7193  2.6251  0.1187
  912MPD2    N113362   1.040   2.504  15.770  0.6222 -0.3654 -0.7796
  912MPD2    H713363   1.032   2.598  15.733  1.7962 -0.1291 -0.4335
  913MPD2     C13364   1.832   4.343   9.736 -0.0654  0.0783 -0.2263
  913MPD2    C113365   1.901   4.453   9.772 -0.0522  0.3300  0.0063
  913MPD2    C213366   1.920   4.556   9.680  0.4889 -0.3435  0.2902
  913MPD2    C313367   1.842   4.562   9.563  0.3585  0.8160 -0.2032
  913MPD2    C413368   1.771   4.447   9.534 -0.2972  0.5631  0.2726
  913MPD2    C513369   1.768   4.345   9.620 -0.3752 -0.5148  0.3758
  913MPD2     H13370   1.969   4.647   9.715 -1.4600  0.4137  1.0232
  913MPD2    H113371   1.704   4.441   9.449  2.3587 -2.1313 -1.6237
  913MPD2    H213372   1.811   4.258   9.800 -3.3186  0.4654 -0.7910
  913MPD2    H313373   1.706   4.259   9.594  1.3042 -1.7205  0.3953
  913MPD2     N13374   1.838   4.664   9.471 -0.4120  0.7991 -0.0701
  913MPD2    H513375   1.769   4.653   9.397 -0.2440  2.1618 -0.4381
  913MPD2    N113376   1.972   4.452   9.897 -0.0998  0.3007  0.1404
  913MPD2    H713377   1.946   4.374   9.957 -1.4975  0.4016 -0.3392
  914MPD2     C13378   0.047   3.805  12.007 -0.1175 -0.6540  0.1447
  914MPD2    C113379   0.078   3.895  12.106  0.3724 -0.2040 -0.5223
  914MPD2    C213380   0.152   3.844  12.220 -0.6095  0.0802  0.1558
  914MPD2    C313381   0.184   3.705  12.230  0.8651  1.0867 -0.1901
  914MPD2    C413382   0.140   3.621  12.129  1.4782  0.0478 -0.5499
  914MPD2    C513383   0.080   3.671  12.017 -0.1362 -0.3319  0.5934
  914MPD2     H13384   0.177   3.914  12.299 -1.1311  0.0046  0.3902
  914MPD2    H113385   0.154   3.513  12.127  1.0207 -0.0146 -0.4758
  914MPD2    H213386   4.716   3.834  11.916  1.7066  1.1803 -0.2654
  914MPD2    H313387   0.040   3.603  11.943 -3.2160 -0.4511  2.3563
  914MPD2     N13388   0.248   3.660  12.351 -0.0482  0.0194 -0.3164
  914MPD2    H513389   0.252   3.726  12.428  0.8612 -1.4880  0.9435
  914MPD2    N113390   0.061   4.033  12.080 -0.3109  0.4663 -0.5039
  914MPD2    H713391   0.031   4.058  11.987 -1.0027  0.8491 -0.1826
  915MPD2     C13392   2.739   3.961  15.461  0.6119  0.0333  0.2790
  915MPD2    C113393   2.701   4.095  15.455  0.6642  0.1710  0.4495
  915MPD2    C213394   2.686   4.170  15.575 -0.3183  0.1421 -0.3128
  915MPD2    C313395   2.717   4.105  15.695  0.2385 -0.1902 -0.2167
  915MPD2    C413396   2.765   3.978  15.698  0.8465 -0.4829  0.2466
  915MPD2    C513397   2.783   3.913  15.582  0.5569 -0.5817 -0.1306
  915MPD2     H13398   2.655   4.273  15.563  1.0794  0.3595 -2.2327
  915MPD2    H113399   2.809   3.937  15.789  0.3758  0.5595  0.9502
  915MPD2    H213400   2.732   3.903  15.370 -1.2696  0.5998  0.0566
  915MPD2    H313401   2.807   3.809  15.598  0.9278 -0.4557  0.1414
  915MPD2     N13402   2.692   4.185  15.809  0.4132 -0.2762  0.2032
  915MPD2    H513403   2.645   4.274  15.794  2.1091  1.0133  2.5247
  915MPD2    N113404   2.684   4.163  15.333 -0.2032  0.3176  0.2177
  915MPD2    H713405   2.703   4.098  15.256 -0.4759 -2.3752  2.4204
  916MPD2     C13406   0.556   2.251  15.861 -0.1605 -0.1341 -0.5947
  916MPD2    C113407   0.502   2.131  15.910  0.5821 -0.5288 -0.1062
  916MPD2    C213408   0.508   2.019  15.827 -0.6672 -0.2126 -0.3627
  916MPD2    C313409   0.548   2.041  15.693 -0.7859  0.1503  0.4493
  916MPD2    C413410   0.598   2.158  15.645 -0.2863  0.1827 -0.1582
  916MPD2    C513411   0.599   2.260  15.732 -0.4321  0.6164 -0.1600
  916MPD2     H13412   0.479   1.919  15.857 -0.1004 -0.7629 -1.6791
  916MPD2    H113413   0.639   2.176  15.546 -0.0595  2.0951  0.2826
  916MPD2    H213414   0.543   2.340  15.923  0.1701 -1.7163  1.7478
  916MPD2    H313415   0.620   2.353  15.681 -1.1591  0.7689 -0.1786
  916MPD2     N13416   0.533   1.921  15.616  0.5186  0.0783  1.1240
  916MPD2    H513417   0.503   1.837  15.664 -0.8615  0.2329  0.5314
  916MPD2    N113418   0.448   2.123  16.041 -0.4169 -0.1570 -0.4932
  916MPD2    H713419   0.450   2.207  16.098 -2.1463  0.0393 -0.7308
  917MPD2     C13420   1.262   4.572  11.007  0.2841 -0.3647 -0.8129
  917MPD2    C113421   1.318   4.633  11.115  0.7859 -0.8147 -0.7466
  917MPD2    C213422   1.381   0.037  11.114 -0.4212  0.3481  0.1204
  917MPD2    C313423   1.400   0.102  10.992  1.4297 -0.8379  0.1126
  917MPD2    C413424   1.368   0.031  10.877  0.1471  0.5563  0.0154
  917MPD2    C513425   1.296   4.635  10.894 -0.5395  0.2116  0.4087
  917MPD2     H13426   1.409   0.080  11.210  0.8694 -2.0076  0.8257
  917MPD2    H113427   1.401   0.060  10.778 -1.0914 -0.8632 -0.8026
  917MPD2    H213428   1.219   4.473  11.015  0.9749 -0.5100  1.1553
  917MPD2    H313429   1.281   4.579  10.803 -2.0981  1.0441  0.1634
  917MPD2     N13430   1.455   0.230  10.976 -0.0361  0.9565 -0.3188
  917MPD2    H513431   1.463   0.262  10.880  1.1647  0.7198 -0.2944
  917MPD2    N113432   1.302   4.568  11.236  0.4177  0.3295 -0.1177
  917MPD2    H713433   1.251   4.481  11.228  0.4698  0.5500 -2.5891
  918MPD2     C13434   1.706   4.675  12.152 -0.3830 -0.3308 -0.5426
  918MPD2    C113435   1.689   4.542  12.118 -0.9415  0.2809 -0.1463
  918MPD2    C213436   1.596   4.507  12.017 -0.4024  0.0626 -0.1679
  918MPD2    C313437   1.529   4.605  11.948  0.0221 -0.2210 -0.1953
  918MPD2    C413438   1.553   0.022  11.978 -0.1643  0.1185  0.2855
  918MPD2    C513439   1.636   0.049  12.081  0.1359  0.0920 -0.6220
  918MPD2     H13440   1.570   4.403  12.002 -2.6433  0.6864 -0.5758
  918MPD2    H113441   1.502   0.101  11.925  1.7289 -0.8069 -2.9707
  918MPD2    H213442   1.782   4.704  12.224 -0.3818  1.5179 -1.3051
  918MPD2    H313443   1.666   0.153  12.082 -0.8675  0.3686  0.3373
  918MPD2     N13444   1.440   4.575  11.844 -0.0137  0.2741 -0.0325
  918MPD2    H513445   1.393   4.650  11.794 -0.0285 -0.3428 -0.9423
  918MPD2    N113446   1.772   4.447  12.185 -0.3710 -0.1138  0.2854
  918MPD2    H713447   1.819   4.485  12.267 -1.1994 -0.3088  0.8500
  919MPD2     C13448   2.585   3.502  11.708  0.7334  0.4309  0.1513
  919MPD2    C113449   2.444   3.497  11.705 -0.1173  0.3455 -0.1761
  919MPD2    C213450   2.375   3.613  11.735 -0.2364  1.4178 -0.3541
  919MPD2    C313451   2.446   3.734  11.765  0.6507 -0.1343  0.2826
  919MPD2    C413452   2.581   3.741  11.751  0.1894 -0.3783 -0.2665
  919MPD2    C513453   2.648   3.621  11.731 -0.5417 -0.9166  0.2317
  919MPD2     H13454   2.268   3.608  11.746 -0.1969  0.0614 -0.5915
  919MPD2    H113455   2.646   3.821  11.783 -0.7301  0.0090  0.6212
  919MPD2    H213456   2.645   3.412  11.695 -0.4582  0.1522 -3.2030
  919MPD2    H313457   2.753   3.607  11.758 -0.8502 -2.0469  0.8224
  919MPD2     N13458   2.381   3.856  11.796  0.1335 -0.4934  0.4187
  919MPD2    H513459   2.448   3.930  11.782 -0.5619 -0.1090 -0.8437
  919MPD2    N113460   2.364   3.384  11.671 -0.3358  0.4496 -0.0963
  919MPD2    H713461   2.266   3.393  11.693 -0.0043 -0.3653  1.7189
  920MPD2     C13462   2.305   4.281  10.971  0.3215 -0.0185 -0.4878
  920MPD2    C113463   2.181   4.235  10.997 -0.2188 -0.2501 -0.6533
  920MPD2    C213464   2.144   4.204  11.131  0.6982  0.3003  0.2310
  920MPD2    C313465   2.232   4.226  11.241 -0.0739 -0.0650  0.2891
  920MPD2    C413466   2.355   4.278  11.208  0.0013 -0.4550 -0.6104
  920MPD2    C513467   2.388   4.308  11.076 -0.4059 -0.2626  0.6444
  920MPD2     H13468   2.042   4.171  11.145  0.1967  1.8483  0.2130
  920MPD2    H113469   2.420   4.296  11.293  0.8757 -0.1099 -1.3606
  920MPD2    H213470   2.343   4.314  10.875  0.9863  0.3094 -0.1146
  920MPD2    H313471   2.487   4.347  11.053  0.1702 -1.7422  0.5831
  920MPD2     N13472   2.186   4.188  11.370  0.2835  0.8716 -0.6960
  920MPD2    H513473   2.089   4.159  11.373 -0.2592  2.8142  0.9571
  920MPD2    N113474   2.091   4.216  10.896  0.1831  0.2132  0.5735
  920MPD2    H713475   2.013   4.157  10.923 -0.3348  0.9136  0.6042
  921MPD2     C13476   2.171   2.700  16.278 -0.9491  0.2843 -0.6478
  921MPD2    C113477   2.269   2.617  16.337  0.3493 -0.4895  0.6005
  921MPD2    C213478   2.235   2.539  16.442  0.4304  0.5813  0.6914
  921MPD2    C313479   2.102   2.524  16.470 -0.3051 -0.6807 -0.3264
  921MPD2    C413480   1.999   2.597  16.414 -0.1147 -0.3649  0.1393
  921MPD2    C513481   2.040   2.686  16.317 -0.0370 -0.3483  0.0452
  921MPD2     H13482   2.310   2.479  16.494  1.0815  0.3290 -0.5482
  921MPD2    H113483   1.898   2.581  16.451  1.2440  0.7854  4.2964
  921MPD2    H213484   2.195   2.767  16.196  0.7916 -0.3577 -0.6587
  921MPD2    H313485   1.965   2.744  16.264 -1.3005 -1.6950  0.3914
  921MPD2     N13486   2.059   2.423  16.563  0.1870  0.1204  0.2210
  921MPD2    H513487   1.962   2.436  16.588  0.3075  0.9781  0.2693
  921MPD2    N113488   2.399   2.619  16.284  0.0559 -0.4932  0.5196
  921MPD2    H713489   2.409   2.650  16.188 -0.5303  0.4252  0.7508
  922MPD2     C13490   3.269   0.215  17.205 -0.1744  0.0773  1.1206
  922MPD2    C113491   3.326   0.271  17.319 -0.0941  0.5937  0.4411
  922MPD2    C213492   3.260   0.250  17.443  0.3035  0.5159 -0.0137
  922MPD2    C313493   3.133   0.192  17.443  0.5375 -0.5009 -0.1064
  922MPD2    C413494   3.084   0.137  17.328 -0.5486 -0.3567 -0.1394
  922MPD2    C513495   3.149   0.150  17.211  0.6904  0.0546  0.2817
  922MPD2     H13496   3.309   0.294  17.529 -2.4532  0.9477  1.3328
  922MPD2    H113497   2.984   0.094  17.333  0.0658 -1.8533 -0.6131
  922MPD2    H213498   3.310   0.224  17.105 -0.0216  0.2409  1.1978
  922MPD2    H313499   3.104   0.097  17.128  2.5874 -1.8477  0.4677
  922MPD2     N13500   3.053   0.191  17.553 -0.1937 -0.0041  0.2209
  922MPD2    H513501   2.960   0.152  17.545  0.2660 -1.1529  0.4783
  922MPD2    N113502   3.455   0.332  17.317  0.2512 -1.4481  0.4856
  922MPD2    H713503   3.502   0.348  17.405 -1.5014  3.9343  0.4863
  923MPD2     C13504   0.191   1.794   8.716  0.2316 -0.4867 -0.2622
  923MPD2    C113505   0.189   1.891   8.815 -0.2460  0.4428  0.5762
  923MPD2    C213506   0.270   1.874   8.925  0.6905 -0.6956  0.3192
  923MPD2    C313507   0.367   1.782   8.922  0.8356 -0.2357 -0.8786
  923MPD2    C413508   0.377   1.690   8.822  0.8722 -0.8429  0.2480
  923MPD2    C513509   0.291   1.699   8.717  0.4828  0.1616 -0.4162
  923MPD2     H13510   0.270   1.953   8.998 -0.9361  1.0792 -1.5866
  923MPD2    H113511   0.459   1.619   8.823  1.5395 -0.0734  0.6723
  923MPD2    H213512   0.128   1.799   8.628 -1.4254 -0.4953  0.9275
  923MPD2    H313513   0.301   1.620   8.643  0.2415  1.8142 -2.2231
  923MPD2     N13514   0.461   1.769   9.037  0.4522  0.1842  0.1313
  923MPD2    H513515   0.552   1.732   9.012 -0.2781 -2.7573  1.9176
  923MPD2    N113516   0.095   1.993   8.804 -0.8176 -0.5627  0.7247
  923MPD2    H713517   0.049   1.999   8.713 -1.4008  2.1278  1.2119
  924MPD2     C13518   0.059   0.667  16.129 -0.3532  0.6460  0.3645
  924MPD2    C113519   0.061   0.636  16.265  0.6807 -0.3451 -0.2377
  924MPD2    C213520   0.077   0.739  16.358  0.1980 -0.5734  0.0877
  924MPD2    C313521   0.081   0.875  16.326  0.1682  0.2127  0.4463
  924MPD2    C413522   0.079   0.900  16.187 -0.4755  0.3828 -0.2642
  924MPD2    C513523   0.074   0.798  16.095  0.0209  0.3600 -0.0018
  924MPD2     H13524   0.063   0.710  16.461 -2.1206  3.2219  0.8195
  924MPD2    H113525   0.085   0.996  16.137  0.5880  0.4629  0.0189
  924MPD2    H213526   0.057   0.590  16.053 -2.6459  1.1540 -0.0811
  924MPD2    H313527   0.067   0.832  15.992  0.0846  1.4745  0.3613
  924MPD2     N13528   0.049   0.970  16.427 -0.3326  0.5027  0.1134
  924MPD2    H513529   0.027   1.062  16.391  0.2276  0.5581 -0.0945
  924MPD2    N113530   0.024   0.504  16.292 -0.5683 -0.1581  0.6188
  924MPD2    H713531   0.016   0.442  16.212  1.0166 -1.7354  1.6642
  925MPD2     C13532   3.719   2.569  14.732 -0.2527  0.0929 -0.7228
  925MPD2    C113533   3.635   2.682  14.739 -0.0036  0.5314  0.6048
  925MPD2    C213534   3.564   2.708  14.849 -0.1008 -0.4160 -0.9421
  925MPD2    C313535   3.579   2.625  14.966  0.5160 -0.1281 -0.1006
  925MPD2    C413536   3.658   2.511  14.960 -0.1756  0.0810  0.6614
  925MPD2    C513537   3.726   2.491  14.844 -0.5602  0.3275  0.6210
  925MPD2     H13538   3.488   2.785  14.858  0.5463  0.1309 -0.1727
  925MPD2    H113539   3.681   2.445  15.043  1.9116 -2.0754 -1.6630
  925MPD2    H213540   3.765   2.533  14.641 -0.7153  0.0094 -0.9242
  925MPD2    H313541   3.795   2.407  14.849 -0.4865  0.2566 -1.6858
  925MPD2     N13542   3.510   2.643  15.091 -0.5650 -0.1909 -0.3385
  925MPD2    H513543   3.517   2.568  15.158  0.3931  0.5769  0.4097
  925MPD2    N113544   3.626   2.773  14.634  0.2541  0.1938 -0.5345
  925MPD2    H713545   3.564   2.853  14.646  1.0626  0.6592  0.6024
  926MPD2     C13546   2.135   1.462  13.651 -0.6730  0.5526  0.3929
  926MPD2    C113547   2.080   1.575  13.600 -0.7583  0.0516  0.2837
  926MPD2    C213548   2.096   1.607  13.467  0.0056 -0.0920 -0.7768
  926MPD2    C313549   2.161   1.521  13.384 -0.6870  0.2424 -0.5668
  926MPD2    C413550   2.205   1.402  13.437  0.5360 -0.2699 -0.1439
  926MPD2    C513551   2.191   1.377  13.565  0.1980  0.4213 -0.0740
  926MPD2     H13552   2.062   1.701  13.424 -0.9412 -1.2756 -2.6424
  926MPD2    H113553   2.266   1.332  13.380 -1.1791 -2.9518  1.3212
  926MPD2    H213554   2.127   1.434  13.755 -0.5380 -0.8237  0.0280
  926MPD2    H313555   2.211   1.276  13.599  1.2333  0.8077  0.4517
  926MPD2     N13556   2.186   1.555  13.247  0.5220  0.3730 -0.6118
  926MPD2    H513557   2.260   1.499  13.205 -0.8700 -1.0321 -1.2225
  926MPD2    N113558   2.024   1.675  13.688  0.6220  0.2133 -0.1256
  926MPD2    H713559   2.013   1.764  13.640 -0.0890  1.2407  1.9003
  927MPD2     C13560   1.856   4.000   0.376 -0.9521 -0.4286 -0.9890
  927MPD2    C113561   1.862   4.127   0.327 -0.3164 -0.2972 -0.0631
  927MPD2    C213562   1.898   4.147   0.193  0.1832  0.2594 -0.3324
  927MPD2    C313563   1.918   4.039   0.109  1.0865 -0.5320 -0.4220
  927MPD2    C413564   1.933   3.910   0.169  0.2961  0.5963 -0.0003
  927MPD2    C513565   1.896   3.890   0.303  1.2107  0.1335  0.5984
  927MPD2     H13566   1.906   4.246   0.148 -0.5536 -0.1524 -1.3813
  927MPD2    H113567   1.959   3.821   0.113 -0.6230  1.6294 -2.0667
  927MPD2    H213568   1.818   3.979   0.475 -0.0385 -1.0084 -0.7630
  927MPD2    H313569   1.896   3.794   0.353  1.8755  0.1591  0.6380
  927MPD2     N13570   1.936   4.061  17.643  0.5109 -0.3450  0.9855
  927MPD2    H513571   1.939   4.156  17.606  0.5604 -1.0298 -0.7763
  927MPD2    N113572   1.844   4.230   0.420  0.7993  0.1153 -0.3850
  927MPD2    H713573   1.841   4.203   0.517  0.6155  3.6372  0.5667
  928MPD2     C13574   0.988   2.165   0.837 -0.5042  0.4713  0.0201
  928MPD2    C113575   0.853   2.184   0.863  0.8314 -0.3686  0.0383
  928MPD2    C213576   0.778   2.261   0.772  0.2809 -0.3323  0.5163
  928MPD2    C313577   0.829   2.317   0.662  0.3418 -0.3633  0.1684
  928MPD2    C413578   0.960   2.297   0.640 -0.5032 -0.2861  0.3935
  928MPD2    C513579   1.036   2.222   0.719  0.2506 -0.4252  0.1214
  928MPD2     H13580   0.672   2.253   0.791 -0.0075  0.5171 -0.7536
  928MPD2    H113581   1.011   2.351   0.560 -1.2026  2.4572  1.7810
  928MPD2    H213582   1.060   2.105   0.892 -0.7051  1.1603  1.0203
  928MPD2    H313583   1.138   2.205   0.686  0.3227 -2.1618  1.2345
  928MPD2     N13584   0.759   2.408   0.578  0.1913 -0.0421  0.1853
  928MPD2    H513585   0.818   2.440   0.503 -2.4117  3.3989 -0.3786
  928MPD2    N113586   0.800   2.136   0.981  0.0132 -0.0650 -0.2772
  928MPD2    H713587   0.866   2.084   1.039  1.6482  0.4947 -1.6523
  929MPD2     C13588   0.938   2.384  10.248  0.6433 -0.1460  0.3977
  929MPD2    C113589   0.838   2.303  10.286 -0.2660 -0.2339  0.6869
  929MPD2    C213590   0.706   2.320  10.241  0.4834 -0.8587 -0.1915
  929MPD2    C313591   0.690   2.400  10.125  0.3492  0.8778 -0.0731
  929MPD2    C413592   0.795   2.472  10.080  0.5637 -0.9342 -0.3666
  929MPD2    C513593   0.917   2.467  10.141  0.0473 -0.0374 -0.0032
  929MPD2     H13594   0.633   2.245  10.270  1.7894 -1.6731  0.9767
  929MPD2    H113595   0.790   2.542   9.998 -1.5050  0.7347  1.1797
  929MPD2    H213596   1.030   2.392  10.307  0.2130  0.1072  1.0367
  929MPD2    H313597   0.995   2.535  10.110  0.3543 -0.8628 -1.0435
  929MPD2     N13598   0.566   2.409  10.054  0.4504  0.0521 -0.1333
  929MPD2    H513599   0.569   2.470   9.973 -0.8900  2.6135  1.7558
  929MPD2    N113600   0.869   2.223  10.406  0.4648 -0.6113  0.1523
  929MPD2    H713601   0.960   2.223  10.449  0.7643 -0.0869 -0.4836
  930MPD2     C13602   1.724   4.347  14.240 -0.1748 -0.5460  0.0090
  930MPD2    C113603   1.761   4.437  14.146  0.3863  0.2323 -0.1256
  930MPD2    C213604   1.747   4.407  14.011  0.2016  0.4090 -0.6099
  930MPD2    C313605   1.710   4.286  13.970 -0.0793 -0.0873  0.5697
  930MPD2    C413606   1.689   4.184  14.064  0.5303  0.4969  0.6296
  930MPD2    C513607   1.697   4.219  14.200  0.6555 -0.4174  0.3473
  930MPD2     H13608   1.776   4.479  13.935 -0.2879 -0.7223 -1.8630
  930MPD2    H113609   1.657   4.085  14.035  1.3887  0.9574 -1.8866
  930MPD2    H213610   1.735   4.366  14.346 -1.4312  1.2237 -0.1724
  930MPD2    H313611   1.691   4.148  14.282 -0.2416 -0.9214 -0.1557
  930MPD2     N13612   1.694   4.253  13.832 -0.0114 -0.3116 -0.1949
  930MPD2    H513613   1.684   4.155  13.808 -0.0754 -0.6449  1.1557
  930MPD2    N113614   1.832   4.558  14.170 -0.0106  0.0211 -0.6839
  930MPD2    H713615   1.857   4.605  14.084 -0.1782  1.3642 -0.0118
  931MPD2     C13616   1.814   4.533   1.184 -0.8961 -0.3748 -0.2159
  931MPD2    C113617   1.843   4.439   1.089  0.4381 -0.0047 -0.5225
  931MPD2    C213618   1.875   4.307   1.129 -0.2434 -0.1358 -0.4112
  931MPD2    C313619   1.863   4.268   1.263 -0.7551  1.0328 -0.0175
  931MPD2    C413620   1.846   4.369   1.351  0.0443 -0.6338 -0.0925
  931MPD2    C513621   1.822   4.502   1.317 -0.2559  0.0644 -0.5673
  931MPD2     H13622   1.865   4.227   1.058  3.0602 -2.3880  1.6401
  931MPD2    H113623   1.831   4.347   1.456  2.1126  2.4591  0.8492
  931MPD2    H213624   1.780   4.631   1.155 -1.5135 -0.2641  0.8570
  931MPD2    H313625   1.816   4.583   1.388  0.1014 -0.8034  0.4597
  931MPD2     N13626   1.857   4.132   1.302 -0.3661 -0.3571 -0.2751
  931MPD2    H513627   1.838   4.116   1.400 -2.7024  1.9815 -0.3346
  931MPD2    N113628   1.833   4.479   0.955  0.2270  0.4963  0.1140
  931MPD2    H713629   1.797   4.572   0.936 -0.4943  0.2048  0.0508
  932MPD2     C13630   3.715   2.957  11.582  0.7125  0.0083  0.6870
  932MPD2    C113631   3.833   2.931  11.515 -0.9445  0.0504 -0.6657
  932MPD2    C213632   3.871   2.801  11.494 -0.9693  0.1977  0.0971
  932MPD2    C313633   3.793   2.693  11.534  0.3052 -0.0136  0.2678
  932MPD2    C413634   3.672   2.723  11.591  0.6259  0.3189 -0.1102
  932MPD2    C513635   3.637   2.851  11.617 -0.8924  0.2537 -0.7080
  932MPD2     H13636   3.965   2.788  11.442 -0.2978  0.1993  1.3255
  932MPD2    H113637   3.608   2.641  11.617  2.3302 -1.2242 -0.7396
  932MPD2    H213638   3.687   3.059  11.608 -0.1784 -0.3856  1.2462
  932MPD2    H313639   3.539   2.872  11.659 -0.7713  0.8320 -0.7225
  932MPD2     N13640   3.834   2.561  11.527  0.2008  0.3654  0.3774
  932MPD2    H513641   3.781   2.487  11.573  0.6564 -0.9528 -1.1990
  932MPD2    N113642   3.924   3.041  11.483 -0.0434  0.7345 -0.1453
  932MPD2    H713643   4.017   3.012  11.455 -0.5973 -1.9711  0.8638
  933MPD2     C13644   0.243   1.800   1.649 -0.5081 -0.3626 -0.5076
  933MPD2    C113645   0.237   1.882   1.538  0.4119 -0.2144 -0.7220
  933MPD2    C213646   0.114   1.915   1.487 -0.3389 -0.1500  0.1824
  933MPD2    C313647   4.716   1.859   1.547  0.0275  0.9821  0.7274
  933MPD2    C413648   0.004   1.776   1.655  0.6853 -0.4247  0.0760
  933MPD2    C513649   0.130   1.747   1.700  0.3357 -0.6878  0.2392
  933MPD2     H13650   0.103   1.979   1.400  1.2528  2.4537  1.9108
  933MPD2    H113651   4.643   1.715   1.694  0.4554  0.1600  0.5058
  933MPD2    H213652   0.334   1.773   1.702  0.7609  3.5299 -0.6496
  933MPD2    H313653   0.144   1.672   1.778  0.3462  0.6306  1.5154
  933MPD2     N13654   4.596   1.886   1.484 -0.0004  0.0890  0.0317
  933MPD2    H513655   4.601   1.944   1.400  0.2454 -0.7599 -0.5432
  933MPD2    N113656   0.364   1.921   1.485 -0.1470 -0.3410  0.2012
  933MPD2    H713657   0.447   1.887   1.532 -1.6389 -2.3489  1.3500
  934MPD2     C13658   0.429   4.666   2.414  1.2269 -0.1972  0.0496
  934MPD2    C113659   0.548   4.659   2.341  0.6830 -0.8458 -0.4772
  934MPD2    C213660   0.560   4.550   2.256  0.1025 -0.2469  0.5609
  934MPD2    C313661   0.458   4.464   2.242  0.2323  0.3860 -0.3147
  934MPD2    C413662   0.339   4.479   2.306 -0.2069  0.1912 -0.3536
  934MPD2    C513663   0.333   4.578   2.394  0.2070  0.1047  0.2847
  934MPD2     H13664   0.651   4.533   2.201  0.6322  1.2441  0.9742
  934MPD2    H113665   0.254   4.412   2.299  0.5455 -0.9127  1.1211
  934MPD2    H213666   0.399   0.022   2.485 -1.4697 -0.5101 -0.7618
  934MPD2    H313667   0.239   4.589   2.448 -1.0155 -0.6749 -1.6704
  934MPD2     N13668   0.468   4.363   2.150 -0.6710 -0.1964 -0.2840
  934MPD2    H513669   0.386   4.309   2.124  1.0708 -3.3961  0.8554
  934MPD2    N113670   0.653   0.028   2.354 -0.4888  0.8627  0.0102
  934MPD2    H713671   0.736   0.021   2.297  0.1344  2.8039  0.6658
  935MPD2     C13672   1.209   4.153   1.447 -0.5530  0.8806  0.2310
  935MPD2    C113673   1.092   4.079   1.424  0.3307 -0.1184 -0.2132
  935MPD2    C213674   0.996   4.073   1.523 -0.4164  0.1843 -1.2636
  935MPD2    C313675   0.993   4.154   1.632 -0.9135  0.2848  0.5223
  935MPD2    C413676   1.105   4.229   1.652  0.4363 -0.2425 -0.2587
  935MPD2    C513677   1.212   4.225   1.569  0.0988  0.2433 -0.6471
  935MPD2     H13678   0.917   4.000   1.503 -0.6337  0.1866 -0.3956
  935MPD2    H113679   1.112   4.294   1.739  0.5182  0.0104 -0.4534
  935MPD2    H213680   1.288   4.169   1.375  0.1627  0.8882  1.0110
  935MPD2    H313681   1.306   4.270   1.597 -1.0345  2.4413 -0.3633
  935MPD2     N13682   0.881   4.163   1.721  0.2829  0.1623  0.8264
  935MPD2    H513683   0.891   4.224   1.802 -0.5251 -0.5940  1.4993
  935MPD2    N113684   1.065   4.001   1.308 -0.7552 -0.1280 -0.2577
  935MPD2    H713685   0.984   3.941   1.298 -1.3628  0.5831  0.4189
  936MPD2     C13686   4.280   1.833  12.329  1.1610 -0.3659  0.5651
  936MPD2    C113687   4.311   1.751  12.435  0.5654 -0.5919  0.0226
  936MPD2    C213688   4.441   1.714  12.454 -0.0884  0.1157  0.2307
  936MPD2    C313689   4.548   1.759  12.376 -0.6660 -0.1252 -0.2260
  936MPD2    C413690   4.510   1.823  12.257 -0.2703 -0.0530 -0.2929
  936MPD2    C513691   4.377   1.862  12.239 -0.2695  0.2547 -0.4382
  936MPD2     H13692   4.467   1.661  12.544  3.6243 -0.6080 -1.2419
  936MPD2    H113693   4.587   1.854  12.187  0.2823 -1.9803 -0.5216
  936MPD2    H213694   4.176   1.862  12.316  1.7363 -0.2355 -3.7325
  936MPD2    H313695   4.350   1.914  12.148 -0.9426  1.5511  0.4974
  936MPD2     N13696   4.685   1.751  12.399 -0.1222  0.2725 -0.2276
  936MPD2    H513697   0.020   1.815  12.343 -0.0897 -1.4693 -2.2037
  936MPD2    N113698   4.222   1.721  12.540 -0.6337 -0.4238  0.2336
  936MPD2    H713699   4.264   1.671  12.618 -1.4323  1.4702  1.8745
  937MPD2     C13700   2.364   2.756  11.141 -0.0240 -0.1917  0.3046
  937MPD2    C113701   2.370   2.891  11.153 -0.8953 -0.1504 -0.5611
  937MPD2    C213702   2.460   2.963  11.073  0.5065  0.1145  0.3098
  937MPD2    C313703   2.524   2.902  10.967 -0.4799  0.5611 -0.5434
  937MPD2    C413704   2.503   2.766  10.947  0.4640  0.2025  0.5489
  937MPD2    C513705   2.430   2.698  11.042  0.2137  0.0040 -0.3410
  937MPD2     H13706   2.479   3.069  11.078  0.3083  0.0790  1.6002
  937MPD2    H113707   2.540   2.709  10.862 -2.1120  1.8963 -1.6928
  937MPD2    H213708   2.295   2.699  11.203  0.5775  0.7164  1.8065
  937MPD2    H313709   2.415   2.594  11.015  0.7732 -0.3783  0.8403
  937MPD2     N13710   2.606   2.984  10.889  0.0166 -0.7957 -0.0706
  937MPD2    H513711   2.615   3.083  10.912  0.7078 -0.3091 -2.4362
  937MPD2    N113712   2.315   2.963  11.267 -0.1646 -0.2584  0.5856
  937MPD2    H713713   2.330   3.063  11.275 -0.5095 -0.1907  0.3955
  938MPD2     C13714   4.271   4.024   0.984  0.2799  0.0689 -0.4339
  938MPD2    C113715   4.370   3.970   1.064 -0.1140 -0.1398 -0.2063
  938MPD2    C213716   4.340   3.915   1.184  0.4398  0.1488  0.1841
  938MPD2    C313717   4.214   3.890   1.226 -0.1667  0.2217  0.5008
  938MPD2    C413718   4.114   3.941   1.150 -0.0788 -0.1773 -0.2500
  938MPD2    C513719   4.147   4.008   1.036 -0.3450  0.0549 -0.1636
  938MPD2     H13720   4.409   3.903   1.267  1.0567  0.2236 -0.3132
  938MPD2    H113721   4.008   3.932   1.171 -0.2475  1.0520 -0.5936
  938MPD2    H213722   4.290   4.086   0.898 -2.3468  0.4195 -0.7816
  938MPD2    H313723   4.064   4.057   0.986 -0.3135  1.8079  1.5454
  938MPD2     N13724   4.185   3.809   1.344  0.4401 -0.1922  0.0857
  938MPD2    H513725   4.090   3.815   1.380  0.9135  4.0589  0.6134
  938MPD2    N113726   4.507   3.994   1.034  0.4765 -0.6599 -0.4502
  938MPD2    H713727   4.578   3.956   1.096 -0.4933  1.0907  1.6909
  939MPD2     C13728   0.884   0.627   1.249 -0.4150 -0.0232 -0.8496
  939MPD2    C113729   0.786   0.671   1.161  0.3612 -0.4574  0.2658
  939MPD2    C213730   0.822   0.690   1.026  0.2515 -0.3242  0.7273
  939MPD2    C313731   0.948   0.661   0.978 -0.4375  0.1497 -0.6777
  939MPD2    C413732   1.041   0.600   1.066  0.1214 -0.3516 -0.3492
  939MPD2    C513733   1.005   0.593   1.196 -0.5362 -0.6583 -0.3905
  939MPD2     H13734   0.743   0.729   0.961  1.2349 -2.9062 -2.0137
  939MPD2    H113735   1.140   0.572   1.031  0.9726  0.3760  1.4883
  939MPD2    H213736   0.871   0.614   1.356  2.5048 -1.2067 -0.6171
  939MPD2    H313737   1.076   0.553   1.268 -1.0088 -0.1219  0.3746
  939MPD2     N13738   0.979   0.683   0.844 -0.1118 -0.3644  0.3941
  939MPD2    H513739   0.909   0.731   0.788 -0.5078  0.1228  1.3154
  939MPD2    N113740   0.654   0.686   1.208 -0.1038  0.2684  0.1532
  939MPD2    H713741   0.580   0.720   1.146  0.4947 -0.0732 -0.7546
  940MPD2     C13742   4.663   1.464  13.647  0.3962 -0.6562  0.7451
  940MPD2    C113743   0.075   1.484  13.692  0.1718  0.5657 -0.3243
  940MPD2    C213744   0.174   1.501  13.595 -0.3213  0.2559  0.4310
  940MPD2    C313745   0.147   1.492  13.460 -0.6823 -0.1040 -0.2957
  940MPD2    C413746   0.021   1.482  13.419 -0.1885  0.1151  0.1033
  940MPD2    C513747   4.646   1.461  13.512  0.9972  0.4345 -0.1724
  940MPD2     H13748   0.275   1.515  13.632  0.1615 -0.5343 -0.5808
  940MPD2    H113749   0.003   1.489  13.313 -0.9182 -1.3418  0.1197
  940MPD2    H213750   4.585   1.467  13.722  1.9980  0.6563  2.3596
  940MPD2    H313751   4.544   1.460  13.477  0.4577 -0.7817  1.4208
  940MPD2     N13752   0.246   1.496  13.359 -0.2902  0.1881  0.2798
  940MPD2    H513753   0.216   1.488  13.262 -3.7324 -0.2668  1.3883
  940MPD2    N113754   0.113   1.493  13.826  0.2205  0.3078 -0.2198
  940MPD2    H713755   0.206   1.524  13.850 -0.0409  0.5447  0.4775
  941MPD2     C13756   4.064   0.455   9.460 -0.0186 -0.5420  0.0391
  941MPD2    C113757   4.129   0.367   9.542  0.2514 -0.5146  0.5238
  941MPD2    C213758   4.087   0.238   9.549  0.3433  0.2833  0.1715
  941MPD2    C313759   3.985   0.194   9.473  0.6128 -0.7417  0.0493
  941MPD2    C413760   3.912   0.284   9.396  0.1622  0.0840 -0.1731
  941MPD2    C513761   3.953   0.416   9.386 -0.0306 -0.4754 -0.3763
  941MPD2     H13762   4.150   0.180   9.615  0.2354  1.6251  1.4676
  941MPD2    H113763   3.831   0.252   9.331  1.0753 -1.3007 -0.6340
  941MPD2    H213764   4.098   0.557   9.451 -0.3880 -0.4116  0.0946
  941MPD2    H313765   3.900   0.474   9.312  1.8605 -1.1052 -2.2006
  941MPD2     N13766   3.931   0.067   9.463 -0.1030 -0.0021 -0.0812
  941MPD2    H513767   3.856   0.051   9.397  0.7929 -0.1284 -1.0743
  941MPD2    N113768   4.250   0.406   9.624 -0.1677  0.1805  0.5610
  941MPD2    H713769   4.297   0.330   9.672 -1.3803 -1.6370 -1.1347
  942MPD2     C13770   4.413   1.866   8.979  0.2524  0.5035 -0.1911
  942MPD2    C113771   4.537   1.825   9.022 -0.2244  0.2049 -0.3343
  942MPD2    C213772   4.608   1.905   9.107 -0.2243  0.4879  0.2738
  942MPD2    C313773   4.549   2.023   9.161 -0.0284 -0.4902 -1.1745
  942MPD2    C413774   4.423   2.063   9.120 -0.2787 -0.2584  0.2037
  942MPD2    C513775   4.357   1.979   9.038 -0.3879  0.6087  0.4040
  942MPD2     H13776   4.713   1.885   9.124 -0.7013 -1.4719  0.8729
  942MPD2    H113777   4.376   2.155   9.153 -1.0642 -0.4015 -0.5153
  942MPD2    H213778   4.350   1.811   8.909  0.1484  0.9073 -0.4195
  942MPD2    H313779   4.255   2.000   9.009 -0.2013  0.7178 -0.1752
  942MPD2     N13780   4.628   2.113   9.238 -0.4377 -0.4421  0.0226
  942MPD2    H513781   4.596   2.209   9.246  0.6199 -0.1307  0.5748
  942MPD2    N113782   4.605   1.702   8.975  0.5099 -0.3555 -0.1765
  942MPD2    H713783   4.695   1.677   9.015  1.0527  1.8077 -0.0041
  943MPD2     C13784   2.814   1.247   9.760 -0.6552  0.4565 -0.5269
  943MPD2    C113785   2.743   1.129   9.739  1.1786  0.4935 -0.2850
  943MPD2    C213786   2.727   1.034   9.835 -0.5608  0.1463 -1.2623
  943MPD2    C313787   2.793   1.053   9.957 -0.1880 -0.0814 -0.3629
  943MPD2    C413788   2.871   1.170   9.975  0.2136  0.2705  0.1434
  943MPD2    C513789   2.876   1.269   9.882 -0.1323  0.0777  0.1415
  943MPD2     H13790   2.667   0.946   9.817  0.8143 -1.0902  0.1486
  943MPD2    H113791   2.921   1.186  10.070 -0.4587  0.9469  0.3805
  943MPD2    H213792   2.826   1.324   9.685  3.0144  0.7642  0.3495
  943MPD2    H313793   2.935   1.358   9.897  0.7240 -0.6867  1.2946
  943MPD2     N13794   2.792   0.959  10.064 -0.4817 -0.6836  0.2221
  943MPD2    H513795   2.835   0.983  10.153  0.6287  0.9590 -0.7519
  943MPD2    N113796   2.679   1.112   9.609 -0.2547 -0.3803 -0.0125
  943MPD2    H713797   2.693   1.190   9.544 -1.1222  0.6014  0.9761
  944MPD2     C13798   2.704   4.313  10.749 -0.4930  0.0399 -0.3066
  944MPD2    C113799   2.702   4.178  10.771 -0.3946  0.0775 -0.3263
  944MPD2    C213800   2.721   4.129  10.902  0.5611 -0.7112 -0.6968
  944MPD2    C313801   2.749   4.221  11.008  0.3645 -0.7073 -0.8091
  944MPD2    C413802   2.765   4.349  10.979  0.0619 -0.0238 -0.4789
  944MPD2    C513803   2.738   4.394  10.852  0.7994 -0.0409 -0.1802
  944MPD2     H13804   2.698   4.023  10.913 -0.6278 -0.3542  0.2657
  944MPD2    H113805   2.798   4.425  11.048  1.3264  0.2854 -1.4091
  944MPD2    H213806   2.704   4.355  10.650 -1.5233  1.0388  0.1126
  944MPD2    H313807   2.761   4.497  10.825 -0.4607  0.8831  2.2302
  944MPD2     N13808   2.762   4.174  11.135  0.1205 -0.5888 -0.3782
  944MPD2    H513809   2.783   4.075  11.138 -0.7631 -0.8197 -1.7212
  944MPD2    N113810   2.670   4.107  10.657  0.1997 -1.0740 -0.3002
  944MPD2    H713811   2.645   4.160  10.573 -2.4189 -0.1673  1.0342
    1TCq1    O113812   0.862   0.311  13.653 -0.0476 -0.2028 -0.0552
    1TCq1    C113813   0.940   0.342  13.762 -0.1441 -0.1091  0.1663
    1TCq1    O213814   1.007   0.262  13.822  0.2680 -0.3832 -0.4775
    1TCq1    C213815   0.852   0.414  13.857 -0.5876 -0.1848 -0.4925
    1TCq1    C313816   0.720   0.423  13.846 -0.8250 -0.4584  0.2426
    1TCq1    C413817   0.649   0.460  13.955 -0.3499 -0.6712 -0.4982
    1TCq1    C513818   0.705   0.493  14.076 -0.5152  0.4067 -0.1533
    1TCq1    C613819   0.840   0.491  14.075  0.2028 -0.2664 -0.0198
    1TCq1    C713820   0.913   0.442  13.971  0.9659 -0.2032  0.0682
    1TCq1    C813821   0.912   0.574  14.172 -0.5054  0.2470 -0.0420
    1TCq1    O413822   1.024   0.537  14.193 -0.0655  0.7074  0.4031
    1TCq1    C913823   0.507   0.440  13.944 -0.1285 -0.2975 -0.1434
    1TCq1    O513824   0.459   0.407  13.834  0.4832 -0.1170 -0.3089
    1TCq1    O613825   0.444   0.443  14.052 -0.2881 -0.0268 -0.0458
    1TCq1    H113826   0.820   0.393  13.621  3.6550  1.0207 -1.8329
    1TCq1    H213827   0.663   0.387  13.761 -2.3726  0.0923  1.0480
    1TCq1    H313828   0.648   0.509  14.167 -1.3391  1.2534 -0.8011
    1TCq1    H413829   1.022   0.438  13.972  0.9441 -0.4914  1.1480
    2MPD2     C13830   0.985   0.915  14.542 -0.1760 -0.1036  0.4977
    2MPD2    C113831   0.874   0.959  14.465  0.3192 -0.4100  1.1659
    2MPD2    C213832   0.818   0.875  14.364  0.1189 -0.6983  0.2602
    2MPD2    C313833   0.886   0.758  14.329  0.1936 -0.6153  1.0300
    2MPD2    C413834   1.002   0.729  14.402 -0.4005  0.0064 -0.6372
    2MPD2    C513835   1.050   0.798  14.503 -0.4388 -0.4198  0.4393
    2MPD2     H13836   0.734   0.904  14.301 -0.0960  1.4630  1.5475
    2MPD2    H113837   1.064   0.641  14.390 -2.4019 -1.4551 -0.2347
    2MPD2    H213838   1.032   0.969  14.623  0.9315  2.1421 -1.6655
    2MPD2    H313839   1.138   0.766  14.558  0.4430  1.2555  0.0069
    2MPD2     N13840   0.842   0.678  14.222  0.9893  0.4753 -0.3247
    2MPD2    H513841   0.764   0.707  14.163 -0.5223 -0.8717  1.0254
    2MPD2    N113842   0.834   1.088  14.486 -0.2457 -0.4585 -0.5873
    2MPD2    H713843   0.903   1.154  14.522 -3.3680  1.5530  1.7622
    3TMC2    C113844   0.704   1.296  14.450 -0.4399  0.5738 -0.4744
    3TMC2    C213845   0.792   1.361  14.541  0.0497  0.3670 -0.1235
    3TMC2    C313846   0.811   1.496  14.516  0.0699  0.0547  0.1637
    3TMC2    C413847   0.642   1.355  14.347  0.0165  0.0563 -0.0019
    3TMC2    C513848   0.679   1.488  14.326  0.4628  0.0587 -0.1028
    3TMC2    C613849   0.756   1.560  14.413  0.3512  0.3824 -0.1067
    3TMC2     C13850   0.717   1.149  14.433  0.0404  0.3775  0.9542
    3TMC2     O13851   0.622   1.099  14.373 -0.1900  0.2094  0.0107
    3TMC2     H13852   0.839   1.302  14.619 -0.1845  2.4968  1.6221
    3TMC2    H113853   0.587   1.298  14.272 -0.0107 -0.5884  0.5082
    3TMC2    H213854   0.790   1.660  14.388 -0.3153 -0.0602 -2.7856
    3TMC2    C713855   0.647   1.542  14.193 -0.5141 -0.5066  0.4269
    3TMC2    C813856   0.894   1.573  14.604  0.0371 -0.1805 -0.1613
    3TMC2    O113857   0.533   1.522  14.157 -0.5558  0.2497 -0.5075
    3TMC2    O213858   0.878   1.693  14.629  0.5314 -0.1746  0.0280
    3TMC2    O513859   1.011   1.508  14.597 -0.5559  0.3352 -0.6110
    3TMC2    H513860   1.004   1.413  14.574 -0.2129 -0.3372  2.0727
    4MPD2     C13861   4.207   1.951  13.419 -0.3559 -0.1804 -0.2864
    4MPD2    C113862   4.286   2.021  13.333 -0.2336  0.2095 -0.2586
    4MPD2    C213863   4.429   2.029  13.350 -0.0350 -0.4038 -0.0996
    4MPD2    C313864   4.483   1.961  13.461 -0.0399  0.6725 -0.2799
    4MPD2    C413865   4.401   1.886  13.540  0.0471  0.6895  1.2591
    4MPD2    C513866   4.266   1.884  13.523  0.2133 -0.0664 -0.1855
    4MPD2     H13867   4.496   2.086  13.286 -1.2644 -0.0496 -1.0525
    4MPD2    H113868   4.450   1.820  13.610 -1.4373 -1.5574  0.1573
    4MPD2    H213869   4.100   1.954  13.403 -0.3558 -0.6575 -0.3949
    4MPD2    H313870   4.208   1.828  13.596  1.2042 -0.0855  0.5945
    4MPD2     N13871   4.623   1.958  13.483  0.6331  0.0557  0.1674
    4MPD2    H513872   4.674   2.005  13.408  1.7382 -0.6759  0.4559
    4MPD2    N113873   4.218   2.093  13.236  0.1758 -0.7757 -0.3603
    4MPD2    H713874   4.122   2.064  13.220 -1.1679  3.0777  0.9183
    5TCq2    C113875   4.681   1.904  13.593 -0.4767 -0.3595  0.1065
    5TCq2    O213876   4.636   1.862  13.702  0.4037  0.4933 -0.0946
    5TCq2    C213877   0.107   1.879  13.571  0.0055 -0.2830 -0.0151
    5TCq2    C313878   0.163   1.878  13.450  0.1356 -0.2928  0.3374
    5TCq2    C413879   0.295   1.863  13.435 -0.2696  0.3834 -0.6056
    5TCq2    C513880   0.372   1.830  13.543 -0.3390  0.0280 -0.1967
    5TCq2    C613881   0.314   1.843  13.665 -0.3154  0.3065  0.4437
    5TCq2    C713882   0.183   1.861  13.682  0.4905 -0.0508  0.0965
    5TCq2    C813883   0.389   1.812  13.785 -0.2622  0.2474  0.2471
    5TCq2    O413884   0.335   1.752  13.874 -0.2265  0.5807  0.0713
    5TCq2    C913885   0.355   1.846  13.308 -0.3370  0.5901  0.3169
    5TCq2    O513886   0.480   1.869  13.302 -0.3899  0.2062  0.2844
    5TCq2    O613887   0.271   1.843  13.214 -0.4595  0.3131 -0.7374
    5TCq2    H213888   0.101   1.893  13.362  1.8509  0.0417 -0.8093
    5TCq2    H313889   0.476   1.803  13.524  0.3114 -0.0538  3.3600
    5TCq2    H413890   0.142   1.840  13.780  1.3752  1.8518  0.8735
    6MPD1     C13891   4.166   3.971  13.274 -0.0831 -0.1745 -0.2574
    6MPD1    C113892   4.050   3.919  13.214 -0.2264  0.2946 -0.4957
    6MPD1    C213893   4.060   3.792  13.156 -0.5827 -1.0103 -0.3520
    6MPD1    C313894   4.179   3.724  13.157  0.1823 -0.0194  0.5692
    6MPD1    C413895   4.291   3.780  13.207  0.0784  0.0368  0.8637
    6MPD1    C513896   4.284   3.903  13.255 -0.0135 -0.3979  0.1351
    6MPD1     H13897   3.975   3.740  13.113  1.9090 -4.0509 -1.5855
    6MPD1    H113898   4.389   3.734  13.209  0.6822  1.2651 -0.9123
    6MPD1    H213899   4.174   4.066  13.324 -2.4638  0.0043 -0.2220
    6MPD1    H313900   4.371   3.947  13.304 -0.8526 -0.4554  1.6621
    6MPD1     N13901   4.169   3.584  13.117  0.1118 -0.2870 -0.7318
    6MPD1    H513902   4.074   3.555  13.096 -1.0766  3.7492 -0.8959
    6MPD1    N113903   3.925   3.970  13.238 -0.6934  0.1084  0.4793
    6MPD1    H613904   3.934   4.070  13.257  2.7923 -0.2740  0.8683
    6MPD1    H713905   3.864   3.971  13.157 -0.3887 -2.5889  0.2331
    7MPD2     C13906   3.774   2.922  13.215  0.0691  0.3471  0.5452
    7MPD2    C113907   3.887   2.898  13.140 -0.3383 -0.8587 -1.0649
    7MPD2    C213908   3.924   2.775  13.090  0.1992 -0.2536 -0.4000
    7MPD2    C313909   3.859   2.663  13.124 -0.4599 -0.6081  0.3344
    7MPD2    C413910   3.743   2.683  13.194 -0.0844  0.0443  0.4349
    7MPD2    C513911   3.706   2.807  13.243 -0.3293  0.0142 -0.0372
    7MPD2     H13912   4.005   2.760  13.020  0.7911  3.3159 -0.4961
    7MPD2    H113913   3.665   2.610  13.214  0.4328 -0.6670 -0.1462
    7MPD2    H213914   3.734   3.018  13.248 -0.3556  0.0347  0.9415
    7MPD2    H313915   3.619   2.818  13.306 -1.0190 -3.3509 -0.4105
    7MPD2     N13916   3.891   2.542  13.065 -0.3702  0.3346  0.9262
    7MPD2    H513917   3.964   2.550  12.996 -2.3819 -0.7544 -1.3479
    7MPD2    N113918   3.975   2.996  13.098 -0.4618 -0.7129  0.1933
    7MPD2    H713919   4.050   2.961  13.040 -1.7288 -0.0746 -1.8290
    8TMC3    C113920   3.967   2.335  13.044  0.0826 -0.0264  0.2280
    8TMC3    C213921   4.055   2.271  13.115 -0.0756 -0.5116 -0.3796
    8TMC3    C313922   4.180   2.252  13.069 -0.2200  0.2415 -0.1573
    8TMC3    C413923   3.998   2.381  12.916  0.3908 -0.4824 -0.1307
    8TMC3    C513924   4.128   2.368  12.864  0.4443  0.5859 -0.0021
    8TMC3    C613925   4.218   2.302  12.942  0.1136 -0.2363 -0.1737
    8TMC3     C13926   3.878   2.416  13.118 -0.3972  0.8988  0.6721
    8TMC3     O13927   3.855   2.394  13.237  0.3240 -0.1624 -0.8303
    8TMC3     H13928   4.018   2.235  13.210  1.7858 -1.1770  0.0975
    8TMC3    H113929   3.933   2.432  12.846  1.1993  0.3575 -0.2715
    8TMC3    H213930   4.320   2.289  12.907  0.7903  4.2694  0.0861
    8TMC3    C713931   4.174   2.499  12.821  0.2617  1.0548  0.3062
    8TMC3    C813932   4.274   2.178  13.145 -0.9816  0.3456  0.2723
    8TMC3    O113933   4.109   2.583  12.870 -0.4409 -0.4784 -0.2217
    8TMC3    O213934   4.388   2.222  13.130 -0.0040  0.1318 -0.0680
    9TMC3    C113935   4.245   3.363  13.071 -0.7435  0.8027 -0.3445
    9TMC3    C213936   4.326   3.294  12.981  0.1590  0.1220  0.8596
    9TMC3    C313937   4.279   3.173  12.931 -0.5022 -0.6933 -0.3229
    9TMC3    C413938   4.128   3.307  13.117 -0.1943  0.6632  0.2414
    9TMC3    C513939   4.085   3.194  13.060  0.1075  0.5142 -0.0225
    9TMC3    C613940   4.159   3.122  12.967 -0.4491  0.5856  0.4559
    9TMC3     C13941   4.279   3.502  13.104  0.6954  0.4693 -1.1845
    9TMC3     O13942   4.399   3.524  13.109 -0.4250  0.9844  0.3815
    9TMC3     H13943   4.425   3.331  12.954 -0.2139 -1.0181 -2.1315
    9TMC3    H113944   4.076   3.357  13.198  0.4167  2.3047 -0.3656
    9TMC3    H213945   4.115   3.040  12.911  1.6194  0.3384 -0.8199
    9TMC3    C713946   3.979   3.132  13.127 -0.5106  0.2629  0.5805
    9TMC3    C813947   4.359   3.107  12.824  0.6404  1.0901  0.1419
    9TMC3    O113948   3.922   3.193  13.213  0.0219  0.2367  0.0420
    9TMC3    O213949   4.439   3.168  12.758  0.0608  0.3260  0.2878
   10MPD2     C13950   4.477   2.635  12.644  0.0608 -0.0114 -0.3439
   10MPD2    C113951   4.367   2.628  12.732  0.1974 -0.4082  0.1162
   10MPD2    C213952   4.328   2.749  12.789 -0.5210 -0.2820  0.4005
   10MPD2    C313953   4.384   2.867  12.751 -0.1788 -0.1468 -0.3193
   10MPD2    C413954   4.493   2.872  12.662  0.0870  0.0664 -0.0880
   10MPD2    C513955   4.540   2.752  12.610  0.2942 -1.0244  0.2704
   10MPD2     H13956   4.249   2.753  12.863 -1.5969 -1.0025 -0.7132
   10MPD2    H113957   4.548   2.963  12.643 -0.1715  0.3558  0.5483
   10MPD2    H213958   4.500   2.545  12.588  2.4055 -0.0264  0.6366
   10MPD2    H313959   4.627   2.750  12.545 -0.7653  0.7771 -1.1951
   10MPD2     N13960   4.326   2.971  12.825 -0.5178 -0.1151  0.2416
   10MPD2    H513961   4.242   2.958  12.880  0.0169  0.1099  1.1128
   10MPD2    N113962   4.298   2.505  12.753 -0.6512 -0.2337 -0.0692
   10MPD2    H713963   4.336   2.414  12.730  1.3668  0.6450 -0.1485
   11MPD2     C13964   0.867   1.754  13.987 -0.1276 -0.0125 -0.0977
   11MPD2    C113965   0.750   1.696  14.025  0.1942 -0.1400 -0.4132
   11MPD2    C213966   0.629   1.725  13.954  0.2376  0.0164  0.0467
   11MPD2    C313967   0.631   1.804  13.840  0.2875  0.4037  0.2182
   11MPD2    C413968   0.759   1.845  13.800 -0.2589 -0.2236 -0.5635
   11MPD2    C513969   0.871   1.826  13.875  0.2924 -0.4064 -0.2015
   11MPD2     H13970   0.532   1.680  13.974  0.0088 -0.1741 -1.4695
   11MPD2    H113971   0.754   1.925  13.726 -0.9786  0.1272 -0.1340
   11MPD2    H213972   0.959   1.753  14.044  0.0999 -2.3915 -0.4938
   11MPD2    H313973   0.958   1.886  13.851  1.8154 -1.3307  2.9955
   11MPD2     N13974   0.519   1.854  13.762 -0.1190 -0.2371 -0.5565
   11MPD2    H513975   0.539   1.896  13.672 -0.2884  0.8176 -0.1008
   11MPD2    N113976   0.753   1.617  14.142  0.3288  0.5193  0.3879
   11MPD2    H713977   0.841   1.610  14.192 -0.7279 -2.4858  1.8276
    1MPD1     C13978   2.784   2.645  16.891  0.2957 -0.0766  0.4546
    1MPD1    C113979   2.898   2.728  16.889 -0.0609  0.6429 -0.3009
    1MPD1    C213980   2.897   2.820  16.783 -0.1083 -0.0266  0.8145
    1MPD1    C313981   2.801   2.818  16.681 -0.3418  0.1059  0.1011
    1MPD1    C413982   2.692   2.736  16.694  0.1402  0.5169 -0.4158
    1MPD1    C513983   2.685   2.643  16.794  0.4573  0.2924  0.5503
    1MPD1     H13984   2.980   2.890  16.771  0.5695 -1.4513 -3.0108
    1MPD1    H113985   2.611   2.731  16.621  1.5604 -0.7211 -1.8986
    1MPD1    H213986   2.773   2.581  16.978  2.7557 -0.5998  0.3844
    1MPD1    H313987   2.596   2.583  16.808  2.0608 -2.3126 -0.4749
    1MPD1     N13988   2.809   2.901  16.566  0.0463 -0.5270  0.2009
    1MPD1    H513989   2.725   2.896  16.508 -0.3325 -0.2318  0.7311
    1MPD1    N113990   2.997   2.716  16.985  0.4055  0.1892 -0.5895
    1MPD1    H613991   3.080   2.767  16.955  0.8737 -2.4410 -3.7623
    1MPD1    H713992   3.022   2.618  16.995  0.7646  0.5556  2.1717
    2MPD1     C13993   3.508   3.552  16.185 -0.2876  0.4875  0.2912
    2MPD1    C113994   3.517   3.457  16.285 -0.6977  0.1107  0.5428
    2MPD1    C213995   3.401   3.391  16.316 -0.1347 -0.1687  0.0848
    2MPD1    C313996   3.285   3.409  16.250 -0.3126  0.0473 -0.0706
    2MPD1    C413997   3.270   3.513  16.167 -0.6315 -0.0699  0.2176
    2MPD1    C513998   3.381   3.580  16.129  0.1677 -0.6932  0.0990
    2MPD1     H13999   3.405   3.318  16.396 -1.5571 -0.0254  0.3042
    2MPD1    H114000   3.182   3.548  16.114 -0.2900  1.7117  0.8459
    2MPD1    H214001   3.594   3.614  16.164 -0.5900  0.5403 -0.8047
    2MPD1    H314002   3.386   3.663  16.059 -0.2651 -0.4116  0.4003
    2MPD1     N14003   3.181   3.325  16.283  0.0038 -0.1154  0.3965
    2MPD1    H514004   3.205   3.246  16.342 -3.6457 -1.1567  0.4407
    2MPD1    N114005   3.630   3.447  16.355  0.0506  0.0840  0.1242
    2MPD1    H614006   3.653   3.356  16.393  0.3866  0.8690  1.8145
    2MPD1    H714007   3.705   3.460  16.287  0.9942 -0.1324  1.1450
    3TMC3    C114008   2.988   3.205  16.255 -0.2558  0.3777 -0.6993
    3TMC3    C214009   2.907   3.154  16.155 -0.3807 -0.1660  0.0099
    3TMC3    C314010   2.836   3.038  16.184 -0.3030  0.0679 -0.6894
    3TMC3    C414011   2.991   3.136  16.372  0.0653 -0.1871 -0.1975
    3TMC3    C514012   2.901   3.038  16.400 -0.4747  0.5208  0.9803
    3TMC3    C614013   2.823   2.983  16.307  0.6784 -0.0220 -0.0818
    3TMC3     C14014   3.050   3.334  16.236  0.4817 -0.0679  0.6095
    3TMC3     O14015   3.001   3.406  16.149  0.5322  0.0769 -0.4315
    3TMC3     H14016   2.889   3.203  16.061  0.9410  1.8822  0.8336
    3TMC3    H114017   3.050   3.181  16.451  1.1059  1.7149 -2.0444
    3TMC3    H214018   2.752   2.902  16.310 -0.5950  1.0861 -0.1983
    3TMC3    C714019   2.914   2.990  16.535 -0.0535  0.0507  0.3206
    3TMC3    C814020   2.733   3.008  16.086 -0.0214 -0.5751  0.1007
    3TMC3    O114021   3.004   3.028  16.606 -0.5861 -0.7754  0.1123
    3TMC3    O214022   2.617   3.009  16.124  0.0491 -0.6558  0.2149
    4MPD1     C14023   2.576   3.072  15.603  0.9226  0.1152  0.0877
    4MPD1    C114024   2.694   3.005  15.593  0.0303 -0.2446 -0.5953
    4MPD1    C214025   2.765   2.976  15.709  0.2478 -0.4204  0.0390
    4MPD1    C314026   2.708   3.003  15.837 -0.1855  0.1792 -0.4094
    4MPD1    C414027   2.585   3.056  15.840  0.3105  0.4024 -0.4364
    4MPD1    C514028   2.522   3.095  15.725  0.0098 -0.4342  0.3895
    4MPD1     H14029   2.866   2.938  15.705  0.2326 -0.3515 -0.9758
    4MPD1    H114030   2.541   3.094  15.932  0.6365  1.2654 -0.6323
    4MPD1    H214031   2.514   3.106  15.520 -1.7607 -0.8040  1.7386
    4MPD1    H314032   2.427   3.145  15.734 -0.1328 -0.7187  0.4523
    4MPD1     N14033   2.783   2.999  15.959  0.2042 -0.3015  0.2570
    4MPD1    H514034   2.883   2.988  15.952  0.1582 -0.3170 -0.4256
    4MPD1    N114035   2.750   2.984  15.465 -1.5008 -0.5572  0.5609
    4MPD1    H614036   2.806   2.900  15.472 -1.6284 -0.6087  0.9717
    4MPD1    H714037   2.680   2.965  15.393  0.7116 -0.0271 -1.7360
    1TCq1    O114038   4.433   2.692  11.906  0.2977  0.1899 -0.0968
    1TCq1    C114039   4.301   2.698  11.869  0.1170 -0.5676  0.1683
    1TCq1    O214040   4.213   2.769  11.913 -0.0176 -0.4410 -0.5509
    1TCq1    C214041   4.297   2.664  11.729 -0.3839 -0.5935 -0.8800
    1TCq1    C314042   4.378   2.565  11.681  0.1499  0.4054 -0.3372
    1TCq1    C414043   4.360   2.521  11.554 -0.7297 -0.0832 -0.4174
    1TCq1    C514044   4.320   2.610  11.461 -0.0765  0.2349 -0.5212
    1TCq1    C614045   4.261   2.721  11.513 -1.2171  0.4703 -0.1989
    1TCq1    C714046   4.233   2.752  11.647 -0.1257  0.3233 -0.0189
    1TCq1    C814047   4.240   2.835  11.428  0.0439  0.0162 -0.2971
    1TCq1    O414048   4.181   2.936  11.469  0.5853 -0.0353  0.5633
    1TCq1    C914049   4.457   2.427  11.505 -1.2782 -0.8465 -0.2541
    1TCq1    O514050   4.520   2.457  11.406  0.1686 -0.3705 -0.2814
    1TCq1    O614051   4.474   2.337  11.590 -0.0313 -0.8431  0.3977
    1TCq1    H114052   4.494   2.633  11.856 -0.9721 -2.4474  1.4625
    1TCq1    H214053   4.422   2.498  11.754  2.8728  0.5264 -1.8710
    1TCq1    H314054   4.335   2.590  11.355 -0.1762 -2.5133 -0.0293
    1TCq1    H414055   4.169   2.831  11.683 -0.5020  0.9887 -2.1573
    2MPD1     C14056   4.380   3.129  11.027 -0.6051 -0.0865 -0.0084
    2MPD1    C114057   4.490   3.059  11.071  0.1726 -0.1773 -0.4145
    2MPD1    C214058   4.467   2.961  11.166 -0.6226 -0.4061 -0.8415
    2MPD1    C314059   4.351   2.945  11.233 -0.2371 -0.6529  0.6908
    2MPD1    C414060   4.246   3.031  11.201 -0.3357  0.1412  0.2688
    2MPD1    C514061   4.259   3.118  11.095 -0.4198  0.8698  1.0393
    2MPD1     H14062   4.555   2.899  11.184 -1.2576 -0.5873  1.6117
    2MPD1    H114063   4.146   3.028  11.243 -0.8641 -0.1254 -1.0239
    2MPD1    H214064   4.385   3.189  10.937 -0.9206 -0.7049 -0.4428
    2MPD1    H314065   4.182   3.177  11.048 -0.8123 -0.2744  0.2516
    2MPD1     N14066   4.335   2.835  11.326 -0.1899 -0.5113 -0.3877
    2MPD1    H514067   4.402   2.760  11.333 -0.7964 -1.1452 -1.3067
    2MPD1    N114068   4.613   3.066  11.008  0.3143 -0.0963  0.1711
    2MPD1    H614069   4.629   3.160  10.973  1.1035  0.3243  1.6858
    2MPD1    H714070   4.687   3.045  11.075  0.4092 -1.9190 -0.4959
    1TCq1    O114071   2.286   4.366   1.148 -0.3789 -0.1393  0.8262
    1TCq1    C114072   2.319   4.490   1.113  0.0283  0.6277 -0.1412
    1TCq1    O214073   2.381   4.567   1.185  0.5504 -0.1505 -0.6126
    1TCq1    C214074   2.286   4.517   0.970  0.4506 -1.0060  0.1953
    1TCq1    C314075   2.238   4.641   0.933 -0.5635  0.2976  0.7198
    1TCq1    C414076   2.228   4.671   0.798  1.3651 -0.1601 -0.3437
    1TCq1    C514077   2.207   4.572   0.708  0.1786  0.2568  0.2414
    1TCq1    C614078   2.248   4.442   0.749  0.4643  0.4707  0.1318
    1TCq1    C714079   2.295   4.411   0.877 -0.6816 -0.6412  0.2476
    1TCq1    C814080   2.243   4.332   0.648 -0.6150 -0.6311 -0.0536
    1TCq1    O414081   2.236   4.364   0.528  0.0482  0.6581 -0.4575
    1TCq1    C914082   2.179   0.080   0.764  0.1629  0.3703 -0.4036
    1TCq1    O514083   2.174   0.112   0.644  0.0097 -0.4929  0.3477
    1TCq1    O614084   2.102   0.131   0.852 -0.1954 -0.0756  0.1566
    1TCq1    H114085   2.232   4.315   1.084 -1.4711  3.1745 -0.8956
    1TCq1    H214086   2.251   0.006   1.000 -4.1302  0.6505  0.9905
    1TCq1    H314087   2.165   4.595   0.611  1.8810  0.7507 -0.3814
    1TCq1    H414088   2.347   4.320   0.904 -0.8073 -0.5377  0.8276
    2MPD1     C14089   2.190   3.839   0.521 -0.2807  0.1644 -0.2642
    2MPD1    C114090   2.224   3.854   0.656  1.1368 -0.0422  0.1140
    2MPD1    C214091   2.235   3.981   0.715  0.4132 -0.5874  0.7782
    2MPD1    C314092   2.226   4.091   0.636 -0.1654  0.0165 -0.4316
    2MPD1    C414093   2.201   4.084   0.498 -0.3185 -0.5051 -0.3074
    2MPD1    C514094   2.178   3.953   0.450  0.9285 -0.1597 -0.1677
    2MPD1     H14095   2.243   4.002   0.821  0.8022  1.0921  0.4181
    2MPD1    H114096   2.181   4.171   0.437  0.2409  0.3884  0.7939
    2MPD1    H214097   2.176   3.743   0.472  1.1616 -0.7320  1.0921
    2MPD1    H314098   2.140   3.939   0.350  1.8672 -1.3041 -0.3615
    2MPD1     N14099   2.240   4.209   0.705  0.4093  0.2067 -0.1165
    2MPD1    H514100   2.239   4.205   0.806 -0.2938  1.5014 -0.0616
    2MPD1    N114101   2.239   3.744   0.742  0.5997  0.5717 -0.0529
    2MPD1    H614102   2.228   3.777   0.838 -1.3554 -0.7900  0.2014
    2MPD1    H714103   2.153   3.694   0.720  0.7988 -0.5171  1.6365
    1MPD1     C14104   1.332   1.352  12.258  0.3328 -0.0140  0.5699
    1MPD1    C114105   1.291   1.482  12.248  0.3785  0.1773 -0.2373
    1MPD1    C214106   1.373   1.592  12.231 -0.1812  1.1560  0.4671
    1MPD1    C314107   1.505   1.564  12.203 -0.1635 -0.0922 -0.4519
    1MPD1    C414108   1.552   1.433  12.194  0.0417  0.4401 -0.2440
    1MPD1    C514109   1.465   1.329  12.229 -0.7298  0.1843 -0.3505
    1MPD1     H14110   1.343   1.695  12.238 -0.2939  0.9950  2.3174
    1MPD1    H114111   1.654   1.404  12.173 -0.1609 -1.3281  1.2383
    1MPD1    H214112   1.270   1.264  12.251  1.8764 -0.9552 -1.3791
    1MPD1    H314113   1.511   1.231  12.226  2.6364  1.7155  1.1229
    1MPD1     N14114   1.587   1.673  12.181 -0.0110 -0.5843  0.4251
    1MPD1    H514115   1.529   1.756  12.190  2.4912  1.1897  0.1296
    1MPD1    N114116   1.151   1.509  12.235 -0.4614  0.1444  0.6415
    1MPD1    H614117   1.133   1.589  12.294 -0.5187 -0.1234  0.9882
    1MPD1    H714118   1.085   1.441  12.273 -1.9668  1.3958  0.2142
    2MPD1     C14119   0.685   3.314  11.305  0.2919  0.4194 -0.2403
    2MPD1    C114120   0.674   3.266  11.182 -0.0131 -0.5798 -0.0194
    2MPD1    C214121   0.771   3.182  11.132 -0.4371  0.2583 -0.1613
    2MPD1    C314122   0.866   3.134  11.219 -0.2540  0.4821 -0.6926
    2MPD1    C414123   0.865   3.165  11.347 -0.3062  0.0706 -0.1271
    2MPD1    C514124   0.774   3.260  11.388 -0.4879  0.1175 -0.2876
    2MPD1     H14125   0.780   3.167  11.025  0.1887 -2.2987  0.2551
    2MPD1    H114126   0.942   3.128  11.413 -0.2541  0.0790 -0.1825
    2MPD1    H214127   0.609   3.377  11.349 -0.5643 -1.1743  0.5637
    2MPD1    H314128   0.774   3.308  11.485  0.8100  0.2434 -0.3494
    2MPD1     N14129   0.960   3.029  11.182 -0.0351  0.2411  0.4767
    2MPD1    H514130   1.027   2.993  11.249 -0.9107 -1.3565  0.4696
    2MPD1    N114131   0.567   3.320  11.100  0.0295  0.5315 -0.5709
    2MPD1    H614132   0.476   3.332  11.143  0.7395 -0.4220  1.2040
    2MPD1    H714133   0.561   3.270  11.012  3.1227  0.4645 -0.7520
    3MPD1     C14134   1.415   2.751  10.251  0.5371  0.2469  0.7480
    3MPD1    C114135   1.497   2.825  10.328  0.6292 -0.6701  1.0368
    3MPD1    C214136   1.458   2.849  10.451  0.1666  0.1941  0.9254
    3MPD1    C314137   1.334   2.797  10.497  0.3441 -0.6488  1.1852
    3MPD1    C414138   1.253   2.723  10.413 -0.5695 -0.5908 -0.0811
    3MPD1    C514139   1.287   2.713  10.286  0.3367 -0.6235  0.7825
    3MPD1     H14140   1.514   2.912  10.519  1.9279  0.8916 -1.1693
    3MPD1    H114141   1.151   2.700  10.443 -0.3977  1.7510  2.3756
    3MPD1    H214142   1.448   2.728  10.150  2.0306 -1.9053  1.7369
    3MPD1    H314143   1.221   2.672  10.210  0.5280  0.6748 -0.0889
    3MPD1     N14144   1.301   2.819  10.635 -0.1522  0.2206 -0.4848
    3MPD1    H514145   1.371   2.875  10.683  0.0579  0.0122 -0.5480
    3MPD1    N114146   1.631   2.843  10.297 -0.5016  0.1496  0.1350
    3MPD1    H614147   1.636   2.856  10.196  0.0457 -1.2368 -0.0079
    3MPD1    H714148   1.669   2.927  10.341  3.1023 -1.0079 -0.8065
    4MPD2     C14149   1.598   2.396  12.207  0.4543 -0.3885  0.2846
    4MPD2    C114150   1.707   2.334  12.152 -0.2495 -0.1425  0.9037
    4MPD2    C214151   1.775   2.398  12.048 -0.4119  0.1908  0.1729
    4MPD2    C314152   1.743   2.528  12.004 -0.5174  0.5360  0.1010
    4MPD2    C414153   1.625   2.581  12.058 -0.2875  0.5541  0.1672
    4MPD2    C514154   1.557   2.514  12.149  0.4516 -0.3600  0.1098
    4MPD2     H14155   1.863   2.346  12.011 -0.7993 -0.3385 -0.0091
    4MPD2    H114156   1.586   2.671  12.013 -1.1401  0.2842  0.3660
    4MPD2    H214157   1.546   2.344  12.287 -0.8813  0.6818  0.1104
    4MPD2    H314158   1.464   2.558  12.185  2.3696  0.5713  3.9394
    4MPD2     N14159   1.810   2.587  11.895 -0.3258 -0.5511 -0.3330
    4MPD2    H514160   1.775   2.672  11.852  2.4095  1.7572  1.9734
    4MPD2    N114161   1.759   2.209  12.188 -0.5098  0.2208  0.3041
    4MPD2    H714162   1.846   2.179  12.144 -1.3853  0.4388 -1.5504
    5TMC3    C114163   1.781   2.009  12.285  0.1256 -0.8966  0.6286
    5TMC3    C214164   1.711   1.897  12.247 -0.3064  0.2219 -0.5768
    5TMC3    C314165   1.772   1.808  12.161 -0.2273  1.1430 -0.1612
    5TMC3    C414166   1.901   2.035  12.236 -0.0571 -0.4090  0.8348
    5TMC3    C514167   1.961   1.950  12.155 -0.3325 -0.8774 -0.1614
    5TMC3    C614168   1.896   1.827  12.116  0.1431 -0.2424 -0.4649
    5TMC3     C14169   1.706   2.127  12.286 -0.0017 -0.6036  0.0947
    5TMC3     O14170   1.599   2.142  12.345 -0.0973 -0.0123  0.4715
    5TMC3     H14171   1.605   1.892  12.269 -0.8390 -1.2810 -3.5866
    5TMC3    H114172   1.961   2.116  12.276  0.5994 -0.9599  0.9539
    5TMC3    H214173   1.952   1.751  12.062  0.1419 -0.5077 -0.0922
    5TMC3    C714174   2.017   2.024  12.046  0.0253 -0.3264  0.2165
    5TMC3    C814175   1.718   1.676  12.151 -0.2034 -0.9759 -0.1891
    5TMC3    O114176   1.992   2.143  12.052 -0.3444  0.0749  0.1145
    5TMC3    O214177   1.790   1.589  12.105 -0.2565  0.0551  0.2072
    6TMC3    C114178   1.090   2.875  11.051 -0.3892  0.2478 -0.3481
    6TMC3    C214179   1.085   2.828  10.918 -0.7989  0.7831 -0.0906
    6TMC3    C314180   1.199   2.824  10.840  0.2962  0.2894 -0.0580
    6TMC3    C414181   1.211   2.915  11.109  0.5562  0.2290  0.2368
    6TMC3    C514182   1.321   2.885  11.025 -0.0516  0.6894 -0.0408
    6TMC3    C614183   1.319   2.851  10.897  0.1117 -0.3997  1.2082
    6TMC3     C14184   0.974   2.971  11.063 -0.7164  0.1718  0.2772
    6TMC3     O14185   0.922   3.001  10.957 -0.4246  0.0774  0.3146
    6TMC3     H14186   0.995   2.803  10.864 -1.2750 -0.9100  1.4887
    6TMC3    H114187   1.221   2.934  11.215  0.0303  1.4636  0.0679
    6TMC3    H214188   1.413   2.818  10.854 -0.6545 -2.2155  0.9146
    6TMC3    C714189   1.452   2.894  11.088 -0.8821 -0.0200 -0.1140
    6TMC3    C814190   1.191   2.773  10.705 -0.4187  0.1297 -0.0327
    6TMC3    O114191   1.445   2.907  11.211  0.2829  0.3251  0.3287
    6TMC3    O214192   1.092   2.712  10.668 -0.3137 -0.5881  0.1215
    7MPD2     C14193   2.226   2.115  11.593 -0.1908  0.4561  0.3510
    7MPD2    C114194   2.162   2.200  11.677 -0.0342 -0.5981  0.6224
    7MPD2    C214195   2.105   2.139  11.788  0.4895 -0.2731 -0.5686
    7MPD2    C314196   2.114   2.003  11.819  1.3078  0.1470  0.7303
    7MPD2    C414197   2.177   1.922  11.730  0.3045  0.0298  0.2375
    7MPD2    C514198   2.236   1.980  11.617 -0.1101  0.0332 -0.3082
    7MPD2     H14199   2.053   2.209  11.853  0.2457 -0.2019 -0.8383
    7MPD2    H114200   2.195   1.820  11.761 -2.4148  0.4880  3.2592
    7MPD2    H214201   2.284   2.158  11.512 -3.9227  4.8580 -0.0005
    7MPD2    H314202   2.294   1.919  11.549 -0.6306  1.1050 -1.6929
    7MPD2     N14203   2.069   1.946  11.943 -0.7122 -0.4579  0.0072
    7MPD2    H514204   2.079   1.846  11.952  1.5990 -0.0975  1.5188
    7MPD2    N114205   2.152   2.338  11.666 -0.1894  0.1464 -0.0640
    7MPD2    H714206   2.104   2.383  11.743  0.3158  0.7512 -0.0987
    8TMC3    C114207   2.121   2.538  11.560 -0.6913 -0.4380 -0.1392
    8TMC3    C214208   2.031   2.561  11.461  0.0337  0.1929  0.1966
    8TMC3    C314209   1.903   2.609  11.497 -0.1071  0.5559 -0.0888
    8TMC3    C414210   2.100   2.579  11.688  0.0887  0.1226  0.2638
    8TMC3    C514211   1.969   2.613  11.722 -0.2333  0.2012 -0.5359
    8TMC3    C614212   1.870   2.633  11.626 -0.1378  0.5281  0.3042
    8TMC3     C14213   2.173   2.407  11.553  0.5264  0.2606  0.4367
    8TMC3     O14214   2.199   2.370  11.442  0.9518  0.2337 -0.1177
    8TMC3     H14215   2.054   2.537  11.357  2.8370  1.8995  0.4111
    8TMC3    H114216   2.178   2.556  11.760 -0.9903 -0.0995  1.3684
    8TMC3    H214217   1.767   2.645  11.659 -0.2303  0.6704 -0.0333
    8TMC3    C714218   1.933   2.548  11.842 -0.3311 -0.0396  0.4967
    8TMC3    C814219   1.819   2.689  11.408 -0.6291 -1.0710  0.8469
    8TMC3    O114220   2.004   2.451  11.880 -0.6407 -0.0651 -0.0522
    8TMC3    O214221   1.706   2.720  11.443  0.1065 -0.3817  0.1943
    9MPD2     C14222   1.951   2.866  11.128  1.1208 -0.2096 -0.7450
    9MPD2    C114223   1.854   2.803  11.196 -0.2344 -0.4315  0.0313
    9MPD2    C214224   1.720   2.824  11.163 -0.9353 -0.1539 -0.6170
    9MPD2    C314225   1.688   2.897  11.048  0.3548 -0.6104  0.4330
    9MPD2    C414226   1.793   2.952  10.977 -0.5924  0.1119 -0.8280
    9MPD2    C514227   1.915   2.957  11.029  0.0901 -0.0873 -0.1146
    9MPD2     H14228   1.649   2.764  11.219 -0.8883 -0.0488 -0.4449
    9MPD2    H114229   1.773   3.021  10.896  0.8287 -0.7943 -1.9411
    9MPD2    H214230   2.057   2.843  11.134  1.1921 -0.1213 -1.7441
    9MPD2    H314231   1.986   3.006  10.964  1.8060 -0.9920  1.1091
    9MPD2     N14232   1.558   2.909  11.004  0.2350 -0.4020  0.1437
    9MPD2    H514233   1.542   2.939  10.908  0.4488 -0.7745 -0.0122
    9MPD2    N114234   1.894   2.735  11.308 -0.2255 -0.2650 -0.5794
    9MPD2    H714235   1.995   2.727  11.315 -0.1457  2.8009  1.8237
    1MPD1     C14236   4.698   1.046  17.368 -0.4459  0.8947 -0.1527
    1MPD1    C114237   4.587   1.078  17.294  0.2041  0.7969 -0.7400
    1MPD1    C214238   4.567   1.203  17.243 -0.2353 -0.3564  0.3445
    1MPD1    C314239   4.657   1.306  17.277  0.5995  0.9148  0.4352
    1MPD1    C414240   0.046   1.276  17.355 -0.8169  0.0353 -0.1355
    1MPD1    C514241   0.067   1.147  17.396 -0.3111  0.1745  0.3690
    1MPD1     H14242   4.471   1.225  17.196  0.1798  0.7314  0.0012
    1MPD1    H114243   0.111   1.356  17.389 -0.2894 -0.1708 -0.6579
    1MPD1    H214244   4.715   0.950  17.416  0.5769  1.3617  0.4207
    1MPD1    H314245   0.149   1.123  17.463  1.2866  0.5997 -1.4702
    1MPD1     N14246   4.651   1.435  17.232  0.4951 -0.1293 -0.2444
    1MPD1    H514247   0.000   1.498  17.273 -0.8895  0.8438  0.5493
    1MPD1    N114248   4.502   0.978  17.252 -0.1307  0.0605 -0.1383
    1MPD1    H614249   4.514   0.890  17.302 -1.7698 -0.1763 -0.1499
    1MPD1    H714250   4.401   0.994  17.250 -0.4017 -1.4843  1.6981
    2MPD1     C14251   3.919   2.101  17.047 -0.0772  0.2034 -0.3154
    2MPD1    C114252   3.913   1.992  17.137  0.2443  0.2735  0.8805
    2MPD1    C214253   4.029   1.931  17.165 -0.2372  0.1928 -0.3387
    2MPD1    C314254   4.149   1.975  17.109 -0.4028 -0.0417  0.2964
    2MPD1    C414255   4.152   2.093  17.045  0.7667 -0.3803  0.0493
    2MPD1    C514256   4.038   2.158  17.014  0.2224  0.2959  0.5149
    2MPD1     H14257   4.030   1.840  17.224 -2.4628 -0.0465 -0.6542
    2MPD1    H114258   4.239   2.136  16.996 -0.3404 -0.1240 -1.6639
    2MPD1    H214259   3.833   2.140  16.994 -1.2849 -1.7678  0.1841
    2MPD1    H314260   4.039   2.251  16.958 -1.3815 -0.1484 -0.2421
    2MPD1     N14261   4.261   1.892  17.108  0.9724 -0.2364 -0.2336
    2MPD1    H514262   4.258   1.806  17.162 -1.3428  0.1864  0.3032
    2MPD1    N114263   3.793   1.971  17.204 -0.8523  0.3023 -0.8974
    2MPD1    H614264   3.779   1.874  17.231 -0.8392  1.2261  2.4944
    2MPD1    H714265   3.713   2.004  17.151  0.4275  0.9407 -2.4117
    3TCq2    C114266   4.382   1.940  17.066 -0.7979  0.9007 -0.2148
    3TCq2    O214267   4.420   2.044  17.017 -0.6911  0.0485 -0.5491
    3TCq2    C214268   4.489   1.845  17.091  0.1843  0.0291  0.1326
    3TCq2    C314269   4.622   1.890  17.082  0.4242 -0.0355 -0.4203
    3TCq2    C414270   0.007   1.810  17.097 -0.2078 -0.6982 -0.5187
    3TCq2    C514271   4.711   1.680  17.118  0.0448 -0.2792 -0.3923
    3TCq2    C614272   4.580   1.631  17.129  0.2318 -0.6495 -0.2236
    3TCq2    C714273   4.469   1.710  17.110  0.5972  0.2864 -0.2166
    3TCq2    C814274   4.556   1.485  17.150  0.3379 -0.3647 -0.1304
    3TCq2    O414275   4.450   1.435  17.122  0.0120 -0.0957  0.1128
    3TCq2    C914276   0.150   1.852  17.080 -0.1710 -0.1112 -0.0708
    3TCq2    O514277   0.241   1.769  17.117 -0.1088 -0.0866  0.0805
    3TCq2    O614278   0.161   1.976  17.056  0.3264 -0.4273 -0.0876
    3TCq2    H214279   4.646   1.994  17.063 -1.9769  1.0445  2.3703
    3TCq2    H314280   0.067   1.603  17.116  0.1333 -0.1916 -0.4397
    3TCq2    H414281   4.369   1.671  17.118  0.4486  0.5516 -0.7422
    1TCq1    O114282   4.084   4.574  13.128  0.5226 -0.3391  0.1194
    1TCq1    C114283   3.962   4.596  13.183 -0.0563 -0.1323  0.4307
    1TCq1    O214284   3.881   4.507  13.212 -0.0153  0.3437  0.0060
    1TCq1    C214285   3.924   0.013  13.141  1.0555 -0.1501 -0.8928
    1TCq1    C314286   3.793   0.024  13.100 -0.2823 -0.1100 -0.3214
    1TCq1    C414287   3.740   0.151  13.103 -0.1954  0.6163 -0.5300
    1TCq1    C514288   3.815   0.260  13.147 -0.3920 -0.4484 -0.1281
    1TCq1    C614289   3.951   0.239  13.170  0.1276  0.0511 -0.0065
    1TCq1    C714290   4.006   0.114  13.175  0.1348  0.7259 -0.1179
    1TCq1    C814291   4.036   0.362  13.146 -0.1149  0.0427  0.8531
    1TCq1    O414292   3.984   0.472  13.132  0.0502  0.2749 -0.4903
    1TCq1    C914293   3.602   0.166  13.083 -0.3334 -0.1838 -0.5694
    1TCq1    O514294   3.538   0.069  13.031 -0.0050 -0.2475  0.1976
    1TCq1    O614295   3.559   0.286  13.101  0.0649  0.0880  0.0243
    1TCq1    H114296   4.146   4.639  13.089 -2.3153  1.1201 -1.9564
    1TCq1    H214297   3.732   4.659  13.069  1.3487 -0.8388 -1.5593
    1TCq1    H314298   3.775   0.359  13.132 -0.1949 -0.6899 -2.3010
    1TCq1    H414299   4.107   0.091  13.206  0.8997  0.3776 -2.9153
    2MPD2     C14300   4.251   0.543  13.055  0.3759 -0.5740 -0.9842
    2MPD2    C114301   4.270   0.435  13.139  0.2095  0.4858  0.0994
    2MPD2    C214302   4.397   0.409  13.180 -0.0875 -0.0213 -0.1879
    2MPD2    C314303   4.502   0.499  13.147 -0.7061 -0.0352 -0.1185
    2MPD2    C414304   4.481   0.615  13.074  0.3600 -0.6314 -0.1510
    2MPD2    C514305   4.349   0.634  13.025 -0.1592  0.2858 -0.5086
    2MPD2     H14306   4.419   0.327  13.246  0.3707  0.0182 -0.2943
    2MPD2    H114307   4.564   0.673  13.035  0.5458 -0.2076  0.8650
    2MPD2    H214308   4.148   0.567  13.028  0.0789 -0.6524  0.0840
    2MPD2    H314309   4.325   0.717  12.959 -4.0692 -0.1755  0.3713
    2MPD2     N14310   4.636   0.460  13.189  0.0791  0.1940 -0.4385
    2MPD2    H514311   4.645   0.371  13.237  1.7657  0.6076  0.0101
    2MPD2    N114312   4.168   0.338  13.171  0.3826  0.0851 -0.2316
    2MPD2    H714313   4.203   0.254  13.215  0.7071 -0.1235 -0.8768
    3TCq1    O114314   0.612   0.493  13.212  0.0424  0.1383 -0.5007
    3TCq1    C114315   0.506   0.549  13.155 -0.8104  0.6806  0.1290
    3TCq1    O214316   0.512   0.670  13.126 -0.4230 -0.4570 -0.0593
    3TCq1    C214317   0.390   0.480  13.204 -0.3221 -0.3181 -0.5256
    3TCq1    C314318   0.399   0.347  13.183 -0.1460 -0.2918  0.2763
    3TCq1    C414319   0.280   0.277  13.205 -0.0516  0.3345  0.4564
    3TCq1    C514320   0.152   0.334  13.223  0.0400  0.0989  0.7700
    3TCq1    C614321   0.157   0.471  13.211  0.0271 -0.8657  0.3807
    3TCq1    C714322   0.271   0.542  13.202 -0.3131 -0.5880 -0.3815
    3TCq1    C814323   0.031   0.538  13.183  0.6760  0.0513 -0.8610
    3TCq1    O414324   0.041   0.659  13.172  0.2167 -0.2094  1.5492
    3TCq1    C914325   0.293   0.133  13.200  0.9272  0.0670  0.3447
    3TCq1    O514326   0.400   0.087  13.157 -0.2130 -0.1511  0.4781
    3TCq1    O614327   0.190   0.064  13.225  0.0197  0.4309 -0.1096
    3TCq1    H114328   0.583   0.414  13.261 -0.3066  0.8296  0.4107
    3TCq1    H214329   0.487   0.293  13.151 -0.4028 -1.7283  1.9727
    3TCq1    H314330   0.063   0.276  13.246 -0.2853 -0.1996 -1.1848
    3TCq1    H414331   0.260   0.650  13.201  0.8193 -0.4681  0.7351
    1MPD2     C14332   3.782   1.324  14.532  0.4152  0.6827  0.0935
    1MPD2    C114333   3.675   1.369  14.461 -0.6469 -0.0834 -0.9833
    1MPD2    C214334   3.556   1.288  14.457 -0.3732  0.3429 -0.0582
    1MPD2    C314335   3.558   1.162  14.513 -0.0759  0.6110 -0.0827
    1MPD2    C414336   3.673   1.126  14.590 -0.2389 -0.6393  0.3399
    1MPD2    C514337   3.775   1.216  14.605 -0.3881  0.0743 -0.1111
    1MPD2     H14338   3.470   1.317  14.398 -1.2757 -1.1578  0.5145
    1MPD2    H114339   3.675   1.030  14.640 -1.7281 -0.9063 -0.1067
    1MPD2    H214340   3.859   1.398  14.549  1.1736  0.2642 -1.4724
    1MPD2    H314341   3.858   1.180  14.665  0.5920  0.1783 -1.3947
    1MPD2     N14342   3.452   1.078  14.517  0.5446  0.2973  0.7257
    1MPD2    H514343   3.471   0.993  14.569  0.0186  0.2622  0.8698
    1MPD2    N114344   3.685   1.502  14.414 -0.0897  0.0648 -0.5271
    1MPD2    H714345   3.772   1.549  14.437  0.7937 -0.9450 -1.7923
    2TMC3    C114346   3.606   1.716  14.346 -0.0466 -0.4643  0.0357
    2TMC3    C214347   3.491   1.772  14.304  0.0854 -0.7371  0.5397
    2TMC3    C314348   3.431   1.870  14.377  0.1469  0.4472 -0.3104
    2TMC3    C414349   3.664   1.766  14.457  0.2943 -0.4352 -0.1010
    2TMC3    C514350   3.609   1.879  14.516 -0.1230  0.7448 -0.0061
    2TMC3    C614351   3.497   1.934  14.474 -0.5782 -0.0556  0.2775
    2TMC3     C14352   3.586   1.568  14.355 -0.4359  0.2913 -0.1143
    2TMC3     O14353   3.472   1.539  14.333 -0.4620 -0.3408  0.0423
    2TMC3     H14354   3.458   1.742  14.205  3.0842  0.3163 -0.7589
    2TMC3    H114355   3.760   1.729  14.491  0.5690 -0.2309 -0.6602
    2TMC3    H214356   3.438   2.007  14.527  0.9539  0.2688  1.5605
    2TMC3    C714357   3.692   1.971  14.597  0.6644  0.1122  0.7324
    2TMC3    C814358   3.291   1.842  14.396  0.4728  0.0655 -0.5088
    2TMC3    O114359   3.663   2.090  14.592  0.1314  0.0410 -0.3329
    2TMC3    O214360   3.219   1.928  14.448  0.4473 -0.1521 -0.1468
    3TCq1    O114361   4.188   2.776  14.541  0.5186  0.1016 -0.1630
    3TCq1    C114362   4.307   2.710  14.551  0.0801 -0.4304 -0.2426
    3TCq1    O214363   4.410   2.709  14.488  0.3005 -0.1561 -0.1315
    3TCq1    C214364   4.282   2.627  14.665  0.5409  0.0414  0.4173
    3TCq1    C314365   4.381   2.637  14.766  0.7722  0.0121 -0.1178
    3TCq1    C414366   4.370   2.540  14.865 -0.0264  0.0190  0.1728
    3TCq1    C514367   4.273   2.444  14.877 -0.5009  0.5090 -0.3888
    3TCq1    C614368   4.187   2.434  14.763 -0.4865 -0.2811  0.4474
    3TCq1    C714369   4.182   2.537  14.663  0.3407  0.0146  0.4975
    3TCq1    C814370   4.088   2.329  14.748  0.2513 -0.2111  0.0499
    3TCq1    O414371   4.023   2.329  14.643 -0.6414 -0.0406  0.2811
    3TCq1    C914372   4.464   2.549  14.975 -0.2411 -0.1101 -0.3247
    3TCq1    O514373   4.463   2.489  15.081  0.3978  0.3860 -0.1695
    3TCq1    O614374   4.548   2.641  14.950 -0.2573  0.0276  0.0996
    3TCq1    H114375   4.131   2.752  14.617 -0.4569  0.6965 -0.6960
    3TCq1    H214376   4.458   2.713  14.760  1.1388 -0.0958  3.1361
    3TCq1    H314377   4.265   2.373  14.959  1.7579 -0.5140 -1.0781
    3TCq1    H414378   4.119   2.528  14.576  3.0881 -0.5592 -1.4247
    4MPD2     C14379   4.031   2.040  14.967 -0.3083 -0.1639  0.7647
    4MPD2    C114380   4.020   2.117  14.856  0.1264  0.5456 -0.0035
    4MPD2    C214381   3.926   2.075  14.760 -1.1995 -1.4578  0.2262
    4MPD2    C314382   3.857   1.955  14.780 -0.0843 -0.5285 -0.5847
    4MPD2    C414383   3.877   1.879  14.889  0.1106 -0.4673 -0.1477
    4MPD2    C514384   3.958   1.926  14.986 -0.1191 -0.2490 -0.4739
    4MPD2     H14385   3.895   2.130  14.673  2.9735 -0.1285 -0.4223
    4MPD2    H114386   3.818   1.791  14.911 -0.5107 -0.0726 -0.2461
    4MPD2    H214387   4.097   2.076  15.045 -1.2403  1.7142  0.7067
    4MPD2    H314388   3.979   1.868  15.074  3.5422  1.7370 -0.0344
    4MPD2     N14389   3.771   1.901  14.685 -0.2974  0.5983  0.1549
    4MPD2    H514390   3.757   1.801  14.696  0.7801  0.7107  2.4517
    4MPD2    N114391   4.101   2.234  14.846 -0.0273 -0.1117 -0.0797
    4MPD2    H714392   4.161   2.249  14.927 -0.0754 -1.9105  0.2890
    5TMC2    C114393   2.986   1.058  14.480 -0.5584 -0.5269 -0.3649
    5TMC2    C214394   2.987   1.031  14.613  0.3524 -0.2958 -0.7585
    5TMC2    C314395   3.099   0.977  14.674  0.2638 -0.3202 -0.1060
    5TMC2    C414396   3.112   1.036  14.413 -0.2059 -0.0093  0.1018
    5TMC2    C514397   3.225   1.002  14.481 -0.2851  0.6836 -0.1918
    5TMC2    C614398   3.221   0.959  14.611 -0.2878 -0.2270  0.3344
    5TMC2     C14399   2.942   1.198  14.469 -0.4619 -0.1498  0.4135
    5TMC2     O14400   2.841   1.223  14.530  0.0020  0.0082 -0.1749
    5TMC2     H14401   2.899   1.041  14.674  2.4424 -0.4767  2.2587
    5TMC2    H114402   3.108   1.068  14.309 -1.3157 -0.1002  0.1095
    5TMC2    H214403   3.296   0.893  14.652 -0.0076 -0.4975 -0.6344
    5TMC2    C714404   3.329   1.098  14.457  0.1582 -0.5004  0.3516
    5TMC2    C814405   3.105   0.960  14.815 -0.0160 -0.7255  0.1737
    5TMC2    O114406   3.291   1.183  14.383  0.1899  0.0282  0.0656
    5TMC2    O214407   3.181   0.871  14.863 -0.6754  0.1529  1.0318
    5TMC2    O514408   3.015   1.035  14.884 -0.1776  0.1994 -0.4553
    5TMC2    H514409   2.986   1.121  14.847 -1.3293  0.2727  0.6129
    6MPD2     C14410   3.014   1.703  14.413  0.8934 -1.2367  0.1417
    6MPD2    C114411   3.141   1.637  14.397  0.6345  0.3441 -0.2096
    6MPD2    C214412   3.142   1.498  14.395 -0.4134  0.0706  0.6570
    6MPD2    C314413   3.024   1.425  14.414  0.0692  0.1003 -0.2324
    6MPD2    C414414   2.904   1.489  14.421 -0.2974  0.4322 -0.2946
    6MPD2    C514415   2.901   1.626  14.426 -0.1440 -0.8579 -0.6858
    6MPD2     H14416   3.234   1.443  14.385 -1.1870 -1.1551  0.2936
    6MPD2    H114417   2.816   1.431  14.448 -2.7079  3.2244 -2.1633
    6MPD2    H214418   3.009   1.811  14.413  4.3411 -1.0704 -0.1241
    6MPD2    H314419   2.803   1.672  14.437 -0.2455 -0.9953 -1.0252
    6MPD2     N14420   3.041   1.285  14.429 -0.6777  0.1471 -0.4406
    6MPD2    H514421   3.134   1.243  14.423  0.2821  2.2253 -0.1021
    6MPD2    N114422   3.267   1.705  14.372  0.7315  0.3426 -0.1869
    6MPD2    H714423   3.344   1.642  14.353  1.0154  0.4973  0.4498
  945NH3     N114424   1.047   0.753  12.893 -0.2595 -0.2732  0.5377
  945NH3     H214425   1.071   0.811  12.973 -1.4118 -1.5787  1.8275
  945NH3     H314426   1.133   0.707  12.864  1.4735  3.7078 -0.5335
  945NH3     H414427   1.005   0.669  12.931  0.2927 -0.5852  0.4662
  946SOD     NA14428   0.690   3.720  14.264  0.7574 -0.0779 -0.2435
  947SOD     NA14429   0.464   4.584  13.146 -0.0159  0.2429  0.2626
  948SOD     NA14430   0.689   0.535   0.448 -0.3447 -0.0038  0.2794
  949SOD     NA14431   1.479   1.602  13.702  0.2005 -0.1403  0.0653
  950SOD     NA14432   2.583   0.330   9.343  0.8968  0.5268 -0.2811
  951SOD     NA14433   0.207   1.717  16.061  0.3339 -0.1338  0.2844
  952SOD     NA14434   0.181   2.161  17.171 -0.0650 -0.1415  0.1594
  953SOD     NA14435   2.075   4.200   6.232  0.0160 -0.2164  0.2202
  954SOD     NA14436   4.391   2.088   7.674 -0.1216 -0.0147  0.0086
  955SOD     NA14437   0.616   2.128  14.210 -0.0893 -0.1453 -0.0042
  956SOD     NA14438   2.601   4.566   2.800 -0.1202  0.0927  0.1023
  957SOD     NA14439   2.494   1.360   0.831 -0.2570 -0.0423  0.2682
  958SOD     NA14440   3.322   2.250  11.868  0.3217  0.5566  0.3533
  959SOD     NA14441   2.305   0.050  13.021  0.5536 -0.5234 -0.4498
  960SOD     NA14442   0.218   0.946  14.184 -0.3253  0.3989 -0.1248
  961SOD     NA14443   4.292   4.306  10.785  0.1705  0.0018  0.0636
  962SOD     NA14444   2.788   1.700  10.799 -0.5782  0.2829 -0.4763
  963SOD     NA14445   1.459   4.533  13.864 -0.0038  0.0223  0.4187
  964SOD     NA14446   2.850   1.920   5.239  0.0734  0.1665 -0.0025
  965SOD     NA14447   2.704   3.640   9.848 -0.1394 -0.1710  0.4033
  966SOD     NA14448   3.377   0.944  14.960 -0.2428  0.0130 -0.1997
  967SOD     NA14449   2.515   4.247   9.102 -0.1666  0.2456 -0.0745
  968SOD     NA14450   4.276   1.619   4.613 -0.3461  0.1291 -0.7357
  969SOD     NA14451   1.701   0.230  11.565 -0.0794 -0.1241  0.2880
  970SOD     NA14452   1.432   3.463   0.787  0.1685 -0.1903  0.0243
  971SOD     NA14453   3.364   4.712  12.938 -0.3931 -0.2976 -0.8689
  972SOD     NA14454   2.351   1.196  10.343  0.1054  0.0749  0.3124
  973SOD     NA14455   0.821   1.339   0.240  0.5726  0.6329 -0.1209
  974SOD     NA14456   1.027   1.856  15.311 -0.0525  0.1896 -0.1994
  975SOD     NA14457   2.905   1.419  10.620  0.4052  0.5908 -0.0453
  976SOD     NA14458   4.602   0.117  12.864  0.0015  0.1045  0.0509
  977SOD     NA14459   0.447   2.584  11.770 -0.0467  0.0226  0.1359
  978SOD     NA14460   0.520   0.145   1.369 -0.1620  0.1268 -0.1992
  979SOD     NA14461   0.458   0.438  14.902  0.0476  0.3600 -0.4564
  980SOD     NA14462   3.419   0.867  15.236  0.0787 -0.2266  0.2115
  981SOD     NA14463   0.812   0.603  10.509  0.1459  0.4996  0.3846
  982SOD     NA14464   0.834   4.397  11.108 -0.1294 -0.3196  0.1698
  983SOD     NA14465   4.202   0.640  11.718 -0.4730  0.1518  0.1271
  984SOD     NA14466   4.215   2.457   0.256 -0.1581  0.3048 -0.1266
  985SOD     NA14467   3.765   4.484   0.044 -0.0708 -0.2145  0.2194
  986SOD     NA14468   0.585   3.656   1.777  0.6476 -0.0834 -0.0619
  987SOD     NA14469   4.369   4.535   3.571  0.5266  0.0192 -0.1240
  988SOD     NA14470   2.877   3.495  10.369  0.2375  0.4483 -0.5471
  989SOD     NA14471   0.082   3.742  17.174  0.2173  0.0617 -0.2029
  990SOD     NA14472   2.651   1.951   8.492 -0.1677 -0.0277  0.1368
  991SOD     NA14473   4.575   2.678  15.159 -0.2663  0.3952  0.5043
  992SOD     NA14474   4.453   1.290  13.981 -0.2502 -0.4326 -0.3244
  993SOD     NA14475   1.578   1.544  13.112 -0.3074 -0.1021  0.0703
  994SOD     NA14476   0.326   1.282  11.276  0.2128 -0.3509  0.0282
  995SOD     NA14477   4.066   3.277  13.821 -0.2351  0.0388 -0.1981
  996SOD     NA14478   4.671   1.099  12.997  0.2164 -0.0485  0.0846
  997SOD     NA14479   3.846   4.018  10.436 -0.3064  0.2075  0.5792
  998SOD     NA14480   3.375   0.589  10.211  0.0996 -0.4859 -0.0710
  999SOD     NA14481   1.381   2.843   2.402 -0.0304 -0.1668 -0.1527
 1000SOD     NA14482   2.470   4.440   1.407 -0.1472 -0.2977  0.1560
 1001SOD     NA14483   4.591   2.389   3.909  0.0670  0.1203 -0.1836
 1002SOD     NA14484   4.202   3.467   0.687  0.1542 -0.1567  0.2941
 1003SOD     NA14485   0.590   3.159  14.327  0.1652  0.4228  0.1163
 1004SOD     NA14486   3.347   4.156  15.336 -0.2010  0.0305  0.1347
 1005SOD     NA14487   0.322   4.106   3.371  0.3708 -0.0010 -0.2439
 1006SOD     NA14488   4.104   0.925  11.769 -0.0624  0.3119  0.3375
 1007SOD     NA14489   2.410   1.124   2.416 -0.0549  0.1338  0.3460
 1008SOD     NA14490   0.560   4.065  12.546 -0.6223 -0.2239  0.0390
 1009SOD     NA14491   4.567   1.506  15.659  0.2435 -0.2148  0.4662
 1010SOD     NA14492   4.575   1.438  10.899  0.1477 -0.3588  0.5039
 1011SOD     NA14493   3.304   0.829  10.420 -0.2382 -0.2502  0.6342
 1012SOL     OW14494   3.320   1.072   9.143  0.1997 -0.1659 -0.1973
 1012SOL    HW114495   3.233   1.041   9.171  0.1877 -0.8389 -0.9841
 1012SOL    HW214496   3.314   1.060   9.048 -1.9900  0.0937 -0.0945
 1013SOL     OW14497   0.896   0.395   6.386  0.0238 -0.3562 -0.3764
 1013SOL    HW114498   0.816   0.343   6.399 -1.5605  2.0511 -0.4641
 1013SOL    HW214499   0.959   0.367   6.452  0.5447 -2.3772 -1.7327
 1014SOL     OW14500   3.661   2.963   1.114  0.1204  0.4529 -0.3109
 1014SOL    HW114501   3.702   3.045   1.144  0.7122  0.1920 -0.4188
 1014SOL    HW214502   3.630   2.998   1.031  1.6705  0.2016 -0.9973
 1015SOL     OW14503   3.837   3.207   1.257  0.0408  0.3008  0.0788
 1015SOL    HW114504   3.911   3.240   1.308 -0.1509  0.0960  0.4928
 1015SOL    HW214505   3.785   3.287   1.251 -1.4462 -0.8243 -1.7576
 1016SOL     OW14506   2.918   2.428   1.946  0.1105  0.2373  0.0301
 1016SOL    HW114507   2.867   2.506   1.969  0.6545  0.8342 -0.7753
 1016SOL    HW214508   2.854   2.358   1.957  0.2087 -0.0711 -1.3567
 1017SOL     OW14509   2.050   4.051   4.959  1.2578  0.7326  0.4628
 1017SOL    HW114510   1.988   4.043   4.886  1.6389 -0.0625  0.2276
 1017SOL    HW214511   2.119   4.113   4.933  0.1381  1.2811 -1.2058
 1018SOL     OW14512   2.670   0.533   4.418 -0.2449 -0.4428 -0.2917
 1018SOL    HW114513   2.575   0.526   4.418 -0.1117 -2.2684 -0.1492
 1018SOL    HW214514   2.677   0.582   4.499 -1.0249 -0.3813 -0.2576
 1019SOL     OW14515   3.866   4.409  17.476 -0.0401  0.0805 -0.1170
 1019SOL    HW114516   3.896   4.381  17.390  1.0499  0.8887  0.0055
 1019SOL    HW214517   3.925   4.364  17.536 -0.2939  1.1013  0.9018
 1020SOL     OW14518   1.616   3.434  12.008  0.3759  0.0767  0.3261
 1020SOL    HW114519   1.645   3.463  12.095  0.1160  0.6458  0.2266
 1020SOL    HW214520   1.704   3.433  11.972  0.1657  1.4689 -0.2385
 1021SOL     OW14521   1.822   1.510   2.023  0.2142  0.0546 -0.1849
 1021SOL    HW114522   1.905   1.465   2.041 -0.7225 -1.1118  1.1767
 1021SOL    HW214523   1.818   1.575   2.093 -1.2717  0.1587 -0.3771
 1022SOL     OW14524   2.024   2.504  17.475  0.4641 -0.1572 -0.8498
 1022SOL    HW114525   1.963   2.531  17.544  1.9509  0.0928  0.3506
 1022SOL    HW214526   2.000   2.411  17.478  0.1584 -0.0639 -0.3798
 1023SOL     OW14527   3.470   3.003   3.401  0.8286 -0.1994 -0.2784
 1023SOL    HW114528   3.527   2.936   3.440 -0.6616 -0.8540  0.7911
 1023SOL    HW214529   3.495   2.992   3.309 -0.9536 -1.2154 -0.6298
 1024SOL     OW14530   0.269   0.730  15.154  0.3388 -0.5467  0.2652
 1024SOL    HW114531   0.210   0.669  15.197  0.1393 -0.1850  0.5083
 1024SOL    HW214532   0.247   0.811  15.201  0.7048 -0.4360  0.2491
 1025SOL     OW14533   4.495   3.422  13.815 -0.1839 -0.2241  0.0016
 1025SOL    HW114534   4.575   3.377  13.788 -0.1913  0.1945 -0.7368
 1025SOL    HW214535   4.458   3.435  13.727  1.9805 -0.5935 -0.9619
 1026SOL     OW14536   3.014   2.039   9.448  0.2444 -0.0227 -0.6179
 1026SOL    HW114537   3.080   2.078   9.506  0.0753 -0.6017 -0.0376
 1026SOL    HW214538   3.073   1.996   9.386 -0.1522 -0.8588 -0.3997
 1027SOL     OW14539   2.787   3.887  16.298 -0.6925 -0.4023 -0.0146
 1027SOL    HW114540   2.874   3.895  16.337 -0.1641  0.4724 -1.3554
 1027SOL    HW214541   2.806   3.845  16.214  0.5642 -2.4277  1.2735
 1028SOL     OW14542   3.425   1.736   4.130 -0.2195  0.1275  0.2580
 1028SOL    HW114543   3.372   1.712   4.206  0.0403 -0.1711  0.3426
 1028SOL    HW214544   3.498   1.675   4.138  1.6266  1.9879 -2.4103
 1029SOL     OW14545   4.024   1.142  13.882 -0.4447 -0.8168 -0.3976
 1029SOL    HW114546   4.041   1.189  13.801  0.7054 -1.2597 -0.4215
 1029SOL    HW214547   3.940   1.184  13.901  1.1790  1.4683  1.5659
 1030SOL     OW14548   2.496   3.567   7.019 -0.0918 -0.7730  0.3509
 1030SOL    HW114549   2.462   3.553   7.107 -0.5413  1.9366  0.5924
 1030SOL    HW214550   2.587   3.552   7.045  0.3791  2.3987  0.4890
 1031SOL     OW14551   4.439   4.641   2.739 -0.1521  0.1337 -0.2276
 1031SOL    HW114552   4.361   4.656   2.685 -0.3936 -1.1167 -0.2359
 1031SOL    HW214553   4.498   4.712   2.714  0.2977 -0.0746  0.2616
 1032SOL     OW14554   2.623   1.845  10.153  0.0290 -0.4472 -0.3078
 1032SOL    HW114555   2.659   1.857  10.065  0.1980  0.7494 -0.0634
 1032SOL    HW214556   2.553   1.910  10.155 -0.1685 -0.7479  3.1586
 1033SOL     OW14557   4.025   4.351   7.104 -0.5099  0.3613  1.1634
 1033SOL    HW114558   4.114   4.338   7.137 -1.1492  0.3761  2.8985
 1033SOL    HW214559   3.990   4.265   7.082  2.4076 -1.0326  1.9918
 1034SOL     OW14560   2.262   3.219   4.255  0.1241  0.0526  0.3974
 1034SOL    HW114561   2.259   3.125   4.271  0.6356 -0.4580 -2.3781
 1034SOL    HW214562   2.327   3.240   4.322  0.2800 -0.2131  0.3308
 1035SOL     OW14563   4.014   4.197  17.591 -0.2683 -0.3823 -0.3436
 1035SOL    HW114564   3.944   4.150  17.545 -2.6561  2.2528  0.5949
 1035SOL    HW214565   4.093   4.174  17.543 -0.1932  0.8809 -0.8329
 1036SOL     OW14566   0.765   0.509   7.682  0.1654  0.1860  0.0754
 1036SOL    HW114567   0.822   0.462   7.621  1.3724  1.1056  0.4960
 1036SOL    HW214568   0.832   0.569   7.715  0.0339 -0.1193  0.9053
 1037SOL     OW14569   1.427   1.727   7.737  0.4138 -0.3060  0.3919
 1037SOL    HW114570   1.456   1.739   7.827  0.9436 -0.3981  0.2341
 1037SOL    HW214571   1.492   1.669   7.698 -1.0018 -1.1026 -0.7942
 1038SOL     OW14572   3.078   3.419  17.667  0.5678 -0.4123 -0.1002
 1038SOL    HW114573   3.167   3.455  17.668 -0.3581  1.8933  0.3732
 1038SOL    HW214574   3.087   3.339   0.038 -1.8526  0.3285  1.4888
 1039SOL     OW14575   4.459   2.763   7.925  0.1333  0.9978 -0.2623
 1039SOL    HW114576   4.512   2.684   7.926  0.0404  0.9219 -1.2965
 1039SOL    HW214577   4.446   2.765   7.830  3.1288 -1.9200 -0.7571
 1040SOL     OW14578   3.322   0.773   9.638 -0.4494 -0.1610 -0.1758
 1040SOL    HW114579   3.364   0.826   9.570  0.0542 -1.8740 -1.1949
 1040SOL    HW214580   3.321   0.840   9.707  2.1451  0.3815 -0.6750
 1041SOL     OW14581   3.580   3.913   7.664  0.0288 -0.1778  0.7009
 1041SOL    HW114582   3.662   3.870   7.643  1.0615  1.4557  1.3551
 1041SOL    HW214583   3.609   3.957   7.745 -0.7871  0.1470  0.8187
 1042SOL     OW14584   2.797   1.505  11.776 -0.0016  0.1479 -0.2096
 1042SOL    HW114585   2.842   1.510  11.861 -0.8432 -1.2629  0.3292
 1042SOL    HW214586   2.833   1.581  11.731  0.1732  0.7314  0.9199
 1043SOL     OW14587   3.603   4.361  17.625  0.0744  0.1033 -0.0376
 1043SOL    HW114588   3.564   4.278  17.653 -0.3017  0.3384  0.1343
 1043SOL    HW214589   3.592   4.347  17.531  1.5398  0.1442 -0.2164
 1044SOL     OW14590   2.572   0.926   3.263 -0.4284 -0.3923  0.5051
 1044SOL    HW114591   2.662   0.927   3.230 -0.7246  0.2234 -0.2891
 1044SOL    HW214592   2.586   0.898   3.354 -1.0887  1.6837  1.2395
 1045SOL     OW14593   4.161   0.471  10.089  0.1144 -0.1148  0.5426
 1045SOL    HW114594   4.242   0.423  10.100 -1.5321 -3.0296 -0.1228
 1045SOL    HW214595   4.137   0.501  10.177 -1.7042 -1.4789  0.5111
 1046SOL     OW14596   3.091   0.967   6.523  0.3821  0.0696  0.6235
 1046SOL    HW114597   3.031   0.920   6.580  0.6843 -0.3479  0.6009
 1046SOL    HW214598   3.030   1.030   6.483  1.3714  2.0845  2.2817
 1047SOL     OW14599   3.651   0.501   9.354 -0.1318 -0.0514 -0.3801
 1047SOL    HW114600   3.659   0.526   9.262  2.2199 -2.1286 -0.7397
 1047SOL    HW214601   3.563   0.463   9.357  0.7601 -2.1643 -0.5624
 1048SOL     OW14602   1.271   1.232   5.738 -0.2197  0.1667 -0.1057
 1048SOL    HW114603   1.308   1.169   5.800 -1.8587 -0.8359 -0.1421
 1048SOL    HW214604   1.316   1.314   5.759  0.2165 -0.3270  0.8924
 1049SOL     OW14605   1.354   3.830  15.166 -0.7590  0.4518  0.4001
 1049SOL    HW114606   1.322   3.743  15.187 -1.8053  1.1050  1.4659
 1049SOL    HW214607   1.342   3.867  15.253 -1.1734  0.0302  0.5212
 1050SOL     OW14608   1.258   3.522   6.235 -0.5891  0.4807 -0.3382
 1050SOL    HW114609   1.343   3.516   6.191  0.0689  3.0366  0.5543
 1050SOL    HW214610   1.219   3.436   6.217  1.4803 -0.8152  1.2775
 1051SOL     OW14611   3.883   1.714  14.177 -0.1283 -0.3819 -0.2787
 1051SOL    HW114612   3.918   1.690  14.263  0.0942 -1.0586 -0.5589
 1051SOL    HW214613   3.866   1.807  14.186 -1.8647 -0.7684  0.6268
 1052SOL     OW14614   1.203   1.550   5.068  0.6103  0.3729  0.1506
 1052SOL    HW114615   1.245   1.498   5.137 -2.0617 -0.7979  0.8837
 1052SOL    HW214616   1.278   1.597   5.032  0.3546  1.1867  0.6722
 1053SOL     OW14617   1.422   4.416  14.070  0.5408  0.4517  0.2414
 1053SOL    HW114618   1.420   4.321  14.059 -1.3502  0.5986 -0.7976
 1053SOL    HW214619   1.330   4.421  14.097  1.9505 -0.4224  5.0813
 1054SOL     OW14620   3.612   0.312   5.235  0.5987  0.0396  0.6990
 1054SOL    HW114621   3.548   0.261   5.285  3.1430 -1.3588  2.4916
 1054SOL    HW214622   3.682   0.252   5.211  0.5878  0.6253 -0.8161
 1055SOL     OW14623   1.540   3.286   5.938  0.0391  0.4534 -0.6883
 1055SOL    HW114624   1.519   3.266   6.030 -2.1193  1.2576 -0.9902
 1055SOL    HW214625   1.477   3.358   5.928  0.9521  1.6424  1.9268
 1056SOL     OW14626   2.087   4.053   7.936 -0.3913  0.1620 -0.2509
 1056SOL    HW114627   2.063   4.145   7.949  0.9192  0.2134  1.8803
 1056SOL    HW214628   2.085   4.051   7.841 -0.5313 -0.9329 -0.2241
 1057SOL     OW14629   0.846   4.430  12.716  0.0420  0.2785 -0.1906
 1057SOL    HW114630   0.796   4.379  12.779  1.8566 -0.7038  0.4622
 1057SOL    HW214631   0.815   4.517  12.740  0.5166  0.5034 -0.3912
 1058SOL     OW14632   0.635   3.765   1.578  0.5497 -0.5894 -0.2266
 1058SOL    HW114633   0.552   3.803   1.552  0.2574 -0.9632  0.1600
 1058SOL    HW214634   0.692   3.837   1.604  0.5711 -0.5714 -0.3219
 1059SOL     OW14635   4.065   1.142   4.220 -0.0426  0.1002  0.3097
 1059SOL    HW114636   4.114   1.222   4.201  0.5417 -0.5381 -0.8799
 1059SOL    HW214637   4.136   1.084   4.248  1.5084  1.9147  0.1016
 1060SOL     OW14638   0.075   3.300   7.298 -0.1598 -0.7979 -0.0375
 1060SOL    HW114639   0.105   3.240   7.230  0.1718  0.8800 -1.3580
 1060SOL    HW214640   0.051   3.370   7.238 -2.8461 -2.1827 -0.6001
 1061SOL     OW14641   1.462   2.230   8.887 -1.2762  0.2367  0.0274
 1061SOL    HW114642   1.514   2.165   8.934 -2.0526 -0.6317 -0.3029
 1061SOL    HW214643   1.473   2.303   8.947 -0.8311  0.0881  0.1237
 1062SOL     OW14644   0.893   4.629   0.166  0.0023  0.2292 -0.3793
 1062SOL    HW114645   0.914   4.612   0.075 -0.8035  0.3191 -0.5852
 1062SOL    HW214646   0.933   4.553   0.208 -2.2877  0.7916  2.8782
 1063SOL     OW14647   4.256   0.609   5.104 -0.5793 -0.2244 -0.1858
 1063SOL    HW114648   4.164   0.610   5.132 -0.9354  1.2764 -1.3982
 1063SOL    HW214649   4.247   0.626   5.010  1.8669  0.9730 -0.1868
 1064SOL     OW14650   3.876   0.433  11.224 -0.3225  0.1762  0.6535
 1064SOL    HW114651   3.952   0.483  11.194 -0.0584  0.0496  1.1128
 1064SOL    HW214652   3.802   0.492  11.213 -1.1505 -0.8792  0.6104
 1065SOL     OW14653   2.633   3.675   7.811  0.0164 -0.4858 -0.3983
 1065SOL    HW114654   2.579   3.753   7.808  0.2306 -0.3536 -0.7615
 1065SOL    HW214655   2.670   3.665   7.723  1.0348  1.1744 -0.1473
 1066SOL     OW14656   1.220   1.092   6.574  0.3404  0.4419 -0.0968
 1066SOL    HW114657   1.313   1.110   6.583  0.6547 -2.0538  1.5729
 1066SOL    HW214658   1.186   1.116   6.660 -0.4824  2.2482 -0.9152
 1067SOL     OW14659   1.681   0.158   6.012 -0.2902 -0.2039 -0.4134
 1067SOL    HW114660   1.601   0.110   6.033 -0.4916  0.7327  0.9527
 1067SOL    HW214661   1.682   0.166   5.917  1.1988 -2.3214 -0.5895
 1068SOL     OW14662   2.402   4.245   8.014 -0.2635  0.3746 -0.6978
 1068SOL    HW114663   2.399   4.300   8.092  1.2506  1.6462 -1.5251
 1068SOL    HW214664   2.310   4.239   7.991 -0.2385 -1.7679 -0.2260
 1069SOL     OW14665   0.125   2.096   0.564 -0.3841 -0.0493 -0.4978
 1069SOL    HW114666   0.195   2.034   0.540  0.9773  0.2152  2.8872
 1069SOL    HW214667   0.158   2.185   0.576 -0.1207  0.1509 -2.5982
 1070SOL     OW14668   1.341   0.835   2.934  0.2413  0.3124 -0.0718
 1070SOL    HW114669   1.396   0.911   2.957 -0.8521  0.7739  1.0238
 1070SOL    HW214670   1.279   0.885   2.881 -0.3310 -0.1543  0.1585
 1071SOL     OW14671   2.792   4.479   3.174  0.3675  0.4001  0.0162
 1071SOL    HW114672   2.876   4.484   3.219  0.0065  0.6420  0.6732
 1071SOL    HW214673   2.771   4.386   3.177 -0.3557  0.5153 -1.1606
 1072SOL     OW14674   1.840   2.630   4.799  0.2717  0.0734  0.2410
 1072SOL    HW114675   1.876   2.712   4.835  1.4781 -0.4339  0.2100
 1072SOL    HW214676   1.746   2.643   4.808  0.5497  2.6448 -0.5591
 1073SOL     OW14677   2.281   4.521  13.697  1.0238  0.0911  0.6545
 1073SOL    HW114678   2.306   4.452  13.758  1.7082  0.9883  1.3811
 1073SOL    HW214679   2.311   4.600  13.741 -0.9921  0.5262  1.2851
 1074SOL     OW14680   0.771   2.801   8.277 -0.1564  0.4773 -0.7432
 1074SOL    HW114681   0.743   2.785   8.187  1.4632  0.8860 -1.3194
 1074SOL    HW214682   0.687   2.836   8.307 -0.4570 -1.1333  0.3116
 1075SOL     OW14683   2.973   3.741  10.321  0.3348  0.1034 -0.3021
 1075SOL    HW114684   3.049   3.712  10.270 -0.0132 -0.1399 -0.6793
 1075SOL    HW214685   3.024   3.781  10.391 -0.1742  0.5536 -0.1938
 1076SOL     OW14686   3.531   3.205  17.582  0.4523  0.0374  0.9478
 1076SOL    HW114687   3.593   3.199  17.509 -1.3892  0.1640 -0.6140
 1076SOL    HW214688   3.595   3.193  17.652  0.3753 -0.4375  0.9367
 1077SOL     OW14689   1.999   0.544   0.906 -0.1683  0.0775  0.3711
 1077SOL    HW114690   1.964   0.483   0.840  0.8119 -0.9578  0.7986
 1077SOL    HW214691   2.041   0.477   0.960 -1.6082 -0.9045  0.2995
 1078SOL     OW14692   1.661   1.329   3.102 -0.6307 -0.0080 -0.0017
 1078SOL    HW114693   1.604   1.403   3.125 -0.3284 -0.8470  3.5137
 1078SOL    HW214694   1.740   1.378   3.080  1.4826 -2.7024  1.5744
 1079SOL     OW14695   2.870   2.891   8.348 -0.1163 -0.1547 -0.6525
 1079SOL    HW114696   2.962   2.876   8.329  0.0346  1.1928 -1.0018
 1079SOL    HW214697   2.868   2.882   8.443  0.7859 -0.3359 -0.6541
 1080SOL     OW14698   1.590   2.405   6.396  0.5276  0.1391 -0.2670
 1080SOL    HW114699   1.536   2.478   6.426  1.3801 -0.4246  2.6428
 1080SOL    HW214700   1.543   2.328   6.427  1.6875 -0.0792  0.9929
 1081SOL     OW14701   0.443   2.065   7.049 -0.5070 -0.1073 -0.1633
 1081SOL    HW114702   0.400   2.037   7.130 -0.0227  1.9965  0.8399
 1081SOL    HW214703   0.535   2.047   7.072 -1.5726 -3.2700  1.6044
 1082SOL     OW14704   3.756   4.671   3.313 -0.4856 -0.3607  0.2334
 1082SOL    HW114705   3.760   4.581   3.282 -0.1600 -0.7690  1.4651
 1082SOL    HW214706   3.742   4.659   3.407  0.4478  0.3823  0.4736
 1083SOL     OW14707   0.532   2.059   4.150 -0.0304  0.1182 -0.1595
 1083SOL    HW114708   0.482   2.059   4.232  1.4077  0.0931  0.7218
 1083SOL    HW214709   0.610   2.012   4.179  0.1907  2.1201  2.4533
 1084SOL     OW14710   4.270   1.646   4.176 -0.2286  0.5816  0.0083
 1084SOL    HW114711   4.242   1.668   4.265 -1.8330  1.5248 -0.7407
 1084SOL    HW214712   4.295   1.732   4.145  2.2428  0.3677  1.3408
 1085SOL     OW14713   0.913   4.492   2.317  0.2293  0.0996 -0.0732
 1085SOL    HW114714   0.873   4.535   2.242  0.5517  0.1436 -0.2185
 1085SOL    HW214715   0.979   4.556   2.341 -1.2594  1.4588  0.3597
 1086SOL     OW14716   2.206   0.054  11.083 -0.0020  0.5599  0.4782
 1086SOL    HW114717   2.298   0.035  11.070 -0.2266  0.1215 -0.4242
 1086SOL    HW214718   2.165   4.706  11.029  1.5640 -0.0324  0.0651
 1087SOL     OW14719   0.747   4.404   7.636 -0.1905 -0.5006 -0.1318
 1087SOL    HW114720   0.707   4.332   7.684 -1.6489  1.0165  0.9570
 1087SOL    HW214721   0.770   4.463   7.708  1.3081  0.2379 -1.2313
 1088SOL     OW14722   1.084   2.048  17.310 -0.2314  0.3032  0.0941
 1088SOL    HW114723   1.171   2.015  17.331  0.1472  1.9389  1.1327
 1088SOL    HW214724   1.037   2.050  17.394 -1.4837  1.7420 -0.6320
 1089SOL     OW14725   1.898   1.732   7.174  0.2381  0.2363  0.0062
 1089SOL    HW114726   1.955   1.742   7.250 -0.0854 -2.1568  0.5627
 1089SOL    HW214727   1.847   1.657   7.204  0.8091  0.0496  0.5077
 1090SOL     OW14728   2.356   1.231  16.098  0.0239  0.1945  0.1027
 1090SOL    HW114729   2.278   1.279  16.070 -0.7872  0.0082  2.0679
 1090SOL    HW214730   2.343   1.140  16.073  0.7842  0.3067 -0.6864
 1091SOL     OW14731   3.275   4.650  15.730  0.0418  0.1814 -1.0125
 1091SOL    HW114732   3.361   4.674  15.697  0.7527  0.7238  1.2559
 1091SOL    HW214733   3.285   4.695  15.814 -1.2736 -2.5006  0.5921
 1092SOL     OW14734   3.246   3.918  16.095  0.4729  0.3264  0.5795
 1092SOL    HW114735   3.254   3.865  16.174  1.2472  0.0068  0.2840
 1092SOL    HW214736   3.151   3.920  16.080  0.7129  1.4721 -0.8009
 1093SOL     OW14737   2.254   2.089  16.863  0.0853 -0.3868  0.4870
 1093SOL    HW114738   2.290   2.038  16.935  0.5618  2.3841  2.1937
 1093SOL    HW214739   2.256   2.178  16.899  0.2245 -0.4716  0.6877
 1094SOL     OW14740   0.741   0.286   0.366  0.6273  0.4877 -0.3182
 1094SOL    HW114741   0.809   0.246   0.421 -0.5568  0.7697  1.3175
 1094SOL    HW214742   0.737   0.219   0.297  0.9865  1.2462 -1.0777
 1095SOL     OW14743   0.608   3.713   9.047 -0.0662  0.7392  0.1854
 1095SOL    HW114744   0.673   3.782   9.036  1.7894 -0.6288  2.5340
 1095SOL    HW214745   0.567   3.720   8.961  0.0720  2.0077  0.2344
 1096SOL     OW14746   1.098   0.218   7.989 -0.0683 -0.2564  0.1255
 1096SOL    HW114747   1.138   0.210   8.076 -0.8818 -0.7044  0.4564
 1096SOL    HW214748   1.020   0.267   8.013  0.0013 -0.0588 -0.0496
 1097SOL     OW14749   0.450   2.981   7.010  0.0732 -0.1544 -0.3359
 1097SOL    HW114750   0.400   2.963   6.930  0.7742  1.0904 -1.0475
 1097SOL    HW214751   0.526   3.029   6.979 -0.7173  1.1047 -0.3124
 1098SOL     OW14752   1.423   3.748   3.697 -0.0831 -0.5760 -0.0474
 1098SOL    HW114753   1.330   3.765   3.711  0.0488  0.0429  0.0839
 1098SOL    HW214754   1.425   3.713   3.608  2.1027 -0.0057 -0.2328
 1099SOL     OW14755   2.976   3.971   7.875 -0.0828 -0.9237  0.1578
 1099SOL    HW114756   2.883   3.987   7.892 -0.0356 -1.6080  1.1065
 1099SOL    HW214757   2.995   3.910   7.947  0.2416 -0.2985  0.5977
 1100SOL     OW14758   3.074   1.097   7.744 -0.0765  0.6891 -0.3189
 1100SOL    HW114759   3.022   1.054   7.811  1.1152 -1.5197 -0.8011
 1100SOL    HW214760   3.024   1.081   7.664  0.5992  1.4274 -0.8972
 1101SOL     OW14761   3.656   0.221   1.391 -0.5066  0.6390 -0.3419
 1101SOL    HW114762   3.752   0.218   1.389 -0.4823  0.2796  1.2380
 1101SOL    HW214763   3.638   0.273   1.469  1.4321 -0.1388  0.6237
 1102SOL     OW14764   3.440   4.648   3.192  0.0173  0.2289 -0.3259
 1102SOL    HW114765   3.532   4.650   3.167  0.4804  3.1201  1.6083
 1102SOL    HW214766   3.416   4.556   3.205 -1.1088  0.2804 -1.9243
 1103SOL     OW14767   2.045   0.690   0.424  0.9013 -0.1173 -0.7835
 1103SOL    HW114768   2.052   0.690   0.520  0.1264  2.9765 -0.7372
 1103SOL    HW214769   1.972   0.632   0.403  0.0176  1.1787 -1.3102
 1104SOL     OW14770   0.457   2.322   6.871  0.2770  0.3140  0.7219
 1104SOL    HW114771   0.489   2.244   6.915  1.8529  0.8826  0.5853
 1104SOL    HW214772   0.536   2.376   6.872 -1.5217  2.8737  3.9397
 1105SOL     OW14773   0.464   3.871   6.645 -0.1312 -0.4126 -0.8815
 1105SOL    HW114774   0.453   3.838   6.556  5.2318  0.3046 -1.8307
 1105SOL    HW214775   0.426   3.959   6.651 -0.3972 -0.6978  1.6314
 1106SOL     OW14776   4.444   0.444   3.713 -0.1533 -0.2381 -0.4929
 1106SOL    HW114777   4.435   0.509   3.643  0.4602  1.3725  0.9391
 1106SOL    HW214778   4.403   0.499   3.780 -0.1169 -2.0334  1.0041
 1107SOL     OW14779   1.790   1.743   3.311  0.8421  0.3407 -0.6066
 1107SOL    HW114780   1.871   1.788   3.336  1.0229 -0.2554 -0.1045
 1107SOL    HW214781   1.728   1.785   3.370 -0.0231 -3.1893  1.0118
 1108SOL     OW14782   2.491   3.034  10.470 -0.8593 -0.1935 -0.2020
 1108SOL    HW114783   2.490   3.129  10.480 -3.1462 -0.2300 -0.1018
 1108SOL    HW214784   2.441   3.037  10.389 -0.2416 -0.3842 -0.5921
 1109SOL     OW14785   2.416   1.213   4.777  0.0843 -0.0285  0.0619
 1109SOL    HW114786   2.374   1.293   4.809  2.6869  1.1859  0.4429
 1109SOL    HW214787   2.501   1.220   4.821 -0.6823  1.5699  1.3138
 1110SOL     OW14788   3.428   2.723   1.949 -0.0372 -0.0841  0.5801
 1110SOL    HW114789   3.487   2.704   2.022  1.2212  3.3266  0.4795
 1110SOL    HW214790   3.449   2.816   1.936  1.2874 -0.4947 -0.2292
 1111SOL     OW14791   3.373   2.195   8.535 -0.7555  0.6785  0.9316
 1111SOL    HW114792   3.380   2.216   8.628  0.1169 -0.0208  1.0315
 1111SOL    HW214793   3.376   2.099   8.542 -3.1336  0.5421 -0.1796
 1112SOL     OW14794   3.852   4.228  16.543 -0.1444 -0.0581  0.7972
 1112SOL    HW114795   3.871   4.236  16.449  0.1038 -1.4986  0.7259
 1112SOL    HW214796   3.760   4.201  16.538  0.5054 -2.0506 -0.5807
 1113SOL     OW14797   0.429   4.012  17.237  0.1335  0.2083 -0.3920
 1113SOL    HW114798   0.475   3.963  17.169  0.9412  1.7567 -0.9581
 1113SOL    HW214799   0.409   4.097  17.198  0.0613 -0.4299 -1.7366
 1114SOL     OW14800   0.001   2.954   7.508  0.0722  0.7900 -0.5682
 1114SOL    HW114801   0.041   2.904   7.579  1.8615  1.6921 -0.9545
 1114SOL    HW214802   0.050   3.036   7.516 -1.2879  1.4955  0.5413
 1115SOL     OW14803   2.730   3.758   2.826 -0.3602  0.3210 -0.2124
 1115SOL    HW114804   2.668   3.817   2.868 -0.3869  2.0858 -2.6829
 1115SOL    HW214805   2.797   3.728   2.886  0.2598  1.5152 -0.2977
 1116SOL     OW14806   1.416   1.794  11.878  0.0494 -0.0425 -0.0256
 1116SOL    HW114807   1.352   1.747  11.932  0.0279  1.4536  1.2578
 1116SOL    HW214808   1.477   1.726  11.851 -1.5231 -1.3055 -0.3996
 1117SOL     OW14809   3.053   3.527   6.916 -0.1209 -0.6072 -0.2985
 1117SOL    HW114810   3.041   3.585   6.991  2.2075  1.2242 -1.3122
 1117SOL    HW214811   3.077   3.444   6.956 -2.9014 -0.4435  1.6843
 1118SOL     OW14812   2.295   4.000   5.626  0.6636  0.3872 -0.6744
 1118SOL    HW114813   2.273   4.084   5.666  0.5601  0.6639 -1.3180
 1118SOL    HW214814   2.296   3.938   5.699 -1.4788  2.5735  1.1994
 1119SOL     OW14815   3.366   0.710   3.963  0.2085 -0.1707 -0.0458
 1119SOL    HW114816   3.330   0.798   3.966  0.9213  0.1099  0.1184
 1119SOL    HW214817   3.296   0.664   3.916  0.1434 -0.0335 -0.0806
 1120SOL     OW14818   3.345   3.481   8.852  0.3162  0.2823 -0.0296
 1120SOL    HW114819   3.285   3.523   8.790  0.7712  0.4938 -0.3237
 1120SOL    HW214820   3.370   3.555   8.907 -2.0651  0.4105  0.8756
 1121SOL     OW14821   1.169   3.663   9.578  0.0392 -0.3677 -0.4435
 1121SOL    HW114822   1.074   3.667   9.576  0.0120  0.6265  3.0098
 1121SOL    HW214823   1.175   3.654   9.673  1.0481 -0.8581 -0.5523
 1122SOL     OW14824   1.749   3.488   5.920  0.1465 -0.3064 -0.0868
 1122SOL    HW114825   1.728   3.494   5.827  0.4895 -3.5131 -0.3768
 1122SOL    HW214826   1.676   3.439   5.959  1.6519 -0.4812  2.5363
 1123SOL     OW14827   4.375   1.180   5.164 -0.1644  0.4966 -0.1285
 1123SOL    HW114828   4.369   1.220   5.250  0.3457  1.2810 -0.4619
 1123SOL    HW214829   4.347   1.091   5.184 -1.9123  0.9960 -0.4006
 1124SOL     OW14830   1.802   3.641  11.357 -0.1786 -0.3452  0.3023
 1124SOL    HW114831   1.769   3.586  11.428  3.5929 -1.8124  0.9225
 1124SOL    HW214832   1.746   3.620  11.283  0.0034  3.2044 -0.8544
 1125SOL     OW14833   1.752   3.446  11.586 -0.1089 -0.4699  0.8411
 1125SOL    HW114834   1.770   3.456  11.680 -0.8165 -0.7887  1.0109
 1125SOL    HW214835   1.657   3.446  11.575 -0.1702  1.8860  1.3609
 1126SOL     OW14836   3.095   2.278  11.821 -0.1478  0.3577 -0.1447
 1126SOL    HW114837   3.028   2.307  11.883  0.2751  1.6077 -0.2756
 1126SOL    HW214838   3.067   2.335  11.750  0.0913  1.3495  0.5694
 1127SOL     OW14839   3.055   3.648   7.185 -0.0454 -0.4568 -0.1981
 1127SOL    HW114840   3.130   3.694   7.147 -1.1355  0.4392 -1.2959
 1127SOL    HW214841   3.096   3.574   7.230 -3.2280 -0.9661  1.8560
 1128SOL     OW14842   1.160   0.048  13.735 -0.2046  0.4547 -0.1946
 1128SOL    HW114843   1.091   0.014  13.677 -0.8377 -1.4568  1.6907
 1128SOL    HW214844   1.109   0.118  13.776 -1.2040 -1.2194  1.4448
 1129SOL     OW14845   1.330   2.347   4.054  0.3592 -0.2032  0.6557
 1129SOL    HW114846   1.401   2.315   3.998  0.6573  0.1863  0.8188
 1129SOL    HW214847   1.330   2.280   4.123 -2.8689 -1.5705 -0.6177
 1130SOL     OW14848   0.226   0.298   8.911  0.4110  0.5360 -0.1803
 1130SOL    HW114849   0.188   0.376   8.871  0.0285  0.1314 -0.6197
 1130SOL    HW214850   0.150   0.270   8.963 -1.1409  1.2603 -2.0878
 1131SOL     OW14851   3.494   3.905   6.638 -0.2282 -0.8792 -0.1895
 1131SOL    HW114852   3.573   3.960   6.643 -1.5892  0.9534  0.8637
 1131SOL    HW214853   3.528   3.819   6.664  1.6341  0.0053  0.3358
 1132SOL     OW14854   2.059   0.145   3.079  0.0773  0.1232  0.4364
 1132SOL    HW114855   2.155   0.146   3.074 -0.1374  1.6948 -2.8903
 1132SOL    HW214856   2.047   0.240   3.076 -2.4493 -0.2156 -0.3150
 1133SOL     OW14857   0.011   2.734  15.757  0.2985 -0.6105  0.5243
 1133SOL    HW114858   4.716   2.648  15.797  2.1520 -0.3402  1.7820
 1133SOL    HW214859   0.031   2.789  15.833  2.7953  1.0181 -1.3126
 1134SOL     OW14860   1.159   4.079  13.505  0.0553 -0.3469 -0.7589
 1134SOL    HW114861   1.245   4.112  13.480  0.7621 -0.8148  1.0902
 1134SOL    HW214862   1.105   4.156  13.486 -1.4916 -1.0306  0.8477
 1135SOL     OW14863   1.000   4.634  11.768  0.1836  0.0710  0.8714
 1135SOL    HW114864   1.089   4.668  11.758  0.6722 -1.2393  0.7849
 1135SOL    HW214865   0.971   4.698  11.834  1.1353  1.0015  0.3749
 1136SOL     OW14866   3.435   2.651   5.633  0.6184 -0.1794  0.0524
 1136SOL    HW114867   3.453   2.584   5.699  0.1561 -0.5524 -0.2058
 1136SOL    HW214868   3.523   2.662   5.595  0.6243 -1.3752 -0.2882
 1137SOL     OW14869   4.488   1.601   4.662 -0.2113 -0.1854  0.1586
 1137SOL    HW114870   4.542   1.621   4.585 -0.1471 -1.5157 -0.1420
 1137SOL    HW214871   4.554   1.614   4.730 -0.5051 -2.5625  0.9102
 1138SOL     OW14872   4.551   1.907   5.809 -0.0630  0.1798 -0.0185
 1138SOL    HW114873   4.603   1.961   5.749  1.5734 -1.0358  0.3247
 1138SOL    HW214874   4.611   1.845   5.850  0.7889  0.7076 -0.4741
 1139SOL     OW14875   2.866   0.020   0.615 -0.6738  0.3000 -0.0719
 1139SOL    HW114876   2.883   0.048   0.524 -1.1393  0.2550 -0.1702
 1139SOL    HW214877   2.898   4.650   0.604 -1.0932  0.0996  0.3537
 1140SOL     OW14878   3.309   3.645   1.480  0.1103 -0.0447 -0.2211
 1140SOL    HW114879   3.362   3.682   1.410  0.3500  0.3943  0.1931
 1140SOL    HW214880   3.251   3.717   1.506  1.5013  0.7213  0.7684
 1141SOL     OW14881   4.295   2.243   0.234  0.2637 -0.3978 -0.1931
 1141SOL    HW114882   4.338   2.219   0.317 -2.0823 -0.0254  1.1289
 1141SOL    HW214883   4.348   2.220   0.158  0.3877 -0.6365 -0.0348
 1142SOL     OW14884   2.331   2.445   7.214 -0.3697 -0.0133  0.0713
 1142SOL    HW114885   2.396   2.514   7.221  2.0163 -2.3736  1.2022
 1142SOL    HW214886   2.253   2.497   7.192 -1.4844 -2.3240 -1.4417
 1143SOL     OW14887   0.577   1.184  11.117  0.3579  0.0203  0.0576
 1143SOL    HW114888   0.599   1.261  11.064 -0.9736  0.3692  0.0236
 1143SOL    HW214889   0.563   1.221  11.204  1.7183 -1.3598  0.8591
 1144SOL     OW14890   4.512   1.466   4.246 -0.2257  0.2504  0.2885
 1144SOL    HW114891   4.594   1.460   4.197 -1.2745 -1.1139 -1.2896
 1144SOL    HW214892   4.477   1.533   4.188  1.0311  0.1071 -0.6542
 1145SOL     OW14893   1.253   0.406  14.227 -0.6802  0.1897  0.2568
 1145SOL    HW114894   1.264   0.447  14.313  0.8393 -1.1980  0.7291
 1145SOL    HW214895   1.174   0.442  14.188  0.9536  1.8069 -1.5259
 1146SOL     OW14896   0.197   4.180   8.682 -0.3590 -0.4931 -0.3008
 1146SOL    HW114897   0.253   4.158   8.607 -0.2366  2.3848 -1.0656
 1146SOL    HW214898   0.122   4.122   8.675 -0.5461 -0.4112  0.9406
 1147SOL     OW14899   1.711   4.570   3.593 -0.4004  0.1908 -0.1838
 1147SOL    HW114900   1.691   4.509   3.664 -0.1450  0.1075 -0.1811
 1147SOL    HW214901   1.760   4.518   3.530 -0.9419  0.1649 -0.5830
 1148SOL     OW14902   1.777   0.433  11.470  0.1542 -0.5230  0.6158
 1148SOL    HW114903   1.759   0.513  11.420  1.0620 -0.3419  0.5764
 1148SOL    HW214904   1.862   0.460  11.506  0.4857  0.4963 -0.9430
 1149SOL     OW14905   2.040   1.150  14.076 -0.9763 -0.1908  0.1455
 1149SOL    HW114906   2.110   1.181  14.133 -0.7959 -1.7372  0.7642
 1149SOL    HW214907   2.086   1.091  14.016 -0.1126 -0.8717  1.4644
 1150SOL     OW14908   3.845   4.697  16.605  0.8726 -0.3141 -0.3532
 1150SOL    HW114909   3.940   4.698  16.588  1.1820 -1.1595  1.3097
 1150SOL    HW214910   3.860   4.719  16.696  1.6361 -0.6515 -0.3894
 1151SOL     OW14911   3.762   1.914   3.372 -0.2863 -0.2344 -0.5360
 1151SOL    HW114912   3.759   1.864   3.291  1.5038  1.0661 -1.4015
 1151SOL    HW214913   3.671   1.907   3.401  0.4248 -1.5083  1.3985
 1152SOL     OW14914   1.413   4.379   0.338  0.7459  0.4437 -0.5385
 1152SOL    HW114915   1.385   4.419   0.256  0.3758 -1.2579 -1.2526
 1152SOL    HW214916   1.404   4.450   0.401 -0.7519  0.8452 -1.1944
 1153SOL     OW14917   1.673   1.753   5.548  0.0274  0.1173  0.0679
 1153SOL    HW114918   1.749   1.729   5.496 -0.0381  2.1808 -1.0063
 1153SOL    HW214919   1.717   1.809   5.612 -2.5749  0.9084  1.1902
 1154SOL     OW14920   1.752   2.425   0.165  0.1783  0.3538 -0.1509
 1154SOL    HW114921   1.732   2.362   0.235  1.7085  0.3161  0.2672
 1154SOL    HW214922   1.806   2.366   0.112  1.3998  0.6128  0.7873
 1155SOL     OW14923   2.172   1.171   7.421  0.4908  0.3548 -0.0646
 1155SOL    HW114924   2.214   1.089   7.394  1.7821  0.5522  1.2879
 1155SOL    HW214925   2.194   1.170   7.515 -1.9555 -2.6737  0.4484
 1156SOL     OW14926   4.005   0.205   4.071  0.1607  0.3516 -0.0213
 1156SOL    HW114927   3.918   0.237   4.048  0.4891  0.7156 -0.7826
 1156SOL    HW214928   4.014   0.245   4.157 -0.8915 -0.2614  0.3665
 1157SOL     OW14929   1.847   1.917   5.273 -0.0783 -0.2181  0.4600
 1157SOL    HW114930   1.939   1.909   5.250 -0.3089  0.0292 -0.5661
 1157SOL    HW214931   1.813   1.902   5.184  2.0914 -2.8604  0.0886
 1158SOL     OW14932   1.436   4.374   3.201 -0.3965  0.1187  0.0812
 1158SOL    HW114933   1.419   4.457   3.158 -1.2550 -0.1809 -0.1500
 1158SOL    HW214934   1.531   4.388   3.205 -0.5859  1.3425  0.2188
 1159SOL     OW14935   0.893   3.643   9.629 -0.3936  0.2104 -0.3541
 1159SOL    HW114936   0.849   3.724   9.604 -0.0480 -0.0065 -1.6816
 1159SOL    HW214937   0.848   3.638   9.713 -0.3456 -1.3389 -0.4217
 1160SOL     OW14938   3.312   4.530  15.292 -0.2392 -0.4139  0.4051
 1160SOL    HW114939   3.298   4.468  15.221 -0.8819 -1.9879  1.8891
 1160SOL    HW214940   3.255   4.495  15.361  0.5131  0.3527  1.4243
 1161SOL     OW14941   0.803   2.994   1.728 -0.1910  0.0909 -0.6330
 1161SOL    HW114942   0.710   2.970   1.731 -0.1375  0.0480  0.6378
 1161SOL    HW214943   0.794   3.069   1.669  0.4057  0.5483 -0.1487
 1162SOL     OW14944   2.976   3.558   0.464  0.6068 -0.2384 -0.3911
 1162SOL    HW114945   3.048   3.519   0.415  1.5666 -0.4154  1.1948
 1162SOL    HW214946   3.012   3.641   0.494 -0.5572  0.4061 -0.7650
 1163SOL     OW14947   3.448   2.378   2.096  0.0497 -0.1534  1.3170
 1163SOL    HW114948   3.359   2.410   2.087  0.5520  0.8879 -0.0527
 1163SOL    HW214949   3.449   2.341   2.007  2.3912  4.8267 -0.7543
 1164SOL     OW14950   3.501   0.487  11.489  0.0111  0.0730 -0.1705
 1164SOL    HW114951   3.462   0.540  11.559  1.4900  0.1068  0.6376
 1164SOL    HW214952   3.553   0.553  11.443  0.8525 -0.9290 -0.6469
 1165SOL     OW14953   2.239   2.854   9.022  0.5651  0.0129  0.1287
 1165SOL    HW114954   2.289   2.925   9.060 -0.7400  0.8779  0.2453
 1165SOL    HW214955   2.176   2.914   8.981 -2.0665 -2.7879 -0.0213
 1166SOL     OW14956   3.237   3.986  11.804 -0.1989  0.0657 -0.0744
 1166SOL    HW114957   3.316   3.954  11.762  0.0800  0.4696  0.1390
 1166SOL    HW214958   3.238   4.079  11.779  1.8699 -0.2137 -0.9877
 1167SOL     OW14959   0.431   2.794   4.215  0.4637 -0.2388 -0.1439
 1167SOL    HW114960   0.522   2.793   4.187  0.0659  2.5227 -1.4668
 1167SOL    HW214961   0.383   2.756   4.141 -0.9640  1.3220 -0.0096
 1168SOL     OW14962   3.710   2.213   1.097 -0.1842 -0.1388  0.0201
 1168SOL    HW114963   3.705   2.308   1.108  0.0851 -0.4146  2.5969
 1168SOL    HW214964   3.624   2.187   1.129  0.9841 -1.8685  1.7201
 1169SOL     OW14965   0.948   2.669   7.882 -0.4450 -0.3785 -0.0023
 1169SOL    HW114966   0.929   2.592   7.829 -2.0059  0.7190 -1.0252
 1169SOL    HW214967   1.043   2.669   7.894 -0.3595  0.0618 -0.6695
 1170SOL     OW14968   1.477   0.301  17.277  0.0035 -0.1494  0.0692
 1170SOL    HW114969   1.441   0.262  17.197 -1.3372 -0.1909  0.7059
 1170SOL    HW214970   1.459   0.392  17.253 -1.9975 -0.7579 -0.7347
 1171SOL     OW14971   2.834   1.561   9.613  0.4012  0.2178 -0.6116
 1171SOL    HW114972   2.846   1.635   9.553  2.4258 -0.0933 -0.5765
 1171SOL    HW214973   2.813   1.493   9.550  1.0119 -0.9531  0.4536
 1172SOL     OW14974   2.880   1.527   6.620 -0.1183  0.7906 -0.0446
 1172SOL    HW114975   2.942   1.476   6.672 -1.0024  0.2470  0.4762
 1172SOL    HW214976   2.798   1.531   6.668 -0.5803 -0.6297 -0.7180
 1173SOL     OW14977   1.025   2.621  17.194 -0.6675  0.4955 -0.4761
 1173SOL    HW114978   0.982   2.614  17.108  0.2781 -0.1452 -0.8986
 1173SOL    HW214979   0.978   2.566  17.256 -1.0621  2.2447  0.7595
 1174SOL     OW14980   3.388   4.122  12.754 -0.2004 -0.4615  0.5515
 1174SOL    HW114981   3.356   4.153  12.669  1.2592 -0.7466 -0.0972
 1174SOL    HW214982   3.332   4.184  12.801 -1.7969 -0.4387 -1.3607
 1175SOL     OW14983   2.694   1.312   4.932 -0.2360 -0.0440  0.1616
 1175SOL    HW114984   2.701   1.344   4.842  0.1184  0.5292  0.3869
 1175SOL    HW214985   2.784   1.283   4.944 -0.2915 -0.6650 -0.9348
 1176SOL     OW14986   1.919   3.808   8.437  0.0048 -0.4859 -0.8246
 1176SOL    HW114987   1.924   3.903   8.426 -0.3188 -0.2103  1.5010
 1176SOL    HW214988   1.988   3.777   8.379  1.4923 -0.1228  0.7677
 1177SOL     OW14989   1.006   3.647   6.133 -0.1989  0.0494 -0.7992
 1177SOL    HW114990   1.079   3.607   6.180  0.1508 -0.1643 -1.5176
 1177SOL    HW214991   0.966   3.702   6.200 -0.9636 -0.0879 -1.1429
 1178SOL     OW14992   2.409   3.050   4.527  0.0845 -0.3139 -0.0802
 1178SOL    HW114993   2.344   3.058   4.597 -0.0565 -2.6135  0.0379
 1178SOL    HW214994   2.396   2.958   4.505  1.0899 -0.2538 -0.9281
 1179SOL     OW14995   0.393   4.558   4.024 -0.3317  0.1791 -0.0771
 1179SOL    HW114996   0.372   4.594   4.110  2.1776 -0.3195  0.7384
 1179SOL    HW214997   0.414   4.645   3.989 -1.7669 -0.1378 -1.7383
 1180SOL     OW14998   0.082   4.374   7.341 -0.1102 -0.4828  0.3589
 1180SOL    HW114999   0.065   4.310   7.410 -0.9607  0.1958  0.7793
 1180SOL    HW215000   0.158   4.425   7.371  0.3711 -0.1903 -1.3384
 1181SOL     OW15001   4.431   0.466   5.721  0.0043 -0.3964  0.3275
 1181SOL    HW115002   4.487   0.448   5.797  0.9070  2.4132  0.3108
 1181SOL    HW215003   4.368   0.531   5.751  0.9710  0.4074  0.6127
 1182SOL     OW15004   4.061   3.404  17.492 -0.1835 -0.1090 -0.6481
 1182SOL    HW115005   4.073   3.451  17.410 -1.4632 -2.2339 -2.0478
 1182SOL    HW215006   4.062   3.314  17.460 -1.3161 -1.2683  2.5218
 1183SOL     OW15007   4.383   1.691   3.409 -0.2425  0.0309 -0.0159
 1183SOL    HW115008   4.411   1.627   3.475 -3.4147  0.4967  1.7612
 1183SOL    HW215009   4.347   1.626   3.348 -0.4834  1.2645 -1.1871
 1184SOL     OW15010   0.420   4.626   3.300  0.0234 -0.2321  0.1412
 1184SOL    HW115011   0.457   4.676   3.372 -3.0239  1.5438  0.4985
 1184SOL    HW215012   0.339   4.669   3.272  1.5627  1.7604 -1.3078
 1185SOL     OW15013   2.020   1.292   4.594 -0.4289 -0.2741  0.6577
 1185SOL    HW115014   2.069   1.231   4.649 -0.1159  0.5832  1.3232
 1185SOL    HW215015   2.097   1.311   4.540 -0.8096 -0.8460 -0.0915
 1186SOL     OW15016   2.238   4.026   8.169 -0.3947 -1.0565 -0.1365
 1186SOL    HW115017   2.305   3.975   8.124  0.3643 -0.5189  0.3853
 1186SOL    HW215018   2.183   4.052   8.095 -0.7541  1.0254  0.8771
 1187SOL     OW15019   0.924   0.900  12.681 -0.0199 -0.5413  0.2180
 1187SOL    HW115020   0.973   0.832  12.728  0.2130  0.7818  1.8907
 1187SOL    HW215021   0.894   0.941  12.762 -1.9120  1.0470 -1.2945
 1188SOL     OW15022   4.667   1.403   7.541 -0.1163 -0.7285 -0.0547
 1188SOL    HW115023   4.692   1.478   7.595 -1.1296 -0.7370  0.4160
 1188SOL    HW215024   4.583   1.382   7.582 -1.6436  1.3908 -2.1413
 1189SOL     OW15025   3.985   4.164   4.508 -0.3682  0.3349 -0.1476
 1189SOL    HW115026   3.892   4.179   4.524 -0.2676 -0.2911  0.9989
 1189SOL    HW215027   3.993   4.190   4.416  3.2685 -0.6854 -0.1184
 1190SOL     OW15028   3.580   3.495  13.295 -0.4004  0.7257 -0.4517
 1190SOL    HW115029   3.485   3.499  13.279 -0.7192  0.2622  1.2637
 1190SOL    HW215030   3.610   3.585  13.293  1.3333  0.1644  0.0991
 1191SOL     OW15031   0.726   3.469   1.725 -0.0413 -0.2615 -0.5375
 1191SOL    HW115032   0.804   3.447   1.675  0.5832  0.4989  0.0954
 1191SOL    HW215033   0.743   3.443   1.816  0.9919 -1.0016 -0.9580
 1192SOL     OW15034   2.648   1.640   1.079  0.0623  0.6210 -0.4460
 1192SOL    HW115035   2.599   1.607   1.154 -0.6960 -0.9430 -1.6262
 1192SOL    HW215036   2.690   1.715   1.122  1.3636 -2.1349  3.1119
 1193SOL     OW15037   2.928   4.517  10.221 -0.2596  0.3547 -0.1956
 1193SOL    HW115038   2.906   4.610  10.213 -1.0012  0.2112  0.1457
 1193SOL    HW215039   2.990   4.520  10.294 -0.0157 -1.6131 -0.3244
 1194SOL     OW15040   1.191   4.416   0.010  0.5154 -0.0723 -0.6626
 1194SOL    HW115041   1.267   4.451   0.056  0.1559  0.4555 -0.4619
 1194SOL    HW215042   1.210   4.322   0.014  0.5544  0.0219  1.6857
 1195SOL     OW15043   4.552   3.139   5.645  0.9366  0.5092  0.5438
 1195SOL    HW115044   4.513   3.135   5.558  0.3077  0.0496  0.8427
 1195SOL    HW215045   4.496   3.077   5.693  0.2713  0.6497 -0.0463
 1196SOL     OW15046   4.221   1.201   0.714 -0.1738 -0.1446  0.3335
 1196SOL    HW115047   4.205   1.292   0.688 -1.9025 -0.4337  0.4453
 1196SOL    HW215048   4.244   1.211   0.806  0.4603 -3.0537  0.4760
 1197SOL     OW15049   4.580   3.531   9.815 -0.0983  0.0172 -0.3471
 1197SOL    HW115050   4.671   3.560   9.813 -0.9344  2.6940  0.4343
 1197SOL    HW215051   4.584   3.456   9.875  1.1751  2.7155  2.9564
 1198SOL     OW15052   2.216   4.567   2.005  0.0730  0.7659 -0.4521
 1198SOL    HW115053   2.131   4.524   2.013  0.6743 -0.1157  1.1265
 1198SOL    HW215054   2.194   4.659   1.991 -1.1590  0.6451  0.7090
 1199SOL     OW15055   2.785   2.306   7.953 -0.1331 -0.1880  0.6411
 1199SOL    HW115056   2.750   2.286   8.040  0.4955 -2.6353  0.3129
 1199SOL    HW215057   2.875   2.276   7.966  0.8529  1.4290 -2.6616
 1200SOL     OW15058   0.277   0.811   2.666 -0.0290 -0.5546 -0.0805
 1200SOL    HW115059   0.194   0.765   2.651  0.1242 -1.0579  0.5881
 1200SOL    HW215060   0.331   0.766   2.601 -0.4546 -1.4109  0.1528
 1201SOL     OW15061   0.814   3.155   6.057  0.2600 -0.2102  0.3281
 1201SOL    HW115062   0.753   3.203   6.002  0.8246 -2.9647 -2.6988
 1201SOL    HW215063   0.864   3.225   6.100  0.3464  0.2169 -0.4680
 1202SOL     OW15064   0.893   0.541   3.112 -0.5786  0.2662 -0.5996
 1202SOL    HW115065   0.921   0.450   3.103 -1.7275 -0.2732  1.0535
 1202SOL    HW215066   0.909   0.563   3.021  1.0705 -1.5998 -0.7493
 1203SOL     OW15067   0.556   1.890  14.310  0.3030  0.2213  0.0451
 1203SOL    HW115068   0.506   1.810  14.292 -1.4726  1.2283  0.5416
 1203SOL    HW215069   0.601   1.865  14.391  2.7812  1.0068 -1.0838
 1204SOL     OW15070   4.071   1.513  14.023 -0.1126 -0.9144 -0.0134
 1204SOL    HW115071   3.981   1.543  14.037 -0.2109  0.5725 -3.6287
 1204SOL    HW215072   4.071   1.442  14.086  1.5527 -1.3424 -0.5106
 1205SOL     OW15073   0.109   0.982  15.112  0.4481  0.5241  0.4583
 1205SOL    HW115074   0.117   0.933  15.194 -0.6779  1.5309  1.1682
 1205SOL    HW215075   0.018   0.962  15.091  0.4920  0.6447  0.1518
 1206SOL     OW15076   3.202   3.053   6.516  0.9352 -0.3006 -0.1015
 1206SOL    HW115077   3.156   2.969   6.522 -0.7664  0.6322  0.0413
 1206SOL    HW215078   3.290   3.029   6.488  0.5620  0.1964 -1.7008
 1207SOL     OW15079   3.036   2.467   1.140  0.0922 -0.1100  0.1923
 1207SOL    HW115080   3.037   2.540   1.203  3.1341  1.5066 -1.6947
 1207SOL    HW215081   2.945   2.440   1.136  0.0001 -0.1296  2.2295
 1208SOL     OW15082   0.297   0.399   2.529 -0.0517  0.5238 -0.0590
 1208SOL    HW115083   0.373   0.456   2.529 -0.3943  0.9444  2.5306
 1208SOL    HW215084   0.325   0.323   2.477 -0.1450  0.2723  0.2549
 1209SOL     OW15085   1.851   0.744   7.747  0.6404 -0.0126 -0.3802
 1209SOL    HW115086   1.844   0.692   7.827 -2.2604 -1.1307 -1.3817
 1209SOL    HW215087   1.822   0.679   7.683 -1.5788  1.1107 -0.4966
 1210SOL     OW15088   2.814   1.275   2.807  0.4577  1.0249 -0.3160
 1210SOL    HW115089   2.840   1.219   2.734  0.6276  0.5451  0.1160
 1210SOL    HW215090   2.864   1.235   2.878  2.3946  1.8468 -1.2083
 1211SOL     OW15091   2.328   1.220  15.259  0.2712 -0.3003  0.2186
 1211SOL    HW115092   2.248   1.254  15.298  1.8950  2.2342  1.3727
 1211SOL    HW215093   2.342   1.158  15.331 -0.0133  0.2337  0.7244
 1212SOL     OW15094   3.889   3.813  13.472 -0.4514  0.2006 -0.6080
 1212SOL    HW115095   3.926   3.880  13.414  0.6746 -0.6998 -0.9257
 1212SOL    HW215096   3.895   3.854  13.558 -1.3831  1.3860 -1.1079
 1213SOL     OW15097   1.935   2.355  16.167 -0.7417  0.5631  0.5588
 1213SOL    HW115098   1.930   2.441  16.207 -1.9788  0.2678  1.0471
 1213SOL    HW215099   1.845   2.345  16.133  0.0953 -0.4335 -1.4028
 1214SOL     OW15100   2.494   2.984   9.475  0.5728 -0.4078 -0.1911
 1214SOL    HW115101   2.478   3.054   9.411  0.6995  0.0585  0.2838
 1214SOL    HW215102   2.436   3.013   9.545  0.5519 -0.7939 -0.0493
 1215SOL     OW15103   0.191   4.188   4.756  0.1665 -0.4637  0.3379
 1215SOL    HW115104   0.100   4.210   4.778  0.0298  0.5443 -1.2182
 1215SOL    HW215105   0.218   4.151   4.840  0.1305 -1.1904  0.0301
 1216SOL     OW15106   0.067   3.350   8.616  0.3036  0.2684 -0.2382
 1216SOL    HW115107   4.712   3.293   8.638  0.1197  0.7892  0.5029
 1216SOL    HW215108   0.076   3.387   8.704 -1.7652  0.2219 -0.0122
 1217SOL     OW15109   1.092   4.334  16.837  0.1165 -0.0346 -0.3355
 1217SOL    HW115110   1.052   4.311  16.753  0.1699  1.3720 -0.7532
 1217SOL    HW215111   1.162   4.390  16.803 -1.1136  0.8204 -1.4550
 1218SOL     OW15112   4.184   4.406   4.774 -0.2759 -0.2053  0.2610
 1218SOL    HW115113   4.214   4.410   4.684 -1.3934  3.2096  0.0329
 1218SOL    HW215114   4.156   4.315   4.777  0.4159 -0.4544 -1.1191
 1219SOL     OW15115   3.712   0.346   9.963  0.4848 -0.0817 -0.3145
 1219SOL    HW115116   3.804   0.354   9.935  0.6229 -0.6354 -0.0074
 1219SOL    HW215117   3.715   0.257   9.996 -0.3772 -0.7137 -1.9287
 1220SOL     OW15118   0.226   2.354  17.020  0.3533 -0.4406 -0.0411
 1220SOL    HW115119   0.190   2.345  16.932  0.8273  0.8510 -0.3559
 1220SOL    HW215120   0.253   2.445  17.024 -1.7590  0.2315 -1.0668
 1221SOL     OW15121   0.172   4.461   3.144  0.1336 -0.6678 -0.1612
 1221SOL    HW115122   0.087   4.460   3.188  0.9614 -0.4307  1.4401
 1221SOL    HW215123   0.185   4.556   3.144  1.5926 -0.8733 -0.1780
 1222SOL     OW15124   1.338   0.478  15.068  0.2047  0.1770  0.9384
 1222SOL    HW115125   1.371   0.553  15.119 -1.2510 -0.5732  2.9849
 1222SOL    HW215126   1.417   0.426  15.076  0.7663  1.3764  3.2319
 1223SOL     OW15127   0.806   1.402   7.318 -0.0587  0.2835 -0.2998
 1223SOL    HW115128   0.830   1.311   7.330 -0.6717  0.2905  0.9596
 1223SOL    HW215129   0.795   1.429   7.409 -0.0825  5.4770 -1.8428
 1224SOL     OW15130   1.225   2.531   6.657  0.6006 -0.4732 -0.0597
 1224SOL    HW115131   1.219   2.595   6.728 -1.3558 -2.0478  1.1814
 1224SOL    HW215132   1.148   2.562   6.610  1.3017  0.1702 -0.7946
 1225SOL     OW15133   2.809   1.847   9.509 -0.2052  0.1978  1.3412
 1225SOL    HW115134   2.800   1.897   9.590  1.1748  1.1403  0.9130
 1225SOL    HW215135   2.888   1.883   9.468 -0.4926 -1.2366 -0.4372
 1226SOL     OW15136   4.206   2.798   1.679 -0.7575 -0.3940  0.5093
 1226SOL    HW115137   4.172   2.755   1.600  0.2525  1.4887 -0.9516
 1226SOL    HW215138   4.156   2.744   1.739 -1.4390 -1.1211 -0.7068
 1227SOL     OW15139   3.237   4.246   3.569 -0.5347 -0.4076  0.1215
 1227SOL    HW115140   3.190   4.247   3.653  0.5274 -1.7745  0.7461
 1227SOL    HW215141   3.193   4.184   3.511 -0.8248 -0.4511  0.3880
 1228SOL     OW15142   0.005   1.389   2.344  0.0058 -0.1957  0.4970
 1228SOL    HW115143   0.041   1.398   2.255 -1.2459 -2.1556 -0.2108
 1228SOL    HW215144   4.681   1.474   2.349 -1.2225 -0.6767 -1.8223
 1229SOL     OW15145   4.652   1.661  11.754  0.2134 -0.0710  0.1014
 1229SOL    HW115146   4.669   1.633  11.664  1.5667  1.9372 -0.2538
 1229SOL    HW215147   4.585   1.729  11.748 -0.1898 -0.4517  0.3057
 1230SOL     OW15148   2.106   3.702  12.684 -0.0862  0.0947 -0.5220
 1230SOL    HW115149   2.150   3.748  12.756 -0.8892 -1.7823  1.1878
 1230SOL    HW215150   2.187   3.661  12.653 -0.6840 -0.5326 -1.2463
 1231SOL     OW15151   1.265   0.464   0.278  0.0915  0.3471 -0.2932
 1231SOL    HW115152   1.289   0.392   0.220  3.4814  0.7033  0.6650
 1231SOL    HW215153   1.355   0.499   0.281 -0.2969  1.2338  0.8594
 1232SOL     OW15154   2.366   1.195   2.204 -0.2686  0.0817  0.4201
 1232SOL    HW115155   2.301   1.266   2.207 -0.9726 -0.5032 -0.8939
 1232SOL    HW215156   2.329   1.130   2.145 -0.8372  1.8419 -1.2027
 1233SOL     OW15157   1.482   4.076   8.956 -0.3983  0.4512  0.4797
 1233SOL    HW115158   1.420   4.042   9.022 -1.8010 -1.2336 -1.7214
 1233SOL    HW215159   1.460   4.168   8.949  2.0377  1.0149  0.4151
 1234SOL     OW15160   4.245   0.743   1.822 -0.4104  0.3095 -0.2005
 1234SOL    HW115161   4.289   0.794   1.755 -1.8938  1.4862 -0.2913
 1234SOL    HW215162   4.179   0.694   1.773  0.4996 -0.2611 -0.8531
 1235SOL     OW15163   3.287   0.912  15.634 -0.1297  0.5462  0.1328
 1235SOL    HW115164   3.197   0.878  15.633 -0.9387  2.6520  1.1394
 1235SOL    HW215165   3.291   0.918  15.730 -4.0576  1.2363  0.2596
 1236SOL     OW15166   1.387   3.057   0.401  0.3872  0.2105  0.7517
 1236SOL    HW115167   1.470   3.013   0.380 -0.3879  0.2408 -2.3300
 1236SOL    HW215168   1.396   3.139   0.353 -2.0700 -0.3384 -0.6321
 1237SOL     OW15169   0.659   1.642  17.668  0.9249  0.8431 -0.1824
 1237SOL    HW115170   0.683   1.699  17.595 -3.1390  1.3383 -1.0862
 1237SOL    HW215171   0.567   1.662   0.004  1.0824  1.4103  0.0251
 1238SOL     OW15172   2.832   2.744   5.832  0.0804 -0.6993  0.6830
 1238SOL    HW115173   2.758   2.766   5.775  2.2561 -0.2707 -1.9615
 1238SOL    HW215174   2.782   2.700   5.901  0.1882 -2.1445 -0.1772
 1239SOL     OW15175   2.930   2.759  17.257 -0.3531  0.3152 -0.1003
 1239SOL    HW115176   2.962   2.743  17.168  0.1308 -1.8750  0.4802
 1239SOL    HW215177   2.932   2.855  17.257 -0.7550  0.3247 -2.6456
 1240SOL     OW15178   1.230   3.644  17.617 -0.3473  0.5580  0.1555
 1240SOL    HW115179   1.186   3.594  17.548  0.6522  0.4262 -0.3900
 1240SOL    HW215180   1.217   3.586   0.012  2.1060 -1.3092 -0.8798
 1241SOL     OW15181   0.042   0.656   3.701 -0.5825 -0.1489  0.7827
 1241SOL    HW115182   0.006   0.676   3.787  0.8855  1.5065  0.9962
 1241SOL    HW215183   4.685   0.664   3.642 -0.3791  0.4328  0.6059
 1242SOL     OW15184   1.240   4.172   0.088  0.0895  0.2870  0.3612
 1242SOL    HW115185   1.244   4.152   0.182  3.1106  1.8242  0.5527
 1242SOL    HW215186   1.243   4.081   0.059 -0.0185  1.5132 -3.3995
 1243SOL     OW15187   1.242   3.550   5.024  0.6183 -0.1968  0.6924
 1243SOL    HW115188   1.216   3.480   5.083  1.9707 -0.2466  1.2306
 1243SOL    HW215189   1.336   3.551   5.040  0.3474 -1.5035  2.3311
 1244SOL     OW15190   0.163   1.654   9.142  0.5099  0.1232 -0.1226
 1244SOL    HW115191   0.190   1.740   9.173 -1.0647  0.8238 -0.6730
 1244SOL    HW215192   0.123   1.607   9.215  1.5731 -4.3763 -2.4207
 1245SOL     OW15193   0.696   0.395   4.561 -0.2757  0.2520 -0.1698
 1245SOL    HW115194   0.718   0.317   4.613  2.5014  0.4160 -1.1184
 1245SOL    HW215195   0.699   0.358   4.473  1.0582 -1.5168  0.6150
 1246SOL     OW15196   3.154   3.594  16.993 -0.1997  0.1282  0.3048
 1246SOL    HW115197   3.068   3.572  16.958  0.3246  0.2676 -1.1027
 1246SOL    HW215198   3.151   3.690  16.997  0.7312  0.2892 -2.4668
 1247SOL     OW15199   2.429   0.965   8.036  0.7343  0.0930 -0.4571
 1247SOL    HW115200   2.473   0.904   8.096 -3.7634 -1.9185  0.7747
 1247SOL    HW215201   2.411   0.902   7.967 -1.5121 -1.6391  1.6926
 1248SOL     OW15202   1.322   0.819   3.774 -0.0123  0.4428  0.0808
 1248SOL    HW115203   1.327   0.782   3.862 -3.5391  2.5193  1.1762
 1248SOL    HW215204   1.321   0.914   3.786 -0.7937  0.2909  1.1846
 1249SOL     OW15205   0.070   4.127   3.439 -0.4327  0.4026 -0.3410
 1249SOL    HW115206   0.062   4.194   3.371  0.1980  1.0086  0.1822
 1249SOL    HW215207   4.703   4.140   3.478 -0.2264  0.0869  0.2189
 1250SOL     OW15208   2.954   2.930   3.672 -0.0253  0.1066  0.3768
 1250SOL    HW115209   2.987   2.841   3.660 -1.4692 -0.1652 -1.6256
 1250SOL    HW215210   3.034   2.983   3.670  1.6659 -2.4842  0.0525
 1251SOL     OW15211   3.260   1.448   3.142  0.0565  0.2595 -0.3855
 1251SOL    HW115212   3.246   1.355   3.125  3.6790 -0.5441  1.0007
 1251SOL    HW215213   3.235   1.467   3.232  0.4876  3.6725 -0.9680
 1252SOL     OW15214   2.018   3.077  10.663  0.4541  0.7202 -0.2959
 1252SOL    HW115215   2.091   3.029  10.701 -0.2817  1.6396  2.2782
 1252SOL    HW215216   2.050   3.095  10.575  1.1845  1.3249  0.0911
 1253SOL     OW15217   3.855   0.453  11.498  0.4454 -0.5469 -0.5288
 1253SOL    HW115218   3.874   0.442  11.405  2.3623 -0.2883 -0.1683
 1253SOL    HW215219   3.846   0.547  11.508  0.4445 -0.9075  2.9233
 1254SOL     OW15220   0.991   4.109  15.424  0.3144  0.0881 -0.6686
 1254SOL    HW115221   0.967   4.061  15.504 -1.8770  1.2635 -0.6071
 1254SOL    HW215222   0.943   4.056  15.361  0.3383  0.7625 -1.2526
 1255SOL     OW15223   1.355   0.786   7.299 -0.4749  0.0683 -0.6110
 1255SOL    HW115224   1.431   0.815   7.350 -1.5008  0.6129  0.5791
 1255SOL    HW215225   1.328   0.876   7.283 -3.1158 -0.6316  0.0300
 1256SOL     OW15226   1.758   1.483   3.651 -0.4072 -0.6843  0.5625
 1256SOL    HW115227   1.850   1.464   3.671 -0.2014  1.6038  1.8818
 1256SOL    HW215228   1.746   1.543   3.725 -0.6647 -0.7377  0.5607
 1257SOL     OW15229   0.368   0.970   8.778  0.0918 -0.1072  0.4109
 1257SOL    HW115230   0.294   0.921   8.743 -0.3391  0.4434  0.5639
 1257SOL    HW215231   0.323   1.043   8.820  0.1771 -0.1200  0.5251
 1258SOL     OW15232   1.663   3.650   3.716 -0.4828  0.3475  0.6611
 1258SOL    HW115233   1.573   3.680   3.701 -0.6969 -1.3100 -1.4321
 1258SOL    HW215234   1.656   3.651   3.811  2.0802  1.6896  0.8373
 1259SOL     OW15235   1.224   1.823   4.458 -0.1665  0.7840 -0.4636
 1259SOL    HW115236   1.266   1.747   4.418 -1.5860 -0.0052 -0.4545
 1259SOL    HW215237   1.139   1.812   4.415 -1.1386  1.1240  1.3484
 1260SOL     OW15238   1.572   3.572   7.239 -0.1260  0.1593  0.1125
 1260SOL    HW115239   1.506   3.601   7.302 -1.4217  0.7413 -1.5218
 1260SOL    HW215240   1.510   3.542   7.173  1.0547 -0.9326 -0.5010
 1261SOL     OW15241   0.723   0.985  15.172  0.0146  0.2625  0.1192
 1261SOL    HW115242   0.795   0.969  15.233 -0.3297  0.2299  0.5190
 1261SOL    HW215243   0.728   1.080  15.160 -1.8840  0.5944  1.8218
 1262SOL     OW15244   3.578   1.464   4.685 -0.3471  0.1520  0.5617
 1262SOL    HW115245   3.503   1.491   4.633  0.3463  2.4408  0.7800
 1262SOL    HW215246   3.545   1.379   4.716  2.4937 -1.6055 -1.3151
 1263SOL     OW15247   2.335   1.773   7.508  0.3929 -0.3810  0.2145
 1263SOL    HW115248   2.308   1.796   7.596  0.6046  0.4402  0.0582
 1263SOL    HW215249   2.377   1.851   7.472 -1.1839  0.1241 -0.5336
 1264SOL     OW15250   3.101   3.535   4.530 -0.0441  0.4836  0.0929
 1264SOL    HW115251   3.012   3.571   4.530  0.0264  0.6651 -0.7843
 1264SOL    HW215252   3.090   3.463   4.592 -1.3386  1.5436  1.0788
 1265SOL     OW15253   2.696   3.881  15.107  0.2809  0.2401 -0.1520
 1265SOL    HW115254   2.716   3.831  15.028  0.4474  1.2406 -0.7442
 1265SOL    HW215255   2.628   3.821  15.138 -0.5428  0.8826 -0.7103
 1266SOL     OW15256   2.873   2.808   1.556 -0.3662  0.2799 -0.1343
 1266SOL    HW115257   2.842   2.758   1.632  0.3789  0.3632  0.2272
 1266SOL    HW215258   2.888   2.890   1.602 -1.0381 -0.1223  0.7923
 1267SOL     OW15259   1.598   3.299   3.139 -0.2311  0.1382  0.4354
 1267SOL    HW115260   1.619   3.205   3.139 -0.0837  0.1545 -3.2691
 1267SOL    HW215261   1.649   3.325   3.063 -1.7036 -0.3882 -0.7448
 1268SOL     OW15262   4.131   3.080   4.959  0.3204 -0.1443  0.1643
 1268SOL    HW115263   4.056   3.138   4.971  1.9576  2.1583 -0.6948
 1268SOL    HW215264   4.203   3.143   4.961  0.2893 -0.0414 -1.4657
 1269SOL     OW15265   4.054   3.418  15.655  0.6224  0.0777 -0.3400
 1269SOL    HW115266   4.133   3.397  15.704  0.8982 -1.0329 -1.2541
 1269SOL    HW215267   4.088   3.455  15.573 -0.5789 -0.1534 -0.9465
 1270SOL     OW15268   0.013   3.184  16.249 -0.0101 -0.2077 -0.4389
 1270SOL    HW115269   0.102   3.167  16.280 -0.8163  2.3254  3.2294
 1270SOL    HW215270   4.677   3.119  16.294 -0.8346  0.9797  0.2529
 1271SOL     OW15271   0.915   3.713   4.929  0.1833 -0.0008  0.2685
 1271SOL    HW115272   0.965   3.794   4.930 -0.2481  0.2560  1.0951
 1271SOL    HW215273   0.929   3.679   4.841 -3.2046  2.6528 -1.2873
 1272SOL     OW15274   4.606   1.034   2.478 -0.1162  0.1809  0.3304
 1272SOL    HW115275   4.686   0.985   2.460 -0.0576 -0.2343  1.7783
 1272SOL    HW215276   4.588   1.011   2.569  2.4936 -0.1323  0.7726
 1273SOL     OW15277   0.099   2.228   1.628  0.0762  0.2179 -0.1739
 1273SOL    HW115278   0.124   2.267   1.712  1.0071 -2.3283  0.7278
 1273SOL    HW215279   0.118   2.136   1.645  0.1011  0.5082  1.3641
 1274SOL     OW15280   3.414   1.653   4.532  0.2164 -0.2285  0.0899
 1274SOL    HW115281   3.355   1.637   4.458  2.4097 -1.3823 -1.4214
 1274SOL    HW215282   3.487   1.696   4.487 -1.0498  1.7340 -0.0394
 1275SOL     OW15283   0.165   0.285   0.020 -0.4588  0.1378 -0.0744
 1275SOL    HW115284   0.199   0.279  17.611  1.4703  0.0122  0.6676
 1275SOL    HW215285   0.084   0.333   0.004  0.3303  0.9960 -1.4467
 1276SOL     OW15286   2.567   0.527   3.718  0.1670  0.4737  0.0330
 1276SOL    HW115287   2.490   0.492   3.763  1.3668 -0.8267  1.0513
 1276SOL    HW215288   2.593   0.448   3.670 -0.0770  1.0781 -1.0965
 1277SOL     OW15289   2.252   0.768  10.227  0.4242  0.4148  0.0427
 1277SOL    HW115290   2.296   0.852  10.208  1.2462  0.3238  1.5920
 1277SOL    HW215291   2.320   0.703  10.209  0.1352  0.1136  0.0368
 1278SOL     OW15292   0.064   2.555  10.867  0.2740  0.7302 -0.0133
 1278SOL    HW115293   0.107   2.537  10.784 -2.9605 -0.7797 -1.3621
 1278SOL    HW215294   0.032   2.644  10.854 -1.0498  0.1739 -0.5673
 1279SOL     OW15295   1.710   2.675  14.192 -0.2995  0.1120  0.1253
 1279SOL    HW115296   1.782   2.616  14.215  0.8066  1.4145  0.0120
 1279SOL    HW215297   1.646   2.608  14.166  1.0722 -1.1209 -0.0660
 1280SOL     OW15298   3.440   2.292   6.790 -0.3520  0.2283 -0.5426
 1280SOL    HW115299   3.430   2.333   6.876 -5.3977  0.9770 -1.4893
 1280SOL    HW215300   3.512   2.230   6.799  1.1914  1.8656 -1.7859
 1281SOL     OW15301   4.300   4.541  12.765 -0.4923 -0.1398 -0.1585
 1281SOL    HW115302   4.315   4.590  12.845 -0.5226  1.9062 -1.3932
 1281SOL    HW215303   4.204   4.536  12.774 -0.4396  1.8477  1.2515
 1282SOL     OW15304   1.316   3.106   2.707  0.1948 -0.3721  0.0240
 1282SOL    HW115305   1.266   3.121   2.627  2.6565  1.6849 -1.1189
 1282SOL    HW215306   1.273   3.030   2.747  1.1261 -2.2461 -2.5745
 1283SOL     OW15307   0.489   3.606   8.793 -0.7360  0.2868 -0.0954
 1283SOL    HW115308   0.481   3.511   8.802  0.9443  0.2637  1.3076
 1283SOL    HW215309   0.549   3.618   8.719 -1.2426 -1.3654 -0.7761
 1284SOL     OW15310   3.912   4.201  16.278 -0.0095  0.5597  0.2653
 1284SOL    HW115311   3.914   4.112  16.245 -2.1669  0.1952  1.1075
 1284SOL    HW215312   3.909   4.261  16.204 -0.7146  0.2587  0.0538
 1285SOL     OW15313   0.371   1.333  14.675 -0.4060  0.0993  0.7583
 1285SOL    HW115314   0.427   1.393  14.628 -0.2663 -0.8230 -0.2529
 1285SOL    HW215315   0.375   1.249  14.628 -0.7546  1.2874 -1.3660
 1286SOL     OW15316   0.324   3.722   7.560  0.6503 -0.5060  0.5854
 1286SOL    HW115317   0.299   3.811   7.536  1.9184 -0.4199 -0.3847
 1286SOL    HW215318   0.342   3.686   7.473 -0.9044  0.0827  0.0136
 1287SOL     OW15319   3.052   2.573   1.711 -0.2303  0.1496  0.1434
 1287SOL    HW115320   3.009   2.504   1.762  1.5403 -0.8281  0.3223
 1287SOL    HW215321   3.094   2.623   1.781  0.0528 -1.4684  1.1346
 1288SOL     OW15322   2.622   2.965   4.010 -0.5227  0.3092  0.3448
 1288SOL    HW115323   2.670   3.002   3.936 -0.2041 -0.1023  0.3469
 1288SOL    HW215324   2.579   3.049   4.027  0.3806  1.3025 -2.2705
 1289SOL     OW15325   3.969   4.703  11.181  0.0188  0.3662 -0.5036
 1289SOL    HW115326   4.014   0.053  11.133 -3.1525  1.8941 -1.2907
 1289SOL    HW215327   3.920   4.656  11.113 -1.2497  0.9388  0.0180
 1290SOL     OW15328   4.375   3.716  11.287 -0.0922 -0.3559 -0.1979
 1290SOL    HW115329   4.462   3.685  11.311 -1.2233 -3.0341  0.4473
 1290SOL    HW215330   4.353   3.777  11.357  0.9075 -0.0082 -0.1915
 1291SOL     OW15331   2.234   3.021   4.741 -0.0163 -0.0851  0.0821
 1291SOL    HW115332   2.240   3.089   4.808  0.9305  2.3399 -2.4429
 1291SOL    HW215333   2.234   2.952   4.807  1.1015  0.9461  1.1942
 1292SOL     OW15334   1.581   1.828  13.763  0.5096  0.6914 -0.0440
 1292SOL    HW115335   1.527   1.879  13.823 -1.2072 -1.6502  0.4363
 1292SOL    HW215336   1.641   1.891  13.723 -1.1371  2.3679  0.1379
 1293SOL     OW15337   2.028   1.445   2.610  0.4032 -0.1675 -0.2550
 1293SOL    HW115338   2.037   1.373   2.672  1.4053 -0.3948 -0.6491
 1293SOL    HW215339   2.078   1.515   2.653  1.0818  1.5868 -3.8798
 1294SOL     OW15340   0.530   2.128   8.871  0.2212 -0.1035 -0.4457
 1294SOL    HW115341   0.554   2.217   8.846 -1.5805 -0.3094 -2.8893
 1294SOL    HW215342   0.520   2.087   8.785  0.3127 -1.2658  0.0942
 1295SOL     OW15343   0.420   3.880   1.498  0.3833 -0.1919 -0.1224
 1295SOL    HW115344   0.372   3.962   1.511 -0.0638 -0.2288 -1.5218
 1295SOL    HW215345   0.357   3.815   1.528  1.5515 -0.3203  2.0286
 1296SOL     OW15346   1.108   3.525   4.094 -0.3481  0.1674  0.3546
 1296SOL    HW115347   1.081   3.616   4.079 -0.7699  0.0403  0.3536
 1296SOL    HW215348   1.194   3.541   4.133  0.1004 -0.0511 -0.5521
 1297SOL     OW15349   4.301   2.119  16.101  0.3685  0.2310 -0.0251
 1297SOL    HW115350   4.350   2.045  16.139  1.2750 -0.1940 -2.0042
 1297SOL    HW215351   4.364   2.169  16.050  1.3247  0.3389  1.2666
 1298SOL     OW15352   1.836   1.812   2.654 -0.1873 -0.3139  0.5087
 1298SOL    HW115353   1.767   1.869   2.619  0.2938 -1.1888 -1.9036
 1298SOL    HW215354   1.897   1.829   2.582 -1.5547  2.5565  0.0183
 1299SOL     OW15355   2.967   4.522   6.322  0.2395  0.0678 -0.2993
 1299SOL    HW115356   2.926   4.480   6.246  0.6297 -2.4453  0.8610
 1299SOL    HW215357   3.057   4.539   6.293 -0.2619 -0.5600 -2.2153
 1300SOL     OW15358   2.404   4.030   3.733 -0.0064  1.0826 -0.2652
 1300SOL    HW115359   2.431   3.992   3.816 -2.0736  2.0428  0.8217
 1300SOL    HW215360   2.373   4.118   3.753  0.7210  0.8535  1.8367
 1301SOL     OW15361   4.570   1.822  14.747 -0.3206  0.6099 -0.0331
 1301SOL    HW115362   4.646   1.879  14.736 -0.2478  1.0612  2.7788
 1301SOL    HW215363   4.610   1.754  14.800 -1.7392  0.4846  0.8727
 1302SOL     OW15364   3.578   4.629  15.374 -0.0553  0.0934 -0.0750
 1302SOL    HW115365   3.482   4.625  15.366  0.0404  0.2194 -1.2295
 1302SOL    HW215366   3.611   4.638  15.285  0.0767 -2.7938 -0.3083
 1303SOL     OW15367   0.239   1.161  10.058  0.0801  0.0472 -0.5585
 1303SOL    HW115368   0.145   1.162  10.079 -0.1331 -2.4459 -1.4407
 1303SOL    HW215369   0.271   1.081  10.099  0.7881  1.7684  2.2281
 1304SOL     OW15370   0.182   2.427   8.688 -0.5770 -0.0908 -0.3983
 1304SOL    HW115371   0.106   2.474   8.722  0.4179  2.8353 -2.2435
 1304SOL    HW215372   0.220   2.398   8.771 -0.7649  1.2930  0.1762
 1305SOL     OW15373   2.941   0.638   7.941  0.3839 -0.0571 -0.1194
 1305SOL    HW115374   2.987   0.558   7.966  1.4160  0.1613 -1.2881
 1305SOL    HW215375   2.933   0.620   7.847  0.0819  2.7107 -0.6300
 1306SOL     OW15376   0.085   3.885   3.323 -0.4354  0.0587  0.3174
 1306SOL    HW115377   0.179   3.865   3.316 -0.7211 -0.0609 -3.3578
 1306SOL    HW215378   0.077   3.966   3.372  1.0513 -0.6313  1.6814
 1307SOL     OW15379   4.680   2.398   2.893  0.2018 -0.3480 -0.5191
 1307SOL    HW115380   0.006   2.327   2.848 -1.3528 -1.9325  0.4085
 1307SOL    HW215381   0.039   2.443   2.925 -0.7912  0.3616  0.9443
 1308SOL     OW15382   1.611   3.316   8.744  0.1273 -0.3011 -0.0995
 1308SOL    HW115383   1.589   3.391   8.688  0.1050 -1.6088 -1.8302
 1308SOL    HW215384   1.704   3.298   8.728 -0.0880 -1.7844  0.2936
 1309SOL     OW15385   4.586   2.596   3.824  0.4626 -0.1102  0.0993
 1309SOL    HW115386   4.592   2.685   3.859  0.2281  0.5958 -1.6333
 1309SOL    HW215387   4.566   2.609   3.731 -0.7610  0.3840  0.4392
 1310SOL     OW15388   3.007   4.660   5.938  0.1269 -0.0204 -0.1493
 1310SOL    HW115389   3.067   4.668   5.863  1.1876 -1.0483  0.5977
 1310SOL    HW215390   2.955   0.021   5.929  0.2894  0.3532  2.2099
 1311SOL     OW15391   1.582   2.128   4.392  0.2968  0.5526 -0.1755
 1311SOL    HW115392   1.533   2.083   4.461 -0.9854 -0.9145 -2.0628
 1311SOL    HW215393   1.561   2.064   4.325  1.0475 -1.8896  1.9095
 1312SOL     OW15394   0.443   0.555   6.677  0.3032 -0.0360  0.3121
 1312SOL    HW115395   0.528   0.557   6.634  0.6042 -0.2894  0.9096
 1312SOL    HW215396   0.401   0.484   6.628  0.4397  0.2040 -0.1584
 1313SOL     OW15397   1.563   4.303   1.236  0.1720 -0.1687 -0.3898
 1313SOL    HW115398   1.653   4.313   1.265  0.5102 -2.9267 -0.5213
 1313SOL    HW215399   1.536   4.395   1.238  0.7162  0.0711 -3.0381
 1314SOL     OW15400   4.671   0.581   2.676 -0.5731  0.6798 -0.2100
 1314SOL    HW115401   4.717   0.588   2.593 -0.5844  1.6376 -0.1422
 1314SOL    HW215402   4.583   0.608   2.648 -0.9055 -0.6767 -0.4843
 1315SOL     OW15403   1.443   2.733   2.592 -0.0099  0.0077  0.1622
 1315SOL    HW115404   1.455   2.754   2.684 -1.3332 -0.3958  0.4215
 1315SOL    HW215405   1.415   2.642   2.594 -0.0713 -0.0131 -1.5811
 1316SOL     OW15406   0.355   3.882   3.292 -0.1246 -0.7646  0.4639
 1316SOL    HW115407   0.414   3.838   3.353  0.1061 -2.3224 -0.8893
 1316SOL    HW215408   0.346   3.837   3.208  1.8533 -2.8842  1.3783
 1317SOL     OW15409   1.150   0.528   2.909 -0.4117  0.6138  0.0268
 1317SOL    HW115410   1.224   0.502   2.855  0.2186 -0.2825  1.3153
 1317SOL    HW215411   1.085   0.510   2.842  0.3302 -1.5547 -0.1154
 1318SOL     OW15412   3.190   2.394   2.009  0.4489  0.3595 -0.4733
 1318SOL    HW115413   3.124   2.461   2.027  2.1141  1.8134  0.2444
 1318SOL    HW215414   3.147   2.327   1.957  0.4001 -0.4107  0.5676
 1319SOL     OW15415   2.121   4.102   7.655 -0.0269 -0.1058 -0.1983
 1319SOL    HW115416   2.178   4.072   7.584 -0.1309 -0.1124 -0.2787
 1319SOL    HW215417   2.156   4.191   7.658 -1.1285  0.3098  0.3833
 1320SOL     OW15418   0.936   1.024   7.706  0.1589 -0.4178 -0.0787
 1320SOL    HW115419   0.859   1.081   7.709 -0.6209 -1.4071 -1.4409
 1320SOL    HW215420   1.003   1.085   7.737  0.8853 -0.4345 -1.6574
 1321SOL     OW15421   3.814   1.111   2.586 -0.0606  0.6272  0.3286
 1321SOL    HW115422   3.854   1.043   2.531 -0.9735  2.1095 -2.1255
 1321SOL    HW215423   3.889   1.155   2.627 -0.5514  2.7274 -1.0342
 1322SOL     OW15424   1.341   0.886   5.287 -0.1042  0.4569 -0.3071
 1322SOL    HW115425   1.262   0.833   5.296  0.1737 -0.3259 -2.3376
 1322SOL    HW215426   1.388   0.871   5.369  0.3213 -0.3872 -0.6949
 1323SOL     OW15427   3.144   4.026   8.120 -0.1913 -0.2001 -0.0896
 1323SOL    HW115428   3.076   3.959   8.107 -0.8747  0.6050 -0.6394
 1323SOL    HW215429   3.184   3.998   8.202 -1.6381 -2.9489 -0.3200
 1324SOL     OW15430   0.323   0.483  11.738 -0.6015 -0.0986  0.3895
 1324SOL    HW115431   0.301   0.565  11.695 -2.2975 -1.3991 -1.2236
 1324SOL    HW215432   0.292   0.502  11.826 -1.2956 -0.6627  0.2621
 1325SOL     OW15433   2.557   2.940   8.674  0.0838  0.1143 -0.6537
 1325SOL    HW115434   2.639   2.983   8.700 -0.4923 -0.2167  1.7334
 1325SOL    HW215435   2.540   2.869   8.736  0.5794 -1.2624 -2.1035
 1326SOL     OW15436   2.882   1.300   8.819 -0.4017  0.4468  0.2539
 1326SOL    HW115437   2.862   1.278   8.910 -0.8418 -1.0197 -0.1907
 1326SOL    HW215438   2.978   1.305   8.828 -0.2104  0.8542 -2.0127
 1327SOL     OW15439   0.222   4.213   6.374  0.0001  0.2926 -0.0966
 1327SOL    HW115440   0.262   4.221   6.287 -0.6137 -1.7354 -0.5545
 1327SOL    HW215441   0.130   4.229   6.351 -0.4008  0.5679  1.6677
 1328SOL     OW15442   1.253   4.449  13.165 -0.2336  0.9207 -0.7322
 1328SOL    HW115443   1.165   4.458  13.129 -0.7170  0.3942  0.3167
 1328SOL    HW215444   1.321   4.483  13.107  0.9663 -0.6911 -0.2879
 1329SOL     OW15445   1.649   4.200   6.950  0.4727 -0.0122  0.1190
 1329SOL    HW115446   1.607   4.140   6.888  0.6764 -0.1360  0.1000
 1329SOL    HW215447   1.639   4.285   6.908 -2.5156 -0.8844 -0.9117
 1330SOL     OW15448   1.137   2.055  11.825  0.8362 -0.0289 -0.6404
 1330SOL    HW115449   1.091   2.136  11.802 -0.3282 -1.4921 -3.5155
 1330SOL    HW215450   1.111   1.999  11.752 -0.1984 -1.3863  0.7726
 1331SOL     OW15451   2.585   1.757   8.589 -0.5977  0.1690 -0.6084
 1331SOL    HW115452   2.551   1.759   8.679  0.6035  1.5726 -0.1658
 1331SOL    HW215453   2.582   1.665   8.567  2.0414 -0.3819  1.1782
 1332SOL     OW15454   1.845   2.594  17.655  0.1256  0.1263  0.3179
 1332SOL    HW115455   1.781   2.545   0.027  0.8217  0.5438  1.5701
 1332SOL    HW215456   1.908   2.625   0.041  0.3897 -2.3092  1.2463
 1333SOL     OW15457   0.843   1.261   3.715  0.0905 -0.1092  0.2755
 1333SOL    HW115458   0.794   1.188   3.678  1.6319 -0.1379 -1.7822
 1333SOL    HW215459   0.830   1.313   3.635  0.3104  0.8836  0.8802
 1334SOL     OW15460   0.699   1.940   5.822 -0.4522  0.6989  0.1265
 1334SOL    HW115461   0.703   1.845   5.823 -0.7974  0.6433 -2.8230
 1334SOL    HW215462   0.787   1.966   5.848 -0.6357  2.0234 -0.5352
 1335SOL     OW15463   3.174   3.474   6.108 -0.2713  0.5770  0.2187
 1335SOL    HW115464   3.178   3.431   6.193 -0.7310 -0.2474 -0.1653
 1335SOL    HW215465   3.081   3.478   6.084  0.1806  0.4686 -1.6124
 1336SOL     OW15466   2.191   4.655   8.637  0.3309 -0.0862 -0.2330
 1336SOL    HW115467   2.147   0.011   8.677  0.5988 -0.2590  0.3907
 1336SOL    HW215468   2.195   4.589   8.706  1.7765 -2.1200 -2.2686
 1337SOL     OW15469   1.836   3.247   2.698 -0.2241 -0.6308 -0.0729
 1337SOL    HW115470   1.847   3.316   2.633  0.3106 -0.2082  0.4625
 1337SOL    HW215471   1.788   3.177   2.655 -1.4266 -0.8886  1.6767
 1338SOL     OW15472   2.678   4.705  16.527 -0.0983  0.3970 -0.0301
 1338SOL    HW115473   2.666   0.081  16.536 -0.2875  0.5598 -1.9528
 1338SOL    HW215474   2.645   4.674  16.611  1.2554  0.1602  0.4014
 1339SOL     OW15475   0.817   2.051   4.557 -0.0859  0.0312  0.3206
 1339SOL    HW115476   0.724   2.045   4.576 -0.7571  2.8396 -2.2457
 1339SOL    HW215477   0.833   1.956   4.551 -2.9754 -0.4293  0.2210
 1340SOL     OW15478   3.331   3.665  12.796 -0.4630 -0.1984 -0.0671
 1340SOL    HW115479   3.352   3.635  12.884  0.4604  1.0986  0.1671
 1340SOL    HW215480   3.275   3.740  12.816 -0.3873  0.3886 -2.0366
 1341SOL     OW15481   4.602   2.981  16.379 -0.1589 -0.1884 -0.2435
 1341SOL    HW115482   4.509   2.986  16.398 -0.5436 -2.5747 -1.6090
 1341SOL    HW215483   4.602   2.931  16.297  2.7947 -0.5132 -0.0485
 1342SOL     OW15484   4.440   3.724   2.109 -0.0248  0.4322  0.2603
 1342SOL    HW115485   4.433   3.630   2.092  2.1269  0.2023  0.7423
 1342SOL    HW215486   4.372   3.721   2.176 -1.1646 -2.5864 -1.0400
 1343SOL     OW15487   0.415   3.303   2.046  0.2574  0.1164 -0.0181
 1343SOL    HW115488   0.396   3.216   2.080 -0.9181  0.8230  1.1037
 1343SOL    HW215489   0.334   3.345   2.018 -0.3267 -2.1490 -1.7591
 1344SOL     OW15490   4.000   0.178   8.352 -0.2675 -0.1916 -0.4308
 1344SOL    HW115491   3.907   0.161   8.369 -0.2180 -0.7670 -0.7230
 1344SOL    HW215492   4.033   0.138   8.432 -1.3465 -0.7839 -0.2731
 1345SOL     OW15493   0.597   4.086  13.579 -0.0865  0.3746 -0.0919
 1345SOL    HW115494   0.508   4.061  13.553  0.9229  2.0192 -5.0865
 1345SOL    HW215495   0.651   4.106  13.503 -0.1469  0.3750 -0.1354
 1346SOL     OW15496   1.261   3.731   3.447  0.3840 -0.4298  1.1113
 1346SOL    HW115497   1.180   3.683   3.465 -0.5328  0.9323  0.6171
 1346SOL    HW215498   1.226   3.814   3.416  1.1221  0.2568  2.1327
 1347SOL     OW15499   4.030   3.676   8.747 -0.5179 -0.0341 -0.8076
 1347SOL    HW115500   3.979   3.756   8.742 -0.3995  0.0173 -1.2305
 1347SOL    HW215501   3.972   3.616   8.701 -1.0902  2.6814 -3.6351
 1348SOL     OW15502   1.676   4.329  15.984 -0.1713 -0.1676 -0.1085
 1348SOL    HW115503   1.651   4.415  16.017 -2.5239 -0.4398 -1.1403
 1348SOL    HW215504   1.601   4.272  16.001 -1.5455  1.4832 -0.6521
 1349SOL     OW15505   3.984   1.120   7.598 -0.0119 -0.4689 -0.0279
 1349SOL    HW115506   3.982   1.122   7.693  1.7590 -0.0274 -0.0125
 1349SOL    HW215507   4.037   1.197   7.580 -1.4630  0.4906 -0.2311
 1350SOL     OW15508   4.028   2.713   4.400 -0.1117 -0.3202 -0.1945
 1350SOL    HW115509   4.057   2.783   4.459 -3.5683  1.1788 -0.3093
 1350SOL    HW215510   4.077   2.638   4.432  1.0752  0.4690 -0.1431
 1351SOL     OW15511   2.367   2.307   2.414 -0.0858  0.3454 -0.1476
 1351SOL    HW115512   2.337   2.262   2.336  0.2767 -0.7757  0.3649
 1351SOL    HW215513   2.331   2.240   2.472  2.2355  1.1933  2.3181
 1352SOL     OW15514   1.246   2.697   6.310 -1.0738  0.7384 -0.3660
 1352SOL    HW115515   1.314   2.760   6.287 -0.6364  0.9025  1.3565
 1352SOL    HW215516   1.179   2.757   6.344 -0.2816  1.6675 -0.4564
 1353SOL     OW15517   2.568   4.453   8.688 -0.1469 -0.2220  0.1879
 1353SOL    HW115518   2.663   4.440   8.694 -0.3440 -1.2734  1.2044
 1353SOL    HW215519   2.554   4.532   8.637  1.7783  1.0151  1.5765
 1354SOL     OW15520   3.001   0.765  11.478  0.0838  0.3655 -0.2102
 1354SOL    HW115521   3.078   0.770  11.533  1.4683 -0.1789 -2.0935
 1354SOL    HW215522   3.035   0.736  11.393 -0.4820 -1.0706  0.0508
 1355SOL     OW15523   1.637   0.298   7.185  0.1936 -0.0555  0.1612
 1355SOL    HW115524   1.723   0.336   7.202  0.9573 -1.9114  0.4541
 1355SOL    HW215525   1.617   0.268   7.274  0.0718 -0.9043 -0.1499
 1356SOL     OW15526   0.798   4.539   9.196  0.3259 -0.5366  0.0289
 1356SOL    HW115527   0.781   4.627   9.231  0.6346  0.1348 -1.5175
 1356SOL    HW215528   0.714   4.503   9.225  0.0317  0.1326  0.0148
 1357SOL     OW15529   4.606   3.982   5.525  0.7515  0.3557  0.0708
 1357SOL    HW115530   4.699   3.968   5.507  0.3866  0.0271 -1.5352
 1357SOL    HW215531   4.583   3.889   5.532  0.5430  0.3495 -0.6764
 1358SOL     OW15532   2.115   2.669  10.846 -0.1806  0.3813  0.3949
 1358SOL    HW115533   2.064   2.615  10.907  2.5922 -3.9069 -1.0927
 1358SOL    HW215534   2.050   2.718  10.795 -0.6138  0.4509  0.9998
 1359SOL     OW15535   1.834   4.466   4.599  0.3983 -0.0939 -0.1839
 1359SOL    HW115536   1.812   4.531   4.665  0.7098 -2.3546  2.1311
 1359SOL    HW215537   1.914   4.442   4.645 -0.1874 -1.5801  0.0429
 1360SOL     OW15538   1.626   2.511   4.032 -0.7493  0.1554 -0.0030
 1360SOL    HW115539   1.541   2.553   4.041 -0.7762  0.9026 -3.4060
 1360SOL    HW215540   1.626   2.489   3.938  1.9621  0.8496 -0.1839
 1361SOL     OW15541   0.419   0.355  14.524  0.0494 -0.5956  0.4430
 1361SOL    HW115542   0.422   0.365  14.429 -0.6687  1.1307  0.6129
 1361SOL    HW215543   0.465   0.432  14.557 -0.0864  0.6957 -2.4027
 1362SOL     OW15544   2.714   1.014   6.902 -0.3286 -0.0373 -0.2739
 1362SOL    HW115545   2.715   1.090   6.844 -2.2127 -0.8850 -1.3922
 1362SOL    HW215546   2.678   0.947   6.845  0.1099  0.3927 -1.0551
 1363SOL     OW15547   0.719   1.653   5.804 -0.0335 -0.3260  0.3404
 1363SOL    HW115548   0.810   1.642   5.831 -0.9601 -1.2153  3.0647
 1363SOL    HW215549   0.696   1.574   5.754  0.5153  0.3763 -1.0339
 1364SOL     OW15550   2.448   0.239   2.037 -0.2763  0.4830 -0.3203
 1364SOL    HW115551   2.376   0.189   1.998 -1.5467  0.9243  1.4800
 1364SOL    HW215552   2.467   0.301   1.966 -0.5191 -0.1060 -0.9034
 1365SOL     OW15553   1.479   3.188   5.508 -0.3249  0.3718 -0.4141
 1365SOL    HW115554   1.447   3.215   5.421 -1.1375  1.2774  0.1608
 1365SOL    HW215555   1.545   3.125   5.479  0.0309  0.1130  0.9614
 1366SOL     OW15556   3.471   0.571   7.599 -0.0854  0.3147  0.0514
 1366SOL    HW115557   3.550   0.529   7.634  1.8654  2.0241 -2.2689
 1366SOL    HW215558   3.489   0.570   7.505  0.0874 -2.7718  0.1131
 1367SOL     OW15559   1.247   4.561   7.941 -0.6031 -0.3216  0.0504
 1367SOL    HW115560   1.183   4.603   7.998  1.7430  1.1565  1.5906
 1367SOL    HW215561   1.320   4.622   7.931  1.4050 -3.0398 -1.8817
 1368SOL     OW15562   0.595   3.944   3.113 -0.2366  0.0151 -0.3162
 1368SOL    HW115563   0.622   3.961   3.023 -1.2366 -0.0027 -0.6177
 1368SOL    HW215564   0.574   3.852   3.094 -1.6389  0.6305 -1.6959
 1369SOL     OW15565   1.042   0.054   3.706 -0.0863 -0.1449 -0.0309
 1369SOL    HW115566   1.112   4.715   3.676 -0.7559 -1.2883  0.6264
 1369SOL    HW215567   1.100   0.104   3.762 -0.2585  1.0983 -0.9481
 1370SOL     OW15568   0.686   1.286  11.833  0.1984 -0.4507 -0.2058
 1370SOL    HW115569   0.629   1.340  11.779  1.3538  1.3107  0.3524
 1370SOL    HW215570   0.686   1.331  11.917  1.5430 -0.5085 -0.1697
 1371SOL     OW15571   2.712   4.469   5.233 -0.1608  0.6989  0.0040
 1371SOL    HW115572   2.682   4.549   5.191 -1.5729  0.3687  0.3995
 1371SOL    HW215573   2.775   4.490   5.302 -0.3705 -1.7654  0.9525
 1372SOL     OW15574   1.811   0.927  16.543 -0.1151 -0.5534  0.2297
 1372SOL    HW115575   1.903   0.907  16.560 -0.1899  0.9150  2.4498
 1372SOL    HW215576   1.810   1.018  16.514 -1.1140 -0.5521  0.2489
 1373SOL     OW15577   3.404   2.710   2.962  0.6446  0.1493  0.4953
 1373SOL    HW115578   3.375   2.747   3.045 -0.7775  1.4286 -0.5687
 1373SOL    HW215579   3.414   2.787   2.906 -0.5849  0.6955  1.0305
 1374SOL     OW15580   3.234   1.532   3.678 -0.0084  0.4118 -0.7058
 1374SOL    HW115581   3.256   1.586   3.754 -1.0420  1.4005 -1.1120
 1374SOL    HW215582   3.143   1.511   3.700 -0.4858  3.1141 -0.1392
 1375SOL     OW15583   0.348   1.669   3.947  0.3130  0.1113  0.1543
 1375SOL    HW115584   0.253   1.673   3.959  0.1959 -0.8780 -0.4241
 1375SOL    HW215585   0.369   1.697   4.036  1.9681 -2.8555  0.7120
 1376SOL     OW15586   3.885   1.549   7.116  0.0127  0.0841 -0.1064
 1376SOL    HW115587   3.803   1.539   7.163 -0.5655 -3.1838 -1.8037
 1376SOL    HW215588   3.860   1.506   7.034  3.0218 -0.4161 -0.7654
 1377SOL     OW15589   1.944   2.673   5.877  0.4895 -0.1936 -0.6515
 1377SOL    HW115590   1.870   2.665   5.818  0.1875  2.6814 -0.6827
 1377SOL    HW215591   2.006   2.718   5.819  0.8938  0.6177  0.3970
 1378SOL     OW15592   1.141   0.490  17.334 -0.1436 -0.3237  0.0460
 1378SOL    HW115593   1.068   0.551  17.325 -0.1724 -0.3647 -0.0037
 1378SOL    HW215594   1.098   0.404  17.336  1.1791 -0.9834  0.4646
 1379SOL     OW15595   2.996   4.677   1.466  0.3767  0.4122 -0.5129
 1379SOL    HW115596   2.979   4.605   1.406 -0.8252  0.1715  0.1170
 1379SOL    HW215597   3.049   4.626   1.527  2.5866 -1.3155 -3.8814
 1380SOL     OW15598   0.055   3.613  12.787 -0.6485 -0.8243  0.8373
 1380SOL    HW115599   0.060   3.638  12.879  1.3486 -2.1927  1.1073
 1380SOL    HW215600   4.679   3.606  12.774 -0.4491 -0.2544 -0.9953
 1381SOL     OW15601   1.763   2.390  14.203  0.2058  0.1714 -0.2324
 1381SOL    HW115602   1.838   2.394  14.144  0.1034  0.6421 -0.3358
 1381SOL    HW215603   1.693   2.350  14.151 -0.1129  0.5164 -0.0682
 1382SOL     OW15604   0.681   3.814  13.404  0.1892 -0.0915  1.1012
 1382SOL    HW115605   0.738   3.854  13.469  1.2471 -1.3192  0.9148
 1382SOL    HW215606   0.639   3.889  13.361 -1.0212 -0.9002  0.8654
 1383SOL     OW15607   2.254   4.679   3.670  0.4084  0.2042  0.2988
 1383SOL    HW115608   2.172   4.634   3.690  0.6499 -1.1568 -1.7906
 1383SOL    HW215609   2.297   4.598   3.642  1.5678  0.3646  1.5899
 1384SOL     OW15610   3.822   3.330  13.408 -0.4587 -0.4589 -0.8682
 1384SOL    HW115611   3.857   3.263  13.349  1.2736  0.1985 -0.5937
 1384SOL    HW215612   3.733   3.335  13.373 -0.5747  0.5517 -0.4210
 1385SOL     OW15613   3.924   4.266   5.818  0.4811  0.1888  0.3012
 1385SOL    HW115614   3.892   4.187   5.862  1.4034  0.1065  0.8248
 1385SOL    HW215615   3.937   4.223   5.734  0.6785  0.8441 -0.0063
 1386SOL     OW15616   1.191   4.538   3.715  0.0922 -0.8086  0.2898
 1386SOL    HW115617   1.142   4.456   3.714 -0.7133 -0.2956 -1.4050
 1386SOL    HW215618   1.255   4.515   3.647 -1.4697  1.6925 -2.0577
 1387SOL     OW15619   3.944   0.108  17.521 -0.3960 -0.3909 -0.4143
 1387SOL    HW115620   4.007   0.041  17.548 -1.5262 -0.7077  1.4607
 1387SOL    HW215621   3.894   0.126  17.601 -1.3182 -2.5146 -0.5343
 1388SOL     OW15622   1.537   3.166   8.211 -0.4639 -0.1735 -0.1153
 1388SOL    HW115623   1.571   3.252   8.235 -1.9762  0.4661 -0.2779
 1388SOL    HW215624   1.486   3.151   8.290  1.0152 -0.0279  0.8695
 1389SOL     OW15625   2.301   3.404  12.847  0.5966 -0.3860 -0.0863
 1389SOL    HW115626   2.325   3.376  12.759  0.7008 -0.4985 -0.0216
 1389SOL    HW215627   2.296   3.498  12.835 -2.3260 -0.7156 -1.4169
 1390SOL     OW15628   2.976   0.955   6.985 -0.7291  0.3111  0.4410
 1390SOL    HW115629   3.059   0.991   7.017  0.7535 -2.4130 -0.3945
 1390SOL    HW215630   2.913   1.027   7.000 -2.3438 -0.6155 -1.8915
 1391SOL     OW15631   1.386   0.392   5.003  0.4770  0.2922  0.1422
 1391SOL    HW115632   1.309   0.427   4.960 -0.3177 -1.2984  0.2633
 1391SOL    HW215633   1.360   0.401   5.094 -0.7209 -1.0485 -0.0692
 1392SOL     OW15634   0.402   2.962   4.730 -0.3822 -0.3117 -0.0993
 1392SOL    HW115635   0.483   3.013   4.724  0.4733 -1.5803  0.6022
 1392SOL    HW215636   0.406   2.931   4.639  2.3116 -0.2236  0.0017
 1393SOL     OW15637   2.341   1.746   5.633  0.0478  0.0607  0.2214
 1393SOL    HW115638   2.378   1.834   5.633 -1.6517  0.7788  1.5940
 1393SOL    HW215639   2.406   1.707   5.690 -1.0141 -0.6001  0.9812
 1394SOL     OW15640   0.106   3.073   5.571  0.0927  0.2796 -0.2563
 1394SOL    HW115641   0.107   3.162   5.537 -0.9272  0.7984  1.0669
 1394SOL    HW215642   0.013   3.060   5.590  0.9469  2.1453  5.1425
 1395SOL     OW15643   0.296   4.358   9.118 -0.2759 -0.1027 -0.5550
 1395SOL    HW115644   0.298   4.357   9.022  1.7928 -0.2807 -0.5275
 1395SOL    HW215645   0.229   4.424   9.134 -0.8996 -0.8882  0.1090
 1396SOL     OW15646   3.325   3.964   2.767  0.2599  0.0681 -0.3303
 1396SOL    HW115647   3.348   3.876   2.736 -0.0058 -1.3966  3.6189
 1396SOL    HW215648   3.408   4.006   2.748 -0.8087  2.1026 -0.4613
 1397SOL     OW15649   3.510   1.423   2.378  0.2764 -0.5651 -0.1431
 1397SOL    HW115650   3.596   1.462   2.360  0.7250 -1.3503  0.3092
 1397SOL    HW215651   3.469   1.432   2.293  1.3102  0.1792 -0.5707
 1398SOL     OW15652   3.302   0.258   1.961  0.1880 -0.3265  0.4435
 1398SOL    HW115653   3.296   0.273   1.867  2.3065 -1.3731  0.1210
 1398SOL    HW215654   3.292   0.163   1.967 -0.9708 -0.3120 -1.5695
 1399SOL     OW15655   3.115   4.156  15.366 -0.3403  0.2677 -0.3580
 1399SOL    HW115656   3.074   4.098  15.301  0.9814  0.7136 -1.5873
 1399SOL    HW215657   3.051   4.228  15.364 -0.3090  0.3311  1.0022
 1400SOL     OW15658   1.043   4.250  15.761  1.2458  0.1693 -0.0791
 1400SOL    HW115659   1.107   4.264  15.691  0.7921  3.3554  0.1401
 1400SOL    HW215660   0.964   4.262  15.708  1.8802  0.0723 -1.0413
 1401SOL     OW15661   2.615   0.582   9.021 -0.2018 -0.3360  0.3493
 1401SOL    HW115662   2.621   0.497   8.978  3.2717  0.0016  0.1572
 1401SOL    HW215663   2.573   0.564   9.105 -2.9526 -0.9946 -1.1771
 1402SOL     OW15664   0.758   3.164   3.106 -0.0489  0.6021 -0.1292
 1402SOL    HW115665   0.675   3.117   3.117 -0.6084  1.1170 -2.1742
 1402SOL    HW215666   0.795   3.108   3.038 -2.4871 -0.2709 -0.7428
 1403SOL     OW15667   4.451   2.109   4.342 -0.0110  0.0216 -0.3099
 1403SOL    HW115668   4.473   2.179   4.403  0.6853 -1.5591  1.2743
 1403SOL    HW215669   4.520   2.128   4.279  1.3627  1.8718  1.7285
 1404SOL     OW15670   1.584   1.877   8.727 -0.7243 -0.2439  0.3876
 1404SOL    HW115671   1.498   1.919   8.734 -1.0024 -0.5141 -1.6226
 1404SOL    HW215672   1.564   1.815   8.657  0.0518  0.8439 -0.8022
 1405SOL     OW15673   0.950   2.039  12.261 -0.6335  0.0739  0.0369
 1405SOL    HW115674   1.008   1.997  12.197 -1.3112  0.4255 -0.8053
 1405SOL    HW215675   1.009   2.085  12.321  1.2458  0.9625 -2.4658
 1406SOL     OW15676   1.013   2.887   6.358 -0.0508 -0.0254 -0.0106
 1406SOL    HW115677   0.965   2.812   6.322  1.1800 -0.7046 -0.2379
 1406SOL    HW215678   1.039   2.940   6.282 -0.1337 -0.5202 -0.3860
 1407SOL     OW15679   0.640   0.669   5.750  0.0107 -0.1849 -0.1070
 1407SOL    HW115680   0.710   0.652   5.813  0.4891 -0.1048 -0.6210
 1407SOL    HW215681   0.569   0.691   5.810  1.1916  3.1486  0.0426
 1408SOL     OW15682   0.573   1.519  11.062 -0.2728 -0.1760 -0.3349
 1408SOL    HW115683   0.587   1.596  11.006  1.2594 -0.4981 -0.3930
 1408SOL    HW215684   0.604   1.560  11.142  1.2862 -0.2285 -0.9225
 1409SOL     OW15685   4.096   2.639   7.443  0.0919  0.5811 -0.1578
 1409SOL    HW115686   4.012   2.610   7.479 -0.1115  0.6048 -0.6034
 1409SOL    HW215687   4.071   2.707   7.380  3.3180  1.3541 -0.5929
 1410SOL     OW15688   3.971   1.109   3.437  0.0732  1.1643  0.2078
 1410SOL    HW115689   3.985   1.185   3.494  2.4174  2.2230 -1.7673
 1410SOL    HW215690   3.955   1.151   3.353 -2.4055 -0.1027  0.0637
 1411SOL     OW15691   1.430   3.318   1.305  0.2133  0.1758 -0.8428
 1411SOL    HW115692   1.446   3.413   1.302 -0.1195  0.2619  0.5832
 1411SOL    HW215693   1.349   3.302   1.257 -2.0532  2.3953  2.3018
 1412SOL     OW15694   2.002   0.294  15.219  0.1127  0.1332 -0.1956
 1412SOL    HW115695   1.990   0.201  15.239 -0.8300  0.0195 -1.2386
 1412SOL    HW215696   2.091   0.292  15.184  0.7884  2.1473  1.4062
 1413SOL     OW15697   3.372   1.423   2.124  0.7969 -0.2201  0.5195
 1413SOL    HW115698   3.439   1.408   2.057 -0.6238 -1.3593 -0.6236
 1413SOL    HW215699   3.342   1.504   2.082 -0.5435 -0.9833  0.0089
 1414SOL     OW15700   3.053   2.738   9.059 -0.0484 -0.2393 -0.5410
 1414SOL    HW115701   3.116   2.668   9.046 -1.1426 -1.3963  0.3618
 1414SOL    HW215702   3.051   2.734   9.154  1.2421  0.2329 -0.5007
 1415SOL     OW15703   1.235   3.247   8.100 -0.2523 -0.0476  0.4650
 1415SOL    HW115704   1.156   3.229   8.049  0.8199  2.5387 -2.1304
 1415SOL    HW215705   1.242   3.170   8.157 -0.3398 -0.9125 -0.6910
 1416SOL     OW15706   2.698   3.475  12.961  0.1161 -0.1755 -0.1368
 1416SOL    HW115707   2.685   3.559  13.004 -0.0121 -1.2241  1.8451
 1416SOL    HW215708   2.735   3.504  12.878 -0.2305 -2.4371 -1.0970
 1417SOL     OW15709   2.818   1.534   7.166 -0.0383 -0.2882  0.0763
 1417SOL    HW115710   2.809   1.456   7.221  0.4268  0.2874  0.9685
 1417SOL    HW215711   2.886   1.586   7.207 -0.0557 -2.5643  2.9792
 1418SOL     OW15712   1.995   2.105  16.073  0.6849 -0.5922 -0.1914
 1418SOL    HW115713   1.981   2.200  16.071  0.4265 -0.6720 -2.4909
 1418SOL    HW215714   2.057   2.094  16.145 -0.7427  1.6810  1.3771
 1419SOL     OW15715   0.868   0.301   7.332  0.4989 -0.2022  0.7550
 1419SOL    HW115716   0.849   0.393   7.314  0.3576 -0.0499  1.6940
 1419SOL    HW215717   0.936   0.312   7.399  1.4485  0.0700 -0.2673
 1420SOL     OW15718   1.867   4.117   0.662 -1.3372  0.3006  0.5605
 1420SOL    HW115719   1.814   4.092   0.738 -4.1476  0.9346 -1.1870
 1420SOL    HW215720   1.952   4.080   0.687 -1.2779  1.1690  1.6320
 1421SOL     OW15721   1.260   1.278   2.799  0.0040 -0.4819 -0.3949
 1421SOL    HW115722   1.309   1.360   2.797  0.4108 -0.7301 -0.8714
 1421SOL    HW215723   1.267   1.250   2.890  0.6635 -1.7009 -0.8198
 1422SOL     OW15724   4.014   1.904   7.593 -0.0931  0.3911 -0.7279
 1422SOL    HW115725   4.004   1.826   7.538  0.7288 -0.6465  0.6018
 1422SOL    HW215726   4.107   1.905   7.617 -0.4765 -2.3533  0.8836
 1423SOL     OW15727   2.049   0.295   1.041 -0.7780  0.1023  0.1238
 1423SOL    HW115728   2.068   0.243   0.963  0.7820 -2.6903  2.4024
 1423SOL    HW215729   2.137   0.295   1.078 -1.1381  3.5334  1.0316
 1424SOL     OW15730   1.588   3.203  10.012 -0.0402  0.1507 -0.5660
 1424SOL    HW115731   1.635   3.231  10.091 -0.3504 -0.1320 -0.2793
 1424SOL    HW215732   1.564   3.111  10.024  2.1499  0.2133  4.5765
 1425SOL     OW15733   1.073   0.622   6.807 -0.8216 -0.0941 -0.2101
 1425SOL    HW115734   1.001   0.560   6.809 -1.5628  0.7379 -2.0457
 1425SOL    HW215735   1.093   0.638   6.715 -2.1241  1.3180 -0.2384
 1426SOL     OW15736   0.389   2.769   6.221 -0.3234 -0.3839 -0.1412
 1426SOL    HW115737   0.441   2.689   6.229 -0.0846 -0.1890  0.2729
 1426SOL    HW215738   0.351   2.758   6.308 -1.3364  1.4151 -0.3428
 1427SOL     OW15739   4.132   1.659   8.552  0.4369  0.6490  0.4252
 1427SOL    HW115740   4.098   1.621   8.632 -0.6731  0.4352 -0.1465
 1427SOL    HW215741   4.223   1.668   8.581  1.1445 -0.2307 -1.5038
 1428SOL     OW15742   0.264   4.606  17.228  0.3048 -0.1111 -0.4544
 1428SOL    HW115743   0.257   4.628  17.321  0.4649  0.0055 -0.4711
 1428SOL    HW215744   0.354   4.637  17.218  0.4731 -0.1829  0.8329
 1429SOL     OW15745   4.338   3.002  12.036 -0.0482  0.4047 -0.0852
 1429SOL    HW115746   4.293   2.918  12.029  2.8118 -1.2653  1.7170
 1429SOL    HW215747   4.270   3.068  12.022  0.0828  0.8549  1.3378
 1430SOL     OW15748   3.454   3.931   9.348 -0.1065 -0.0238 -0.1911
 1430SOL    HW115749   3.507   3.896   9.419  1.3835 -1.1003 -1.8149
 1430SOL    HW215750   3.509   3.997   9.306  0.0372 -1.2186 -1.9203
 1431SOL     OW15751   0.258   1.758  12.979  0.1310  0.2159  0.3567
 1431SOL    HW115752   0.347   1.771  12.948  0.8672 -0.4318  2.2150
 1431SOL    HW215753   0.271   1.780  13.071 -1.0347  1.3262  0.2666
 1432SOL     OW15754   1.759   4.537   1.921  0.8253  0.2202 -0.0293
 1432SOL    HW115755   1.842   4.497   1.945  0.0624 -0.8176  0.8459
 1432SOL    HW215756   1.765   4.622   1.965  0.4433  0.1508  0.1566
 1433SOL     OW15757   1.912   2.503   2.990  0.0435  0.5044 -0.2513
 1433SOL    HW115758   1.999   2.524   2.959  0.2315 -2.9926 -2.1263
 1433SOL    HW215759   1.861   2.583   2.976 -0.3174  0.0791 -1.3512
 1434SOL     OW15760   0.051   2.527   6.734 -0.6910 -0.3947  0.5925
 1434SOL    HW115761   0.069   2.531   6.828  0.4332 -0.5635  0.3915
 1434SOL    HW215762   0.029   2.618   6.714  0.9657  0.1014  0.9937
 1435SOL     OW15763   4.626   2.250   3.716  0.0028 -0.0168  0.7222
 1435SOL    HW115764   4.716   2.272   3.741  0.4764 -2.4182  1.0926
 1435SOL    HW215765   4.625   2.269   3.622 -1.2429 -0.0471  0.7330
 1436SOL     OW15766   3.671   2.638   2.094 -0.0155 -0.1193 -0.2292
 1436SOL    HW115767   3.760   2.635   2.130 -0.4743  1.1849  1.0237
 1436SOL    HW215768   3.619   2.569   2.135 -0.5951 -1.0071 -2.4599
 1437SOL     OW15769   4.293   2.572   1.370 -0.0385 -0.2789 -0.2265
 1437SOL    HW115770   4.345   2.574   1.290 -0.7029 -0.3854 -0.6578
 1437SOL    HW215771   4.299   2.664   1.398 -0.3888 -0.6267  1.0244
 1438SOL     OW15772   0.736   3.547  11.064  0.7722  0.3423 -0.3211
 1438SOL    HW115773   0.691   3.609  11.122 -0.7888 -0.4751 -0.6503
 1438SOL    HW215774   0.690   3.466  11.085 -1.4987  1.2453 -1.7460
 1439SOL     OW15775   2.952   4.408   1.344  0.2224  0.4129  0.5630
 1439SOL    HW115776   3.024   4.353   1.376 -0.3427  0.2107  1.4834
 1439SOL    HW215777   2.962   4.412   1.249 -2.7075  0.1559  0.2367
 1440SOL     OW15778   4.648   3.773  17.329  0.5025  0.6286  0.1741
 1440SOL    HW115779   4.656   3.799  17.421  2.8828 -1.4925  0.5550
 1440SOL    HW215780   4.555   3.763  17.307  0.4950  0.2835  0.3587
 1441SOL     OW15781   3.283   0.292  12.702 -0.9768 -0.0002 -0.3249
 1441SOL    HW115782   3.347   0.362  12.687 -0.7730 -0.5840 -2.1137
 1441SOL    HW215783   3.270   0.303  12.796 -1.2094 -2.6190 -0.0498
 1442SOL     OW15784   4.638   2.374   6.073  0.3217  0.0093 -0.4175
 1442SOL    HW115785   4.570   2.422   6.120  1.7545  0.8381  0.8140
 1442SOL    HW215786   4.680   2.329   6.146  1.4430 -1.4592 -1.9613
 1443SOL     OW15787   0.615   2.934   0.652 -0.3959 -0.0512  0.0948
 1443SOL    HW115788   0.636   3.010   0.597  1.6603  0.0752  1.0415
 1443SOL    HW215789   0.694   2.880   0.645 -1.0951 -0.7860 -2.1503
 1444SOL     OW15790   1.811   0.357  12.628 -0.0582 -0.3317 -0.2379
 1444SOL    HW115791   1.770   0.440  12.602  1.8830  1.2797  1.8729
 1444SOL    HW215792   1.901   0.388  12.642 -0.8130  1.4086  0.7789
 1445SOL     OW15793   4.613   4.376  15.509  0.3133 -0.0871 -0.6499
 1445SOL    HW115794   4.526   4.379  15.469 -0.6375  1.5726  1.5236
 1445SOL    HW215795   4.597   4.432  15.585  2.1545  2.5738 -2.2162
 1446SOL     OW15796   3.922   0.351   5.367  0.2276 -0.6028  0.6728
 1446SOL    HW115797   3.985   0.345   5.295 -1.0712 -0.5714 -0.4640
 1446SOL    HW215798   3.887   0.263   5.378  2.5499 -1.5415  0.6042
 1447SOL     OW15799   1.016   1.580   5.285 -0.5390 -1.0433  0.6162
 1447SOL    HW115800   1.034   1.498   5.331  1.1943 -1.7522 -1.3674
 1447SOL    HW215801   1.086   1.582   5.220 -2.0033  1.6543 -0.8600
 1448SOL     OW15802   0.347   3.328   3.209 -0.0146  0.3254  0.5704
 1448SOL    HW115803   0.290   3.348   3.283  0.5523 -1.3118  1.4542
 1448SOL    HW215804   0.283   3.299   3.144  1.2594  2.4478 -1.6358
 1449SOL     OW15805   0.947   1.607   4.746 -0.4468  0.7039 -0.1159
 1449SOL    HW115806   0.980   1.643   4.829 -0.5183 -0.8130  0.5672
 1449SOL    HW215807   0.974   1.515   4.748  2.3321  1.4816 -2.3642
 1450SOL     OW15808   2.399   1.720   7.148  0.1916  0.1999 -0.0855
 1450SOL    HW115809   2.486   1.742   7.116 -1.7524  0.9449 -4.9399
 1450SOL    HW215810   2.423   1.651   7.210  0.0988 -2.0527 -2.5543
 1451SOL     OW15811   0.928   1.986  12.753 -0.0419 -0.5476  0.1617
 1451SOL    HW115812   1.004   1.929  12.742  0.7963  0.7329 -0.6637
 1451SOL    HW215813   0.890   1.962  12.669  0.2365  0.4543 -0.2486
 1452SOL     OW15814   0.923   3.057   0.124 -0.6327  0.0517 -0.6460
 1452SOL    HW115815   0.923   2.962   0.132  1.8599  0.0799 -0.4017
 1452SOL    HW215816   0.855   3.068   0.057 -0.5812  0.0102 -0.7047
 1453SOL     OW15817   0.086   2.800  17.521 -0.1085  0.6412 -0.1171
 1453SOL    HW115818   4.718   2.827  17.494 -0.9943 -0.1218  1.9857
 1453SOL    HW215819   0.095   2.848  17.604 -2.1739  0.0799  0.4244
 1454SOL     OW15820   1.337   4.457   3.467 -0.3924 -0.5272  0.1154
 1454SOL    HW115821   1.378   4.533   3.426  2.2808 -0.9416  1.9894
 1454SOL    HW215822   1.408   4.405   3.505  0.2895 -2.1221 -3.3208
 1455SOL     OW15823   0.523   2.240   2.260 -0.0666 -0.3119  0.2216
 1455SOL    HW115824   0.581   2.165   2.255 -1.4789 -1.4019  0.0783
 1455SOL    HW215825   0.573   2.312   2.221 -0.4886 -0.1121  0.0448
 1456SOL     OW15826   2.183   4.415   3.104  0.2692 -0.1412 -0.8610
 1456SOL    HW115827   2.106   4.420   3.048  0.5888  0.5114 -1.2505
 1456SOL    HW215828   2.165   4.493   3.157  0.1588 -0.9580  0.2793
 1457SOL     OW15829   1.640   1.262   6.772  0.2782  0.2720  0.6092
 1457SOL    HW115830   1.547   1.243   6.788  1.3854 -3.7136  2.1684
 1457SOL    HW215831   1.654   1.342   6.823  2.4327 -0.1753  0.6997
 1458SOL     OW15832   0.435   2.052  14.105 -0.2117  0.1020  0.0761
 1458SOL    HW115833   0.360   2.091  14.062 -0.0854 -1.1023 -1.2297
 1458SOL    HW215834   0.390   1.974  14.139 -2.0987 -0.1193 -3.0019
 1459SOL     OW15835   4.538   1.819   2.574  0.5374  0.4200 -0.0746
 1459SOL    HW115836   4.565   1.860   2.492 -1.2076  0.5503 -0.5767
 1459SOL    HW215837   4.449   1.812   2.542  0.7599 -0.2205 -0.5528
 1460SOL     OW15838   3.210   4.047  14.777 -0.2428 -0.3270 -0.3495
 1460SOL    HW115839   3.136   3.987  14.785  0.5916 -1.3275 -0.2037
 1460SOL    HW215840   3.253   4.026  14.860  2.4015 -0.4167 -1.7307
 1461SOL     OW15841   1.898   3.207   9.230  0.2032 -0.3078 -0.9050
 1461SOL    HW115842   1.957   3.202   9.155  1.3996 -0.2856  0.0324
 1461SOL    HW215843   1.810   3.194   9.196 -0.2808  0.4448  0.0457
 1462SOL     OW15844   4.083   3.313   7.019 -0.1227  0.5020  0.1064
 1462SOL    HW115845   4.123   3.381   6.965 -2.5863  0.2831 -2.0061
 1462SOL    HW215846   4.080   3.370   7.096 -0.8522  3.0621 -1.8059
 1463SOL     OW15847   0.054   2.894   1.263  1.2028  0.3178  0.1057
 1463SOL    HW115848   0.059   2.902   1.358 -0.8062 -0.8998  0.2988
 1463SOL    HW215849   4.699   2.953   1.255  1.3538  0.6728  1.3965
 1464SOL     OW15850   1.053   1.545   2.154 -0.1061  0.2850 -0.2537
 1464SOL    HW115851   1.068   1.539   2.060  2.0923  0.0335  0.1212
 1464SOL    HW215852   1.112   1.476   2.185  0.0850  0.8770  0.7217
 1465SOL     OW15853   1.595   2.539  16.501  0.0158 -0.0767  0.8090
 1465SOL    HW115854   1.646   2.459  16.494 -0.4782 -0.1976 -1.6719
 1465SOL    HW215855   1.563   2.542  16.411 -1.7305 -0.4831  1.4248
 1466SOL     OW15856   0.506   1.067   5.852 -0.0927  0.0625  0.0581
 1466SOL    HW115857   0.579   1.090   5.795  0.8758 -2.6605  0.2120
 1466SOL    HW215858   0.552   1.056   5.935  0.6116 -0.5343 -0.4094
 1467SOL     OW15859   3.232   1.531   7.021 -0.0645 -0.2224  0.4745
 1467SOL    HW115860   3.158   1.478   6.992  0.8261 -0.6214 -1.0555
 1467SOL    HW215861   3.276   1.552   6.939  0.2141 -0.3374  0.5957
 1468SOL     OW15862   2.551   0.082   4.479  0.1547  0.1761  0.0333
 1468SOL    HW115863   2.560   0.106   4.571  2.6741  0.4834 -0.2910
 1468SOL    HW215864   2.604   0.145   4.430  1.7965  0.0907  1.7003
 1469SOL     OW15865   2.839   3.029   7.616 -0.0553  0.2582  0.4709
 1469SOL    HW115866   2.793   3.099   7.570 -0.1493  0.4885  0.9136
 1469SOL    HW215867   2.791   2.949   7.593  0.8906 -0.2661  0.3172
 1470SOL     OW15868   4.039   3.970   8.875  0.2393  0.1170  0.2040
 1470SOL    HW115869   4.033   3.923   8.958  0.2173  0.8972  0.6436
 1470SOL    HW215870   3.989   4.049   8.894 -1.5465 -0.8013 -0.6621
 1471SOL     OW15871   4.168   1.119  12.733  0.2746 -0.3423  0.1999
 1471SOL    HW115872   4.263   1.120  12.747  0.3653  1.3293 -0.4672
 1471SOL    HW215873   4.165   1.034  12.690 -4.2188  0.7203 -1.5901
 1472SOL     OW15874   3.227   3.763   4.433  0.1374  0.1215 -0.2249
 1472SOL    HW115875   3.252   3.795   4.519 -0.3430 -1.0582  0.3451
 1472SOL    HW215876   3.181   3.682   4.451 -1.3850  1.0886  0.2458
 1473SOL     OW15877   2.311   2.866   8.092 -0.3270  0.2285 -0.0537
 1473SOL    HW115878   2.260   2.855   8.173  1.4810  1.3092  1.2146
 1473SOL    HW215879   2.319   2.961   8.094  0.2176  0.2222 -2.7128
 1474SOL     OW15880   1.417   3.808  15.624 -0.5229  0.1988  0.2215
 1474SOL    HW115881   1.476   3.733  15.616 -2.9922 -1.6708 -0.5395
 1474SOL    HW215882   1.350   3.760  15.673  0.7509 -1.2157  0.5504
 1475SOL     OW15883   0.043   2.014  11.857  0.6097  0.1565 -0.2848
 1475SOL    HW115884   0.088   1.931  11.842 -1.2794 -0.6576 -1.3915
 1475SOL    HW215885   4.679   1.991  11.898  1.0985  1.2422  1.3002
 1476SOL     OW15886   1.785   2.742   5.660 -0.5328  0.4210  0.2857
 1476SOL    HW115887   1.854   2.779   5.605 -1.3666 -0.1691 -1.1621
 1476SOL    HW215888   1.707   2.730   5.606 -0.2228 -0.5072  0.0593
 1477SOL     OW15889   1.701   2.650   4.387  0.1174  0.1141 -0.1809
 1477SOL    HW115890   1.632   2.692   4.335 -1.5892 -0.9524  1.2106
 1477SOL    HW215891   1.654   2.573   4.419 -0.1653  0.5468  0.4682
 1478SOL     OW15892   0.317   2.675   5.928  0.4231 -0.1088  0.7827
 1478SOL    HW115893   0.271   2.592   5.937  3.6240 -2.1947 -2.0162
 1478SOL    HW215894   0.399   2.653   5.973  0.7316  1.0074  0.7629
 1479SOL     OW15895   0.136   4.271   7.732 -0.2791 -0.3816  0.5310
 1479SOL    HW115896   0.200   4.323   7.683 -0.1794  1.7681  2.9327
 1479SOL    HW215897   0.094   4.329   7.796 -1.6338  0.3867 -1.0532
 1480SOL     OW15898   2.248   4.234   2.202  0.1328  0.3877  0.1902
 1480SOL    HW115899   2.167   4.209   2.157 -2.2154  4.2082  2.2161
 1480SOL    HW215900   2.320   4.237   2.140  0.2902 -0.9915  0.3137
 1481SOL     OW15901   4.365   1.868   4.030 -0.0818  0.2596 -0.2047
 1481SOL    HW115902   4.427   1.897   3.962  0.6761 -0.4686  0.1860
 1481SOL    HW215903   4.300   1.933   4.001 -0.9083 -0.4538  0.0442
 1482SOL     OW15904   3.113   3.345  15.354 -0.0810  0.3592 -0.2806
 1482SOL    HW115905   3.111   3.249  15.346  2.1329  0.4817 -2.1564
 1482SOL    HW215906   3.021   3.366  15.365 -0.6665 -2.0827 -0.5730
 1483SOL     OW15907   1.087   3.370   5.171 -0.5737 -0.4269  0.0704
 1483SOL    HW115908   1.023   3.441   5.184  0.3778  0.3568  0.5116
 1483SOL    HW215909   1.076   3.333   5.259  1.5781  2.3408  1.4874
 1484SOL     OW15910   3.059   2.021   8.749  0.0790  0.0019  0.0019
 1484SOL    HW115911   3.042   1.946   8.805  0.4665 -0.3347 -0.3254
 1484SOL    HW215912   3.001   2.083   8.791 -0.1754 -0.3768  0.2090
 1485SOL     OW15913   3.635   0.086  10.642  0.3881 -0.0970 -0.5771
 1485SOL    HW115914   3.611   0.015  10.701 -0.6410 -0.7674 -1.8148
 1485SOL    HW215915   3.597   0.162  10.686  0.5826 -0.1259 -0.3584
 1486SOL     OW15916   1.608   1.919   2.312  0.0340  0.1591 -0.3667
 1486SOL    HW115917   1.523   1.877   2.325 -0.1237 -0.0933 -2.2281
 1486SOL    HW215918   1.643   1.881   2.232  0.5091 -1.1464  0.4453
 1487SOL     OW15919   1.883   3.401   8.368  0.0409  0.1491  0.1113
 1487SOL    HW115920   1.921   3.340   8.306  0.7861  0.7502 -0.0301
 1487SOL    HW215921   1.939   3.475   8.343  0.6112 -1.0836 -2.2447
 1488SOL     OW15922   2.160   3.470   8.457 -0.8027 -0.4739  0.9356
 1488SOL    HW115923   2.206   3.488   8.375 -3.6045 -0.2934 -0.5914
 1488SOL    HW215924   2.174   3.549   8.511 -0.2829 -1.4460  2.2227
 1489SOL     OW15925   3.767   4.264   0.395  0.3535 -0.1824  0.7323
 1489SOL    HW115926   3.850   4.287   0.437 -0.0647  0.2644  1.3169
 1489SOL    HW215927   3.797   4.243   0.307  1.0774 -2.0947  1.4447
 1490SOL     OW15928   1.002   1.125  13.753 -0.2451  0.2444 -0.6348
 1490SOL    HW115929   0.942   1.092  13.686  0.5475 -0.2658 -1.0836
 1490SOL    HW215930   1.072   1.060  13.743 -0.1104  0.0937  1.2828
 1491SOL     OW15931   4.551   1.990   3.863 -0.5868  0.0869  0.0458
 1491SOL    HW115932   4.593   2.073   3.839  1.1140 -0.2652  1.7929
 1491SOL    HW215933   4.626   1.931   3.858 -2.3731 -2.1648 -0.2278
 1492SOL     OW15934   3.738   1.645   7.390 -0.0466  0.2376 -0.2353
 1492SOL    HW115935   3.778   1.560   7.410  0.7635  0.3178 -1.5013
 1492SOL    HW215936   3.663   1.647   7.448 -0.7249 -0.4177 -1.0918
 1493SOL     OW15937   1.734   0.591  17.098 -0.0058  0.0158 -0.2778
 1493SOL    HW115938   1.774   0.612  17.182  2.9744 -0.2035 -1.6528
 1493SOL    HW215939   1.643   0.573  17.122  0.2137  1.5666  1.7072
 1494SOL     OW15940   3.990   2.435   2.902 -0.2249  0.4109 -0.1496
 1494SOL    HW115941   4.073   2.437   2.854  0.9892 -0.6007  1.8687
 1494SOL    HW215942   4.028   2.409   2.986  2.3498  2.7644 -0.5854
 1495SOL     OW15943   1.898   1.676   0.200 -0.5635 -0.1097  0.1644
 1495SOL    HW115944   1.966   1.623   0.160 -0.6945 -1.9654  2.3556
 1495SOL    HW215945   1.883   1.744   0.135  0.5166 -0.3221 -0.3007
 1496SOL     OW15946   4.334   0.634   1.008  0.0900 -0.1030  0.5657
 1496SOL    HW115947   4.274   0.641   0.934 -0.6074  0.2023  1.1586
 1496SOL    HW215948   4.396   0.570   0.974  1.1664  1.2781 -0.0741
 1497SOL     OW15949   4.325   1.765   9.424 -0.2086 -0.2862  0.1519
 1497SOL    HW115950   4.267   1.776   9.499  1.1424  0.3801  1.0972
 1497SOL    HW215951   4.350   1.856   9.408 -1.8298  0.2284  0.6097
 1498SOL     OW15952   4.433   4.654  10.276  0.1505 -0.4824 -0.3056
 1498SOL    HW115953   4.505   4.591  10.275  2.2290  1.8619  2.5193
 1498SOL    HW215954   4.481   0.007  10.235 -2.3757  0.4522 -1.6377
 1499SOL     OW15955   3.323   3.035   4.206 -0.7367 -0.5447  0.3689
 1499SOL    HW115956   3.355   3.106   4.150 -0.9112 -0.3827  0.4732
 1499SOL    HW215957   3.242   3.018   4.159 -0.2721 -0.0650 -0.6051
 1500SOL     OW15958   0.706   1.383   4.720  0.2846 -0.0006 -0.1043
 1500SOL    HW115959   0.711   1.306   4.664  2.8815 -1.1920  1.7825
 1500SOL    HW215960   0.785   1.374   4.772 -0.8538 -1.1827  1.3974
 1501SOL     OW15961   2.820   0.895   3.987  0.0664  0.0530 -0.2642
 1501SOL    HW115962   2.817   0.840   3.908  0.0856 -0.0876 -0.1677
 1501SOL    HW215963   2.777   0.842   4.054  0.2008  2.1363  1.4580
 1502SOL     OW15964   4.072   2.219   2.168 -0.2430 -0.1425  0.1801
 1502SOL    HW115965   4.168   2.211   2.165 -0.2167  0.0190  0.7478
 1502SOL    HW215966   4.046   2.205   2.077  1.4082 -1.0946 -0.1518
 1503SOL     OW15967   1.760   4.145   1.601  0.3341  0.0121 -0.3251
 1503SOL    HW115968   1.672   4.161   1.566 -0.0140 -0.7874  0.1784
 1503SOL    HW215969   1.751   4.169   1.693  1.9519 -0.1275 -0.1372
 1504SOL     OW15970   2.228   0.911   5.271  0.0398 -0.6721  0.1270
 1504SOL    HW115971   2.257   0.923   5.181  0.4166  2.8175  0.7255
 1504SOL    HW215972   2.217   0.998   5.310 -0.0844  0.1351 -1.7067
 1505SOL     OW15973   1.225   3.873   6.125  0.5493  0.4793 -0.7130
 1505SOL    HW115974   1.145   3.864   6.072  1.8668 -2.0647 -2.3276
 1505SOL    HW215975   1.192   3.934   6.190 -2.5228  0.1369 -1.8923
 1506SOL     OW15976   1.114   0.923  16.347  0.0556  0.4397  0.5793
 1506SOL    HW115977   1.036   0.890  16.303  1.9678 -0.8527 -1.7945
 1506SOL    HW215978   1.165   0.842  16.354 -0.9302 -0.4089 -2.3495
 1507SOL     OW15979   4.439   0.051  12.091  0.2676  0.6629  0.4807
 1507SOL    HW115980   4.489   0.049  12.172 -0.1878 -1.0979  0.7085
 1507SOL    HW215981   4.377   4.704  12.120  3.0044 -1.1318  2.1587
 1508SOL     OW15982   2.967   1.653   0.955  0.4600  0.1442 -0.0421
 1508SOL    HW115983   3.038   1.621   1.012 -0.1119 -0.7986  0.1435
 1508SOL    HW215984   2.910   1.691   1.022  1.1103  0.9387  0.0615
 1509SOL     OW15985   3.365   0.648   9.182 -0.0784 -0.0798  0.1509
 1509SOL    HW115986   3.295   0.710   9.200  0.7681  0.3869  1.8253
 1509SOL    HW215987   3.418   0.702   9.124  2.0965 -2.0036  0.3243
 1510SOL     OW15988   2.399   0.770   7.842 -0.4410  0.4362 -0.1539
 1510SOL    HW115989   2.395   0.677   7.820 -0.8973 -0.1486  2.4389
 1510SOL    HW215990   2.314   0.799   7.809  0.6224 -0.7454 -3.9290
 1511SOL     OW15991   3.012   0.401   8.024 -0.2642 -0.1853  0.4880
 1511SOL    HW115992   2.956   0.333   7.987 -1.6470  1.2125  0.0241
 1511SOL    HW215993   3.005   0.401   8.120 -0.3519  1.2984  0.4690
 1512SOL     OW15994   2.967   3.984  15.229 -0.3660 -0.0368  0.6040
 1512SOL    HW115995   2.883   3.941  15.212  0.8190 -1.3775 -1.8634
 1512SOL    HW215996   3.021   3.942  15.162 -1.8298 -0.8444 -0.0687
 1513SOL     OW15997   0.202   1.077   7.899 -0.3406  0.1648 -0.8522
 1513SOL    HW115998   0.225   1.158   7.945  2.2345 -0.4388 -1.0896
 1513SOL    HW215999   0.136   1.105   7.836  0.1273 -1.5695 -2.1078
 1514SOL     OW16000   2.780   4.298  13.876 -0.0107 -0.4585  0.0261
 1514SOL    HW116001   2.838   4.327  13.946  0.0235 -1.5060  0.4253
 1514SOL    HW216002   2.767   4.375  13.820 -0.8256 -0.4364  0.2554
 1515SOL     OW16003   3.728   0.662  11.130  0.7591 -0.0440 -0.1299
 1515SOL    HW116004   3.685   0.633  11.049 -2.3114  1.8825  0.8074
 1515SOL    HW216005   3.785   0.735  11.103  0.1393  0.2201 -0.7197
 1516SOL     OW16006   2.538   1.259   7.512 -0.5478  0.5714  0.1300
 1516SOL    HW116007   2.580   1.330   7.559  1.3398 -0.0335 -0.6321
 1516SOL    HW216008   2.544   1.185   7.574  1.3622  1.6914  1.2649
 1517SOL     OW16009   2.414   0.206   9.449  0.5755  0.5773  0.9291
 1517SOL    HW116010   2.390   0.230   9.539 -0.8344 -1.8587  1.1988
 1517SOL    HW216011   2.369   0.122   9.455 -0.2220  0.7711 -2.1628
 1518SOL     OW16012   3.473   2.264   4.088 -0.1071 -0.2342 -0.0960
 1518SOL    HW116013   3.541   2.261   4.021 -1.3807  1.9956 -1.4952
 1518SOL    HW216014   3.457   2.170   4.100 -3.2582  0.2612 -0.2635
 1519SOL     OW16015   0.038   0.382   3.437  0.5087 -0.0634  0.0136
 1519SOL    HW116016   0.130   0.408   3.446  0.1838  1.0818 -0.0053
 1519SOL    HW216017   4.717   0.461   3.401 -1.4562 -0.1801  1.9729
 1520SOL     OW16018   3.600   1.367   9.320  0.0452  0.4258  0.3591
 1520SOL    HW116019   3.637   1.437   9.374  0.3499 -1.0261  2.0220
 1520SOL    HW216020   3.667   1.352   9.254  1.0783  0.8530  1.3192
 1521SOL     OW16021   1.765   1.077   2.897 -0.6423 -0.2477  0.0117
 1521SOL    HW116022   1.760   1.034   2.811  1.2668  2.4544 -1.4523
 1521SOL    HW216023   1.722   1.017   2.958  0.3167 -0.7800  0.1536
 1522SOL     OW16024   2.274   0.384   4.741  0.1162 -0.2388  0.1293
 1522SOL    HW116025   2.317   0.462   4.777  0.8915 -0.6640  0.1202
 1522SOL    HW216026   2.303   0.312   4.797  1.0889 -0.0279 -0.0936
 1523SOL     OW16027   3.459   3.058   5.828 -0.5385 -0.0266  0.4544
 1523SOL    HW116028   3.545   3.067   5.870 -0.0247 -1.9101 -0.2281
 1523SOL    HW216029   3.418   3.141   5.854 -1.4877 -0.1206 -0.7484
 1524SOL     OW16030   3.698   2.640   9.325 -0.2401  0.2363 -0.3391
 1524SOL    HW116031   3.754   2.641   9.403 -1.8366 -2.7170  0.8364
 1524SOL    HW216032   3.643   2.717   9.338  0.5285  0.6148  0.7166
 1525SOL     OW16033   0.189   3.087   3.934 -0.4943 -0.1130 -0.0294
 1525SOL    HW116034   0.265   3.060   3.985 -0.0859 -0.5073 -0.8468
 1525SOL    HW216035   0.230   3.082   3.848  1.6084  2.9229  0.8080
 1526SOL     OW16036   3.417   3.261  15.559 -0.3075 -0.1506  0.8268
 1526SOL    HW116037   3.447   3.178  15.595  3.9193  1.8215  1.9538
 1526SOL    HW216038   3.337   3.225  15.521 -0.0837  0.7728 -0.5452
 1527SOL     OW16039   2.836   4.153   9.431 -0.5918 -0.3652  0.1431
 1527SOL    HW116040   2.923   4.190   9.415 -0.2963 -0.4937  1.4641
 1527SOL    HW216041   2.793   4.229   9.470  1.1399  1.2056 -0.9876
 1528SOL     OW16042   1.623   1.330  13.167  0.7187  0.4275 -0.3342
 1528SOL    HW116043   1.660   1.285  13.090  1.3523 -0.4979  0.5065
 1528SOL    HW216044   1.670   1.310  13.248 -1.5042 -2.4323  0.2676
 1529SOL     OW16045   0.837   3.670   3.242 -0.2050 -0.6847 -0.1022
 1529SOL    HW116046   0.918   3.633   3.207 -0.2830 -0.4794 -0.4989
 1529SOL    HW216047   0.795   3.702   3.162 -0.0976 -1.6616 -0.5487
 1530SOL     OW16048   2.034   0.640   3.201 -0.3095  0.3351  0.0823
 1530SOL    HW116049   2.034   0.612   3.293 -2.0622  2.6254  0.8122
 1530SOL    HW216050   2.042   0.734   3.215 -0.5459  0.3119  0.3952
 1531SOL     OW16051   3.701   3.320   7.183  0.7225 -0.4532 -0.3725
 1531SOL    HW116052   3.693   3.229   7.156  0.8541 -0.4033 -0.5885
 1531SOL    HW216053   3.649   3.309   7.262 -0.4532  0.0185 -1.0817
 1532SOL     OW16054   0.385   1.396  15.223  0.4107 -0.1981  0.2453
 1532SOL    HW116055   0.358   1.375  15.133  1.1051  1.3307 -0.3210
 1532SOL    HW216056   0.343   1.481  15.234 -0.4278 -0.4963 -0.5795
 1533SOL     OW16057   3.172   1.011   1.912 -0.4245 -0.7417  0.2475
 1533SOL    HW116058   3.232   1.037   1.982 -1.9155 -0.0553  1.2823
 1533SOL    HW216059   3.179   0.916   1.919 -0.7017 -0.8975 -1.6316
 1534SOL     OW16060   1.316   0.479   6.528 -0.7199  0.5953  0.0043
 1534SOL    HW116061   1.238   0.427   6.548  0.8021 -1.3871  0.7498
 1534SOL    HW216062   1.294   0.502   6.437 -2.4034  1.8443  0.7238
 1535SOL     OW16063   0.432   4.673  12.935 -0.1426  0.4411 -0.7010
 1535SOL    HW116064   0.408   0.021  12.999  1.4434  0.8753 -0.5615
 1535SOL    HW216065   0.478   0.011  12.874 -0.1330 -1.2403 -2.2646
 1536SOL     OW16066   0.719   4.249   3.061  0.0535 -0.2629 -0.5788
 1536SOL    HW116067   0.651   4.235   2.995  0.2835 -0.5604 -0.7571
 1536SOL    HW216068   0.764   4.319   3.014  0.4936  2.1433  3.3873
 1537SOL     OW16069   2.117   3.410   4.153 -0.1257 -0.1613 -0.3073
 1537SOL    HW116070   2.190   3.359   4.188 -0.3680 -0.1759  0.1700
 1537SOL    HW216071   2.112   3.371   4.065  2.8485 -0.4255 -0.3603
 1538SOL     OW16072   4.131   4.201   1.796  0.1716  0.5312 -0.0686
 1538SOL    HW116073   4.166   4.139   1.732  1.1957  0.2832  0.7304
 1538SOL    HW216074   4.050   4.225   1.751 -0.3532 -0.6581  0.2295
 1539SOL     OW16075   1.740   1.510   5.139  0.0241 -0.3598 -0.2174
 1539SOL    HW116076   1.776   1.588   5.098 -2.5301  0.9434  0.0557
 1539SOL    HW216077   1.719   1.535   5.229 -4.1921  0.8749 -1.5616
 1540SOL     OW16078   0.721   0.302  14.359 -0.7379  0.0700  0.5295
 1540SOL    HW116079   0.633   0.283  14.326 -1.2417 -0.0598  1.9316
 1540SOL    HW216080   0.693   0.388  14.391  0.4929  0.8523 -0.5297
 1541SOL     OW16081   2.088   4.304  13.119 -0.7348 -0.1342  0.6264
 1541SOL    HW116082   2.131   4.343  13.195 -0.9922  1.3034  0.0209
 1541SOL    HW216083   2.053   4.222  13.155 -0.1920  0.0225  1.5074
 1542SOL     OW16084   3.496   2.841   4.251  0.0426  0.3260 -0.5860
 1542SOL    HW116085   3.565   2.887   4.298 -2.6616  0.7929  2.8355
 1542SOL    HW216086   3.444   2.914   4.218  1.6791 -0.1360 -4.1971
 1543SOL     OW16087   1.271   0.889   4.672 -0.2215  0.1747 -0.4645
 1543SOL    HW116088   1.192   0.906   4.622 -0.9801 -1.0985  0.3249
 1543SOL    HW216089   1.320   0.972   4.671  0.5121 -0.2078  2.0542
 1544SOL     OW16090   4.359   2.896   0.241  0.3222 -0.2420  0.6569
 1544SOL    HW116091   4.403   2.951   0.176 -0.2189  0.6733  1.0661
 1544SOL    HW216092   4.336   2.967   0.300  0.1080  0.7445 -0.6119
 1545SOL     OW16093   3.757   0.991   7.831 -0.4715 -0.1227  0.5990
 1545SOL    HW116094   3.729   1.082   7.822  0.7465 -0.0519 -2.2612
 1545SOL    HW216095   3.672   0.949   7.845 -0.4913 -0.2932 -0.0558
 1546SOL     OW16096   4.365   2.121   6.506  0.0475 -0.2996 -0.3082
 1546SOL    HW116097   4.431   2.133   6.574 -0.9468 -0.0087  0.5977
 1546SOL    HW216098   4.355   2.026   6.514 -0.5047 -0.1882  0.2992
 1547SOL     OW16099   0.477   0.550   7.248  0.3403  0.6338 -0.2412
 1547SOL    HW116100   0.415   0.524   7.317  1.5416 -1.9392 -0.1122
 1547SOL    HW216101   0.423   0.604   7.192  0.7809  0.6503 -0.6474
 1548SOL     OW16102   4.665   1.856   6.521 -0.0366 -0.4049 -0.0996
 1548SOL    HW116103   4.666   1.929   6.460 -1.3297 -1.0805 -0.9438
 1548SOL    HW216104   4.677   1.908   6.601  0.2790  0.2302 -0.5622
 1549SOL     OW16105   2.584   3.466   3.075 -0.2520  0.2458 -0.1718
 1549SOL    HW116106   2.575   3.402   3.004  0.7252  1.1007 -1.0737
 1549SOL    HW216107   2.562   3.549   3.032  0.1043 -0.0897 -1.0104
 1550SOL     OW16108   1.100   1.359  12.996  0.1137  0.5393  0.4133
 1550SOL    HW116109   1.040   1.291  13.027 -0.9440  1.3480  0.1182
 1550SOL    HW216110   1.091   1.436  13.051  0.0486  1.2278 -0.5696
 1551SOL     OW16111   1.672   2.545   2.398  0.3193  0.1479  0.6837
 1551SOL    HW116112   1.659   2.478   2.465 -1.3661  1.1805  1.4100
 1551SOL    HW216113   1.686   2.504   2.313 -4.5065  0.7555 -0.4432
 1552SOL     OW16114   1.295   3.135   9.193  0.0822  0.2269 -0.1103
 1552SOL    HW116115   1.313   3.229   9.199 -2.5989  0.6171  1.7558
 1552SOL    HW216116   1.377   3.100   9.228 -0.8775 -1.0521  0.8594
 1553SOL     OW16117   2.640   2.803   6.112 -0.0368 -0.3998 -0.1541
 1553SOL    HW116118   2.649   2.866   6.041  0.8623 -1.3361 -0.8620
 1553SOL    HW216119   2.691   2.842   6.183  0.2900  0.6589 -0.9665
 1554SOL     OW16120   4.676   3.734   8.724 -0.0242 -0.6260  0.5140
 1554SOL    HW116121   0.042   3.729   8.767 -0.6311  0.8873  1.8771
 1554SOL    HW216122   4.664   3.828   8.710 -2.5870 -1.1807 -1.1728
 1555SOL     OW16123   0.358   1.461   7.862  0.4074  0.0990  0.4213
 1555SOL    HW116124   0.440   1.413   7.862 -0.3319 -1.1578 -0.0170
 1555SOL    HW216125   0.299   1.410   7.807 -0.8898 -0.0778  1.9625
 1556SOL     OW16126   4.500   3.650   5.439 -0.3126  0.1699 -0.0609
 1556SOL    HW116127   4.498   3.594   5.516  0.3350 -0.9338 -0.8395
 1556SOL    HW216128   4.575   3.606   5.399 -1.1712  1.3617 -3.0125
 1557SOL     OW16129   1.789   3.824   6.509 -0.3359 -0.4677 -0.1992
 1557SOL    HW116130   1.701   3.862   6.501  0.4200  1.5376  0.9934
 1557SOL    HW216131   1.838   3.885   6.565  1.1520 -1.3386 -0.5774
 1558SOL     OW16132   3.786   1.895   2.300  0.1540 -0.0739  0.2158
 1558SOL    HW116133   3.726   1.961   2.262  3.4918  0.8253 -3.4785
 1558SOL    HW216134   3.849   1.953   2.342 -0.1446  0.5482 -0.1707
 1559SOL     OW16135   2.545   2.251  15.884 -0.2102 -0.6210  0.0511
 1559SOL    HW116136   2.542   2.252  15.788  0.4258  1.3850  0.0406
 1559SOL    HW216137   2.640   2.241  15.894 -0.0540 -0.2011 -0.9772
 1560SOL     OW16138   0.963   3.481   7.948 -0.3550 -0.5747  0.5185
 1560SOL    HW116139   0.870   3.502   7.952 -0.6724 -1.6155 -1.7353
 1560SOL    HW216140   0.967   3.440   7.862  1.7062  3.9076 -1.5277
 1561SOL     OW16141   3.130   1.066   9.350 -0.1056  0.6877  0.9562
 1561SOL    HW116142   3.099   1.047   9.439 -2.3634 -0.6426 -0.1178
 1561SOL    HW216143   3.204   1.125   9.360  1.1956 -0.3917 -2.5003
 1562SOL     OW16144   3.178   4.390   2.894 -0.1612  0.0202 -0.3199
 1562SOL    HW116145   3.132   4.308   2.874  0.7594 -0.7023  0.5320
 1562SOL    HW216146   3.109   4.456   2.904 -0.8724 -1.0369  2.0772
 1563SOL     OW16147   3.795   1.123  11.066 -0.4361  0.0129  0.1256
 1563SOL    HW116148   3.755   1.209  11.056  1.4353  0.6342 -2.1178
 1563SOL    HW216149   3.858   1.156  11.129 -1.5127  2.7656 -0.2313
 1564SOL     OW16150   3.958   1.365   8.064 -0.3074 -0.4649  0.2502
 1564SOL    HW116151   4.011   1.444   8.061 -0.5681 -0.3211 -0.6217
 1564SOL    HW216152   3.959   1.354   8.159 -2.1863  0.3157  0.3731
 1565SOL     OW16153   3.480   1.479  17.453 -0.1459  0.5168 -0.4731
 1565SOL    HW116154   3.452   1.456  17.541 -1.3358 -2.5049 -1.6344
 1565SOL    HW216155   3.549   1.414  17.445  0.6557  1.5706 -2.3392
 1566SOL     OW16156   2.538   0.009   8.604 -0.0476 -0.2739  0.3174
 1566SOL    HW116157   2.492   0.070   8.662 -1.3052 -0.3915 -0.5598
 1566SOL    HW216158   2.628   0.009   8.636 -0.4522  1.0316  1.4872
 1567SOL     OW16159   4.120   3.001  13.383 -0.3212  0.9137  0.2090
 1567SOL    HW116160   4.040   2.962  13.419  1.3939 -0.7495  2.2493
 1567SOL    HW216161   4.091   2.997  13.292 -0.7956 -2.4039  0.4922
 1568SOL     OW16162   4.144   2.765  13.717  0.2180 -0.1229 -0.0603
 1568SOL    HW116163   4.074   2.701  13.724 -2.4776  2.8100 -0.4280
 1568SOL    HW216164   4.132   2.787  13.625 -2.3230 -0.7122  0.1524
 1569SOL     OW16165   0.715   0.728  16.614  0.0428  0.5171 -0.3751
 1569SOL    HW116166   0.673   0.642  16.606  0.0127  0.7527 -2.6333
 1569SOL    HW216167   0.666   0.753  16.692  0.3608  0.3834 -0.1317
 1570SOL     OW16168   1.277   0.519   5.245 -0.0630 -0.5561  0.5056
 1570SOL    HW116169   1.232   0.442   5.279 -1.4007  0.3658  0.7908
 1570SOL    HW216170   1.232   0.592   5.288 -0.6454  0.8509 -2.4955
 1571SOL     OW16171   0.728   3.923   5.801 -0.4613  0.0699  0.3169
 1571SOL    HW116172   0.718   3.995   5.739 -0.0321  0.9819  1.3227
 1571SOL    HW216173   0.823   3.912   5.794 -0.4935 -0.4691  0.7357
 1572SOL     OW16174   2.962   2.173   3.639  0.2132  0.4545 -0.3586
 1572SOL    HW116175   3.057   2.170   3.655  0.0168  2.1571  1.1758
 1572SOL    HW216176   2.946   2.079   3.637 -1.9439  0.8714 -1.5831
 1573SOL     OW16177   4.421   4.616  14.046  0.0937 -0.1936 -0.3625
 1573SOL    HW116178   4.329   4.599  14.066 -0.4355  1.9598 -1.0991
 1573SOL    HW216179   4.422   4.633  13.952 -0.4376 -0.5840 -0.4372
 1574SOL     OW16180   3.328   3.947   8.414  0.3218 -0.2424 -0.0034
 1574SOL    HW116181   3.386   3.871   8.419  1.6979  0.5925 -2.9049
 1574SOL    HW216182   3.383   4.014   8.373  0.2444  0.9776  1.8605
 1575SOL     OW16183   3.299   3.516  15.417 -0.2595  0.2269  0.4041
 1575SOL    HW116184   3.352   3.485  15.343 -0.3828  0.2023  0.3275
 1575SOL    HW216185   3.223   3.458  15.410  1.5744 -1.9390 -1.4553
 1576SOL     OW16186   2.845   3.321   5.688  0.5614  0.5583 -0.5925
 1576SOL    HW116187   2.831   3.292   5.598  0.2539 -1.4702  0.1099
 1576SOL    HW216188   2.767   3.374   5.703 -1.1266 -0.9811 -3.9478
 1577SOL     OW16189   2.884   4.189   5.636 -0.0072  0.4246 -0.0364
 1577SOL    HW116190   2.905   4.197   5.543 -2.0289  1.8129 -0.3974
 1577SOL    HW216191   2.867   4.095   5.641 -1.4255  0.6785 -0.0684
 1578SOL     OW16192   1.934   0.154  14.566 -0.3827 -0.5761 -0.4917
 1578SOL    HW116193   1.864   0.130  14.627  0.1263 -2.8416 -0.7845
 1578SOL    HW216194   1.989   0.077  14.582  0.3122  0.0854  0.3090
 1579SOL     OW16195   2.174   0.435   2.652 -0.6162  0.2797  0.1605
 1579SOL    HW116196   2.094   0.390   2.679  0.0078 -1.1590 -0.4239
 1579SOL    HW216197   2.134   0.521   2.666  0.7165  0.9169  0.0137
 1580SOL     OW16198   2.362   1.434  16.665  0.4749  0.4831  0.0565
 1580SOL    HW116199   2.356   1.368  16.596  1.6087  2.2964 -1.7948
 1580SOL    HW216200   2.270   1.456  16.679  0.6816  2.2994 -1.3788
 1581SOL     OW16201   3.237   3.050   8.527 -0.5995  0.0060 -0.2342
 1581SOL    HW116202   3.293   3.074   8.601  0.4874 -0.0326 -1.0447
 1581SOL    HW216203   3.228   3.132   8.478  0.6317 -0.9152 -1.9641
 1582SOL     OW16204   3.590   4.616   2.916 -0.3561 -0.0057 -0.2565
 1582SOL    HW116205   3.588   4.563   2.996  2.5701  1.8832  1.0963
 1582SOL    HW216206   3.651   4.577   2.853  0.1946  0.7060 -0.1664
 1583SOL     OW16207   4.120   2.990   5.548  0.1388 -0.2175  0.7893
 1583SOL    HW116208   4.157   2.906   5.522 -2.0896 -0.8085 -0.5393
 1583SOL    HW216209   4.107   3.038   5.467  0.2111 -1.7790 -0.1418
 1584SOL     OW16210   1.009   1.115   3.889 -0.0832  0.1713  0.2153
 1584SOL    HW116211   0.963   1.170   3.826  2.1686 -1.5015 -2.8670
 1584SOL    HW216212   1.095   1.104   3.848  0.3185  2.8915  0.3346
 1585SOL     OW16213   2.380   2.434   2.977  0.0838  0.2877  0.2267
 1585SOL    HW116214   2.354   2.387   3.056 -1.6539  1.0349  0.1083
 1585SOL    HW216215   2.474   2.416   2.978  0.0094  0.0291  1.8480
 1586SOL     OW16216   1.459   1.563  14.782  0.5070 -0.0843  0.4006
 1586SOL    HW116217   1.427   1.534  14.696  0.4932 -0.9398  0.6906
 1586SOL    HW216218   1.378   1.586  14.828 -0.7592 -1.1530 -1.2890
 1587SOL     OW16219   2.365   1.585   6.125 -0.2585 -0.4853  0.8620
 1587SOL    HW116220   2.294   1.559   6.184 -1.0104 -0.2103  0.0883
 1587SOL    HW216221   2.385   1.669   6.168 -1.1093  1.4149 -2.4849
 1588SOL     OW16222   4.504   0.822   8.019 -0.4776  0.1325 -0.3715
 1588SOL    HW116223   4.549   0.905   8.033  1.4561 -0.9252 -0.2930
 1588SOL    HW216224   4.467   0.802   8.105  0.8719 -0.4428  0.0782
 1589SOL     OW16225   4.056   0.822   6.225  0.1667  0.0996 -0.1449
 1589SOL    HW116226   4.055   0.802   6.318  2.5559 -1.6212 -0.4781
 1589SOL    HW216227   4.059   0.917   6.231 -0.1367  0.1510 -0.7493
 1590SOL     OW16228   3.054   4.462   9.598  0.2026 -0.0155 -0.1587
 1590SOL    HW116229   3.012   4.540   9.634 -0.3759  0.7934 -2.6402
 1590SOL    HW216230   3.142   4.488   9.626 -0.6816  2.4716  0.3176
 1591SOL     OW16231   3.516   0.949  11.302 -0.1868  0.1057  0.1404
 1591SOL    HW116232   3.527   0.918  11.212  0.0247  0.1227  0.1602
 1591SOL    HW216233   3.553   0.875  11.351  1.1405 -0.0347 -1.0779
 1592SOL     OW16234   4.707   2.269   4.293 -0.0626 -0.0320  0.0726
 1592SOL    HW116235   0.041   2.226   4.360  0.8154 -1.7860 -1.7613
 1592SOL    HW216236   0.021   2.358   4.284  2.1188 -0.6479  1.9545
 1593SOL     OW16237   2.060   3.698  10.203 -0.3539  0.1420 -0.2502
 1593SOL    HW116238   2.152   3.673  10.210 -0.3583  0.1123 -0.2982
 1593SOL    HW216239   2.040   3.751  10.281  0.4500  0.3982 -0.2208
 1594SOL     OW16240   4.199   0.658   4.855  0.0790 -0.4155 -0.0866
 1594SOL    HW116241   4.117   0.707   4.854  0.3318  0.0442  0.9897
 1594SOL    HW216242   4.204   0.625   4.766  0.3033 -0.2392 -0.1390
 1595SOL     OW16243   0.753   2.537  17.106  0.1465 -0.8123  0.2873
 1595SOL    HW116244   0.749   2.442  17.110  0.7088 -0.8099  0.9289
 1595SOL    HW216245   0.732   2.557  17.015 -1.7378  0.0060  0.9115
 1596SOL     OW16246   0.125   4.581   1.243 -0.1032  0.0732  0.2722
 1596SOL    HW116247   0.220   4.580   1.227 -0.4759  1.5735 -2.0088
 1596SOL    HW216248   0.090   4.539   1.165  0.0148  1.2964 -0.4285
 1597SOL     OW16249   2.128   2.572  12.100  0.4140 -0.0571 -0.2815
 1597SOL    HW116250   2.070   2.549  12.173 -0.1805  1.2075 -0.3622
 1597SOL    HW216251   2.079   2.526  12.032 -0.2932 -2.5558  1.8843
 1598SOL     OW16252   2.859   3.428  14.724 -0.3481  0.2493 -0.0040
 1598SOL    HW116253   2.811   3.353  14.761  0.9480 -0.4229  0.3200
 1598SOL    HW216254   2.868   3.486  14.800 -2.6618  0.2102  0.3119
 1599SOL     OW16255   0.277   4.313   3.473  0.6754 -0.1735  0.1167
 1599SOL    HW116256   0.335   4.381   3.508  1.1302 -1.8095  2.5234
 1599SOL    HW216257   0.190   4.347   3.494 -0.3729 -2.5729 -0.4449
 1600SOL     OW16258   3.471   0.287   4.834 -0.0528  0.3724  0.3004
 1600SOL    HW116259   3.436   0.361   4.783 -0.5467 -0.1106 -0.0614
 1600SOL    HW216260   3.392   0.256   4.879 -0.6058 -3.1403 -3.0526
 1601SOL     OW16261   1.463   2.300  13.352 -0.2251  0.7844  0.0146
 1601SOL    HW116262   1.463   2.394  13.367 -1.3075  0.5180  1.6665
 1601SOL    HW216263   1.555   2.289  13.328 -0.1322 -0.2744  0.8387
 1602SOL     OW16264   3.334   0.157   3.630 -0.4437  0.0840  0.2869
 1602SOL    HW116265   3.379   0.140   3.547 -0.5157 -1.1563  0.5068
 1602SOL    HW216266   3.332   0.067   3.664  0.7824 -0.0676 -0.0359
 1603SOL     OW16267   3.435   0.202  16.568 -0.1519 -0.6325 -0.4607
 1603SOL    HW116268   3.526   0.223  16.549 -0.0726 -1.7862 -1.3081
 1603SOL    HW216269   3.412   0.127  16.513  2.4374 -1.1487 -0.8290
 1604SOL     OW16270   0.063   3.757   5.959 -0.8077  0.0286  0.0247
 1604SOL    HW116271   0.121   3.707   6.016  0.9662  1.6075 -0.4132
 1604SOL    HW216272   0.070   3.720   5.870  0.1045  0.5706 -0.1274
 1605SOL     OW16273   0.832   1.533  16.677  0.2797  0.1242 -0.5605
 1605SOL    HW116274   0.835   1.622  16.711  4.8497 -0.7592  1.3585
 1605SOL    HW216275   0.797   1.551  16.590 -0.7706 -1.3468 -0.4499
 1606SOL     OW16276   0.469   2.139   5.799 -0.2773  0.2971  0.1852
 1606SOL    HW116277   0.555   2.099   5.781 -1.6339 -2.9694  0.8915
 1606SOL    HW216278   0.424   2.074   5.853 -1.5730  0.0304 -1.2136
 1607SOL     OW16279   0.398   0.711   2.084 -0.3920  0.2803 -0.0144
 1607SOL    HW116280   0.471   0.764   2.115  0.5429 -0.1459 -1.4740
 1607SOL    HW216281   0.418   0.703   1.990 -2.4989 -1.4183 -0.3247
 1608SOL     OW16282   2.546   4.040   9.703 -0.1856 -0.2168  0.1344
 1608SOL    HW116283   2.470   4.006   9.750  0.7574 -0.6690  1.3577
 1608SOL    HW216284   2.603   3.963   9.712  3.8735  3.0925  2.6590
 1609SOL     OW16285   3.505   3.164   6.642  0.1719  0.0022  0.2701
 1609SOL    HW116286   3.453   3.240   6.666  1.2835  0.3545  1.5481
 1609SOL    HW216287   3.454   3.125   6.571  1.1343  1.5334 -1.2418
 1610SOL     OW16288   3.814   3.835   4.479  0.4444  0.2421  0.2451
 1610SOL    HW116289   3.840   3.752   4.517  0.4319 -0.6968 -1.8187
 1610SOL    HW216290   3.721   3.817   4.465  0.1108  0.4652  2.1043
 1611SOL     OW16291   0.064   2.475  13.369  0.1882  0.3160  0.0968
 1611SOL    HW116292   0.072   2.497  13.277 -1.4165  1.1421  0.1548
 1611SOL    HW216293   4.712   2.411  13.363  0.8185 -0.3123 -0.6178
 1612SOL     OW16294   1.152   1.626  13.107 -0.8502 -0.3194  0.4039
 1612SOL    HW116295   1.073   1.670  13.075  1.5226  2.8935 -0.9516
 1612SOL    HW216296   1.213   1.693  13.137 -0.8448 -0.1924  0.1107
 1613SOL     OW16297   3.194   3.590   6.668 -0.2918  0.2620  0.8873
 1613SOL    HW116298   3.203   3.668   6.612 -1.2048  0.0872  0.4895
 1613SOL    HW216299   3.116   3.617   6.717  0.5927  3.0949  0.7231
 1614SOL     OW16300   0.300   0.072   6.645  0.1842  0.2980 -0.4676
 1614SOL    HW116301   0.259   0.019   6.577  0.7838  0.3734 -0.8887
 1614SOL    HW216302   0.386   0.030   6.641 -0.4221 -0.9786 -0.1074
 1615SOL     OW16303   2.086   1.695   4.173  0.1217 -0.2316  0.0447
 1615SOL    HW116304   2.051   1.608   4.193  2.1806 -0.5355  2.3361
 1615SOL    HW216305   2.113   1.723   4.260 -0.0176  1.1991 -0.3867
 1616SOL     OW16306   3.901   2.338   1.808  0.0439 -0.1175 -0.3302
 1616SOL    HW116307   3.869   2.259   1.765  2.0198 -0.4509 -1.1900
 1616SOL    HW216308   3.838   2.404   1.779  0.7725  0.0963 -1.4280
 1617SOL     OW16309   0.234   0.072  10.151  0.0383  0.2961 -0.3555
 1617SOL    HW116310   0.258   0.159  10.181  0.4478 -0.1688  0.6681
 1617SOL    HW216311   0.312   0.039  10.106 -1.4342 -2.3152 -1.0088
 1618SOL     OW16312   1.174   3.796   3.782  0.6490  1.2493  0.3667
 1618SOL    HW116313   1.156   3.888   3.804 -0.2095  1.4240 -1.0394
 1618SOL    HW216314   1.166   3.761   3.871 -0.7530  0.6745  0.0095
 1619SOL     OW16315   1.047   3.962  15.954  0.6409 -0.5707 -0.3183
 1619SOL    HW116316   1.059   4.057  15.944  0.4380 -0.6289 -1.1027
 1619SOL    HW216317   1.104   3.932  15.884  1.0426 -1.4365  0.3796
 1620SOL     OW16318   0.685   3.212   5.316  0.7102 -0.2156 -0.5745
 1620SOL    HW116319   0.759   3.237   5.372  0.1046  1.1450 -0.3729
 1620SOL    HW216320   0.646   3.131   5.349  0.4522 -1.1456 -3.1524
 1621SOL     OW16321   3.625   0.581   6.957 -0.1226 -0.2014 -0.2256
 1621SOL    HW116322   3.619   0.586   6.862  1.9172  1.0305 -0.2970
 1621SOL    HW216323   3.667   0.663   6.982  2.2981 -0.3744 -3.6343
 1622SOL     OW16324   3.476   2.709   7.412 -0.0469 -0.4032 -0.2310
 1622SOL    HW116325   3.542   2.653   7.454  0.5362  0.4694  0.0348
 1622SOL    HW216326   3.412   2.713   7.483  1.9571 -2.0802  1.6946
 1623SOL     OW16327   1.640   1.705   8.491  0.2864 -0.2211  0.1902
 1623SOL    HW116328   1.696   1.742   8.423 -0.6382 -0.2339 -0.5818
 1623SOL    HW216329   1.589   1.638   8.444 -0.3122 -0.7762  1.6408
 1624SOL     OW16330   3.751   2.964  15.677 -0.2637 -0.1700 -0.3341
 1624SOL    HW116331   3.798   3.044  15.701  0.1489 -0.4015 -0.3667
 1624SOL    HW216332   3.779   2.953  15.586  2.2478 -1.4017  0.5872
 1625SOL     OW16333   3.729   3.637   8.185  0.6735 -0.2768  0.3364
 1625SOL    HW116334   3.634   3.648   8.199  1.0824  1.9335  1.4179
 1625SOL    HW216335   3.735   3.544   8.208  1.3004 -0.2463  0.2958
 1626SOL     OW16336   4.698   0.233  14.105  0.1273  0.0707 -0.1172
 1626SOL    HW116337   0.045   0.300  14.123  1.0783 -0.9255  0.0960
 1626SOL    HW216338   4.669   0.257  14.017  0.1339  2.4514  0.5171
 1627SOL     OW16339   0.848   2.210   8.394  0.6735 -0.3389  0.1180
 1627SOL    HW116340   0.864   2.160   8.474  0.0530 -0.0252  0.4412
 1627SOL    HW216341   0.800   2.291   8.414  1.4044 -0.0013  0.4728
 1628SOL     OW16342   2.354   1.691   8.335  0.5700 -0.0630  0.2182
 1628SOL    HW116343   2.273   1.681   8.384  2.0050  0.8801  2.7675
 1628SOL    HW216344   2.308   1.694   8.251 -0.9229  1.2635  1.0939
 1629SOL     OW16345   2.528   0.034   7.028  0.9487 -0.4468 -0.0409
 1629SOL    HW116346   2.478   0.016   7.108  0.1941  1.3213 -0.1206
 1629SOL    HW216347   2.582   0.107   7.057  1.0272 -0.8919  0.9249
 1630SOL     OW16348   2.496   4.402  15.714 -0.1022 -0.1665  0.2522
 1630SOL    HW116349   2.419   4.346  15.711 -0.0003 -0.4693  2.7093
 1630SOL    HW216350   2.466   4.470  15.774 -0.5023  0.6654 -0.8962
 1631SOL     OW16351   0.953   4.302   9.173  0.1539  0.3385 -0.0414
 1631SOL    HW116352   0.885   4.235   9.163 -1.3316  1.6881  0.9867
 1631SOL    HW216353   0.900   4.378   9.195 -0.3180  0.2995 -1.0352
 1632SOL     OW16354   3.142   4.144   9.019  0.2516 -0.2229  0.3455
 1632SOL    HW116355   3.147   4.109   9.108 -1.1126 -1.9102 -0.2498
 1632SOL    HW216356   3.232   4.129   8.991 -0.1092  2.1702 -2.0377
 1633SOL     OW16357   4.216   0.025   0.486  0.2733 -0.1767  0.5596
 1633SOL    HW116358   4.296   0.056   0.528  1.8150 -1.6259 -1.3021
 1633SOL    HW216359   4.239   4.653   0.465 -1.0456 -0.6919  1.3116
 1634SOL     OW16360   0.100   1.629   6.166 -0.2426 -0.7706  0.3745
 1634SOL    HW116361   0.120   1.536   6.175  1.2493 -0.2885  2.2539
 1634SOL    HW216362   0.112   1.647   6.073 -0.6148 -3.3284 -0.1727
 1635SOL     OW16363   1.597   4.475   8.310  0.1220  0.4594 -0.1801
 1635SOL    HW116364   1.528   4.448   8.250  0.6520 -0.5031 -0.3590
 1635SOL    HW216365   1.586   4.570   8.314 -0.9112  0.5402 -4.3328
 1636SOL     OW16366   3.803   2.934   2.536  0.3499  0.1025  0.1367
 1636SOL    HW116367   3.743   2.891   2.475  1.3747  0.3328 -1.0420
 1636SOL    HW216368   3.851   2.858   2.569  0.5443  0.9824  1.8482
 1637SOL     OW16369   2.227   2.854   6.999  0.2702 -0.1092  0.3186
 1637SOL    HW116370   2.284   2.919   6.958 -0.6815  0.1451 -0.5941
 1637SOL    HW216371   2.157   2.919   7.003 -0.3887 -0.8248  0.2649
 1638SOL     OW16372   0.714   2.252  14.045  0.0375 -0.7204 -0.1689
 1638SOL    HW116373   0.698   2.262  13.951  1.3849  1.0177 -0.2209
 1638SOL    HW216374   0.805   2.283  14.043 -1.5389  4.0435  1.4656
 1639SOL     OW16375   0.824   3.595   0.347 -0.0954 -0.2900 -0.0408
 1639SOL    HW116376   0.760   3.610   0.277 -2.4094 -0.3034  2.0621
 1639SOL    HW216377   0.870   3.678   0.356 -0.5536  0.0372 -0.6943
 1640SOL     OW16378   3.034   0.527   2.420 -0.5755 -0.1039  0.2012
 1640SOL    HW116379   3.115   0.528   2.471 -0.4536  0.3867 -0.0028
 1640SOL    HW216380   3.069   0.458   2.364  0.7289 -0.0855  0.9933
 1641SOL     OW16381   3.762   4.404   2.132  0.2386  0.2898 -0.1867
 1641SOL    HW116382   3.852   4.370   2.134  0.4563  0.7994 -1.9613
 1641SOL    HW216383   3.702   4.336   2.164  0.2930  0.0995 -0.4968
 1642SOL     OW16384   1.073   3.481   4.820  0.1625 -0.2094  0.1239
 1642SOL    HW116385   1.125   3.531   4.883 -1.3657  0.3546  0.9519
 1642SOL    HW216386   1.083   3.389   4.847  0.1205 -0.7352 -1.6309
 1643SOL     OW16387   0.398   1.877   2.490  0.3245  0.0297 -0.7650
 1643SOL    HW116388   0.355   1.792   2.477 -0.9084  0.6550 -0.8269
 1643SOL    HW216389   0.485   1.847   2.515  0.4245  0.7788 -0.2359
 1644SOL     OW16390   4.118   1.650   3.513 -0.1674  0.4472  0.0361
 1644SOL    HW116391   4.188   1.687   3.458 -1.4322  1.0906 -1.1488
 1644SOL    HW216392   4.122   1.707   3.589  1.2849 -0.2994  0.5139
 1645SOL     OW16393   0.306   4.024   5.689 -0.2074  0.8632 -0.0329
 1645SOL    HW116394   0.247   4.091   5.654 -0.4064  0.0689 -1.2102
 1645SOL    HW216395   0.304   4.046   5.782 -4.3633  0.6625 -0.0714
 1646SOL     OW16396   0.962   2.171   2.306  0.3389 -0.6522  0.4288
 1646SOL    HW116397   0.965   2.266   2.306 -1.1495 -0.6011  1.4674
 1646SOL    HW216398   0.884   2.156   2.359 -0.7732 -1.1262 -1.3363
 1647SOL     OW16399   4.439   1.040   5.928  0.3278 -0.3740  0.6799
 1647SOL    HW116400   4.417   0.980   5.856 -1.2191  2.7882 -1.4762
 1647SOL    HW216401   4.487   0.981   5.985 -0.0512 -3.0644 -1.7682
 1648SOL     OW16402   0.359   3.772   9.958 -0.3015  0.3799 -0.2205
 1648SOL    HW116403   0.346   3.866   9.946 -0.4369  0.5100  0.9691
 1648SOL    HW216404   0.296   3.725   9.903  0.8073 -1.6487  0.2208
 1649SOL     OW16405   1.614   0.629   1.603 -0.3477  0.0101 -0.2015
 1649SOL    HW116406   1.551   0.609   1.534 -1.2160  0.6698  0.4026
 1649SOL    HW216407   1.696   0.624   1.554 -1.1488  1.6007 -1.6879
 1650SOL     OW16408   1.036   1.490   1.874 -0.7828  0.0541 -0.5868
 1650SOL    HW116409   1.067   1.544   1.801 -2.4588  0.2269 -1.1812
 1650SOL    HW216410   1.061   1.402   1.846 -0.1436  0.3038 -0.7860
 1651SOL     OW16411   2.184   1.274  14.284 -0.2688  0.3598 -0.6084
 1651SOL    HW116412   2.177   1.230  14.369  0.1426 -1.4133 -1.5097
 1651SOL    HW216413   2.151   1.360  14.312  0.1823  0.2532  0.2608
 1652SOL     OW16414   1.264   3.918   0.054 -0.4526 -0.6189  0.5712
 1652SOL    HW116415   1.203   3.885   0.119  1.2487 -0.0965  2.4237
 1652SOL    HW216416   1.266   3.846  17.671  0.4738 -1.2849  1.3709
 1653SOL     OW16417   1.870   1.519   5.459  0.2994 -0.5163 -0.4967
 1653SOL    HW116418   1.844   1.427   5.466 -2.3678 -0.0088 -3.9544
 1653SOL    HW216419   1.964   1.517   5.441  0.9372  1.9527  2.4880
 1654SOL     OW16420   2.053   0.660  16.427  0.2209 -0.3146 -0.1353
 1654SOL    HW116421   2.129   0.655  16.369 -0.7940 -1.6063 -1.3603
 1654SOL    HW216422   2.075   0.743  16.470  1.5016 -0.8968  0.3418
 1655SOL     OW16423   1.819   0.899   2.387  0.0282 -0.3583  0.2389
 1655SOL    HW116424   1.900   0.855   2.410  0.7392  0.5237 -0.5727
 1655SOL    HW216425   1.760   0.834   2.425  1.0706 -1.0024  0.7487
 1656SOL     OW16426   3.752   2.422  16.487  0.0965  0.4345  0.4793
 1656SOL    HW116427   3.825   2.426  16.425  0.8005 -1.1752  1.2010
 1656SOL    HW216428   3.674   2.428  16.432  0.4545  2.6716  0.2050
 1657SOL     OW16429   0.604   3.569   6.500  0.3900 -0.1308  0.5444
 1657SOL    HW116430   0.583   3.524   6.582  1.0632  0.0017  0.7896
 1657SOL    HW216431   0.659   3.502   6.459 -1.6240 -1.0408 -0.6472
 1658SOL     OW16432   3.187   3.120   1.454 -0.4853 -0.6468  0.8811
 1658SOL    HW116433   3.211   3.211   1.436  0.8736 -0.7397  2.2549
 1658SOL    HW216434   3.093   3.139   1.459 -0.0555  1.8933 -0.5315
 1659SOL     OW16435   0.252   2.441   4.327 -0.1222  0.0962 -0.4907
 1659SOL    HW116436   0.345   2.455   4.347 -0.0882 -1.2206  0.2272
 1659SOL    HW216437   0.212   2.450   4.414 -0.9708  1.2350 -1.0015
 1660SOL     OW16438   2.787   3.861   8.528 -0.0337  0.6094  0.3976
 1660SOL    HW116439   2.803   3.955   8.535  1.9585  0.3499 -0.6250
 1660SOL    HW216440   2.748   3.834   8.611 -1.6545  1.4459 -0.1057
 1661SOL     OW16441   1.910   4.511   8.095  0.0352  0.5997 -0.6265
 1661SOL    HW116442   1.831   4.565   8.094 -2.4659 -3.0627  1.9451
 1661SOL    HW216443   1.967   4.569   8.145 -0.3493 -0.1667  0.6919
 1662SOL     OW16444   2.546   3.102   5.749  0.2123 -0.0119  0.7037
 1662SOL    HW116445   2.535   3.193   5.775  0.8507  0.0312  0.8272
 1662SOL    HW216446   2.455   3.079   5.730  0.2361  1.0548 -0.6846
 1663SOL     OW16447   1.715   0.745   9.179 -0.2129 -0.1371  0.6003
 1663SOL    HW116448   1.649   0.770   9.244  1.1297 -1.9885  2.6615
 1663SOL    HW216449   1.797   0.766   9.225 -0.3708  0.8330  0.4510
 1664SOL     OW16450   4.575   1.132  11.333 -0.0187 -0.5974 -0.0071
 1664SOL    HW116451   4.652   1.180  11.364  0.2486 -1.4701  0.6859
 1664SOL    HW216452   4.603   1.105  11.245 -2.5027  1.5796 -1.4747
 1665SOL     OW16453   0.123   2.881   8.107 -0.4102  0.4542  0.0940
 1665SOL    HW116454   0.036   2.920   8.119  0.3187  1.2934  2.5643
 1665SOL    HW216455   0.169   2.943   8.050  1.4166 -2.6755 -1.8189
 1666SOL     OW16456   3.374   0.849   6.788  0.3243  0.2977  0.0712
 1666SOL    HW116457   3.333   0.904   6.721  0.1867  1.3791  1.0626
 1666SOL    HW216458   3.434   0.911   6.829  1.0509 -0.0180 -0.4911
 1667SOL     OW16459   3.733   3.279   6.554 -0.0180  0.2511 -0.4195
 1667SOL    HW116460   3.663   3.218   6.579  1.3636 -0.8097  0.8512
 1667SOL    HW216461   3.677   3.355   6.539 -1.4473 -1.0510 -1.7019
 1668SOL     OW16462   3.521   2.161   2.549  0.0852  0.5329  0.1841
 1668SOL    HW116463   3.507   2.066   2.553  0.4676  0.4731  0.0678
 1668SOL    HW216464   3.455   2.188   2.485  0.4377  0.3961 -0.2348
 1669SOL     OW16465   1.170   2.216   0.106  0.2556  0.6825 -0.1008
 1669SOL    HW116466   1.147   2.156   0.036  2.3827 -2.0819  1.5391
 1669SOL    HW216467   1.252   2.255   0.077 -0.3152  2.9691  1.3306
 1670SOL     OW16468   3.030   2.141   4.850  0.7860  0.1879  0.4475
 1670SOL    HW116469   3.031   2.233   4.877  2.1730  0.6633 -1.1887
 1670SOL    HW216470   3.035   2.165   4.757 -1.9132  0.0859  0.3019
 1671SOL     OW16471   0.459   4.373   7.781 -0.1990 -0.5344  0.5662
 1671SOL    HW116472   0.456   4.428   7.703 -0.2673  0.8445  1.5610
 1671SOL    HW216473   0.451   4.445   7.843 -1.5288 -0.7097  0.5958
 1672SOL     OW16474   0.018   1.538  16.457  0.0226  0.0345  0.3398
 1672SOL    HW116475   0.037   1.560  16.548  1.6465  1.5694 -0.3457
 1672SOL    HW216476   0.087   1.473  16.442 -2.3267 -1.8970 -2.0497
 1673SOL     OW16477   3.914   2.584   8.495  0.2397 -0.6216 -0.0692
 1673SOL    HW116478   3.867   2.658   8.535  1.2492 -0.3643  0.6105
 1673SOL    HW216479   3.904   2.598   8.400  0.7017  0.3390  0.0193
 1674SOL     OW16480   3.080   0.444  16.183 -0.0510  0.0049  0.8888
 1674SOL    HW116481   3.062   0.384  16.255 -0.5367 -1.1781 -0.2260
 1674SOL    HW216482   2.997   0.450  16.136  1.3996  1.2421 -1.5371
 1675SOL     OW16483   1.554   0.282   8.586 -0.2876 -0.0728  0.6580
 1675SOL    HW116484   1.486   0.241   8.639 -0.0144 -1.6717 -0.2339
 1675SOL    HW216485   1.589   0.348   8.646  0.5183  0.8518 -0.8471
 1676SOL     OW16486   1.339   3.502  11.318  0.1051 -0.1235 -0.0979
 1676SOL    HW116487   1.256   3.536  11.352 -0.8585 -2.3397 -0.2383
 1676SOL    HW216488   1.371   3.449  11.391 -2.5019  1.8448  2.4778
 1677SOL     OW16489   0.836   2.716  11.843  0.4483 -0.3275 -0.2550
 1677SOL    HW116490   0.908   2.723  11.907  0.2543  1.0462 -0.1875
 1677SOL    HW216491   0.879   2.658  11.780  0.4136  1.1070 -1.5825
 1678SOL     OW16492   1.961   3.117   4.922  0.2038 -0.1735 -0.2432
 1678SOL    HW116493   1.956   3.203   4.880 -0.3589  0.5636  1.3435
 1678SOL    HW216494   2.048   3.108   4.959 -0.1697 -1.0215  0.4399
 1679SOL     OW16495   1.580   2.179  16.026  0.1256  0.0012  0.5339
 1679SOL    HW116496   1.604   2.218  16.110  1.5182  0.5622 -0.1081
 1679SOL    HW216497   1.644   2.107  16.024 -1.6439 -1.5268 -0.6339
 1680SOL     OW16498   3.932   1.013   3.856  0.0614 -0.3335 -0.1952
 1680SOL    HW116499   3.946   0.986   3.947  0.8772  0.7647  0.0078
 1680SOL    HW216500   4.000   0.965   3.810  1.8219  0.1406  1.9054
 1681SOL     OW16501   3.061   0.734  12.500  0.3469 -0.5743  0.4601
 1681SOL    HW116502   3.073   0.645  12.533 -1.3063 -0.2171  2.0443
 1681SOL    HW216503   2.998   0.725  12.429  0.3055 -2.1899  0.7165
 1682SOL     OW16504   1.440   2.908   1.893 -0.4086  0.1464  0.0993
 1682SOL    HW116505   1.375   2.912   1.822 -0.0428 -0.7693 -0.2812
 1682SOL    HW216506   1.471   2.998   1.892  0.9595 -0.3559 -1.7978
 1683SOL     OW16507   3.453   2.826   2.269 -0.0017  0.1914  0.0447
 1683SOL    HW116508   3.520   2.807   2.334  0.0654  0.5685  0.0828
 1683SOL    HW216509   3.489   2.901   2.221  3.0721 -0.5947  1.1051
 1684SOL     OW16510   0.891   3.385   4.221  0.1469  0.0650  0.6127
 1684SOL    HW116511   0.979   3.411   4.192  1.4655 -3.4954  1.3038
 1684SOL    HW216512   0.870   3.309   4.166  0.1591 -0.7382  1.7304
 1685SOL     OW16513   2.765   2.110   3.130  0.2529 -0.2087 -0.4930
 1685SOL    HW116514   2.845   2.160   3.117 -0.4721  0.5801 -1.9418
 1685SOL    HW216515   2.791   2.044   3.194  0.8896  0.4676 -0.0561
 1686SOL     OW16516   1.237   1.984   1.421  0.0861 -0.2333  0.1361
 1686SOL    HW116517   1.142   1.987   1.408 -0.0668 -0.5588  1.1551
 1686SOL    HW216518   1.259   2.073   1.447  1.8771 -0.3736 -0.9167
 1687SOL     OW16519   1.497   0.115   2.843  0.1537 -0.2592 -0.1660
 1687SOL    HW116520   1.418   0.110   2.789 -1.4690  1.3389  2.0585
 1687SOL    HW216521   1.489   0.202   2.882 -1.8351 -1.1426  1.3875
 1688SOL     OW16522   0.596   3.681   3.050 -0.4332  0.0932  0.0591
 1688SOL    HW116523   0.547   3.652   2.972  0.0054  0.2928 -0.2905
 1688SOL    HW216524   0.577   3.613   3.114  0.6428 -0.3622 -0.1096
 1689SOL     OW16525   2.307   3.993   7.509  0.0871 -0.2915  0.1658
 1689SOL    HW116526   2.304   3.902   7.482 -1.8080 -0.4480  0.9225
 1689SOL    HW216527   2.392   4.021   7.474 -0.0936  1.2945  0.9752
 1690SOL     OW16528   1.616   2.928   0.374 -0.0734  0.1672  0.3326
 1690SOL    HW116529   1.665   2.846   0.379 -3.0439 -1.6585 -0.3250
 1690SOL    HW216530   1.692   2.985   0.370  0.7189 -1.0209 -1.8576
 1691SOL     OW16531   0.991   2.894  16.490 -0.0516  0.0594 -0.1673
 1691SOL    HW116532   1.032   2.980  16.486 -2.4313  1.1814 -0.7129
 1691SOL    HW216533   1.071   2.841  16.492  0.0475  0.2066 -0.2441
 1692SOL     OW16534   1.397   4.013   2.536  0.2868  0.1660  0.0206
 1692SOL    HW116535   1.489   4.018   2.565 -0.1207 -1.0833  1.5304
 1692SOL    HW216536   1.404   4.007   2.441  1.0006 -3.0327  0.2636
 1693SOL     OW16537   1.165   4.558  10.515  0.1401  0.3746  0.0667
 1693SOL    HW116538   1.120   4.476  10.495  1.4942  0.2518 -2.5157
 1693SOL    HW216539   1.251   4.544  10.476 -0.3640  0.0429 -0.9120
 1694SOL     OW16540   1.142   1.809  16.579  0.0398  0.2319  0.5796
 1694SOL    HW116541   1.234   1.825  16.601  0.1363  2.4735 -1.4309
 1694SOL    HW216542   1.114   1.843  16.664  0.7766  1.4727  0.3323
 1695SOL     OW16543   4.223   2.915   4.538  0.0847  0.1507  0.2520
 1695SOL    HW116544   4.316   2.939   4.533  0.1046 -0.1347 -0.9701
 1695SOL    HW216545   4.230   2.844   4.602  2.2741  1.9250  1.9955
 1696SOL     OW16546   1.739   3.258  10.256 -0.6463 -0.3926  0.2431
 1696SOL    HW116547   1.815   3.315  10.247 -0.5487 -0.7353 -1.1730
 1696SOL    HW216548   1.784   3.185  10.299 -0.8805 -0.7935 -0.1972
 1697SOL     OW16549   0.054   0.275   9.138  0.3293  0.1901  0.2688
 1697SOL    HW116550   4.685   0.284   9.104  0.5153 -1.1661 -0.5491
 1697SOL    HW216551   0.041   0.197   9.191  0.0133 -0.0367 -0.1489
 1698SOL     OW16552   0.588   1.070   7.122  0.1171  0.6752 -0.1972
 1698SOL    HW116553   0.628   1.047   7.038 -0.9904  0.7474 -0.7418
 1698SOL    HW216554   0.633   1.017   7.188  0.1538  0.5847 -0.2963
 1699SOL     OW16555   2.523   2.653   0.530 -0.6145  0.0990 -0.0207
 1699SOL    HW116556   2.506   2.713   0.458 -0.4364  2.0228  1.5560
 1699SOL    HW216557   2.618   2.646   0.522 -0.5743  1.5302 -0.7681
 1700SOL     OW16558   2.774   2.900   9.100 -0.1050  0.3435  0.2208
 1700SOL    HW116559   2.720   2.821   9.087  1.3067 -0.5516 -0.1646
 1700SOL    HW216560   2.712   2.972   9.084  0.6484  0.4741 -2.1703
 1701SOL     OW16561   0.790   1.966   8.854 -0.0392 -0.1290  0.4517
 1701SOL    HW116562   0.779   1.905   8.780 -0.3539 -0.2734  0.6152
 1701SOL    HW216563   0.697   1.989   8.859 -0.2615 -1.1620  1.0517
 1702SOL     OW16564   1.588   4.202   0.225 -0.3155  0.1928 -0.0903
 1702SOL    HW116565   1.529   4.273   0.250  1.6420  1.1778  1.8156
 1702SOL    HW216566   1.674   4.240   0.243  0.3581 -0.7647 -1.2889
 1703SOL     OW16567   0.380   2.192  17.291 -0.7003 -0.1981  0.6328
 1703SOL    HW116568   0.412   2.281  17.306 -1.6857  0.2805 -0.1226
 1703SOL    HW216569   0.425   2.144  17.360  0.2097  0.6988  0.6685
 1704SOL     OW16570   2.759   3.731  14.902 -0.1701  0.3389  0.4990
 1704SOL    HW116571   2.806   3.652  14.929  0.1887  0.8433  1.3485
 1704SOL    HW216572   2.682   3.698  14.856 -0.0816 -0.7475  1.1174
 1705SOL     OW16573   4.685   0.275   2.444 -0.2359  0.4817 -0.0177
 1705SOL    HW116574   0.034   0.229   2.395  0.1488  0.7962  0.2280
 1705SOL    HW216575   4.705   0.366   2.424 -0.2313  0.6576  0.7770
 1706SOL     OW16576   2.569   2.618  10.153  0.0635  1.1312  0.1910
 1706SOL    HW116577   2.585   2.614  10.248  2.1686 -1.1377 -0.2756
 1706SOL    HW216578   2.489   2.568  10.144  0.8812 -0.6719  2.8304
 1707SOL     OW16579   4.609   1.640   2.322  0.3875  0.7260 -0.2395
 1707SOL    HW116580   4.548   1.667   2.390 -0.1461 -0.4032 -0.2626
 1707SOL    HW216581   4.638   1.725   2.289  1.0765  1.9232  3.5151
 1708SOL     OW16582   3.885   3.992  10.890  0.5178 -0.0051  0.3649
 1708SOL    HW116583   3.980   3.982  10.891  0.6700  1.4768  1.1665
 1708SOL    HW216584   3.865   4.016  10.981  1.2303 -2.6413  1.2258
 1709SOL     OW16585   3.470   1.861  12.677  0.2450  0.2567 -0.2326
 1709SOL    HW116586   3.404   1.815  12.729 -0.4338  1.7673  0.2450
 1709SOL    HW216587   3.547   1.804  12.673  0.3581  0.2802  1.6167
 1710SOL     OW16588   4.441   3.725   3.687  0.1902  0.4619  0.1952
 1710SOL    HW116589   4.499   3.722   3.610 -2.2159  1.1241 -1.6557
 1710SOL    HW216590   4.356   3.702   3.648 -0.2672  1.5852  0.5287
 1711SOL     OW16591   0.081   0.900  11.970  0.4176 -0.0281  0.4065
 1711SOL    HW116592   0.068   0.945  12.054 -0.5512  1.6507 -0.6502
 1711SOL    HW216593   0.015   0.937  11.912 -2.5094 -2.2550  2.3220
 1712SOL     OW16594   1.344   4.367  13.772  0.0024  0.0681  0.2116
 1712SOL    HW116595   1.314   4.321  13.851 -0.0380 -0.3002 -0.0164
 1712SOL    HW216596   1.279   4.340  13.707  2.0610 -2.3516 -0.8501
 1713SOL     OW16597   2.676   3.175   9.057 -0.3672 -0.5581 -0.3612
 1713SOL    HW116598   2.758   3.210   9.091 -0.3998  0.9439 -1.8234
 1713SOL    HW216599   2.689   3.193   8.964 -0.2840  2.7977  0.2820
 1714SOL     OW16600   2.239   0.914   2.824  0.4782  0.3814 -0.0856
 1714SOL    HW116601   2.254   0.980   2.892  1.6618  0.4760 -0.4442
 1714SOL    HW216602   2.259   0.831   2.869  1.8616  0.4902 -0.4992
 1715SOL     OW16603   2.026   0.266   4.212 -0.0775  0.6658 -0.3273
 1715SOL    HW116604   2.060   0.226   4.292  1.2248 -1.4022 -1.9231
 1715SOL    HW216605   2.085   0.229   4.146  1.6573 -0.0116  1.6247
 1716SOL     OW16606   2.474   1.786   8.870 -0.1974 -0.4274  0.1163
 1716SOL    HW116607   2.431   1.870   8.856  2.4862  1.0757  0.9606
 1716SOL    HW216608   2.465   1.770   8.964 -1.0443 -0.0289  0.1047
 1717SOL     OW16609   2.714   0.680   4.643 -0.6022  0.8214 -0.3649
 1717SOL    HW116610   2.808   0.672   4.626  0.0116  0.2395  3.4044
 1717SOL    HW216611   2.707   0.775   4.655  1.1290  1.1375 -1.9168
 1718SOL     OW16612   0.283   0.082   6.111  0.1945  0.4047 -0.3723
 1718SOL    HW116613   0.336   0.114   6.184  0.2133  1.4809 -0.8501
 1718SOL    HW216614   0.198   0.126   6.120  0.6149  1.0720  0.3583
 1719SOL     OW16615   0.713   3.826   4.674 -0.2002 -0.1689  0.2191
 1719SOL    HW116616   0.798   3.845   4.632 -0.4896 -1.7719 -1.0995
 1719SOL    HW216617   0.699   3.914   4.708  1.6385  0.7422 -1.3696
 1720SOL     OW16618   2.204   0.177   3.932  0.0708  0.5496  0.4275
 1720SOL    HW116619   2.135   0.145   3.874  0.2890 -0.5929  0.8037
 1720SOL    HW216620   2.234   0.087   3.948 -1.6808  0.1228  1.2361
 1721SOL     OW16621   2.838   3.257   5.175 -0.0665  0.4937 -0.1005
 1721SOL    HW116622   2.888   3.338   5.182  3.2528 -1.4329 -1.3785
 1721SOL    HW216623   2.785   3.247   5.254  0.6739  0.0611  0.3339
 1722SOL     OW16624   3.028   2.332  11.222  0.0127 -0.3513  0.2635
 1722SOL    HW116625   2.969   2.378  11.163  0.7290  0.6188  0.2968
 1722SOL    HW216626   2.999   2.244  11.199 -0.6146  0.0256 -0.3751
 1723SOL     OW16627   1.017   3.221   2.867 -0.8073 -0.1202  0.2921
 1723SOL    HW116628   1.014   3.134   2.826  0.0883 -0.1619  0.3228
 1723SOL    HW216629   1.012   3.192   2.959 -0.1966 -1.9006 -0.2465
 1724SOL     OW16630   3.880   0.766  12.982 -0.5146  0.4526 -0.4536
 1724SOL    HW116631   3.935   0.775  13.059 -2.1180  1.6434  0.5592
 1724SOL    HW216632   3.944   0.770  12.912 -0.0713 -1.8586 -0.1834
 1725SOL     OW16633   4.280   1.117  11.760 -0.2801 -0.5357 -0.2881
 1725SOL    HW116634   4.368   1.129  11.726 -1.0234  1.9899 -1.2997
 1725SOL    HW216635   4.292   1.039  11.815 -0.3912  0.7055  1.5176
 1726SOL     OW16636   1.024   1.017   4.995 -0.3567 -0.4895  0.5191
 1726SOL    HW116637   1.100   1.027   4.937 -2.5763  0.2546 -2.2406
 1726SOL    HW216638   0.952   1.012   4.932  1.5940  0.0581 -1.7615
 1727SOL     OW16639   1.676   3.034   0.921  0.0956  0.2561  0.0568
 1727SOL    HW116640   1.665   3.114   0.973 -0.4146  1.1571 -1.4354
 1727SOL    HW216641   1.654   2.967   0.985 -1.9351 -0.0104 -0.9109
 1728SOL     OW16642   3.980   0.911  17.649  0.6256  0.2187  0.1406
 1728SOL    HW116643   3.894   0.932  17.614  1.9670  3.6508 -1.1210
 1728SOL    HW216644   4.009   0.843  17.589 -0.1992 -0.0707  0.0749
 1729SOL     OW16645   1.351   0.965   1.592 -0.1526 -0.2511 -0.1624
 1729SOL    HW116646   1.306   0.976   1.676 -0.3869 -0.0180 -0.3150
 1729SOL    HW216647   1.279   0.991   1.534  0.4613 -0.4850 -1.0213
 1730SOL     OW16648   4.055   2.136   1.891 -0.2481  0.0583  0.1434
 1730SOL    HW116649   3.987   2.078   1.857 -1.0032  0.3213  1.1831
 1730SOL    HW216650   4.010   2.218   1.869  0.5745  0.5751  0.3507
 1731SOL     OW16651   2.600   0.082   2.185  0.0997 -0.3181 -1.0545
 1731SOL    HW116652   2.538   0.136   2.137 -0.1876 -0.0719 -0.3987
 1731SOL    HW216653   2.534   0.036   2.237  0.3021 -0.7244 -1.1538
 1732SOL     OW16654   3.373   4.493  16.309 -0.4500  0.3194 -0.1101
 1732SOL    HW116655   3.351   4.435  16.236  0.9344  0.2769 -0.4872
 1732SOL    HW216656   3.456   4.461  16.344  0.2133  1.6438 -0.4832
 1733SOL     OW16657   0.411   4.208  15.327  0.4410  0.1708  0.2283
 1733SOL    HW116658   0.401   4.284  15.269 -0.8201  0.8265  1.2930
 1733SOL    HW216659   0.506   4.203  15.319  0.4212 -0.0510  0.1280
 1734SOL     OW16660   2.662   4.506   7.632 -0.0793 -0.5644 -0.2456
 1734SOL    HW116661   2.755   4.491   7.648 -0.3960 -0.6925  1.5632
 1734SOL    HW216662   2.652   4.601   7.639 -0.9833 -0.6541 -0.2445
 1735SOL     OW16663   1.499   4.365   0.940 -0.0571 -0.3576 -0.3881
 1735SOL    HW116664   1.481   4.271   0.942 -2.0943  0.0483  0.7516
 1735SOL    HW216665   1.560   4.379   1.013  0.8887 -0.6216 -1.1288
 1736SOL     OW16666   0.579   2.181   8.288 -0.2178 -0.4303 -0.2681
 1736SOL    HW116667   0.665   2.203   8.252  0.9508 -0.8397  2.2629
 1736SOL    HW216668   0.607   2.099   8.329 -0.5551  0.6238  2.0773
 1737SOL     OW16669   3.550   4.522  11.678  0.0189 -0.3773 -0.1387
 1737SOL    HW116670   3.610   4.533  11.605  1.5538 -0.7678  1.0800
 1737SOL    HW216671   3.500   4.443  11.656 -1.8326  1.2823 -1.9320
 1738SOL     OW16672   3.014   4.383  11.542 -0.2967 -0.5249 -0.0564
 1738SOL    HW116673   3.070   4.427  11.478  0.1320  0.6066  1.0806
 1738SOL    HW216674   2.932   4.431  11.530 -0.7146 -1.0426  0.7667
 1739SOL     OW16675   4.596   2.191   4.723 -0.2434 -0.9052  0.2004
 1739SOL    HW116676   4.691   2.183   4.720 -0.1140  0.5571  0.0434
 1739SOL    HW216677   4.586   2.191   4.818  1.3446  5.4763  0.4150
 1740SOL     OW16678   0.545   0.451   3.132 -0.1085  0.1675 -0.0721
 1740SOL    HW116679   0.610   0.437   3.201 -0.1520 -1.9724 -0.4546
 1740SOL    HW216680   0.591   0.457   3.048  2.0958  0.7724  1.1654
 1741SOL     OW16681   3.315   3.297   5.907 -0.1409 -0.1124  0.7696
 1741SOL    HW116682   3.237   3.252   5.875 -2.4898  2.9061  2.2682
 1741SOL    HW216683   3.272   3.376   5.941 -1.4628  0.1105 -1.4015
 1742SOL     OW16684   2.861   2.769  10.436 -0.2493 -0.4819  0.2260
 1742SOL    HW116685   2.918   2.796  10.364  1.2781  1.1918  2.0703
 1742SOL    HW216686   2.929   2.742  10.498  1.7760  1.2378 -1.2401
 1743SOL     OW16687   1.967   3.414  10.208 -0.4308 -1.0330  0.0716
 1743SOL    HW116688   2.054   3.403  10.246  0.3242  1.7989 -0.8035
 1743SOL    HW216689   1.974   3.496  10.159  0.9422 -0.5346  1.0924
 1744SOL     OW16690   0.332   4.193   2.907  0.5354  0.4684  0.1341
 1744SOL    HW116691   0.423   4.183   2.877  0.5026  0.2656  0.1012
 1744SOL    HW216692   0.324   4.283   2.877  0.2380  0.0804 -0.9498
 1745SOL     OW16693   1.465   4.556   1.226 -0.1213 -0.2453 -0.3071
 1745SOL    HW116694   1.387   4.524   1.182  0.0209 -0.4125 -0.4346
 1745SOL    HW216695   1.502   4.624   1.170 -0.9318  2.1527  2.0406
 1746SOL     OW16696   1.021   2.887  16.111 -0.3580 -0.3075  0.0147
 1746SOL    HW116697   1.020   2.916  16.203 -1.1261 -0.1580 -0.0422
 1746SOL    HW216698   1.106   2.927  16.091 -0.0893  0.0052  1.7237
 1747SOL     OW16699   3.624   3.317   2.259 -0.0251 -0.3703 -0.5141
 1747SOL    HW116700   3.662   3.369   2.329 -1.0410  0.1719 -0.3574
 1747SOL    HW216701   3.542   3.283   2.296 -0.8580  2.3227  0.0995
 1748SOL     OW16702   2.201   0.113   1.974 -0.3411  0.0050 -0.2946
 1748SOL    HW116703   2.215   0.157   1.890 -0.1417  3.0270  1.3190
 1748SOL    HW216704   2.144   0.177   2.018 -0.3368 -0.8033  0.8544
 1749SOL     OW16705   1.105   3.794  17.368 -0.3737 -0.2649  0.6602
 1749SOL    HW116706   1.113   3.698  17.371 -2.7143 -0.4745 -0.4091
 1749SOL    HW216707   1.193   3.822  17.343  0.2860 -1.9257  1.1409
 1750SOL     OW16708   3.412   2.664   9.758 -0.3706 -0.3148 -0.0101
 1750SOL    HW116709   3.404   2.696   9.848 -0.7331  1.0314 -0.5227
 1750SOL    HW216710   3.373   2.739   9.714  1.2506  0.1638 -0.6499
 1751SOL     OW16711   3.924   0.741  13.557 -0.6277  0.9939  0.3097
 1751SOL    HW116712   3.930   0.735  13.652  0.4762  2.8998  0.3620
 1751SOL    HW216713   3.928   0.835  13.544 -0.2589  0.7915 -1.0967
 1752SOL     OW16714   1.518   0.379  17.664 -0.6676 -0.5094 -0.0770
 1752SOL    HW116715   1.568   0.406   0.061 -0.2936 -1.8673  0.1623
 1752SOL    HW216716   1.451   0.325   0.025 -2.7036  0.6740 -1.9136
 1753SOL     OW16717   3.437   3.982   2.167 -0.7134  0.0352  0.0551
 1753SOL    HW116718   3.503   3.964   2.234  0.6080 -0.0472 -1.2774
 1753SOL    HW216719   3.395   4.059   2.206 -0.1859  1.1807 -1.6482
 1754SOL     OW16720   0.113   1.540   8.019 -0.0236  0.0105 -0.2271
 1754SOL    HW116721   0.197   1.535   7.974 -0.1955  0.7145 -0.6183
 1754SOL    HW216722   0.130   1.485   8.095 -1.8435  0.1951  0.3330
 1755SOL     OW16723   2.295   3.707   7.460 -0.4887  0.0386 -0.3093
 1755SOL    HW116724   2.325   3.616   7.460 -0.6407 -0.0110 -0.0830
 1755SOL    HW216725   2.262   3.710   7.370 -0.5942 -3.3525 -0.3869
 1756SOL     OW16726   3.767   4.499  11.233  0.7358 -0.1904 -0.0512
 1756SOL    HW116727   3.758   4.562  11.304  0.0548  2.2286 -2.2720
 1756SOL    HW216728   3.720   4.429  11.279  1.1808 -1.9115 -2.2023
 1757SOL     OW16729   2.096   3.503   1.860 -0.3143  0.2526 -0.5543
 1757SOL    HW116730   2.062   3.563   1.927 -0.7093 -1.0982  0.4611
 1757SOL    HW216731   2.136   3.569   1.804 -0.8856  0.0477 -1.2095
 1758SOL     OW16732   2.648   1.498   5.604  0.0356 -0.2299  0.0205
 1758SOL    HW116733   2.701   1.575   5.626  2.9347 -1.8332 -1.3973
 1758SOL    HW216734   2.677   1.487   5.514 -1.8367  0.8201 -0.7100
 1759SOL     OW16735   4.153   2.308   9.197 -0.3855  0.3394  0.3213
 1759SOL    HW116736   4.103   2.389   9.195  1.1180  1.2288 -0.8174
 1759SOL    HW216737   4.231   2.336   9.245  0.3457 -1.7926  0.4017
 1760SOL     OW16738   0.093   3.987  17.124 -0.0571 -0.6902  0.7163
 1760SOL    HW116739   0.043   4.055  17.169  1.6766  1.2157 -0.2027
 1760SOL    HW216740   0.047   3.978  17.041  1.6316 -1.1476 -0.1783
 1761SOL     OW16741   0.480   3.018  17.164  0.4253 -0.5267 -0.5629
 1761SOL    HW116742   0.535   2.952  17.123 -0.5598  0.0539 -2.7906
 1761SOL    HW216743   0.543   3.083  17.198 -0.7718 -0.6935  1.9825
 1762SOL     OW16744   0.058   0.628   5.149  0.0942  0.1042  0.2934
 1762SOL    HW116745   0.055   0.674   5.233 -1.4839  0.3701  0.0993
 1762SOL    HW216746   4.685   0.632   5.123 -0.0245  0.4723  0.7748
 1763SOL     OW16747   4.677   4.314  11.466  0.5727  0.1274  0.0834
 1763SOL    HW116748   4.635   4.228  11.476 -2.6210  1.6037 -0.6048
 1763SOL    HW216749   4.600   4.368  11.448  0.1197 -0.5192  0.0756
 1764SOL     OW16750   1.135   0.123   4.633 -0.5010 -0.1983  0.6405
 1764SOL    HW116751   1.220   0.086   4.611 -0.9084 -0.1281 -0.9864
 1764SOL    HW216752   1.105   0.135   4.544 -2.2818  1.6776  1.4894
 1765SOL     OW16753   0.393   4.051  13.381 -0.3544 -0.6801 -0.6458
 1765SOL    HW116754   0.335   4.127  13.379  1.9758  1.1323  0.9948
 1765SOL    HW216755   0.393   4.038  13.286 -1.6756 -1.8836 -0.4834
 1766SOL     OW16756   2.789   3.890  11.130 -0.2492 -0.5839 -0.0587
 1766SOL    HW116757   2.864   3.833  11.116  0.9530  1.3985 -1.6408
 1766SOL    HW216758   2.717   3.834  11.160  0.8318 -2.6831 -1.3700
 1767SOL     OW16759   4.292   0.905   9.893 -0.7282 -0.3232  0.1094
 1767SOL    HW116760   4.307   0.871   9.805  0.4408 -1.3707  0.7235
 1767SOL    HW216761   4.241   0.836   9.936 -0.6463  1.0508  2.4269
 1768SOL     OW16762   3.003   1.836   5.681  0.4458  0.3845 -0.2872
 1768SOL    HW116763   3.010   1.741   5.667  0.8050  0.1974  1.1530
 1768SOL    HW216764   3.085   1.865   5.722 -1.0864  1.4085  2.0620
 1769SOL     OW16765   4.041   0.038   7.784  0.1044  0.1852  0.1064
 1769SOL    HW116766   4.115   4.712   7.825 -1.3180  1.9343  4.6267
 1769SOL    HW216767   4.038   4.713   7.699 -0.1710  0.6694 -0.1346
 1770SOL     OW16768   1.003   1.118  13.078 -0.1120 -0.0611  0.2555
 1770SOL    HW116769   1.041   1.039  13.039 -2.1591 -0.7067 -0.4322
 1770SOL    HW216770   0.910   1.102  13.064 -0.2696 -0.3741  1.7358
 1771SOL     OW16771   1.617   0.858   6.043 -0.8741  0.3358  0.1266
 1771SOL    HW116772   1.665   0.779   6.019 -1.7066 -0.4234  0.9663
 1771SOL    HW216773   1.525   0.832   6.045 -1.1783  1.2940 -1.2893
 1772SOL     OW16774   4.683   3.158   6.337  0.0964  0.6883  0.0623
 1772SOL    HW116775   0.054   3.156   6.304  0.1467 -0.8133  0.2825
 1772SOL    HW216776   4.706   3.225   6.400  2.1780 -0.5799  0.6686
 1773SOL     OW16777   1.399   0.088  17.422 -0.1248  0.0390 -0.0361
 1773SOL    HW116778   1.413   0.160  17.361  0.1860  2.8473  3.3103
 1773SOL    HW216779   1.358   0.140  17.492  1.0038  0.8902 -0.0230
 1774SOL     OW16780   3.935   1.820   2.844 -0.0856  0.6219 -0.5383
 1774SOL    HW116781   3.846   1.788   2.827  0.2225 -0.2994 -0.4102
 1774SOL    HW216782   3.984   1.821   2.762  0.4628 -0.1659 -0.2273
 1775SOL     OW16783   3.808   0.062   0.590  0.2174  0.3360 -0.2900
 1775SOL    HW116784   3.786   0.154   0.600 -0.3549  0.1999 -0.2654
 1775SOL    HW216785   3.729   0.022   0.554  0.3421  0.4856 -0.7324
 1776SOL     OW16786   3.117   0.214  15.672 -0.1192 -0.1321 -0.0486
 1776SOL    HW116787   3.174   0.158  15.620 -0.3405 -0.4591  0.0579
 1776SOL    HW216788   3.146   0.200  15.762  0.0157 -0.6898 -0.1798
 1777SOL     OW16789   2.080   1.254   1.280 -0.3087  0.5163 -0.1014
 1777SOL    HW116790   2.058   1.312   1.207  0.5374 -0.0121 -0.7740
 1777SOL    HW216791   1.994   1.224   1.310 -1.5895  1.9636 -2.3634
 1778SOL     OW16792   2.260   1.884   3.859  0.5970  0.0037 -0.2101
 1778SOL    HW116793   2.270   1.847   3.771 -1.2441  0.4677 -0.6313
 1778SOL    HW216794   2.349   1.914   3.872  0.4646  0.3234 -0.0500
 1779SOL     OW16795   2.523   3.989   6.974 -0.3788 -0.3815 -0.3127
 1779SOL    HW116796   2.560   4.062   7.024 -0.8491 -0.2190 -0.1972
 1779SOL    HW216797   2.591   3.965   6.912 -0.6499 -1.0967 -0.3319
 1780SOL     OW16798   3.617   0.198   8.016  0.2198 -0.2007 -0.0669
 1780SOL    HW116799   3.692   0.140   8.024 -0.3589 -1.1603 -1.6409
 1780SOL    HW216800   3.626   0.225   7.924  0.7248 -0.1782 -0.0084
 1781SOL     OW16801   0.277   4.191  14.295 -0.0683  0.0648  0.1479
 1781SOL    HW116802   0.250   4.099  14.293 -1.4231  0.5014 -1.1549
 1781SOL    HW216803   0.190   4.229  14.285 -0.9760 -1.7086  1.1647
 1782SOL     OW16804   2.167   3.305   7.659  0.1765 -0.0259  0.0401
 1782SOL    HW116805   2.159   3.224   7.609 -0.1230  1.4168 -2.2724
 1782SOL    HW216806   2.125   3.363   7.596  0.8159  1.1212  0.6502
 1783SOL     OW16807   0.247   1.231   6.177  0.5296  0.5492  0.6028
 1783SOL    HW116808   0.260   1.164   6.244 -0.6483 -1.1804 -0.8587
 1783SOL    HW216809   0.165   1.267   6.211  0.2675 -1.8543  2.5541
 1784SOL     OW16810   1.134   3.033   6.820 -0.0472  0.0886  0.2795
 1784SOL    HW116811   1.215   3.011   6.866  0.1008 -0.2353 -0.1383
 1784SOL    HW216812   1.073   2.996   6.884  0.4106 -0.2051  0.5432
 1785SOL     OW16813   4.571   2.742   6.350  0.3237  0.1222 -0.5496
 1785SOL    HW116814   4.655   2.748   6.395  0.7682  0.7307 -1.4484
 1785SOL    HW216815   4.553   2.836   6.338  1.8465  0.3627 -0.9411
 1786SOL     OW16816   4.315   2.560   5.976 -0.0201 -0.2104 -0.1054
 1786SOL    HW116817   4.297   2.467   5.993 -1.8330  0.6977  3.0207
 1786SOL    HW216818   4.320   2.598   6.064 -0.4499  0.7211 -0.4832
 1787SOL     OW16819   1.815   1.358   4.132 -0.5568 -0.1714  0.9245
 1787SOL    HW116820   1.797   1.283   4.189  2.2627 -1.4391  0.1038
 1787SOL    HW216821   1.866   1.415   4.189  0.8711  1.0843 -1.5962
 1788SOL     OW16822   4.348   0.612   7.079 -0.0894 -0.0450 -0.5924
 1788SOL    HW116823   4.291   0.688   7.087  0.1045 -0.1178  1.4072
 1788SOL    HW216824   4.314   0.574   6.998  1.1426 -0.9578 -0.6840
 1789SOL     OW16825   2.312   1.992   8.802  0.2063  0.0749  0.0801
 1789SOL    HW116826   2.240   1.990   8.740 -2.1477  3.4136  2.7036
 1789SOL    HW216827   2.265   1.996   8.885 -1.2497 -1.0101 -0.6970
 1790SOL     OW16828   4.075   4.094   5.095  0.7406  0.3211 -0.5654
 1790SOL    HW116829   4.144   4.028   5.087 -1.0817 -1.7113  0.4101
 1790SOL    HW216830   4.084   4.145   5.015 -1.1263  0.5705 -0.6304
 1791SOL     OW16831   0.820   2.774   3.604  0.2544 -0.2474  0.0093
 1791SOL    HW116832   0.764   2.827   3.660  1.0934 -0.9333  1.4882
 1791SOL    HW216833   0.764   2.699   3.585 -0.8142 -0.4229  3.8579
 1792SOL     OW16834   0.106   4.305   8.421  0.5332  0.0109  0.3298
 1792SOL    HW116835   0.187   4.272   8.461  0.5817 -0.0900  0.1478
 1792SOL    HW216836   0.142   4.359   8.350  0.1577 -0.0972  0.0600
 1793SOL     OW16837   2.256   1.837  16.751 -0.4383 -0.1529  0.0236
 1793SOL    HW116838   2.345   1.848  16.785 -0.6240  0.3774  0.3301
 1793SOL    HW216839   2.221   1.920  16.782 -1.3266 -0.6333  0.3114
 1794SOL     OW16840   4.194   4.041   6.678  0.1483  0.3520  0.2276
 1794SOL    HW116841   4.128   4.100   6.715 -0.2821 -1.5685  2.5648
 1794SOL    HW216842   4.148   4.016   6.598  0.5304  1.5351 -0.3648
 1795SOL     OW16843   3.349   0.412   9.000  0.2402 -0.0570 -0.5758
 1795SOL    HW116844   3.334   0.371   9.086 -0.5071 -0.0612 -0.7042
 1795SOL    HW216845   3.355   0.504   9.024  0.7427 -0.8998  2.6021
 1796SOL     OW16846   0.930   1.822   5.385  0.1328 -0.1195 -0.2495
 1796SOL    HW116847   0.834   1.829   5.392  0.2776  0.3815  1.2038
 1796SOL    HW216848   0.949   1.753   5.321 -2.3512  1.1292 -2.3556
 1797SOL     OW16849   4.038   4.278   6.704 -0.1968  0.2384 -0.3746
 1797SOL    HW116850   3.998   4.350   6.753  0.8445 -0.0061  0.8396
 1797SOL    HW216851   3.983   4.279   6.626 -0.1641 -0.0396 -0.4009
 1798SOL     OW16852   4.191   1.421   7.784 -0.3573 -0.2072  0.1301
 1798SOL    HW116853   4.228   1.389   7.866 -1.1018 -0.6664  0.2889
 1798SOL    HW216854   4.098   1.396   7.786 -0.1077 -1.1527 -0.1178
 1799SOL     OW16855   1.884   1.133   7.279 -0.0096 -0.1470 -0.0172
 1799SOL    HW116856   1.905   1.183   7.358  2.3969  0.7650 -1.2417
 1799SOL    HW216857   1.821   1.194   7.241  1.0202  0.1894 -1.1481
 1800SOL     OW16858   3.472   1.454  10.459 -0.0815 -0.2619 -0.6007
 1800SOL    HW116859   3.541   1.473  10.396 -0.4399 -0.2676 -0.9965
 1800SOL    HW216860   3.402   1.505  10.418 -0.2602  0.3984  0.5119
 1801SOL     OW16861   1.829   2.309   6.317  0.4508 -0.0865  0.2627
 1801SOL    HW116862   1.763   2.348   6.375  0.0089  0.6178 -0.7174
 1801SOL    HW216863   1.884   2.251   6.369  1.1257  0.7660  0.4926
 1802SOL     OW16864   4.194   0.155  10.551  0.2330 -0.0569 -1.0308
 1802SOL    HW116865   4.236   0.204  10.480 -0.6417  1.3469 -0.5804
 1802SOL    HW216866   4.264   0.095  10.575 -1.6071 -0.9977  1.8589
 1803SOL     OW16867   3.425   3.740   5.245 -0.0313  0.2818 -0.4410
 1803SOL    HW116868   3.429   3.648   5.220 -2.0351  0.3296 -0.9537
 1803SOL    HW216869   3.464   3.773   5.164  0.7346  1.5063  0.4334
 1804SOL     OW16870   2.593   0.331   7.465  0.2855 -0.8189 -0.0845
 1804SOL    HW116871   2.521   0.289   7.512  0.3249 -1.7345 -0.8271
 1804SOL    HW216872   2.585   0.305   7.373 -0.1316  0.6726 -0.4563
 1805SOL     OW16873   3.060   1.856   1.472 -0.0747 -0.1196 -0.8654
 1805SOL    HW116874   2.979   1.879   1.519  0.2781  3.0361 -1.8559
 1805SOL    HW216875   3.064   1.762   1.489  2.4500  0.0160 -0.7064
 1806SOL     OW16876   3.607   1.038   6.273 -0.5051  0.0050 -0.0675
 1806SOL    HW116877   3.613   0.959   6.219  2.3784  1.4302 -1.9171
 1806SOL    HW216878   3.658   1.098   6.218  1.0205 -0.9202  0.3273
 1807SOL     OW16879   1.667   3.808   5.637  0.0110  0.0716  0.4853
 1807SOL    HW116880   1.675   3.771   5.725  2.2287  0.2240  0.3526
 1807SOL    HW216881   1.741   3.870   5.636 -0.8809  1.1340  0.6663
 1808SOL     OW16882   3.895   2.778   4.149  0.1345  0.1055 -0.4344
 1808SOL    HW116883   3.909   2.872   4.155  1.9551 -0.1940  0.1856
 1808SOL    HW216884   3.935   2.766   4.236  0.2492 -0.8921 -0.6272
 1809SOL     OW16885   3.866   3.930   3.367 -0.3995 -0.3697 -0.2415
 1809SOL    HW116886   3.799   3.881   3.319  0.1191  0.1796 -1.5513
 1809SOL    HW216887   3.828   4.017   3.364 -0.9740 -0.5558  1.7141
 1810SOL     OW16888   3.459   0.674   2.665 -0.0222  0.0030 -0.7775
 1810SOL    HW116889   3.511   0.642   2.739  2.2080  2.4871 -1.2418
 1810SOL    HW216890   3.522   0.722   2.610 -0.1704  1.9845  0.7679
 1811SOL     OW16891   3.341   4.297  15.514 -0.1920  0.0713 -0.0427
 1811SOL    HW116892   3.360   4.261  15.600 -0.7189 -0.7839 -0.2902
 1811SOL    HW216893   3.247   4.282  15.514 -0.4054  1.4151 -0.1072
 1812SOL     OW16894   3.994   4.105   8.513  0.6096  0.4922  0.6306
 1812SOL    HW116895   3.987   4.090   8.608  0.2797 -1.3960  0.3169
 1812SOL    HW216896   4.007   4.020   8.471  2.5838  1.2429 -0.2724
 1813SOL     OW16897   2.489   0.029   2.426 -0.1426 -0.5864 -0.3590
 1813SOL    HW116898   2.550   0.060   2.493 -1.7626  1.5237  0.1502
 1813SOL    HW216899   2.476   4.656   2.447 -2.2439 -0.4492 -1.1130
 1814SOL     OW16900   2.196   3.141   3.405 -0.0362 -0.8061 -0.0985
 1814SOL    HW116901   2.171   3.070   3.464  1.2309  0.5309  2.0443
 1814SOL    HW216902   2.133   3.126   3.334 -1.2583 -2.4170  1.3196
 1815SOL     OW16903   1.556   3.011   8.665 -0.1403  0.2294 -0.2451
 1815SOL    HW116904   1.478   3.063   8.686  0.6924  0.3382  2.5719
 1815SOL    HW216905   1.593   2.982   8.748 -1.7142 -0.8339  0.0808
 1816SOL     OW16906   3.141   0.166   9.568 -0.1178  0.4325 -0.1533
 1816SOL    HW116907   3.077   0.236   9.554 -1.0198 -0.2110  0.7746
 1816SOL    HW216908   3.188   0.205   9.641  0.5433  2.1962 -1.5215
 1817SOL     OW16909   3.022   0.518   0.967  0.3140 -0.0295 -0.0529
 1817SOL    HW116910   2.948   0.498   1.025  0.7696  0.6463  0.7705
 1817SOL    HW216911   3.091   0.483   1.024 -0.0358  0.5177  0.7172
 1818SOL     OW16912   4.024   4.499   5.941 -0.3377  0.3403  0.1585
 1818SOL    HW116913   3.977   4.417   5.928  0.3196 -0.5210  3.1585
 1818SOL    HW216914   3.960   4.536   6.001  0.2832  2.6843 -0.6193
 1819SOL     OW16915   3.199   1.433   6.729 -0.4579  0.8059 -0.8229
 1819SOL    HW116916   3.255   1.509   6.742  0.6339 -0.1559  0.0931
 1819SOL    HW216917   3.177   1.437   6.636  0.9725 -0.7219 -1.2163
 1820SOL     OW16918   2.572   4.655   3.415 -0.1329 -0.1251 -0.6288
 1820SOL    HW116919   2.665   4.668   3.395 -0.4642  1.2537 -1.2848
 1820SOL    HW216920   2.542   0.021   3.384  0.0032  0.3099  0.4467
 1821SOL     OW16921   3.771   4.171   6.927 -0.3638  0.1244  0.2493
 1821SOL    HW116922   3.793   4.263   6.941 -2.1827  0.2263  2.5182
 1821SOL    HW216923   3.839   4.144   6.989 -2.1448 -0.2789  2.0289
 1822SOL     OW16924   2.524   0.785   8.198  1.0241 -0.0321 -0.2692
 1822SOL    HW116925   2.582   0.718   8.164 -1.8113 -0.7965 -3.6094
 1822SOL    HW216926   2.472   0.726   8.252 -0.0786  1.3730  0.1959
 1823SOL     OW16927   3.557   4.630   8.044 -0.7967 -0.1724 -0.2893
 1823SOL    HW116928   3.498   4.669   7.980 -1.4332  1.1571  1.1418
 1823SOL    HW216929   3.601   4.567   7.986  2.9009 -0.2338  2.5814
 1824SOL     OW16930   3.780   1.979   1.903 -0.6124 -0.1767 -0.1680
 1824SOL    HW116931   3.763   2.011   1.991  0.3483 -0.3672  0.0818
 1824SOL    HW216932   3.699   1.996   1.854  0.1555  0.0159 -1.3730
 1825SOL     OW16933   0.089   0.710  13.489  0.6534 -0.1600  0.2147
 1825SOL    HW116934   0.154   0.772  13.454  0.2221  1.1679  1.7542
 1825SOL    HW216935   0.115   0.694  13.580 -0.3963  0.4523  0.6162
 1826SOL     OW16936   3.568   3.901   5.059 -0.2495 -0.0495  0.2705
 1826SOL    HW116937   3.640   3.851   5.020  1.7667  2.0227  1.4027
 1826SOL    HW216938   3.608   3.986   5.044 -0.0375 -0.1399  0.3306
 1827SOL     OW16939   2.437   0.374   8.024  0.3623  0.5890 -0.3029
 1827SOL    HW116940   2.393   0.431   8.086  0.5275 -1.2884  1.5596
 1827SOL    HW216941   2.485   0.311   8.079 -1.6556  2.1147  3.1952
 1828SOL     OW16942   0.921   1.784   6.881  0.4509  0.3849 -0.0741
 1828SOL    HW116943   0.883   1.792   6.969  1.1052  1.0067  0.1470
 1828SOL    HW216944   0.945   1.875   6.865  2.3460 -0.4176 -1.7502
 1829SOL     OW16945   3.606   3.115   6.084  0.2685  0.0861  0.0203
 1829SOL    HW116946   3.649   3.201   6.086 -1.3907  0.9445 -1.4972
 1829SOL    HW216947   3.518   3.148   6.069 -0.4059 -1.1487  1.2765
 1830SOL     OW16948   4.227   0.070   8.662 -0.1838 -0.4192 -0.2963
 1830SOL    HW116949   4.168   4.714   8.652 -2.6284  1.5023 -0.3061
 1830SOL    HW216950   4.178   0.141   8.622  0.7590  1.5095  1.9877
 1831SOL     OW16951   2.053   0.749   0.744  0.6770  0.0646 -0.0115
 1831SOL    HW116952   2.027   0.700   0.823 -0.0744  0.6215  0.0887
 1831SOL    HW216953   2.144   0.720   0.738 -0.2360 -2.8968  0.0869
 1832SOL     OW16954   3.088   2.858  12.109 -0.1087 -0.0064 -0.2041
 1832SOL    HW116955   3.085   2.769  12.143 -1.1765 -1.5796 -4.3371
 1832SOL    HW216956   3.181   2.879  12.105 -0.5023  2.3315  3.8860
 1833SOL     OW16957   4.566   0.264   4.012  0.0260 -0.7637 -0.1430
 1833SOL    HW116958   4.565   0.359   3.998  2.0739 -0.5300  1.2745
 1833SOL    HW216959   4.646   0.247   4.062  0.7708 -0.8462 -1.3656
 1834SOL     OW16960   3.750   3.759   3.976 -0.0994  0.3663 -0.2458
 1834SOL    HW116961   3.803   3.701   4.031 -0.9343  0.0013  0.1768
 1834SOL    HW216962   3.771   3.711   3.896  0.8211  4.3077 -2.3389
 1835SOL     OW16963   1.385   1.424  16.992 -0.1104 -0.7219  0.0589
 1835SOL    HW116964   1.309   1.449  17.044 -1.1230 -0.8493 -1.3508
 1835SOL    HW216965   1.377   1.329  16.997 -0.9024 -0.6690 -0.1436
 1836SOL     OW16966   3.430   2.676  11.885  0.0637 -0.5903 -0.3254
 1836SOL    HW116967   3.379   2.664  11.805 -0.1328  3.1433 -0.7317
 1836SOL    HW216968   3.494   2.605  11.873  1.1412  0.3609 -0.1309
 1837SOL     OW16969   3.541   1.499  13.830 -0.6571  0.2751  0.0740
 1837SOL    HW116970   3.601   1.508  13.904 -0.3645  0.4881 -0.1890
 1837SOL    HW216971   3.458   1.527  13.868 -0.3933 -1.2356  1.7841
 1838SOL     OW16972   1.026   3.051  10.620  0.0575 -0.2891 -0.4267
 1838SOL    HW116973   1.098   3.115  10.616 -0.9283  0.7363 -1.7265
 1838SOL    HW216974   1.026   3.022  10.711 -1.8275  1.6727  0.1780
 1839SOL     OW16975   3.514   4.057   6.289  0.4648  0.1921 -0.4913
 1839SOL    HW116976   3.517   3.966   6.319 -0.8026 -0.5315 -2.5561
 1839SOL    HW216977   3.421   4.059   6.267 -0.2284  0.0971  2.3752
 1840SOL     OW16978   2.049   3.062   6.141  0.3008  0.7103  0.2762
 1840SOL    HW116979   2.140   3.046   6.163 -0.2175  0.5708  2.2654
 1840SOL    HW216980   2.040   3.155   6.159  1.6378  0.5503  1.7051
 1841SOL     OW16981   2.892   0.726   3.533  0.3057 -0.4208  0.5327
 1841SOL    HW116982   2.912   0.819   3.545 -0.0426  0.0337 -2.2800
 1841SOL    HW216983   2.797   0.721   3.527  0.2131  1.3769  0.4674
 1842SOL     OW16984   0.223   3.682   5.044  0.4370 -0.6564  0.1104
 1842SOL    HW116985   0.241   3.614   5.108 -1.7703  0.9880  2.4660
 1842SOL    HW216986   0.295   3.675   4.981  0.0502 -0.8302 -0.3213
 1843SOL     OW16987   4.703   2.331   7.391  0.1535 -0.2443  0.4258
 1843SOL    HW116988   0.073   2.327   7.357 -0.1277  0.3871 -0.3876
 1843SOL    HW216989   4.680   2.239   7.377 -0.7507  0.2811 -1.5519
 1844SOL     OW16990   0.597   3.857   5.288 -0.4237  0.4324  0.3713
 1844SOL    HW116991   0.677   3.909   5.284 -0.8334  1.0937  0.7919
 1844SOL    HW216992   0.636   3.770   5.290 -3.3487 -0.8657  0.7142
 1845SOL     OW16993   1.545   0.035   2.197 -0.3005 -0.3213 -0.4739
 1845SOL    HW116994   1.552   4.659   2.211  2.4844  0.1724  1.5685
 1845SOL    HW216995   1.630   0.052   2.157 -1.2244 -0.3277 -2.4030
 1846SOL     OW16996   2.251   0.323   6.100  0.2742  0.0653  0.1108
 1846SOL    HW116997   2.289   0.407   6.074 -1.3800  0.2815 -1.6403
 1846SOL    HW216998   2.333   0.278   6.120  0.7296  1.2855  1.0279
 1847SOL     OW16999   4.633   1.809  15.918  0.7616  0.2223 -0.0975
 1847SOL    HW117000   4.715   1.759  15.919 -0.4481 -1.7994 -1.1131
 1847SOL    HW217001   4.611   1.813  15.825 -0.5943 -0.1168  0.2066
 1848SOL     OW17002   0.048   3.157  10.116  0.3931 -0.1668  0.4132
 1848SOL    HW117003   0.110   3.085  10.103 -3.0580 -3.3733  1.7010
 1848SOL    HW217004   0.013   3.133  10.201 -1.9441 -2.6359 -1.2464
 1849SOL     OW17005   2.183   1.346   6.676  0.0345 -0.3374 -0.2755
 1849SOL    HW117006   2.269   1.346   6.718  0.5332 -0.0767 -1.3008
 1849SOL    HW217007   2.153   1.425   6.721 -0.8775 -1.9463  1.9222
 1850SOL     OW17008   0.625   1.023   8.762 -0.1672 -0.6019 -0.8614
 1850SOL    HW117009   0.607   1.108   8.802  0.4698  0.6686 -3.2673
 1850SOL    HW217010   0.535   1.010   8.733 -0.5884  2.1991 -0.8272
 1851SOL     OW17011   2.256   3.971   9.342 -0.1544 -0.0683 -0.6259
 1851SOL    HW117012   2.351   3.960   9.342  0.0484  1.7937  0.6987
 1851SOL    HW217013   2.243   4.045   9.401  2.1438  1.0524 -1.5560
 1852SOL     OW17014   2.423   2.739   7.779  0.4173  0.2015 -0.2187
 1852SOL    HW117015   2.401   2.666   7.838 -3.0452  1.3387 -0.0903
 1852SOL    HW217016   2.406   2.686   7.700  1.4614 -0.6353  0.1214
 1853SOL     OW17017   2.336   0.839   3.692 -0.1800  0.3149  0.3874
 1853SOL    HW117018   2.341   0.931   3.718  0.6349  0.4234 -0.1564
 1853SOL    HW217019   2.374   0.793   3.767  0.7182 -1.1892 -0.9935
 1854SOL     OW17020   0.411   0.320   5.468 -0.0579  0.1015  0.0350
 1854SOL    HW117021   0.329   0.291   5.427  0.6056 -0.5734 -0.7965
 1854SOL    HW217022   0.389   0.411   5.491 -3.2343 -0.5442 -0.4807
 1855SOL     OW17023   2.140   2.677   7.176 -0.4012 -0.0997 -0.0584
 1855SOL    HW117024   2.161   2.753   7.121 -0.4258  0.4199  0.6499
 1855SOL    HW217025   2.048   2.666   7.150 -0.7443  0.5384  0.8731
 1856SOL     OW17026   2.092   0.065   6.084 -0.6052  0.0352 -0.1136
 1856SOL    HW117027   2.156   0.033   6.146 -1.4966 -1.6676 -0.0627
 1856SOL    HW217028   2.124   0.046   5.996  0.0910  1.6140 -0.2020
 1857SOL     OW17029   4.529   2.175  14.292  0.2118 -0.5454 -0.4765
 1857SOL    HW117030   4.476   2.237  14.343 -0.3113 -0.3913 -1.2146
 1857SOL    HW217031   4.612   2.185  14.340  0.8662  0.3298 -1.7892
 1858SOL     OW17032   0.982   3.353   6.967  0.0664  0.2343 -0.3050
 1858SOL    HW117033   0.958   3.349   6.875  1.8048 -0.3445 -0.7149
 1858SOL    HW217034   0.996   3.260   6.984 -3.2062  0.1801  2.1730
 1859SOL     OW17035   1.519   1.455  15.917 -0.3512  0.2400 -0.1723
 1859SOL    HW117036   1.535   1.409  15.835 -0.1342  0.0152 -0.0038
 1859SOL    HW217037   1.523   1.378  15.974 -0.8830  0.1372 -0.2743
 1860SOL     OW17038   0.018   2.895   4.964 -0.6407  0.3450  0.1656
 1860SOL    HW117039   4.693   2.880   4.880  0.5531 -0.4135 -0.3356
 1860SOL    HW217040   4.668   2.885   5.030  0.2425  0.5371  1.1220
 1861SOL     OW17041   0.079   0.265   9.973 -0.1846 -0.2501  0.2526
 1861SOL    HW117042   0.096   0.187  10.026 -0.1292 -0.1497  0.3823
 1861SOL    HW217043   0.021   0.301  10.040 -0.5983 -1.8705  0.7502
 1862SOL     OW17044   2.267   3.174   2.847 -0.2600  0.2694 -0.1369
 1862SOL    HW117045   2.302   3.186   2.935  2.3070  1.7065 -1.3710
 1862SOL    HW217046   2.292   3.257   2.806  0.2676  2.2329  4.2502
 1863SOL     OW17047   2.500   0.930   2.345  0.1590 -0.6561  0.0019
 1863SOL    HW117048   2.448   0.879   2.282  0.1224  0.1441 -0.6121
 1863SOL    HW217049   2.583   0.886   2.324 -0.6362 -1.5336 -1.3007
 1864SOL     OW17050   0.556   1.735   8.423  0.2029 -0.0024  0.5721
 1864SOL    HW117051   0.575   1.661   8.480 -0.5437 -0.7140 -0.1005
 1864SOL    HW217052   0.461   1.740   8.414  0.1863 -1.0461  0.1392
 1865SOL     OW17053   0.663   0.799   8.971  0.1321 -0.2944  0.5484
 1865SOL    HW117054   0.658   0.843   9.056 -3.0076  2.8301 -1.2316
 1865SOL    HW217055   0.609   0.854   8.914  0.5602  0.4380  0.8457
 1866SOL     OW17056   3.185   1.405  14.764 -0.3929  0.0915 -0.6408
 1866SOL    HW117057   3.189   1.475  14.830  0.6689  1.7074 -2.4356
 1866SOL    HW217058   3.276   1.390  14.742 -0.1847 -0.6281  0.7261
 1867SOL     OW17059   3.285   4.492   4.594  0.1811 -0.0273  0.0436
 1867SOL    HW117060   3.347   4.546   4.643  0.6678 -0.4835 -0.0646
 1867SOL    HW217061   3.214   4.549   4.564 -0.3223 -0.2471  0.8030
 1868SOL     OW17062   1.415   1.316   8.052 -0.2256 -0.4982  0.5659
 1868SOL    HW117063   1.481   1.384   8.036 -1.0470 -0.3151 -2.1201
 1868SOL    HW217064   1.458   1.276   8.127  0.4037  2.0868  1.5709
 1869SOL     OW17065   1.169   4.204  10.442 -0.5601 -0.2100 -0.2966
 1869SOL    HW117066   1.082   4.206  10.483 -0.9025 -0.6580 -1.0052
 1869SOL    HW217067   1.213   4.205  10.527  2.5728 -0.6288 -1.9503
 1870SOL     OW17068   3.486   0.109   0.876  0.4145  0.1753  0.7246
 1870SOL    HW117069   3.574   0.140   0.854  0.5587 -0.9493 -0.2743
 1870SOL    HW217070   3.492   0.119   0.971 -3.5273  0.7556  0.9143
 1871SOL     OW17071   0.918   0.679   6.410  0.4374  0.2312 -0.0442
 1871SOL    HW117072   0.908   0.584   6.417  1.6318  0.2197  1.4973
 1871SOL    HW217073   0.937   0.691   6.317 -1.7149 -0.9159 -0.6305
 1872SOL     OW17074   2.975   2.005   7.316  0.7729 -0.3059 -0.0665
 1872SOL    HW117075   2.879   2.010   7.318  1.0133  2.8280  3.4617
 1872SOL    HW217076   3.010   2.093   7.326 -1.6206  0.7331 -0.8096
 1873SOL     OW17077   4.713   0.012  15.755 -0.2178 -0.3310  0.4251
 1873SOL    HW117078   0.065   0.059  15.712 -0.6812  0.2953  0.3471
 1873SOL    HW217079   4.647   0.080  15.768  1.1818  0.6371  2.3448
 1874SOL     OW17080   1.492   2.114   2.481  0.3561 -0.0899 -0.7202
 1874SOL    HW117081   1.550   2.066   2.422  2.1244  3.6387 -2.0182
 1874SOL    HW217082   1.407   2.128   2.441  0.7750  2.2620 -0.7964
 1875SOL     OW17083   4.633   1.549   6.802  0.8449  0.2994 -0.4453
 1875SOL    HW117084   4.683   1.518   6.878  1.2532 -3.4918 -2.2897
 1875SOL    HW217085   4.700   1.574   6.739  0.0574  3.3266 -0.0954
 1876SOL     OW17086   1.854   4.330  12.766 -0.2235  0.9175 -0.3046
 1876SOL    HW117087   1.891   4.312  12.679  1.6002  0.1952  0.6270
 1876SOL    HW217088   1.797   4.253  12.765 -1.7223  2.0267 -0.9895
 1877SOL     OW17089   0.093   3.508   6.549  0.0428 -0.2850  0.3930
 1877SOL    HW117090   0.114   3.562   6.625 -0.7478 -3.6247  2.9808
 1877SOL    HW217091   0.081   3.582   6.490  2.6599 -0.4072 -0.2944
 1878SOL     OW17092   2.556   1.175   8.720  0.3459 -0.1901  0.2923
 1878SOL    HW117093   2.489   1.219   8.667  2.1665 -2.4024 -3.8910
 1878SOL    HW217094   2.571   1.239   8.790  0.6906  0.2531 -0.1825
 1879SOL     OW17095   4.555   1.966  11.339 -0.1984  0.4934  0.0372
 1879SOL    HW117096   4.595   1.996  11.420 -3.1292  0.4635  1.4906
 1879SOL    HW217097   4.474   2.017  11.341 -1.8464 -2.1164  0.6314
 1880SOL     OW17098   0.043   1.442   2.072  0.3153  0.0749  0.4790
 1880SOL    HW117099   4.667   1.438   2.073  0.3685 -0.6795  1.5094
 1880SOL    HW217100   0.068   1.370   2.014  1.9385 -0.8313  2.2958
 1881SOL     OW17101   0.320   2.494   7.820  0.4100 -0.1376 -0.0719
 1881SOL    HW117102   0.337   2.577   7.776 -0.4443 -1.5876 -3.1220
 1881SOL    HW217103   0.308   2.530   7.908 -0.1382  0.5079 -0.4117
 1882SOL     OW17104   3.800   3.148   5.804 -0.2054 -0.2922 -0.1825
 1882SOL    HW117105   3.841   3.123   5.887  2.8276  1.0551 -1.2969
 1882SOL    HW217106   3.832   3.081   5.743  0.8897  0.4073 -0.3630
 1883SOL     OW17107   0.804   2.648   2.697  0.1011 -0.3594  1.1099
 1883SOL    HW117108   0.826   2.734   2.659  3.2836 -2.4464 -1.7362
 1883SOL    HW217109   0.727   2.663   2.751 -0.3272  0.2900  0.3304
 1884SOL     OW17110   2.991   1.374   7.841  0.1822  0.2274 -0.1662
 1884SOL    HW117111   3.001   1.282   7.819  2.0250 -0.0911  1.9913
 1884SOL    HW217112   3.008   1.360   7.934 -0.0021  3.1763  0.3177
 1885SOL     OW17113   2.693   3.332   6.744  0.5313 -0.1371  0.0729
 1885SOL    HW117114   2.647   3.284   6.676  1.4033  0.2638 -0.8075
 1885SOL    HW217115   2.739   3.268   6.799 -1.2196 -0.1187  1.5828
 1886SOL     OW17116   0.796   4.073   8.076  0.0510 -0.8571  0.0305
 1886SOL    HW117117   0.867   4.031   8.029  0.0801 -0.1250 -0.5735
 1886SOL    HW217118   0.784   4.144   8.013 -0.1401 -1.7132 -0.8809
 1887SOL     OW17119   1.542   3.473   5.362  0.6393  0.7846 -0.3296
 1887SOL    HW117120   1.505   3.460   5.450  1.3175 -1.2621 -0.3399
 1887SOL    HW217121   1.495   3.407   5.310  1.7007 -0.1180 -0.1375
 1888SOL     OW17122   0.000   1.672   5.836 -0.2206 -0.0229  0.1455
 1888SOL    HW117123   4.707   1.615   5.760 -0.8342 -1.2653  1.1777
 1888SOL    HW217124   0.089   1.651   5.867 -0.6556 -0.1438  1.2932
 1889SOL     OW17125   0.012   3.991   8.148  0.3632  0.1881  0.2661
 1889SOL    HW117126   0.073   3.986   8.074  1.3967 -0.1674  1.1363
 1889SOL    HW217127   0.038   3.915   8.200  1.7881  1.9051  2.0344
 1890SOL     OW17128   1.831   2.200  14.651 -0.0827 -0.0139  0.5060
 1890SOL    HW117129   1.786   2.117  14.667  2.5705 -1.2431  1.5142
 1890SOL    HW217130   1.852   2.190  14.559 -2.1838 -0.0433  0.0233
 1891SOL     OW17131   1.579   1.249   3.861 -0.3367  0.1175 -0.1901
 1891SOL    HW117132   1.528   1.285   3.933 -0.0170  0.5327 -0.1654
 1891SOL    HW217133   1.635   1.323   3.837  0.6025 -0.0883  1.3081
 1892SOL     OW17134   0.256   4.071   4.985  0.2852 -0.2443  0.7856
 1892SOL    HW117135   0.194   4.078   5.057 -0.5222  0.0753  0.0590
 1892SOL    HW217136   0.341   4.087   5.026  0.3431 -1.0665  0.9976
 1893SOL     OW17137   1.453   2.866   0.608 -0.0757 -0.1305  0.5302
 1893SOL    HW117138   1.424   2.935   0.668 -1.5672 -1.8797  1.7842
 1893SOL    HW217139   1.439   2.903   0.521 -3.3400  1.2327  1.6467
 1894SOL     OW17140   3.684   0.415   6.268 -0.0351  0.2748 -0.1285
 1894SOL    HW117141   3.672   0.481   6.337 -1.0468 -0.3574  0.3086
 1894SOL    HW217142   3.632   0.463   6.204 -0.6562 -0.1516  0.0581
 1895SOL     OW17143   2.692   0.784  14.328  0.6988 -0.2533  0.2327
 1895SOL    HW117144   2.680   0.693  14.357 -1.3744 -1.2626 -3.8969
 1895SOL    HW217145   2.642   0.833  14.394 -2.5722 -0.7093 -1.9520
 1896SOL     OW17146   2.911   1.081   7.510  0.0214  0.4038 -0.3376
 1896SOL    HW117147   2.841   1.020   7.535  0.4329  0.2712  0.4835
 1896SOL    HW217148   2.867   1.132   7.443 -1.5081 -0.1938  0.1887
 1897SOL     OW17149   4.420   2.218  15.105 -0.1263  0.3666  0.4083
 1897SOL    HW117150   4.430   2.313  15.118 -1.5747  0.6551 -0.5575
 1897SOL    HW217151   4.442   2.196  15.195 -2.7765 -1.5318  0.5859
 1898SOL     OW17152   1.316   0.536  14.460  0.2673  0.1791 -0.4531
 1898SOL    HW117153   1.405   0.501  14.448 -0.1023 -0.3230 -1.8107
 1898SOL    HW217154   1.341   0.622  14.494 -1.7857  1.0609 -1.2160
 1899SOL     OW17155   3.976   0.359  11.726  0.1244  0.1174 -0.0749
 1899SOL    HW117156   3.948   0.395  11.641 -0.5439 -3.8084 -1.5407
 1899SOL    HW217157   3.900   0.387  11.777  0.2340 -0.1022  0.2038
 1900SOL     OW17158   1.117   4.506  14.599  0.4186  0.4593  0.2068
 1900SOL    HW117159   1.167   4.455  14.536  0.8305 -0.0360  0.9272
 1900SOL    HW217160   1.123   4.596  14.566 -0.6083  0.3056 -0.3953
 1901SOL     OW17161   1.801   0.750  13.486 -0.3137  0.4034 -0.4679
 1901SOL    HW117162   1.756   0.834  13.497 -1.6711 -0.3913 -0.0989
 1901SOL    HW217163   1.738   0.716  13.423  0.2450 -2.1099  0.3244
 1902SOL     OW17164   0.873   4.416   2.911  0.2586  0.2393 -0.2557
 1902SOL    HW117165   0.942   4.370   2.864  0.3519  0.1055  0.0105
 1902SOL    HW217166   0.854   4.485   2.847 -2.0757 -1.6203 -1.5342
 1903SOL     OW17167   3.085   1.439   5.912 -0.1606 -0.5402 -0.6063
 1903SOL    HW117168   2.995   1.416   5.934  0.4996 -1.4196  1.1584
 1903SOL    HW217169   3.115   1.497   5.981 -1.2358  0.1861 -0.7453
 1904SOL     OW17170   1.899   2.181   4.391  0.2461 -0.1606 -0.0847
 1904SOL    HW117171   1.805   2.196   4.385  0.6671  3.0758  1.0705
 1904SOL    HW217172   1.931   2.221   4.310  1.5728  1.1880  1.1033
 1905SOL     OW17173   2.093   2.293   4.538  0.5477 -0.5219  0.0541
 1905SOL    HW117174   2.039   2.333   4.606 -0.3429 -1.1206 -0.3011
 1905SOL    HW217175   2.026   2.231   4.511 -1.4567  2.8484 -2.6518
 1906SOL     OW17176   2.295   1.874  14.080  0.3535 -0.0099  0.0396
 1906SOL    HW117177   2.328   1.865  13.990  1.3377  1.6600  0.2352
 1906SOL    HW217178   2.383   1.881  14.116  0.9907  1.5723 -1.8253
 1907SOL     OW17179   4.604   1.573  11.087 -0.3944 -0.1393 -0.0937
 1907SOL    HW117180   4.678   1.604  11.139  0.8420 -1.2684 -1.1786
 1907SOL    HW217181   4.537   1.634  11.117 -0.7665 -1.1804  1.2014
 1908SOL     OW17182   1.243   0.186   7.431 -0.0038  0.2369 -0.7682
 1908SOL    HW117183   1.189   0.106   7.427 -1.7204  1.3536 -0.1185
 1908SOL    HW217184   1.183   0.260   7.428  2.0920  1.8724 -2.0166
 1909SOL     OW17185   3.555   0.375  17.580 -0.6766 -0.3820 -0.1475
 1909SOL    HW117186   3.537   0.451  17.635  0.2976 -1.5831  1.8212
 1909SOL    HW217187   3.525   0.309  17.643 -3.0515 -0.7570 -1.7075
 1910SOL     OW17188   0.897   0.709  11.844  0.5603  0.4398 -0.0807
 1910SOL    HW117189   0.807   0.679  11.855  0.6767  0.0330 -0.2261
 1910SOL    HW217190   0.884   0.785  11.788  2.5071  1.0148  0.2345
 1911SOL     OW17191   4.545   4.060  15.158 -0.1618  0.0767  0.4762
 1911SOL    HW117192   4.590   3.976  15.153  0.6833  0.5302  0.5398
 1911SOL    HW217193   4.544   4.090  15.068 -0.8411  2.5060  1.2795
 1912SOL     OW17194   1.519   4.614  14.251  0.1215 -0.5229 -0.4433
 1912SOL    HW117195   1.509   4.524  14.219  0.1769  0.0669 -2.1089
 1912SOL    HW217196   1.461   4.666  14.195 -0.7290 -0.1261  0.8041
 1913SOL     OW17197   3.802   3.543   8.644  0.1145 -0.2886  0.2390
 1913SOL    HW117198   3.818   3.449   8.642  1.1720 -0.1125  0.0661
 1913SOL    HW217199   3.712   3.544   8.676  0.3437 -2.2219  0.9693
 1914SOL     OW17200   4.117   2.250   3.389 -0.3124 -0.3491 -0.3034
 1914SOL    HW117201   4.185   2.237   3.455  0.2699 -2.8038 -1.3603
 1914SOL    HW217202   4.068   2.169   3.404  0.4290 -0.8916 -0.8067
 1915SOL     OW17203   3.966   2.121   2.777 -0.1980  0.5913 -0.1845
 1915SOL    HW117204   4.037   2.184   2.763 -1.7102  1.6362 -3.2433
 1915SOL    HW217205   4.003   2.047   2.728  1.4164  0.5456  1.1080
 1916SOL     OW17206   4.545   4.394   3.882 -0.0537  0.0015 -0.3376
 1916SOL    HW117207   4.623   4.437   3.919 -1.9439  3.3490 -0.2667
 1916SOL    HW217208   4.498   4.468   3.843 -0.5616 -0.9710 -1.5746
 1917SOL     OW17209   3.390   0.468   9.378 -0.0792 -0.2342  0.4466
 1917SOL    HW117210   3.318   0.497   9.434 -0.1953 -1.0435  0.7214
 1917SOL    HW217211   3.392   0.542   9.317  1.1708 -0.1472  0.6036
 1918SOL     OW17212   3.190   4.237  10.474 -0.2788 -0.4609 -0.1650
 1918SOL    HW117213   3.278   4.212  10.501 -0.2229  0.0963  0.1714
 1918SOL    HW217214   3.148   4.152  10.482 -1.2369 -0.0505 -0.8520
 1919SOL     OW17215   1.008   2.244   9.643 -0.0747 -0.3408  0.2877
 1919SOL    HW117216   0.979   2.314   9.701  1.1519 -0.5822  1.1956
 1919SOL    HW217217   0.922   2.209   9.619 -0.1038  0.8208 -1.3195
 1920SOL     OW17218   1.007   3.379   5.679 -1.1057  0.3857 -0.3249
 1920SOL    HW117219   0.982   3.293   5.713  2.0406 -0.8563 -1.2264
 1920SOL    HW217220   0.946   3.386   5.605 -3.3035  0.8794  1.5123
 1921SOL     OW17221   2.733   0.344   8.968 -0.7963  0.2251 -0.1929
 1921SOL    HW117222   2.717   0.266   9.021  0.7621  0.0394 -0.0004
 1921SOL    HW217223   2.815   0.374   9.007 -0.6510 -1.6996  0.9675
 1922SOL     OW17224   0.285   0.558   7.045 -0.2917  0.0273  0.3902
 1922SOL    HW117225   0.190   0.551   7.041 -0.3590  0.6808  0.8009
 1922SOL    HW217226   0.313   0.470   7.072  1.6335  0.8030  0.9135
 1923SOL     OW17227   1.977   0.070   5.306  0.0732 -0.1061  0.1949
 1923SOL    HW117228   1.897   0.051   5.355 -0.5041  0.1734 -0.6196
 1923SOL    HW217229   1.964   0.019   5.226  1.3059 -0.4523  0.2183
 1924SOL     OW17230   4.101   0.267   4.782 -0.2404  0.0350 -0.4054
 1924SOL    HW117231   4.190   0.300   4.796 -0.2608 -1.1058  2.3433
 1924SOL    HW217232   4.107   0.225   4.697 -0.6856 -0.2651 -0.2903
 1925SOL     OW17233   3.523   0.763   5.349 -0.3259 -0.0477  0.1069
 1925SOL    HW117234   3.487   0.840   5.306  1.2733  0.7849  0.2484
 1925SOL    HW217235   3.488   0.694   5.293  1.1970 -1.3652  0.7824
 1926SOL     OW17236   4.361   3.682   6.253 -0.2829  0.0429  0.0530
 1926SOL    HW117237   4.448   3.648   6.234 -0.1096 -0.5928  1.9369
 1926SOL    HW217238   4.363   3.679   6.349 -0.9825 -0.3875  0.0535
 1927SOL     OW17239   4.328   3.712   7.749  0.0178  0.6455  0.2436
 1927SOL    HW117240   4.322   3.644   7.816 -0.1574  2.2380  1.8402
 1927SOL    HW217241   4.422   3.697   7.738 -0.0756  0.8208 -0.7606
 1928SOL     OW17242   1.649   0.090   4.602  0.1309 -0.2252  0.5731
 1928SOL    HW117243   1.743   0.104   4.612  0.1129  0.0984  0.2971
 1928SOL    HW217244   1.645   0.089   4.507 -1.8657  0.6815  0.6469
 1929SOL     OW17245   4.112   3.038   0.859  0.7305 -0.1966 -0.1354
 1929SOL    HW117246   4.108   3.079   0.773 -1.1270  0.7723  0.4060
 1929SOL    HW217247   4.084   3.123   0.894 -1.1400 -0.9022  0.0656
 1930SOL     OW17248   2.363   3.918   1.324  0.6709 -0.5954  0.2903
 1930SOL    HW117249   2.293   3.959   1.375  0.4205 -1.6347  0.7649
 1930SOL    HW217250   2.410   3.876   1.396  0.4757  1.3294  1.5401
 1931SOL     OW17251   0.109   3.709   9.797 -0.2041  0.2486 -0.1221
 1931SOL    HW117252   0.099   3.696   9.702  1.0674 -0.6467 -0.1317
 1931SOL    HW217253   0.121   3.804   9.803  0.9112  0.0338  0.8892
 1932SOL     OW17254   0.829   4.115  14.016 -0.0084  0.0342 -0.1931
 1932SOL    HW117255   0.739   4.082  14.016  0.3975 -1.0737 -1.4057
 1932SOL    HW217256   0.810   4.209  14.022 -0.7861 -0.1244 -0.1602
 1933SOL     OW17257   2.388   3.472   7.259  0.3460 -0.6805  0.2117
 1933SOL    HW117258   2.455   3.444   7.320  1.4699 -0.4233 -0.9005
 1933SOL    HW217259   2.335   3.392   7.255  2.0366 -1.9171  2.6016
 1934SOL     OW17260   0.441   4.502   3.603  0.1292 -0.6868  0.0914
 1934SOL    HW117261   0.532   4.507   3.632  0.1403 -0.6864  0.0566
 1934SOL    HW217262   0.417   4.588   3.566 -1.0638  0.5745  3.7986
 1935SOL     OW17263   0.856   3.188   8.752  0.5897  0.4091 -0.3328
 1935SOL    HW117264   0.843   3.260   8.691  1.5361  1.1122  0.2896
 1935SOL    HW217265   0.914   3.134   8.698  1.8802  1.1979  0.2554
 1936SOL     OW17266   2.895   3.068   2.406  0.2437  0.3844  0.4974
 1936SOL    HW117267   2.836   2.993   2.414 -1.2985  1.3233 -2.1087
 1936SOL    HW217268   2.938   3.042   2.325 -0.0226 -0.5445  0.6447
 1937SOL     OW17269   0.477   2.555   7.161  0.4591  0.2238 -0.1904
 1937SOL    HW117270   0.494   2.632   7.217 -1.7375  0.4920  0.0904
 1937SOL    HW217271   0.495   2.478   7.215  0.6400 -0.4028 -1.1453
 1938SOL     OW17272   3.669   1.248   5.758 -0.1985  0.2859 -0.3188
 1938SOL    HW117273   3.758   1.250   5.793 -0.4873 -1.4528  0.4856
 1938SOL    HW217274   3.685   1.237   5.664 -2.7353 -0.4364 -0.6795
 1939SOL     OW17275   2.733   2.844   2.448 -0.2516 -0.2432 -0.1692
 1939SOL    HW117276   2.795   2.773   2.430  0.3191 -0.0688  1.0811
 1939SOL    HW217277   2.655   2.792   2.466  0.9153 -1.5546  1.1443
 1940SOL     OW17278   1.044   4.342  13.481 -0.4675  0.0502  0.5308
 1940SOL    HW117279   1.055   4.373  13.572 -2.4466  3.5857 -0.4419
 1940SOL    HW217280   0.965   4.385  13.449  0.9727  0.4531 -2.4460
 1941SOL     OW17281   0.390   4.439  12.805 -0.2390 -0.1720  0.0367
 1941SOL    HW117282   0.414   4.445  12.898  0.6394 -2.7932 -0.0437
 1941SOL    HW217283   0.397   4.533  12.786 -0.6300  0.2532  1.9626
 1942SOL     OW17284   4.264   4.588  15.796 -0.1849  0.2882 -0.1175
 1942SOL    HW117285   4.205   4.540  15.853  0.8359  0.8393  1.3901
 1942SOL    HW217286   4.230   4.570  15.708  0.0405  0.1685 -0.1789
 1943SOL     OW17287   3.622   3.782   1.094 -0.6192 -0.9170 -0.5623
 1943SOL    HW117288   3.713   3.762   1.117  0.1692  0.0595 -2.7867
 1943SOL    HW217289   3.621   3.768   1.000 -0.4610 -4.3068 -0.0599
 1944SOL     OW17290   4.115   2.618   4.048 -0.0831  0.2944 -0.9309
 1944SOL    HW117291   4.041   2.678   4.051 -0.0019  0.4219 -1.4942
 1944SOL    HW217292   4.063   2.545   4.080  0.0893  0.0135 -1.2979
 1945SOL     OW17293   4.659   3.683  17.601 -0.3583  0.0179 -0.3163
 1945SOL    HW117294   4.642   3.600  17.647  1.0071 -0.2726 -0.3405
 1945SOL    HW217295   4.639   3.749  17.668  0.6353 -0.0953  0.1029
 1946SOL     OW17296   1.768   4.206   7.834  0.1158 -0.1128  0.2694
 1946SOL    HW117297   1.707   4.277   7.812  1.2510  0.0496 -2.4136
 1946SOL    HW217298   1.799   4.184   7.746 -0.3290  3.6189 -0.8171
 1947SOL     OW17299   2.062   3.686  11.569 -0.3741 -0.0050 -0.4528
 1947SOL    HW117300   2.068   3.748  11.641  0.1616 -0.5911  0.0041
 1947SOL    HW217301   1.975   3.700  11.530 -0.0923 -1.3618 -1.5838
 1948SOL     OW17302   3.966   4.482  10.120  0.1703 -0.8002  0.6093
 1948SOL    HW117303   3.977   4.533  10.040  1.9107  0.5926  1.7253
 1948SOL    HW217304   4.037   4.524  10.169  2.5659 -2.0980 -1.7073
 1949SOL     OW17305   3.733   1.833   1.606  0.5155  0.3924  0.2123
 1949SOL    HW117306   3.812   1.855   1.656 -0.7190  2.8343  1.0974
 1949SOL    HW217307   3.752   1.742   1.583 -1.2846  0.2124 -0.5689
 1950SOL     OW17308   0.933   1.746   8.938  0.5799 -0.0364  0.0475
 1950SOL    HW117309   0.894   1.828   8.908 -1.0143 -0.8147  0.0149
 1950SOL    HW217310   0.973   1.774   9.021  2.8967 -1.6036 -0.5357
 1951SOL     OW17311   4.440   2.642   4.163  0.4997 -0.3275 -0.6559
 1951SOL    HW117312   4.467   2.631   4.072  0.4130 -3.7335 -0.2595
 1951SOL    HW217313   4.346   2.650   4.148  0.6727  2.1300 -0.4125
 1952SOL     OW17314   0.787   0.684   2.868 -0.2533  0.5769 -0.4254
 1952SOL    HW117315   0.822   0.617   2.808 -3.3088 -1.0403 -0.3681
 1952SOL    HW217316   0.860   0.746   2.866  0.8976 -0.7690  0.0477
 1953SOL     OW17317   3.012   4.067   6.538  0.3457  0.0820 -0.6583
 1953SOL    HW117318   3.107   4.073   6.529  0.2560 -0.7426 -2.1744
 1953SOL    HW217319   2.988   4.060   6.446  0.9542  1.5322 -0.9279
 1954SOL     OW17320   2.682   4.557   4.397 -0.2208  0.2176 -0.4063
 1954SOL    HW117321   2.657   4.575   4.306 -1.1355 -0.8978 -0.3822
 1954SOL    HW217322   2.656   4.634   4.446 -2.0606  0.0866 -1.1693
 1955SOL     OW17323   3.431   0.620  13.145  0.3641  0.3733 -0.1363
 1955SOL    HW117324   3.438   0.705  13.101 -0.2716  0.5816  0.1758
 1955SOL    HW217325   3.480   0.560  13.089 -1.0966  0.3575 -1.4046
 1956SOL     OW17326   3.358   1.746   5.965 -0.2272  0.2091  0.6691
 1956SOL    HW117327   3.367   1.662   6.009 -0.2845  0.7523  1.7100
 1956SOL    HW217328   3.265   1.763   5.973 -0.5186 -0.3972 -1.3427
 1957SOL     OW17329   3.734   0.537   2.495  0.4568 -0.5234  0.0178
 1957SOL    HW117330   3.810   0.540   2.553  0.8279 -0.5537 -0.4686
 1957SOL    HW217331   3.747   0.613   2.438 -0.3120 -0.2031  0.2723
 1958SOL     OW17332   2.484   2.056  12.137 -0.1572  0.1671 -0.1325
 1958SOL    HW117333   2.496   1.962  12.122  0.1062  0.3913 -1.3229
 1958SOL    HW217334   2.529   2.056  12.222 -1.5071 -2.0814  0.5816
 1959SOL     OW17335   2.697   1.122  16.022  0.3137  0.5844 -0.2705
 1959SOL    HW117336   2.714   1.208  15.982  0.9968  0.7164  0.3020
 1959SOL    HW217337   2.602   1.125  16.032  0.5936  0.4178  2.3066
 1960SOL     OW17338   2.333   0.370   2.966 -0.3506 -0.2904 -0.0748
 1960SOL    HW117339   2.411   0.398   3.013 -0.4777 -0.5539  0.2855
 1960SOL    HW217340   2.372   0.335   2.885 -1.6111 -1.0016 -0.3776
 1961SOL     OW17341   2.536   2.744   9.299  0.0133  0.2916  0.4074
 1961SOL    HW117342   2.467   2.806   9.321  0.5360  0.6625  0.9930
 1961SOL    HW217343   2.607   2.754   9.363  0.2924  1.4236 -0.0827
 1962SOL     OW17344   1.250   0.993   2.717 -0.7534  1.0807 -0.0322
 1962SOL    HW117345   1.263   1.088   2.722  2.2235  0.7036 -0.2904
 1962SOL    HW217346   1.315   0.972   2.650  0.2949 -0.8242  1.6006
 1963SOL     OW17347   1.972   3.248   8.172 -0.0711  0.0825 -0.2553
 1963SOL    HW117348   1.992   3.162   8.208  0.1508  1.0828  1.9533
 1963SOL    HW217349   2.019   3.249   8.088  1.5578  0.0279  0.6705
 1964SOL     OW17350   0.865   2.669   6.291 -0.1088  0.1780 -0.5552
 1964SOL    HW117351   0.826   2.743   6.243  1.2889 -0.0120 -1.9746
 1964SOL    HW217352   0.856   2.596   6.230  2.2163 -1.8201  1.4708
 1965SOL     OW17353   1.450   4.093   6.782 -0.3518 -0.3183 -0.3511
 1965SOL    HW117354   1.385   4.023   6.785 -0.5496 -0.0958  0.5293
 1965SOL    HW217355   1.414   4.157   6.720  0.5091  0.3047 -0.2081
 1966SOL     OW17356   2.593   1.291  14.562  0.0083 -0.4821  0.5960
 1966SOL    HW117357   2.678   1.248  14.563 -0.4666 -1.4409 -2.2897
 1966SOL    HW217358   2.534   1.216  14.552 -1.0896  0.2361  1.4904
 1967SOL     OW17359   2.776   2.322   1.469 -0.9446 -0.3330  0.5517
 1967SOL    HW117360   2.731   2.269   1.535 -2.0964  0.0521  0.0600
 1967SOL    HW217361   2.864   2.284   1.467 -0.3176  1.1728 -0.5879
 1968SOL     OW17362   1.318   3.703   2.914 -0.0289  0.1573  0.5673
 1968SOL    HW117363   1.411   3.728   2.916  0.2783 -1.0161  0.5863
 1968SOL    HW217364   1.282   3.783   2.952 -0.6226  0.2166 -0.1347
 1969SOL     OW17365   3.606   4.176   0.607 -0.4993  0.4722 -0.6477
 1969SOL    HW117366   3.664   4.150   0.536 -0.4718  0.1500 -0.5065
 1969SOL    HW217367   3.666   4.173   0.681 -0.5286 -2.6012 -0.7331
 1970SOL     OW17368   1.012   0.094   9.751 -0.2600 -0.5195 -0.1313
 1970SOL    HW117369   0.972   0.120   9.668 -1.0328  0.7714  0.6457
 1970SOL    HW217370   1.090   0.040   9.740 -0.6149 -1.2362  0.8573
 1971SOL     OW17371   1.325   2.164   3.067 -0.0824  0.9762  0.1054
 1971SOL    HW117372   1.285   2.145   3.152  0.5066  0.0742  0.1858
 1971SOL    HW217373   1.416   2.142   3.087 -0.7478  0.9920  3.0353
 1972SOL     OW17374   1.095   0.877  14.884 -0.0447 -0.2522  0.5144
 1972SOL    HW117375   1.113   0.805  14.944 -0.5954 -1.0912 -0.3335
 1972SOL    HW217376   1.175   0.923  14.910 -0.6449  0.6942  0.7215
 1973SOL     OW17377   4.486   3.187   7.849 -0.2097  0.1097 -0.7631
 1973SOL    HW117378   4.429   3.184   7.926  0.4204 -3.1683 -0.3938
 1973SOL    HW217379   4.476   3.097   7.816 -0.6556  0.0527 -0.4823
 1974SOL     OW17380   2.787   2.939  11.418 -0.0691  0.4439 -0.7096
 1974SOL    HW117381   2.841   3.014  11.441 -0.8783  0.6626  0.4793
 1974SOL    HW217382   2.789   2.942  11.322  1.2050  1.5459 -0.6396
 1975SOL     OW17383   4.431   0.747   4.388 -0.2908 -0.1293  0.0064
 1975SOL    HW117384   4.504   0.695   4.421  1.8038  2.3853 -0.6581
 1975SOL    HW217385   4.477   0.769   4.307  1.9891 -2.6330  0.6205
 1976SOL     OW17386   4.619   2.429   1.718 -0.2956 -0.0458  0.6269
 1976SOL    HW117387   4.537   2.423   1.669 -0.5706 -0.7772  1.1651
 1976SOL    HW217388   4.651   2.339   1.725  1.6858  0.8570  3.2733
 1977SOL     OW17389   3.906   0.527   7.948  0.1855 -0.5234  0.5329
 1977SOL    HW117390   3.827   0.527   8.001 -1.2312  2.2999 -1.5886
 1977SOL    HW217391   3.901   0.611   7.903 -0.2422  0.7505  2.9850
 1978SOL     OW17392   2.367   0.712   1.822 -0.0027 -0.4597 -0.1425
 1978SOL    HW117393   2.408   0.768   1.757 -2.6034  1.7615  0.1138
 1978SOL    HW217394   2.336   0.641   1.766 -0.3694 -1.3937  1.2601
 1979SOL     OW17395   2.199   4.261   6.620  0.5555 -0.6493 -0.1092
 1979SOL    HW117396   2.231   4.344   6.656 -2.7194  2.0588 -3.4275
 1979SOL    HW217397   2.258   4.203   6.669  0.8889  1.1100  1.6002
 1980SOL     OW17398   3.576   2.974   5.571 -0.4707 -0.3666 -0.2372
 1980SOL    HW117399   3.512   2.985   5.642 -0.4618 -0.6562 -0.1859
 1980SOL    HW217400   3.659   2.969   5.619  0.4245  2.2955 -1.5119
 1981SOL     OW17401   1.155   3.987   5.497 -0.5073  0.4583 -0.0545
 1981SOL    HW117402   1.250   3.979   5.509 -0.1254  1.5456 -2.2711
 1981SOL    HW217403   1.143   3.923   5.427 -0.5773 -2.2357  2.4038
 1982SOL     OW17404   3.049   0.499   3.537 -0.6200  0.0424 -0.0756
 1982SOL    HW117405   3.083   0.543   3.458 -0.7925  0.1711 -0.0789
 1982SOL    HW217406   2.978   0.562   3.549 -1.8211 -0.2435 -5.4836
 1983SOL     OW17407   0.768   1.507   1.963  0.3176 -0.2580  0.2544
 1983SOL    HW117408   0.731   1.432   1.916  0.8504  1.2930 -2.6001
 1983SOL    HW217409   0.859   1.505   1.931 -0.5767 -0.5482 -2.2830
 1984SOL     OW17410   4.519   0.701  16.435  0.1361  0.2368 -0.0326
 1984SOL    HW117411   4.499   0.644  16.510 -1.6461 -0.7770 -1.2732
 1984SOL    HW217412   4.605   0.667  16.411 -0.5897 -0.7433 -1.2653
 1985SOL     OW17413   2.679   4.535   9.417 -0.3902  0.0182 -0.0005
 1985SOL    HW117414   2.642   4.462   9.465  0.8951 -1.7411 -1.7089
 1985SOL    HW217415   2.654   4.604   9.479  0.3405 -0.1467  0.4735
 1986SOL     OW17416   2.108   2.172  11.301 -0.1092  0.5206  0.1646
 1986SOL    HW117417   2.087   2.088  11.343  0.0464  1.2098  1.6200
 1986SOL    HW217418   2.144   2.225  11.372  0.5642 -2.4669  2.0468
 1987SOL     OW17419   2.544   4.129   6.495  0.4137  0.4371  0.2520
 1987SOL    HW117420   2.621   4.133   6.551 -0.8519  0.3046  2.0000
 1987SOL    HW217421   2.582   4.057   6.445  0.4464  1.3763 -1.0697
 1988SOL     OW17422   3.739   4.492   7.281 -0.1095  0.8277  0.1597
 1988SOL    HW117423   3.814   4.444   7.317 -2.2274 -2.1341  0.6039
 1988SOL    HW217424   3.755   4.585   7.298  0.0725  0.9682 -0.7772
 1989SOL     OW17425   1.606   3.005   6.329 -0.4465 -0.3649 -0.6495
 1989SOL    HW117426   1.541   2.950   6.372 -0.5691 -1.3752 -2.1385
 1989SOL    HW217427   1.678   3.002   6.393 -1.2024 -0.2548  0.2037
 1990SOL     OW17428   0.740   2.766   9.716  0.0775  0.4422 -0.8763
 1990SOL    HW117429   0.717   2.775   9.809  0.1454  0.0393 -0.8207
 1990SOL    HW217430   0.689   2.835   9.674  1.4565  0.7766 -1.9881
 1991SOL     OW17431   4.615   3.128  10.706  0.0776  0.6872  0.1155
 1991SOL    HW117432   4.618   3.090  10.794  1.2898  1.4882  0.4181
 1991SOL    HW217433   4.645   3.058  10.648 -0.5003  1.0495 -0.6301
 1992SOL     OW17434   0.300   1.367  14.936  0.2288  0.5919 -0.7345
 1992SOL    HW117435   0.328   1.371  14.845 -1.0225  0.3051 -1.1329
 1992SOL    HW217436   0.204   1.378  14.934  0.1277 -0.0120  0.7065
 1993SOL     OW17437   0.030   0.293   5.827 -0.0929  0.1972 -0.5322
 1993SOL    HW117438   4.657   0.274   5.840 -0.6846  1.9076 -2.1456
 1993SOL    HW217439   0.038   0.302   5.732  1.6867 -0.3304 -0.4376
 1994SOL     OW17440   2.165   4.385  12.825  0.3492 -0.3094 -0.1101
 1994SOL    HW117441   2.241   4.330  12.843 -0.6297 -0.8211  2.4270
 1994SOL    HW217442   2.100   4.316  12.836 -1.5656  1.6548  1.0191
 1995SOL     OW17443   0.778   3.272   2.753  0.5962 -0.2023  0.7842
 1995SOL    HW117444   0.873   3.272   2.769  0.8903 -2.5911 -0.8420
 1995SOL    HW217445   0.742   3.312   2.832  2.0973 -0.8484  1.7870
 1996SOL     OW17446   1.280   1.701   6.260 -0.0792  0.2829 -0.0639
 1996SOL    HW117447   1.370   1.720   6.288  1.2581 -1.4185 -3.1202
 1996SOL    HW217448   1.284   1.754   6.180 -0.8299 -0.4999 -0.6178
 1997SOL     OW17449   2.626   0.704   7.277  0.2976  0.8440 -0.0273
 1997SOL    HW117450   2.686   0.742   7.213  2.0170 -2.6443 -0.4840
 1997SOL    HW217451   2.542   0.699   7.232  0.5766  1.2820 -0.6053
 1998SOL     OW17452   4.191   0.847  11.130  0.0835 -0.0802  0.2735
 1998SOL    HW117453   4.273   0.796  11.132 -0.3158 -0.7518 -0.5419
 1998SOL    HW217454   4.138   0.825  11.206  0.5271 -1.4167  0.1909
 1999SOL     OW17455   4.213   1.479   9.443 -0.5482  0.1446 -0.1884
 1999SOL    HW117456   4.263   1.560   9.432 -2.9988  1.0438 -5.0615
 1999SOL    HW217457   4.231   1.446   9.531 -1.3779 -1.1953 -0.5200
 2000SOL     OW17458   3.176   2.968   7.984 -0.2273 -0.2420 -0.0908
 2000SOL    HW117459   3.156   2.959   7.891 -1.4929  1.4768  0.0151
 2000SOL    HW217460   3.140   2.885   8.016 -1.3517 -0.0683 -0.8920
 2001SOL     OW17461   3.240   2.184  12.747  0.0822  0.0346 -0.4956
 2001SOL    HW117462   3.282   2.168  12.662  0.4895 -0.6761 -0.1615
 2001SOL    HW217463   3.167   2.236  12.713  0.7253  0.2780 -1.5167
 2002SOL     OW17464   3.786   1.538   8.682 -0.1363 -0.4404  0.0384
 2002SOL    HW117465   3.855   1.596   8.715 -1.5105 -0.0332  2.1680
 2002SOL    HW217466   3.843   1.466   8.654 -0.9481 -1.2064  0.3423
 2003SOL     OW17467   4.296   3.920   5.051  0.4492  0.3401 -0.2557
 2003SOL    HW117468   4.361   3.925   4.980 -1.0425  2.7855 -1.4431
 2003SOL    HW217469   4.342   3.875   5.121 -1.1687  0.4987  0.9057
 2004SOL     OW17470   4.340   4.713  15.214 -0.0824  0.7201  0.1784
 2004SOL    HW117471   4.262   0.045  15.191  0.0704  1.2177  0.7838
 2004SOL    HW217472   4.306   4.624  15.226  0.4811  0.3549 -0.9513
 2005SOL     OW17473   0.374   3.019   5.631 -0.0170  0.2858 -0.0546
 2005SOL    HW117474   0.370   2.951   5.697 -1.0234  0.6805  0.2962
 2005SOL    HW217475   0.280   3.030   5.611 -0.4248 -1.6593  0.8644
 2006SOL     OW17476   4.551   2.537  14.321  0.6717 -0.6093  0.4943
 2006SOL    HW117477   4.514   2.501  14.241 -2.1241  1.7587  0.7524
 2006SOL    HW217478   4.480   2.590  14.356  0.3382  0.4375 -1.8394
 2007SOL     OW17479   2.155   4.238   8.448  0.1655 -0.0175  0.2816
 2007SOL    HW117480   2.077   4.197   8.410  1.1589 -1.9162  0.2819
 2007SOL    HW217481   2.112   4.296   8.510  1.4559  0.5202  0.6740
 2008SOL     OW17482   0.257   1.194  10.918  0.3678  0.3232  0.2917
 2008SOL    HW117483   0.323   1.207  10.849  1.5166  3.9444  2.0663
 2008SOL    HW217484   0.280   1.269  10.974  1.1340 -0.3603  0.8872
 2009SOL     OW17485   2.962   4.346   8.983  0.4461 -0.2007  0.3936
 2009SOL    HW117486   3.016   4.266   8.984  0.6467 -0.1037 -1.2722
 2009SOL    HW217487   3.027   4.415   8.995  0.1967 -0.0156  0.6602
 2010SOL     OW17488   3.690   0.771   5.073 -0.3051  0.6060  0.4307
 2010SOL    HW117489   3.638   0.736   5.001 -0.2737  0.7212  0.3527
 2010SOL    HW217490   3.719   0.694   5.122  1.2616  0.9015 -0.0498
 2011SOL     OW17491   4.052   4.399   2.170  0.4919 -0.2139 -0.2579
 2011SOL    HW117492   4.096   4.482   2.184  0.7927 -0.6191  1.2718
 2011SOL    HW217493   4.120   4.344   2.131  1.1769 -0.5355  1.3663
 2012SOL     OW17494   0.198   0.193  15.240  0.0142  0.4160  0.1164
 2012SOL    HW117495   0.165   0.185  15.151 -2.9411 -0.2642  1.2417
 2012SOL    HW217496   0.119   0.218  15.289 -0.7756  2.3788 -2.1431
 2013SOL     OW17497   2.246   3.997   9.771 -0.3512 -0.1460  0.2971
 2013SOL    HW117498   2.241   3.910   9.732  1.8699  0.1176 -0.5501
 2013SOL    HW217499   2.222   3.966   9.859 -1.1896 -1.0319 -0.2391
 2014SOL     OW17500   2.705   4.560  17.418  0.2605 -0.2518 -0.0835
 2014SOL    HW117501   2.654   4.639  17.434  0.4281 -0.1135 -0.2323
 2014SOL    HW217502   2.794   4.582  17.446  1.1838 -1.1990 -2.3311
 2015SOL     OW17503   3.319   3.320   0.644  0.1341 -0.3672 -0.1059
 2015SOL    HW117504   3.285   3.402   0.610  1.4318 -0.4607 -1.6468
 2015SOL    HW217505   3.264   3.323   0.722 -0.8070  0.0813 -0.7886
 2016SOL     OW17506   1.254   2.687   2.912  0.0424  0.0809 -0.7112
 2016SOL    HW117507   1.342   2.658   2.890 -0.2006 -0.4828 -0.9360
 2016SOL    HW217508   1.276   2.740   2.989  2.5273 -0.7997 -0.8072
 2017SOL     OW17509   3.042   3.868   6.756 -0.0640 -0.5907 -0.2056
 2017SOL    HW117510   3.075   3.949   6.794  1.7274 -0.9732 -0.9586
 2017SOL    HW217511   3.027   3.902   6.667 -2.6171 -1.2877 -0.0563
 2018SOL     OW17512   3.691   3.365   4.701  0.1283  0.3244 -0.8350
 2018SOL    HW117513   3.684   3.391   4.793 -1.0343 -1.4620 -0.4160
 2018SOL    HW217514   3.598   3.361   4.680  0.1690  0.1919 -0.9883
 2019SOL     OW17515   1.704   2.612  10.884  0.5180 -0.0133  0.4998
 2019SOL    HW117516   1.611   2.614  10.859  0.4078  0.8017  1.0064
 2019SOL    HW217517   1.696   2.560  10.964 -0.3792  0.5435  0.7703
 2020SOL     OW17518   2.140   3.601   3.677  0.9302 -0.4686  0.9317
 2020SOL    HW117519   2.203   3.652   3.626  0.7285 -2.0569 -0.9259
 2020SOL    HW217520   2.059   3.627   3.633  1.7723  3.9496  2.0059
 2021SOL     OW17521   2.146   0.377   0.645  0.6860  0.1122 -0.4023
 2021SOL    HW117522   2.156   0.285   0.668 -0.2415  0.1073 -0.0525
 2021SOL    HW217523   2.055   0.394   0.668  0.6517 -2.2374  1.1563
 2022SOL     OW17524   2.344   2.062   9.234  0.2939  0.6972  0.2964
 2022SOL    HW117525   2.366   1.972   9.209 -3.9042 -0.1873 -0.2680
 2022SOL    HW217526   2.323   2.101   9.149 -2.4076  1.8538  1.5102
 2023SOL     OW17527   4.142   0.712   9.940  0.0961 -0.9061 -0.2033
 2023SOL    HW117528   4.062   0.685   9.896  1.1092 -1.9411 -1.4133
 2023SOL    HW217529   4.155   0.627   9.983  3.3327 -0.5736 -0.5085
 2024SOL     OW17530   1.139   2.639   2.225 -0.5070  0.4397 -0.1871
 2024SOL    HW117531   1.231   2.648   2.248 -0.3107  0.0978 -0.8278
 2024SOL    HW217532   1.152   2.650   2.131  1.3366 -1.9127 -0.2129
 2025SOL     OW17533   3.396   3.357   4.143  0.3127  0.4635  0.0147
 2025SOL    HW117534   3.462   3.328   4.206  0.6458  3.5282  1.0796
 2025SOL    HW217535   3.323   3.395   4.193 -0.3907 -1.6528  0.5772
 2026SOL     OW17536   1.472   3.616  14.405  0.0869  0.2145 -0.1639
 2026SOL    HW117537   1.483   3.599  14.311 -0.3574 -0.1662 -0.1411
 2026SOL    HW217538   1.523   3.542  14.439 -0.4563 -0.3943 -0.6744
 2027SOL     OW17539   0.043   3.738   6.394 -0.0416  0.3044 -0.0170
 2027SOL    HW117540   0.011   3.805   6.454 -1.1772  1.5121 -1.9670
 2027SOL    HW217541   0.103   3.796   6.346 -1.0183  0.8197 -0.6077
 2028SOL     OW17542   4.501   2.300   9.591 -0.4882  0.2869 -0.4879
 2028SOL    HW117543   4.586   2.256   9.591 -1.3931 -1.4936  3.4098
 2028SOL    HW217544   4.488   2.313   9.685 -0.1783 -0.7271 -0.3075
 2029SOL     OW17545   1.303   4.662  13.429  0.1990  0.1254  0.0979
 2029SOL    HW117546   1.343   4.661  13.516 -0.6520 -1.5269  0.4721
 2029SOL    HW217547   1.324   4.574  13.397  1.4761  0.2546  0.5976
 2030SOL     OW17548   4.663   0.450  17.619 -0.3065  0.0013  0.0247
 2030SOL    HW117549   4.689   0.532  17.577 -1.1798  0.8853  1.1876
 2030SOL    HW217550   4.568   0.450  17.608 -0.2580  3.4072 -0.4034
 2031SOL     OW17551   1.567   2.055  17.218  0.1323  0.0530  0.0417
 2031SOL    HW117552   1.547   2.098  17.135  3.3326 -0.8381 -1.1759
 2031SOL    HW217553   1.628   2.111  17.265 -0.4096  0.0319  0.7612
 2032SOL     OW17554   0.785   1.251   7.714  0.2253  0.4729 -0.6028
 2032SOL    HW117555   0.869   1.281   7.749  1.0173 -1.9623 -0.4314
 2032SOL    HW217556   0.760   1.317   7.650 -0.5805  1.8307  1.1135
 2033SOL     OW17557   3.394   0.528   5.902  0.3469 -0.1053 -0.5166
 2033SOL    HW117558   3.408   0.515   5.808 -3.4191 -4.6264 -0.4857
 2033SOL    HW217559   3.399   0.436   5.929 -0.0278  0.1178  0.3263
 2034SOL     OW17560   3.349   1.056   8.879  0.2129  0.3014 -0.0288
 2034SOL    HW117561   3.410   1.060   8.806  0.3841 -0.3141  0.0800
 2034SOL    HW217562   3.284   1.004   8.833 -0.5875 -0.6298  2.1192
 2035SOL     OW17563   1.013   3.097   7.652  0.2893 -0.4271 -0.1087
 2035SOL    HW117564   0.939   3.157   7.644  1.3691  0.8291 -0.5890
 2035SOL    HW217565   1.055   3.120   7.735 -1.9132 -3.8412  1.9376
 2036SOL     OW17566   0.607   2.929   0.154 -0.0759 -0.0134 -0.1802
 2036SOL    HW117567   0.519   2.948   0.121 -0.5989  1.5520  2.1270
 2036SOL    HW217568   0.622   3.007   0.207 -0.6015 -0.6116  0.8377
 2037SOL     OW17569   2.010   1.014   3.929  1.0270 -0.0692  0.0036
 2037SOL    HW117570   2.005   0.922   3.953  1.5445  0.1997  1.1549
 2037SOL    HW217571   1.979   1.038   4.016  0.8475  0.2921 -0.1581
 2038SOL     OW17572   1.456   0.816   5.546 -0.1033 -0.2338 -0.2473
 2038SOL    HW117573   1.466   0.726   5.578  1.7497 -0.6934 -2.1065
 2038SOL    HW217574   1.530   0.857   5.591 -1.9077  0.7218  1.8611
 2039SOL     OW17575   0.858   0.841   7.891  0.9070  0.2327  0.1063
 2039SOL    HW117576   0.846   0.863   7.983  1.5657 -0.2566  0.3105
 2039SOL    HW217577   0.908   0.912   7.851  1.0306  0.4849  0.7076
 2040SOL     OW17578   4.543   1.364   1.926 -0.2303 -0.4789 -0.3526
 2040SOL    HW117579   4.517   1.277   1.956 -0.6796  0.4058  1.8281
 2040SOL    HW217580   4.573   1.358   1.835  0.9190 -0.1134  0.0036
 2041SOL     OW17581   2.909   3.765   6.356  0.1039 -0.9618  0.4474
 2041SOL    HW117582   2.886   3.857   6.348  1.6375 -0.6312 -0.1534
 2041SOL    HW217583   2.912   3.739   6.264 -2.6621  2.6029 -0.6298
 2042SOL     OW17584   4.284   0.806   6.685 -0.4682  0.1543 -0.3954
 2042SOL    HW117585   4.194   0.838   6.675 -0.1193  0.8063 -1.4206
 2042SOL    HW217586   4.299   0.774   6.595 -1.8880 -1.6179 -0.0180
 2043SOL     OW17587   4.446   0.164   4.351  0.3531  0.1678  0.6357
 2043SOL    HW117588   4.415   0.142   4.439  0.4260 -0.7209  0.4453
 2043SOL    HW217589   4.505   0.089   4.342 -0.1360 -0.1531  0.0813
 2044SOL     OW17590   2.756   0.266  11.330  0.0238 -0.4868 -0.2189
 2044SOL    HW117591   2.679   0.288  11.278 -0.6580 -0.2234  0.8977
 2044SOL    HW217592   2.768   0.345  11.381 -0.8387 -1.3721  1.3424
 2045SOL     OW17593   1.039   1.536   5.926  0.4818  0.6109  0.1746
 2045SOL    HW117594   1.052   1.630   5.915  1.9186  0.2488 -1.1749
 2045SOL    HW217595   1.098   1.508   5.996  0.1326 -2.2177 -0.6448
 2046SOL     OW17596   1.764   1.330   2.474  0.2611 -0.1266 -0.5857
 2046SOL    HW117597   1.789   1.384   2.549  1.0958 -1.6575  0.2385
 2046SOL    HW217598   1.705   1.390   2.428 -1.3932 -1.2067  0.1186
 2047SOL     OW17599   2.270   1.854   4.999  0.1525 -0.1656  0.0332
 2047SOL    HW117600   2.243   1.912   4.928  1.9211  1.1238  0.3977
 2047SOL    HW217601   2.364   1.862   4.981 -0.2213 -0.7982 -2.2159
 2048SOL     OW17602   1.691   2.316   5.863 -0.2080 -0.7940  0.4231
 2048SOL    HW117603   1.607   2.272   5.851 -0.0214 -0.7865 -0.9742
 2048SOL    HW217604   1.659   2.406   5.855 -0.3224 -1.0102 -1.6454
 2049SOL     OW17605   0.222   3.389   3.984 -0.3822 -0.5777  0.0929
 2049SOL    HW117606   0.310   3.353   3.974 -0.6389 -0.8706 -1.2011
 2049SOL    HW217607   0.235   3.481   3.959 -1.2995 -0.4872 -0.0732
 2050SOL     OW17608   3.898   3.489   3.547  0.5916 -0.2431  0.0867
 2050SOL    HW117609   3.979   3.438   3.557  0.9636  0.1879 -0.7238
 2050SOL    HW217610   3.859   3.426   3.486  0.4381 -3.0255  3.0537
 2051SOL     OW17611   3.409   3.057   5.371 -0.0902  0.3077  0.5402
 2051SOL    HW117612   3.483   3.052   5.432  0.7448 -0.1186 -0.5035
 2051SOL    HW217613   3.349   3.119   5.412  0.4225  1.1595  0.0031
 2052SOL     OW17614   2.687   1.369   4.662  0.5550 -0.7287 -0.0186
 2052SOL    HW117615   2.775   1.374   4.625  0.1573  4.4188 -0.2408
 2052SOL    HW217616   2.646   1.401   4.581  0.0746  0.4599  0.6893
 2053SOL     OW17617   3.318   1.881  16.166 -0.1282  0.0502 -0.0735
 2053SOL    HW117618   3.380   1.915  16.231  0.6543 -0.0007 -0.7997
 2053SOL    HW217619   3.244   1.941  16.178 -0.8337 -1.0287  0.9574
 2054SOL     OW17620   0.539   2.601  16.940 -0.0677 -0.1359  0.0358
 2054SOL    HW117621   0.505   2.580  16.853 -2.8859 -1.1268  1.3793
 2054SOL    HW217622   0.464   2.594  17.000  1.1885  3.8859  2.1171
 2055SOL     OW17623   2.264   3.066  11.976  0.6587  0.2743  0.3217
 2055SOL    HW117624   2.350   3.107  11.988  1.1642 -0.0312 -2.1797
 2055SOL    HW217625   2.264   2.976  12.009 -0.5527 -0.7604 -2.4731
 2056SOL     OW17626   2.031   0.332   3.706  0.5359  0.4900 -0.2540
 2056SOL    HW117627   2.032   0.272   3.632 -1.1806  0.6459 -0.4031
 2056SOL    HW217628   2.117   0.372   3.694  0.6940  0.5154  0.8978
 2057SOL     OW17629   3.582   2.852   8.066 -0.2138 -0.3827  0.1960
 2057SOL    HW117630   3.537   2.936   8.054 -0.2765 -0.3378  0.7632
 2057SOL    HW217631   3.672   2.871   8.041  0.4236 -1.0805  1.9571
 2058SOL     OW17632   0.233   0.899  14.412 -0.3677 -0.2141  0.0093
 2058SOL    HW117633   0.235   0.807  14.387  3.0195 -0.3383  0.7054
 2058SOL    HW217634   0.210   0.892  14.504  1.7286 -1.5208  0.4222
 2059SOL     OW17635   1.752   3.344   5.064  0.2525  0.0333 -0.1100
 2059SOL    HW117636   1.737   3.251   5.077 -2.9029  0.6511  0.7784
 2059SOL    HW217637   1.800   3.345   4.982 -0.9207  0.2817 -0.8032
 2060SOL     OW17638   1.514   3.513   7.812  0.9141  0.0293  0.6205
 2060SOL    HW117639   1.448   3.469   7.759 -1.7957  3.6520  0.9381
 2060SOL    HW217640   1.565   3.439   7.845 -0.0600 -1.5751 -1.4754
 2061SOL     OW17641   1.942   3.172  13.163  0.5110 -0.3839 -0.4254
 2061SOL    HW117642   1.891   3.164  13.244  1.9352 -1.6328  0.3411
 2061SOL    HW217643   2.011   3.229  13.198  1.8658 -3.0409  1.1765
 2062SOL     OW17644   2.666   1.040  10.339 -0.2703  0.6150 -0.0878
 2062SOL    HW117645   2.621   1.118  10.307  0.9618  1.5081  0.4088
 2062SOL    HW217646   2.743   1.083  10.375 -0.0910 -0.4883  0.8514
 2063SOL     OW17647   1.643   0.780   7.093 -0.1645 -0.0971 -0.1167
 2063SOL    HW117648   1.640   0.709   7.029  2.3746  2.1362 -2.7282
 2063SOL    HW217649   1.672   0.751   7.179 -1.9059 -0.5847  0.3218
 2064SOL     OW17650   2.142   0.985   9.886  1.1604 -0.2307 -0.0080
 2064SOL    HW117651   2.186   0.905   9.855  0.0099 -0.7047 -0.4162
 2064SOL    HW217652   2.214   1.045   9.866 -0.4812  1.3773 -1.0393
 2065SOL     OW17653   4.699   3.070   0.402 -0.0650 -0.1417 -0.6353
 2065SOL    HW117654   4.649   3.114   0.470  1.9513  0.8641  0.1862
 2065SOL    HW217655   4.671   2.978   0.404 -1.1726  0.2201  0.3707
 2066SOL     OW17656   0.976   4.041   3.625  0.2118 -0.0122 -0.2558
 2066SOL    HW117657   1.068   4.056   3.648  0.0024  1.1281 -0.1572
 2066SOL    HW217658   0.976   4.001   3.538 -1.2084  0.2971 -0.3926
 2067SOL     OW17659   0.596   0.556  11.486  0.4228  0.6283  0.0383
 2067SOL    HW117660   0.550   0.569  11.569  1.5116 -0.9778  0.8950
 2067SOL    HW217661   0.668   0.613  11.511 -1.0432  1.6910  1.8641
 2068SOL     OW17662   2.159   2.556   6.409  0.0159 -0.3258 -0.2751
 2068SOL    HW117663   2.150   2.504   6.490 -0.9848  1.1445  0.5612
 2068SOL    HW217664   2.106   2.635   6.423 -0.3091 -0.3306 -1.4532
 2069SOL     OW17665   4.482   3.546   5.949 -0.2770 -0.2027 -0.8023
 2069SOL    HW117666   4.570   3.508   5.952 -1.0588 -1.9580  0.2687
 2069SOL    HW217667   4.435   3.485   6.006 -2.5807  1.8334 -0.5245
 2070SOL     OW17668   2.788   1.193   3.291  0.2786  0.2148  0.7180
 2070SOL    HW117669   2.761   1.184   3.382  1.0483  0.4119  0.9660
 2070SOL    HW217670   2.864   1.134   3.289 -0.8181 -1.1843  0.1351
 2071SOL     OW17671   0.082   0.240  12.847  0.7109  0.3978  0.2804
 2071SOL    HW117672   0.170   0.207  12.829  0.4350  0.0823 -0.4561
 2071SOL    HW217673   0.092   0.335  12.837  1.5165  0.0869 -1.8258
 2072SOL     OW17674   1.670   3.143   3.836 -0.2072  0.2184 -0.2279
 2072SOL    HW117675   1.734   3.209   3.861  1.6125 -1.2651 -0.9804
 2072SOL    HW217676   1.592   3.174   3.882 -0.8325 -1.4465 -0.1285
 2073SOL     OW17677   2.091   2.388   3.203 -0.4219 -0.2175  0.3524
 2073SOL    HW117678   2.033   2.458   3.174  2.9980  2.8245  0.8090
 2073SOL    HW217679   2.103   2.340   3.121 -1.1440 -0.2207  0.2520
 2074SOL     OW17680   1.326   0.360  10.134 -0.0499 -0.4148  0.6939
 2074SOL    HW117681   1.402   0.418  10.142  0.9326 -1.4294 -1.0663
 2074SOL    HW217682   1.365   0.279  10.167  0.4525 -0.5594 -0.2418
 2075SOL     OW17683   2.368   1.157   2.921  0.1680  0.0098 -0.3091
 2075SOL    HW117684   2.458   1.186   2.938  0.3515 -1.1436  0.6804
 2075SOL    HW217685   2.323   1.241   2.910 -1.6288 -0.9127 -0.0481
 2076SOL     OW17686   4.463   4.119   2.992 -0.1340 -0.5944 -0.0759
 2076SOL    HW117687   4.477   4.191   3.053  0.0594  0.0105 -0.8411
 2076SOL    HW217688   4.554   4.090   2.987 -0.1279 -0.8701  1.3769
 2077SOL     OW17689   2.755   1.528   3.561 -0.1925  0.1209  0.1291
 2077SOL    HW117690   2.733   1.570   3.478 -0.5712  1.3909  0.8694
 2077SOL    HW217691   2.850   1.522   3.557 -0.0013  3.0441  0.6563
 2078SOL     OW17692   2.428   2.981   1.583 -0.3329 -0.2392 -0.1453
 2078SOL    HW117693   2.512   2.952   1.547 -1.0030 -0.9649 -1.1188
 2078SOL    HW217694   2.413   2.906   1.640 -1.6952  0.9459  1.0499
 2079SOL     OW17695   1.800   0.712   1.036 -0.8249 -0.0082 -0.7008
 2079SOL    HW117696   1.870   0.650   1.014  0.0521  0.0518  1.9966
 2079SOL    HW217697   1.724   0.655   1.046 -0.3690 -0.2919  1.2054
 2080SOL     OW17698   4.425   1.672   5.446 -0.4722 -0.1406 -0.4500
 2080SOL    HW117699   4.468   1.605   5.394  0.6579  2.1369 -2.4369
 2080SOL    HW217700   4.477   1.682   5.526  0.3407  0.4516 -1.0514
 2081SOL     OW17701   2.417   1.124   6.391  0.0524 -0.3425  0.0391
 2081SOL    HW117702   2.418   1.034   6.422  0.8997 -0.2013  0.4366
 2081SOL    HW217703   2.324   1.148   6.383  0.1383 -0.1718 -0.4339
 2082SOL     OW17704   2.256   0.001   9.521  0.2378 -0.0213  0.1993
 2082SOL    HW117705   2.168   4.718   9.557  0.6784 -0.6841  1.2478
 2082SOL    HW217706   2.278   4.633   9.555  0.4269  0.6389  1.7791
 2083SOL     OW17707   2.918   4.574  10.606 -0.0594 -0.1769  0.1201
 2083SOL    HW117708   2.979   4.646  10.622  0.0914 -0.1586 -0.5335
 2083SOL    HW217709   2.970   4.531  10.539 -0.5012  1.0098 -0.9820
 2084SOL     OW17710   0.735   2.483   8.447 -0.1454 -0.3327  0.1447
 2084SOL    HW117711   0.699   2.544   8.512  0.4268  0.4327 -0.2649
 2084SOL    HW217712   0.823   2.519   8.443 -0.3538  0.2511  0.8114
 2085SOL     OW17713   3.914   3.003   8.980  0.7480 -0.2416 -0.1322
 2085SOL    HW117714   3.995   2.954   8.991  0.0349 -1.4645 -0.2948
 2085SOL    HW217715   3.936   3.037   8.893 -0.4697  0.9177  0.0046
 2086SOL     OW17716   1.795   3.190   1.666 -0.1868  0.3088 -0.2546
 2086SOL    HW117717   1.729   3.258   1.652 -0.2041  0.3628  0.0971
 2086SOL    HW217718   1.826   3.176   1.576 -1.6801  2.7803 -1.1637
 2087SOL     OW17719   0.967   3.066   5.094 -0.1097 -0.6522 -0.1306
 2087SOL    HW117720   0.939   3.068   5.186  1.3947  0.4639  0.2955
 2087SOL    HW217721   0.917   3.141   5.063  1.3900  0.0376 -0.8529
 2088SOL     OW17722   0.422   2.276   2.990 -0.1526 -0.2859 -0.2904
 2088SOL    HW117723   0.414   2.341   3.061 -0.7595  0.7749 -1.3418
 2088SOL    HW217724   0.509   2.245   3.017  0.0864 -0.3061 -1.1013
 2089SOL     OW17725   3.318   4.405   8.892  0.1463 -0.5226 -0.2816
 2089SOL    HW117726   3.393   4.350   8.918  2.1707  2.5715  0.4450
 2089SOL    HW217727   3.360   4.491   8.886 -0.5987 -0.2446 -1.3597
 2090SOL     OW17728   2.632   1.899   7.107 -0.1073  0.9340 -0.2415
 2090SOL    HW117729   2.659   1.932   7.192 -0.9706 -0.2119  0.4800
 2090SOL    HW217730   2.598   1.975   7.059  0.3703  0.3213 -1.5580
 2091SOL     OW17731   1.092   4.492  16.164  0.0809  0.0347 -0.0863
 2091SOL    HW117732   1.089   4.424  16.231  2.4349 -0.7495 -0.7686
 2091SOL    HW217733   1.185   4.489  16.144 -0.1268  0.7659 -1.2086
 2092SOL     OW17734   1.501   0.170   6.435  0.7760 -0.7014 -0.1681
 2092SOL    HW117735   1.443   0.133   6.502 -0.3705 -1.7642 -1.7385
 2092SOL    HW217736   1.511   0.092   6.379 -0.7891 -1.7676  1.0418
 2093SOL     OW17737   4.200   1.036  13.226 -0.5883  0.0526 -0.6315
 2093SOL    HW117738   4.196   0.995  13.139 -2.2889  0.4944 -0.7521
 2093SOL    HW217739   4.211   0.963  13.287  3.0369 -0.3243 -1.7016
 2094SOL     OW17740   2.961   1.594   4.793  0.3214 -0.0925 -0.2331
 2094SOL    HW117741   3.036   1.606   4.851 -1.3555 -1.2750  2.1776
 2094SOL    HW217742   3.010   1.537   4.734  0.1643 -1.6237  1.1111
 2095SOL     OW17743   4.185   1.822   7.173  0.0679 -0.3555 -0.3893
 2095SOL    HW117744   4.128   1.834   7.249 -1.1182  0.1376 -1.3651
 2095SOL    HW217745   4.139   1.874   7.108  0.6755 -0.9518 -1.2856
 2096SOL     OW17746   1.506   4.571   5.231 -0.1645  0.3236 -0.5871
 2096SOL    HW117747   1.454   4.499   5.268 -0.8682  0.0687 -2.0959
 2096SOL    HW217748   1.513   4.544   5.140  1.0412  1.7801 -0.9166
 2097SOL     OW17749   1.233   1.460   6.121  0.8121 -0.2437  0.4221
 2097SOL    HW117750   1.179   1.416   6.187  2.0059 -0.2725  1.3878
 2097SOL    HW217751   1.263   1.537   6.169  2.0790 -0.1121 -0.5750
 2098SOL     OW17752   3.705   2.237   4.967  0.3042  0.4300  0.2642
 2098SOL    HW117753   3.795   2.210   4.985  0.9117  1.5053 -1.1340
 2098SOL    HW217754   3.713   2.249   4.872 -1.4851 -0.3273  0.0167
 2099SOL     OW17755   0.535   4.238   2.596 -0.0935 -0.2101 -0.5252
 2099SOL    HW117756   0.603   4.266   2.535 -0.8080  0.4860 -1.0107
 2099SOL    HW217757   0.462   4.232   2.533 -0.8932 -0.6300  0.4434
 2100SOL     OW17758   0.727   1.451   5.614 -0.5934  0.1802  0.8136
 2100SOL    HW117759   0.819   1.475   5.598 -0.7518  0.2155 -0.0525
 2100SOL    HW217760   0.701   1.415   5.530  0.0824  0.3373  0.5374
 2101SOL     OW17761   2.504   0.512   1.447  0.0075 -0.6381 -0.0005
 2101SOL    HW117762   2.458   0.493   1.528  0.1687 -0.1757  0.1979
 2101SOL    HW217763   2.434   0.563   1.407  0.8000  1.5984  1.5131
 2102SOL     OW17764   4.661   0.025  16.100  0.6647 -0.1316  0.5211
 2102SOL    HW117765   4.651   0.034  16.005 -0.0277 -1.9740  0.4165
 2102SOL    HW217766   4.693   0.115  16.111  0.8055  0.0818 -1.5215
 2103SOL     OW17767   1.044   0.391   0.462  0.1200  0.4252  0.0745
 2103SOL    HW117768   1.121   0.440   0.434 -1.8846  2.0125 -2.6858
 2103SOL    HW217769   1.024   0.406   0.554 -3.2930  0.1206 -0.6221
 2104SOL     OW17770   0.323   1.397   3.125  0.8725 -0.0749  0.2658
 2104SOL    HW117771   0.268   1.470   3.097  0.6720  0.5041  2.2323
 2104SOL    HW217772   0.277   1.337   3.184  0.0251  0.6591  0.3385
 2105SOL     OW17773   1.687   2.832   8.862 -0.2271 -0.1691  0.2547
 2105SOL    HW117774   1.614   2.858   8.919  0.0473 -1.3635  1.1624
 2105SOL    HW217775   1.743   2.909   8.850  1.5937 -1.0521  2.8742
 2106SOL     OW17776   1.812   4.133  11.281 -0.3500  0.5355  0.6644
 2106SOL    HW117777   1.763   4.216  11.282  0.3798  0.9830 -0.1793
 2106SOL    HW217778   1.817   4.109  11.373 -0.2523  1.5356  0.9246
 2107SOL     OW17779   2.511   3.013   6.843  0.1782 -0.1787  0.4636
 2107SOL    HW117780   2.501   3.075   6.771  2.7954  0.1255  0.3923
 2107SOL    HW217781   2.586   2.962   6.813 -0.6146 -1.0748 -0.0185
 2108SOL     OW17782   2.225   1.410   2.203  0.7246  0.1199 -0.3452
 2108SOL    HW117783   2.212   1.505   2.203  0.0018  0.0203 -0.0504
 2108SOL    HW217784   2.150   1.382   2.255  0.2285  2.9443  0.4510
 2109SOL     OW17785   0.196   0.756  10.811  0.3304  0.3689  0.3486
 2109SOL    HW117786   0.166   0.830  10.758 -0.2562  0.1380  0.3609
 2109SOL    HW217787   0.253   0.710  10.749  0.5812 -1.4306  1.9120
 2110SOL     OW17788   3.588   0.579   2.895 -0.2355  0.1679 -0.9697
 2110SOL    HW117789   3.675   0.616   2.912 -0.5912  0.7348 -0.3844
 2110SOL    HW217790   3.591   0.488   2.926  1.2126  1.0093  1.3825
 2111SOL     OW17791   4.441   4.345   7.629  0.5649 -0.0864 -0.1015
 2111SOL    HW117792   4.392   4.270   7.662 -0.9210  0.8671 -0.1598
 2111SOL    HW217793   4.421   4.410   7.696  0.8102  0.9688 -1.0567
 2112SOL     OW17794   0.694   3.020   8.578 -0.2061 -0.2485 -0.1444
 2112SOL    HW117795   0.703   2.989   8.668  1.6499 -2.2104 -1.0008
 2112SOL    HW217796   0.643   3.099   8.596  1.9860  1.3801 -1.1225
 2113SOL     OW17797   3.155   0.630  14.983  0.3096 -0.6415 -0.5546
 2113SOL    HW117798   3.089   0.598  15.045 -0.1963 -0.7717 -1.1670
 2113SOL    HW217799   3.122   0.716  14.957 -0.6091 -0.8591 -0.0986
 2114SOL     OW17800   1.520   0.644  11.486 -0.1002 -0.7429  0.5204
 2114SOL    HW117801   1.514   0.552  11.461 -1.0920 -0.8584  1.1948
 2114SOL    HW217802   1.563   0.686  11.412  2.0715 -1.6742  1.2384
 2115SOL     OW17803   2.823   1.064   5.367 -0.1572 -0.7677  0.3589
 2115SOL    HW117804   2.741   1.101   5.402 -0.3458  0.4774 -1.4111
 2115SOL    HW217805   2.873   1.146   5.372 -2.9605  1.2442 -4.3365
 2116SOL     OW17806   3.464   2.668   4.015 -0.5052  0.1243  0.5137
 2116SOL    HW117807   3.482   2.719   4.094  0.4030  0.2461  0.2295
 2116SOL    HW217808   3.553   2.635   4.000 -0.3784  0.7480 -0.0960
 2117SOL     OW17809   1.837   4.261   8.137 -0.0623  0.2343 -0.5590
 2117SOL    HW117810   1.837   4.235   8.045 -0.8457  0.1386 -0.5315
 2117SOL    HW217811   1.879   4.347   8.144 -4.2047  2.1077  1.3937
 2118SOL     OW17812   4.274   4.287   6.480 -0.5523  0.0462 -0.0414
 2118SOL    HW117813   4.179   4.280   6.487 -0.4698 -0.7394  0.2987
 2118SOL    HW217814   4.288   4.379   6.502 -0.7759  0.0552  0.0614
 2119SOL     OW17815   2.144   4.157   3.911  0.8096 -0.1045  0.1891
 2119SOL    HW117816   2.230   4.171   3.950  0.5650  0.3588  0.5560
 2119SOL    HW217817   2.149   4.195   3.823  0.4214 -0.0662  0.1842
 2120SOL     OW17818   3.490   3.445   1.288 -0.2208  0.0789  0.2032
 2120SOL    HW117819   3.494   3.352   1.308 -2.2591  0.3005  1.5728
 2120SOL    HW217820   3.579   3.475   1.306 -0.4860  1.3332 -0.5790
 2121SOL     OW17821   3.179   3.623  15.661 -0.1365 -0.4260  0.3143
 2121SOL    HW117822   3.235   3.701  15.657  0.0587 -0.5390  0.9627
 2121SOL    HW217823   3.216   3.575  15.587  0.4431 -1.1127  1.0509
 2122SOL     OW17824   2.434   3.115   6.121 -0.1848 -0.4611 -0.0240
 2122SOL    HW117825   2.422   3.021   6.109  0.3061 -0.6960  1.3884
 2122SOL    HW217826   2.392   3.138   6.204 -0.7679  0.9197 -0.7027
 2123SOL     OW17827   1.897   2.032   8.960 -0.4973 -0.5522 -0.2884
 2123SOL    HW117828   1.876   1.945   8.929  0.8000 -0.3970 -1.5825
 2123SOL    HW217829   1.813   2.051   9.001 -1.5405 -2.2718 -1.6574
 2124SOL     OW17830   2.960   0.166   1.727  0.0540  0.3937 -0.4990
 2124SOL    HW117831   2.954   0.219   1.647 -0.1043  1.0006 -0.0816
 2124SOL    HW217832   3.047   0.126   1.721 -0.5986 -1.0487 -0.2678
 2125SOL     OW17833   2.805   0.781   3.179  0.1408 -0.5290 -0.3190
 2125SOL    HW117834   2.781   0.726   3.254  2.9030  0.2667  1.1399
 2125SOL    HW217835   2.813   0.714   3.110 -1.1960  0.4565 -1.4327
 2126SOL     OW17836   0.666   4.097   5.609 -0.2534  0.0383  0.0619
 2126SOL    HW117837   0.747   4.145   5.592  1.0436 -1.7456  1.1845
 2126SOL    HW217838   0.663   4.053   5.524  1.4941  3.0197 -1.5411
 2127SOL     OW17839   3.635   1.229   2.762 -0.2870 -0.2975  0.5002
 2127SOL    HW117840   3.686   1.192   2.690 -0.9058 -1.3593  0.6032
 2127SOL    HW217841   3.578   1.291   2.718 -0.5917 -0.1991  1.0273
 2128SOL     OW17842   4.361   4.415   5.837 -0.5071 -0.3668 -0.0050
 2128SOL    HW117843   4.403   4.425   5.922 -0.9148 -0.9680  0.2660
 2128SOL    HW217844   4.287   4.358   5.859  0.1404 -0.7456  1.2146
 2129SOL     OW17845   1.300   0.692   4.015  0.2998 -0.2801  0.0950
 2129SOL    HW117846   1.215   0.728   4.041  1.9756  4.8010 -1.4964
 2129SOL    HW217847   1.353   0.726   4.087  0.8778 -1.0039  0.0019
 2130SOL     OW17848   2.716   1.363  13.522  0.4618 -0.0144  0.2441
 2130SOL    HW117849   2.653   1.415  13.573 -1.3460 -1.6256 -0.3371
 2130SOL    HW217850   2.788   1.356  13.585  0.3663  1.9882  0.5860
 2131SOL     OW17851   3.649   2.068  12.325  0.1218  0.6077  0.0678
 2131SOL    HW117852   3.624   2.092  12.236 -0.0671  0.7308  0.1534
 2131SOL    HW217853   3.610   1.982  12.340 -0.6412  0.9741  0.2050
 2132SOL     OW17854   4.617   4.050   4.427  0.6398  0.7437  0.2063
 2132SOL    HW117855   4.521   4.050   4.432  0.6253 -2.0811  0.0554
 2132SOL    HW217856   4.630   4.068   4.334  1.4109  3.9030  0.9384
 2133SOL     OW17857   1.262   0.341   3.293  0.1616  0.0520 -0.6689
 2133SOL    HW117858   1.267   0.437   3.295  0.0253  0.0443  0.0138
 2133SOL    HW217859   1.297   0.315   3.208 -1.3005  1.7300 -1.8001
 2134SOL     OW17860   1.594   4.321   4.706  0.1411 -0.2012  0.3773
 2134SOL    HW117861   1.614   4.229   4.688 -1.0864 -0.4415  0.2810
 2134SOL    HW217862   1.636   4.368   4.634  0.3481 -1.4293 -0.2993
 2135SOL     OW17863   1.368   1.518   2.884  0.0934  0.0223 -0.6209
 2135SOL    HW117864   1.406   1.568   2.812  1.3387  0.6042  0.4465
 2135SOL    HW217865   1.367   1.586   2.952  0.1258  0.3601 -0.9565
 2136SOL     OW17866   2.670   0.880  12.464  0.3541 -0.4030 -0.1515
 2136SOL    HW117867   2.730   0.836  12.524 -0.1781 -1.1514 -0.1620
 2136SOL    HW217868   2.710   0.966  12.455  0.8336 -0.6937 -0.7364
 2137SOL     OW17869   1.876   2.839   3.236 -0.3866  0.3517 -0.0249
 2137SOL    HW117870   1.961   2.864   3.198 -0.9422  1.1356 -0.7621
 2137SOL    HW217871   1.895   2.823   3.328 -0.2216  4.2491  0.6523
 2138SOL     OW17872   1.964   0.522   1.211  0.8841 -0.4663 -0.2829
 2138SOL    HW117873   2.051   0.558   1.231  0.4946  0.3520 -0.0446
 2138SOL    HW217874   1.985   0.448   1.154  1.9443  1.0429 -1.8576
 2139SOL     OW17875   3.264   4.400   6.298  0.4524 -0.0448  0.1699
 2139SOL    HW117876   3.236   4.485   6.332  0.2261 -0.8939  2.1103
 2139SOL    HW217877   3.271   4.420   6.204 -2.0507  0.7677  0.1397
 2140SOL     OW17878   3.981   1.964   5.644  0.0830 -0.5830  0.1701
 2140SOL    HW117879   3.901   1.986   5.691 -0.2447 -0.4724 -0.4398
 2140SOL    HW217880   4.051   1.974   5.709 -0.7629 -2.0663  1.2921
 2141SOL     OW17881   2.194   2.861   5.070  0.4574 -0.3393 -0.0532
 2141SOL    HW117882   2.279   2.820   5.054  1.1542  1.0768  0.0417
 2141SOL    HW217883   2.201   2.889   5.162  0.5052  0.3355 -0.2682
 2142SOL     OW17884   1.324   1.617  13.872 -0.3118  0.0721  0.4247
 2142SOL    HW117885   1.344   1.706  13.902  0.3981 -0.0277  0.2630
 2142SOL    HW217886   1.229   1.625  13.872  0.0460  4.5962 -1.6447
 2143SOL     OW17887   1.090   2.300  17.218 -0.5826 -0.1810 -0.1760
 2143SOL    HW117888   1.053   2.343  17.295 -1.0420  0.7671 -0.9242
 2143SOL    HW217889   1.067   2.209  17.237  1.2754 -0.8660 -1.2453
 2144SOL     OW17890   0.626   4.297   8.542  0.0249  0.0054 -0.0316
 2144SOL    HW117891   0.694   4.334   8.599  0.5668 -1.0992  0.0502
 2144SOL    HW217892   0.626   4.208   8.578 -1.2280 -0.7437 -1.8582
 2145SOL     OW17893   3.588   3.856   3.299 -0.4521 -0.4326  0.4228
 2145SOL    HW117894   3.515   3.797   3.319  1.1707 -2.6890 -0.3156
 2145SOL    HW217895   3.569   3.918   3.369  2.9599  0.1164  0.8658
 2146SOL     OW17896   4.306   4.268   4.047 -0.7070 -0.4077 -0.3029
 2146SOL    HW117897   4.370   4.259   3.977 -3.1913 -1.1873 -2.4990
 2146SOL    HW217898   4.287   4.361   4.038 -0.7242 -0.5510 -1.8491
 2147SOL     OW17899   2.249   1.405   4.151 -0.7367  0.0740  0.0907
 2147SOL    HW117900   2.166   1.370   4.119 -0.5851 -0.3095  0.1264
 2147SOL    HW217901   2.312   1.356   4.099 -0.3651  3.0028 -2.2662
 2148SOL     OW17902   2.892   2.644   5.408  0.0073  0.2083  0.5231
 2148SOL    HW117903   2.938   2.689   5.479  0.2892 -1.4269  1.3700
 2148SOL    HW217904   2.811   2.623   5.454  0.3473 -2.8235 -0.2878
 2149SOL     OW17905   0.060   4.084   0.132 -0.0806 -0.0138 -0.0975
 2149SOL    HW117906   0.086   4.051   0.046 -2.3167  1.7714 -1.4216
 2149SOL    HW217907   0.093   4.006   0.178 -0.8377  0.1375  0.6913
 2150SOL     OW17908   2.730   0.272   5.669  0.0913  0.9487 -0.2504
 2150SOL    HW117909   2.798   0.258   5.603  0.5567 -2.7663  0.9800
 2150SOL    HW217910   2.763   0.229   5.749 -1.5057 -2.9411 -1.6733
 2151SOL     OW17911   2.531   0.483   5.346  0.5045  0.6663  0.0704
 2151SOL    HW117912   2.449   0.453   5.306  0.9464 -0.6070  0.1466
 2151SOL    HW217913   2.545   0.564   5.296  1.7533  1.5263  1.8030
 2152SOL     OW17914   3.839   4.424   6.857  0.0839  0.3782  1.2363
 2152SOL    HW117915   3.854   4.472   6.776  1.7534  0.6320  1.6785
 2152SOL    HW217916   3.787   4.475   6.918 -2.0353 -0.7683  0.3717
 2153SOL     OW17917   1.785   1.269   5.497  0.1068  0.3898 -0.4215
 2153SOL    HW117918   1.834   1.227   5.568 -0.2492 -0.2992 -0.5900
 2153SOL    HW217919   1.816   1.216   5.424  0.6511 -0.6495  0.5675
 2154SOL     OW17920   0.182   2.559   2.886 -0.6562  0.1324  0.2585
 2154SOL    HW117921   0.214   2.524   2.969  2.0509  0.4672 -0.6486
 2154SOL    HW217922   0.134   2.639   2.909 -0.7441 -0.0327  0.6416
 2155SOL     OW17923   1.645   2.394   8.626  0.2225 -0.1760  0.7902
 2155SOL    HW117924   1.631   2.488   8.638 -1.0061 -0.2689 -0.0111
 2155SOL    HW217925   1.564   2.347   8.645  0.1621 -0.6031 -0.5665
 2156SOL     OW17926   2.561   0.665  15.728 -0.4122 -0.2173 -0.3523
 2156SOL    HW117927   2.561   0.754  15.763 -0.2551 -0.1112 -0.6247
 2156SOL    HW217928   2.517   0.610  15.794 -0.3618 -0.4435 -0.5052
 2157SOL     OW17929   4.281   2.780   6.157  0.5948 -0.5845  0.5827
 2157SOL    HW117930   4.339   2.803   6.230  1.7703 -2.1372  0.1316
 2157SOL    HW217931   4.293   2.857   6.100  0.9058  0.0239  1.4746
 2158SOL     OW17932   3.955   4.344   8.885 -0.2785  0.1681  1.2245
 2158SOL    HW117933   3.915   4.257   8.881 -1.1262  0.5647  1.2389
 2158SOL    HW217934   3.933   4.384   8.970  0.8037  2.7712  0.2741
 2159SOL     OW17935   0.093   1.628  11.261  0.1459 -0.3366  0.5293
 2159SOL    HW117936   0.107   1.717  11.228 -1.0382 -0.6841 -0.8831
 2159SOL    HW217937   0.056   1.642  11.348 -0.6636  0.5549  0.0423
 2160SOL     OW17938   3.657   0.302  10.303  0.4216  0.4366  0.2851
 2160SOL    HW117939   3.654   0.208  10.324  1.0917  0.6607  1.3827
 2160SOL    HW217940   3.627   0.298  10.212  1.2398  0.4331  0.0148
 2161SOL     OW17941   1.335   2.558  13.147 -0.2701  0.5086  0.4276
 2161SOL    HW117942   1.269   2.593  13.087 -0.2444  0.8196  0.5835
 2161SOL    HW217943   1.291   2.566  13.232 -0.8271 -1.4167  0.3264
 2162SOL     OW17944   1.141   3.669  14.838  0.3853  0.5685 -0.3245
 2162SOL    HW117945   1.123   3.753  14.881  0.7654 -0.1067  1.1629
 2162SOL    HW217946   1.204   3.687  14.769 -0.4207  0.3020 -1.1216
 2163SOL     OW17947   1.641   1.511   8.138  0.4063  0.2147  0.6133
 2163SOL    HW117948   1.729   1.501   8.174  0.0294 -1.1843  1.1721
 2163SOL    HW217949   1.586   1.533   8.213  1.4620  2.2255  0.7746
 2164SOL     OW17950   2.674   1.785   1.346  0.2619 -0.0883 -0.3993
 2164SOL    HW117951   2.596   1.840   1.346 -0.9302 -1.7808  0.2179
 2164SOL    HW217952   2.661   1.749   1.433 -1.5204  0.1837 -0.5488
 2165SOL     OW17953   0.329   4.055   9.971 -0.5397  0.1609 -0.0927
 2165SOL    HW117954   0.279   4.136   9.982  1.8473  1.7091 -0.5809
 2165SOL    HW217955   0.324   4.026  10.062 -0.2752 -0.9527 -0.4343
 2166SOL     OW17956   2.238   3.253  11.268  0.1843  0.3039  0.0088
 2166SOL    HW117957   2.185   3.320  11.311 -1.6492 -1.5931  0.6668
 2166SOL    HW217958   2.235   3.279  11.176  0.9594  1.1712  0.2247
 2167SOL     OW17959   2.838   0.014   3.727 -0.0618 -0.3366 -1.0400
 2167SOL    HW117960   2.781   4.683   3.669 -1.0681 -1.4255  0.8981
 2167SOL    HW217961   2.928   0.021   3.695  0.2973 -2.7069 -0.5700
 2168SOL     OW17962   0.890   4.700  14.570  0.1452 -0.0456 -0.0138
 2168SOL    HW117963   0.973   0.023  14.546  0.2644  0.3307  1.0361
 2168SOL    HW217964   0.926   4.666  14.652 -1.3436 -1.8042 -0.0802
 2169SOL     OW17965   3.847   4.557   6.604  0.2133 -0.5347  0.0642
 2169SOL    HW117966   3.883   4.637   6.643 -0.0119 -0.5182  0.2427
 2169SOL    HW217967   3.760   4.596   6.590  0.4918 -0.4975 -1.4875
 2170SOL     OW17968   3.520   4.110   8.315  0.1507 -0.4855 -0.3207
 2170SOL    HW117969   3.596   4.090   8.369  0.1129  0.4342  0.0698
 2170SOL    HW217970   3.562   4.143   8.236  1.8429  1.1948  1.2787
 2171SOL     OW17971   0.753   4.241   0.131  0.1815 -0.2970  0.0126
 2171SOL    HW117972   0.745   4.279   0.218 -0.3856 -0.7169  0.1425
 2171SOL    HW217973   0.811   4.166   0.145 -0.1022  0.1871  3.6248
 2172SOL     OW17974   0.634   4.009  15.720  0.1359  0.0033 -0.0296
 2172SOL    HW117975   0.584   4.015  15.639 -0.5531 -0.7640  0.3422
 2172SOL    HW217976   0.568   3.969  15.777 -0.4995  0.5567 -0.3655
 2173SOL     OW17977   1.811   2.837   4.547 -0.0252 -0.3596  0.5320
 2173SOL    HW117978   1.777   2.795   4.626 -1.4336 -2.5001 -1.2107
 2173SOL    HW217979   1.769   2.784   4.480  0.9423  0.1659 -0.4938
 2174SOL     OW17980   3.160   2.572   7.484 -0.2984  0.4151 -0.2305
 2174SOL    HW117981   3.211   2.492   7.470  1.5042  1.3013  1.2149
 2174SOL    HW217982   3.210   2.619   7.551 -0.3931  2.0255 -1.3090
 2175SOL     OW17983   2.273   3.876  11.250  0.2628 -0.1751  0.3528
 2175SOL    HW117984   2.290   3.791  11.290 -0.2398  0.0808  1.1191
 2175SOL    HW217985   2.178   3.886  11.262 -0.1856 -2.7288 -1.1138
 2176SOL     OW17986   0.006   0.414  11.825 -0.1552 -0.4527  0.5128
 2176SOL    HW117987   0.050   0.489  11.865  3.0178 -1.7888 -0.4692
 2176SOL    HW217988   4.701   0.366  11.905 -0.7888 -1.6282 -0.3805
 2177SOL     OW17989   3.641   0.535  15.435  0.6359 -0.0433 -0.6693
 2177SOL    HW117990   3.698   0.472  15.390  1.5811  0.9078 -0.8107
 2177SOL    HW217991   3.684   0.550  15.520  0.1419  0.5876 -0.5338
 2178SOL     OW17992   2.706   3.498   7.999  0.2314 -0.3573  0.1370
 2178SOL    HW117993   2.676   3.559   7.931  1.7840  0.9214  0.5850
 2178SOL    HW217994   2.712   3.542   8.085  1.7999 -2.3556  1.0524
 2179SOL     OW17995   3.918   2.100  12.389  0.0766 -0.1693 -0.6559
 2179SOL    HW117996   3.828   2.112  12.360  0.4712 -0.3322 -1.9349
 2179SOL    HW217997   3.938   2.010  12.365  1.0433  0.2835 -1.5345
 2180SOL     OW17998   3.667   0.034   4.139 -0.6942 -0.1843 -0.1074
 2180SOL    HW117999   3.703   4.666   4.120 -0.2871 -0.7540  3.3541
 2180SOL    HW218000   3.738   0.096   4.123  0.2366 -1.1726  0.1547
 2181SOL     OW18001   0.160   4.138   5.222  0.1674 -0.2437  0.5576
 2181SOL    HW118002   0.216   4.079   5.271  0.6718  0.0875  0.3841
 2181SOL    HW218003   0.092   4.144   5.288  0.3967  0.1496  0.7616
 2182SOL     OW18004   1.399   0.623  11.742  0.1399  0.3424  0.3381
 2182SOL    HW118005   1.311   0.626  11.704  0.0582  1.8330  0.6417
 2182SOL    HW218006   1.447   0.622  11.660 -0.0135  1.2509  0.2367
 2183SOL     OW18007   3.682   1.785   9.970 -0.3094 -0.1654  0.2367
 2183SOL    HW118008   3.602   1.763   9.923 -0.1950  0.3867 -0.2165
 2183SOL    HW218009   3.728   1.702   9.981 -0.4526 -0.3747 -0.8014
 2184SOL     OW18010   0.634   0.546  14.447 -0.0492  0.1666 -0.1839
 2184SOL    HW118011   0.699   0.614  14.466  0.7941  0.0121 -2.4151
 2184SOL    HW218012   0.564   0.603  14.416 -0.5147 -0.5867 -0.5330
 2185SOL     OW18013   2.196   0.548   1.655  0.2190  0.2896 -0.3132
 2185SOL    HW118014   2.144   0.545   1.735  1.1477 -0.6149  0.2520
 2185SOL    HW218015   2.140   0.599   1.596 -1.7150  0.3516  1.5743
 2186SOL     OW18016   1.092   3.394   7.280  0.2711  0.4384 -0.3442
 2186SOL    HW118017   1.141   3.315   7.257 -2.0431 -1.8612  2.6353
 2186SOL    HW218018   1.056   3.370   7.366  0.0539 -0.2323 -0.6252
 2187SOL     OW18019   0.964   1.289   5.883  0.2848  0.2846 -0.2253
 2187SOL    HW118020   0.982   1.383   5.895  2.5244 -0.1630 -0.0818
 2187SOL    HW218021   1.010   1.269   5.802  1.0145  2.1740 -0.2755
 2188SOL     OW18022   1.184   3.540   0.473 -0.6912  0.2771  0.0849
 2188SOL    HW118023   1.110   3.480   0.482 -0.3016 -0.4690 -1.7853
 2188SOL    HW218024   1.147   3.617   0.515  0.8033  0.5160  0.9898
 2189SOL     OW18025   2.223   0.650  16.061  1.4051  0.3800 -0.2846
 2189SOL    HW118026   2.138   0.659  16.018  0.8674 -1.2642  0.3973
 2189SOL    HW218027   2.288   0.624  15.995  2.3564  0.0228  0.7841
 2190SOL     OW18028   4.137   1.870   9.620 -0.7399  0.3310 -0.0896
 2190SOL    HW118029   4.126   1.796   9.679  0.5085 -0.3206 -0.6596
 2190SOL    HW218030   4.095   1.940   9.669  0.0932  0.5164  0.3592
 2191SOL     OW18031   1.222   3.581   4.571 -0.5447  0.0551  0.0097
 2191SOL    HW118032   1.302   3.529   4.578 -0.4526  0.1933 -0.0076
 2191SOL    HW218033   1.163   3.557   4.642  1.0339  3.0938  2.3786
 2192SOL     OW18034   4.112   3.333   4.562 -0.0439 -0.0997 -0.7051
 2192SOL    HW118035   4.082   3.242   4.567  0.9895 -0.5192 -2.3119
 2192SOL    HW218036   4.195   3.329   4.609 -1.8032  1.0188  2.5733
 2193SOL     OW18037   1.183   1.613   7.761 -0.0462 -0.0418  0.1261
 2193SOL    HW118038   1.202   1.697   7.719  1.1232 -0.0633  0.6069
 2193SOL    HW218039   1.266   1.579   7.793 -0.9321 -2.5829 -0.2578
 2194SOL     OW18040   2.088   0.664   5.317 -0.0971 -0.0508  0.2955
 2194SOL    HW118041   2.072   0.685   5.409 -0.5048 -2.3247  0.7320
 2194SOL    HW218042   2.145   0.738   5.295 -2.2175  1.7754  0.9866
 2195SOL     OW18043   0.672   3.175  17.337 -0.4501 -0.1545  0.3798
 2195SOL    HW118044   0.764   3.149  17.332  0.0228  1.7354 -0.7724
 2195SOL    HW218045   0.652   3.140  17.423 -1.9262  0.4777  0.2891
 2196SOL     OW18046   1.600   0.906   6.672 -0.4584 -0.1175 -0.3277
 2196SOL    HW118047   1.540   0.946   6.735 -1.1577 -0.8206 -0.5424
 2196SOL    HW218048   1.553   0.827   6.645  1.1217 -1.1800 -0.0332
 2197SOL     OW18049   2.536   1.197   4.243  0.2716  0.4256 -0.7621
 2197SOL    HW118050   2.534   1.121   4.301 -0.0060  0.6877 -0.4243
 2197SOL    HW218051   2.467   1.167   4.183 -0.6052  1.5725 -0.3252
 2198SOL     OW18052   2.225   2.048   9.675  0.0882  0.0208 -0.2692
 2198SOL    HW118053   2.298   2.108   9.658  1.6213 -1.8394 -0.2303
 2198SOL    HW218054   2.259   1.968   9.636 -0.5933 -1.4910  2.2273
 2199SOL     OW18055   0.993   1.039   3.050 -0.3962 -0.5214  0.3938
 2199SOL    HW118056   0.942   0.960   3.066  0.8146 -1.3403  0.2315
 2199SOL    HW218057   1.011   1.064   3.140 -0.7304 -1.1025  0.6171
 2200SOL     OW18058   3.001   3.467  10.155  0.3789  0.5671  0.1934
 2200SOL    HW118059   3.023   3.399  10.091 -0.1580  0.7609 -0.1975
 2200SOL    HW218060   3.086   3.505  10.178  0.0071  0.8972  1.0397
 2201SOL     OW18061   3.549   0.378   2.165 -0.2790  0.6544  0.1050
 2201SOL    HW118062   3.503   0.309   2.117 -1.2096  0.1382  1.7312
 2201SOL    HW218063   3.624   0.390   2.107 -0.3853 -2.0364 -0.6141
 2202SOL     OW18064   0.778   1.805   5.048 -0.0491  0.1513  0.4352
 2202SOL    HW118065   0.860   1.762   5.025 -1.6610 -0.9395 -3.3662
 2202SOL    HW218066   0.750   1.836   4.962  1.9617  0.6723 -0.0328
 2203SOL     OW18067   3.084   2.722   8.086  0.4842 -0.0484 -0.8464
 2203SOL    HW118068   3.017   2.656   8.104  0.6029 -0.2494 -1.1568
 2203SOL    HW218069   3.096   2.762   8.172 -0.7780 -0.0030 -0.6968
 2204SOL     OW18070   2.323   3.680   4.817  1.1810 -0.1945 -0.0363
 2204SOL    HW118071   2.252   3.723   4.768  1.9382  0.7629 -0.3083
 2204SOL    HW218072   2.393   3.714   4.760  1.1461  0.9785  0.6172
 2205SOL     OW18073   4.341   3.923  16.216  0.1885  0.3454 -0.0590
 2205SOL    HW118074   4.388   3.962  16.142 -1.5148 -0.4096 -1.5372
 2205SOL    HW218075   4.264   3.900  16.163 -0.5000  0.0657  1.0760
 2206SOL     OW18076   3.976   3.622   0.512  0.1422  0.0771  0.2065
 2206SOL    HW118077   4.016   3.538   0.491 -0.2455  0.1667 -0.9047
 2206SOL    HW218078   4.056   3.670   0.531  0.5343 -1.6594  2.8961
 2207SOL     OW18079   2.639   3.439   5.380  0.0029 -0.0550 -0.9846
 2207SOL    HW118080   2.689   3.383   5.439 -0.0723  1.0584  0.1227
 2207SOL    HW218081   2.551   3.401   5.383  0.0098  0.2150  2.7311
 2208SOL     OW18082   1.522   3.932   8.273  0.1184 -0.6872 -0.1591
 2208SOL    HW118083   1.508   3.940   8.179 -1.5753  1.2944  0.2618
 2208SOL    HW218084   1.581   4.006   8.284 -0.5725  0.4131 -3.9726
 2209SOL     OW18085   3.554   1.596  15.320 -0.7794  0.0564 -0.5607
 2209SOL    HW118086   3.559   1.550  15.235  0.1153 -3.4147  1.3658
 2209SOL    HW218087   3.632   1.652  15.320 -1.0171  0.3827  2.5616
 2210SOL     OW18088   2.625   4.467  12.069 -0.2526 -0.1804  0.2135
 2210SOL    HW118089   2.564   4.509  12.008  1.3915 -1.3411 -2.2063
 2210SOL    HW218090   2.606   4.520  12.147 -0.8787 -0.6614  0.3884
 2211SOL     OW18091   3.443   1.001   9.504 -0.2315 -0.2872 -0.3052
 2211SOL    HW118092   3.378   1.072   9.503 -0.3920 -0.4328 -0.3224
 2211SOL    HW218093   3.495   1.011   9.424  2.3585  1.1273  1.5367
 2212SOL     OW18094   0.068   1.037   5.114 -0.0594  0.3337  0.2967
 2212SOL    HW118095   4.708   1.011   5.162 -0.9279 -0.1924 -1.4122
 2212SOL    HW218096   0.062   0.965   5.052 -1.6706  0.1955  0.6034
 2213SOL     OW18097   3.204   4.249  12.930 -0.4350  0.4814 -0.3021
 2213SOL    HW118098   3.133   4.231  12.869 -0.9434 -1.3830  0.8702
 2213SOL    HW218099   3.182   4.178  12.989 -0.7572  0.6737 -0.1928
 2214SOL     OW18100   0.698   3.273   4.867 -0.0102  0.3763 -0.7419
 2214SOL    HW118101   0.671   3.339   4.930 -0.4845  0.1786 -0.7361
 2214SOL    HW218102   0.728   3.327   4.794 -1.4108  0.7026 -1.0757
 2215SOL     OW18103   0.166   1.832   4.227  1.2446  0.7378 -0.2932
 2215SOL    HW118104   0.137   1.821   4.136 -0.8430  0.0886  0.4606
 2215SOL    HW218105   0.203   1.920   4.230 -1.2105  1.6382  2.9848
 2216SOL     OW18106   1.089   4.093   6.281 -0.1288 -0.3140 -0.2041
 2216SOL    HW118107   1.059   4.099   6.190  0.0889 -3.8526 -0.5416
 2216SOL    HW218108   1.060   4.180   6.307  2.3847  0.3253  0.4022
 2217SOL     OW18109   1.909   4.644   5.085 -0.7990  0.6991 -0.5492
 2217SOL    HW118110   1.821   4.652   5.051 -1.0617  1.5294  0.3169
 2217SOL    HW218111   1.926   4.550   5.075 -1.1910  0.6302 -0.5468
 2218SOL     OW18112   2.271   3.020  14.350  0.1160  0.2977  0.1429
 2218SOL    HW118113   2.300   2.939  14.308 -3.7045 -0.2726 -1.4377
 2218SOL    HW218114   2.177   2.999  14.353 -0.2190  1.5990 -1.0801
 2219SOL     OW18115   0.157   0.478  10.876  0.6899 -0.7080 -0.0594
 2219SOL    HW118116   0.167   0.452  10.968 -1.0932  1.8713  0.8884
 2219SOL    HW218117   0.241   0.522  10.862 -0.6132  1.1543 -2.0185
 2220SOL     OW18118   3.662   2.475   6.884 -0.3469 -0.2905  0.4573
 2220SOL    HW118119   3.672   2.527   6.804 -2.2091 -2.0696 -0.9597
 2220SOL    HW218120   3.597   2.531   6.926 -2.0379 -0.5355 -1.7919
 2221SOL     OW18121   2.744   4.605   5.773  0.0056  0.8224 -0.6561
 2221SOL    HW118122   2.750   4.648   5.688  1.6547 -1.5164 -1.7645
 2221SOL    HW218123   2.754   4.681   5.830  0.7278 -0.8703  1.5355
 2222SOL     OW18124   4.641   1.042   8.072  0.5944  0.3627 -0.3658
 2222SOL    HW118125   0.016   1.033   8.057  0.5714 -1.2135  0.4881
 2222SOL    HW218126   4.643   1.069   8.164  1.1646 -0.1786 -0.2186
 2223SOL     OW18127   0.214   3.885  13.982  0.1718  0.2994 -0.1094
 2223SOL    HW118128   0.218   3.979  14.001  1.4089  0.2363 -0.0556
 2223SOL    HW218129   0.125   3.856  14.001  0.6390 -1.2229 -0.2573
 2224SOL     OW18130   0.575   2.169   7.751  0.0685  0.1299 -0.7995
 2224SOL    HW118131   0.504   2.133   7.804 -1.0216  2.7344 -0.5070
 2224SOL    HW218132   0.627   2.197   7.826 -2.4267 -0.4644  1.1466
 2225SOL     OW18133   3.197   0.726   5.294  0.1068  0.2990 -0.4338
 2225SOL    HW118134   3.165   0.801   5.245 -0.5217 -0.2262 -0.8263
 2225SOL    HW218135   3.175   0.758   5.381  1.4233  1.1053 -0.4009
 2226SOL     OW18136   1.760   2.108  10.299  0.6258  0.6057 -0.1066
 2226SOL    HW118137   1.824   2.098  10.369  0.1971  0.4948  0.2660
 2226SOL    HW218138   1.719   2.193  10.317 -1.5359 -0.7789  1.5605
 2227SOL     OW18139   0.254   4.005   5.959  0.2703 -0.4532 -0.0314
 2227SOL    HW118140   0.197   3.928   5.956 -0.7013  0.3056 -0.9923
 2227SOL    HW218141   0.310   3.981   6.033 -1.0862 -1.8478  0.5387
 2228SOL     OW18142   3.609   0.516   1.860  0.4540 -0.4831  0.2381
 2228SOL    HW118143   3.684   0.531   1.918  0.5946  0.9157 -0.3178
 2228SOL    HW218144   3.588   0.608   1.848 -0.7332 -0.8099 -0.1477
 2229SOL     OW18145   3.844   3.660   2.349  0.9402 -0.2416  0.6553
 2229SOL    HW118146   3.795   3.586   2.385  0.1083  0.6394  1.3613
 2229SOL    HW218147   3.887   3.627   2.271  1.0584 -0.5950  0.8701
 2230SOL     OW18148   2.737   2.659   1.959  0.4477  0.3979  0.5601
 2230SOL    HW118149   2.720   2.612   1.877 -0.3199 -1.2916  1.6874
 2230SOL    HW218150   2.649   2.677   1.992 -0.0101 -1.4562  0.3725
 2231SOL     OW18151   2.431   1.329   2.485 -0.3057  0.2037  0.3146
 2231SOL    HW118152   2.421   1.421   2.460 -1.1800 -0.5532 -2.1386
 2231SOL    HW218153   2.467   1.328   2.574  1.1593  0.7426 -0.2780
 2232SOL     OW18154   3.695   3.468   4.162 -0.6690  0.5734  0.0326
 2232SOL    HW118155   3.689   3.413   4.240 -0.1394 -0.0465 -0.3631
 2232SOL    HW218156   3.641   3.543   4.187 -1.8636 -0.6419  1.0039
 2233SOL     OW18157   2.657   4.676   6.696 -0.0652 -0.0793  0.0950
 2233SOL    HW118158   2.742   4.705   6.663 -0.3839  1.2588  0.4585
 2233SOL    HW218159   2.675   4.584   6.715  0.6825  0.3120  1.2690
 2234SOL     OW18160   3.374   3.769   7.427  0.1838 -0.4606  0.3401
 2234SOL    HW118161   3.354   3.861   7.408 -1.0596 -0.0894  3.4277
 2234SOL    HW218162   3.460   3.770   7.470  0.9712  1.5028 -1.2802
 2235SOL     OW18163   1.522   2.289  13.797 -0.0331  0.4168 -0.1540
 2235SOL    HW118164   1.454   2.281  13.730 -2.4701  0.3978  2.3094
 2235SOL    HW218165   1.598   2.246  13.759 -1.3668 -1.6644 -0.4208
 2236SOL     OW18166   1.379   4.336   5.643 -0.1912 -0.5088  0.5909
 2236SOL    HW118167   1.411   4.424   5.622 -2.2083  0.2529  0.6968
 2236SOL    HW218168   1.464   4.293   5.639  0.1934  0.1708  1.4527
 2237SOL     OW18169   2.698   0.067   7.699 -0.1517  0.1890  0.1335
 2237SOL    HW118170   2.608   0.069   7.732 -1.1537 -0.8264 -2.5032
 2237SOL    HW218171   2.705   0.151   7.653 -1.7858  0.7171  0.8527
 2238SOL     OW18172   2.203   3.186  16.795 -0.4749  0.3148  0.0460
 2238SOL    HW118173   2.203   3.276  16.762 -0.6775 -0.0191 -0.8548
 2238SOL    HW218174   2.286   3.186  16.843  0.3954  0.5595 -1.4526
 2239SOL     OW18175   0.821   0.453  10.141  0.0300  0.3365 -0.5080
 2239SOL    HW118176   0.911   0.433  10.168  0.4137  1.7184 -0.7434
 2239SOL    HW218177   0.789   0.490  10.223  1.9566  0.3461  0.2504
 2240SOL     OW18178   0.331   2.118  14.767  0.1578 -0.1915  0.8180
 2240SOL    HW118179   0.358   2.044  14.712 -1.2915  0.0331 -0.1961
 2240SOL    HW218180   0.331   2.197  14.712 -0.7519  0.2393  1.4360
 2241SOL     OW18181   4.438   0.149   6.562 -0.2705 -0.3896 -0.3996
 2241SOL    HW118182   4.478   0.083   6.506  0.4814 -0.4313  0.1830
 2241SOL    HW218183   4.360   0.104   6.594 -0.0917 -1.5121 -1.5460
 2242SOL     OW18184   2.856   1.802   6.674 -0.0936 -0.4584 -0.0952
 2242SOL    HW118185   2.933   1.752   6.702 -0.7774 -0.5825  1.5437
 2242SOL    HW218186   2.795   1.769   6.739 -0.7281  0.1727 -0.3679
 2243SOL     OW18187   4.436   1.274   3.337 -0.3667 -0.5030  0.0979
 2243SOL    HW118188   4.416   1.237   3.251 -2.0459 -0.2003  0.3477
 2243SOL    HW218189   4.400   1.199   3.384 -0.3259 -0.5446  0.0629
 2244SOL     OW18190   3.447   3.835   1.288 -0.3810 -0.0849  0.2617
 2244SOL    HW118191   3.453   3.929   1.268 -2.6458 -0.5897 -2.6953
 2244SOL    HW218192   3.512   3.795   1.231 -0.1898 -2.4824  2.1433
 2245SOL     OW18193   4.022   2.583   1.914  0.1112 -0.1022 -0.2281
 2245SOL    HW118194   3.926   2.593   1.914  0.2001  0.7636  0.1534
 2245SOL    HW218195   4.016   2.501   1.865 -1.4420  0.4170 -0.9125
 2246SOL     OW18196   4.594   3.170   0.141  0.0419 -0.2703 -0.1126
 2246SOL    HW118197   4.617   3.155   0.232  1.4415 -4.7528 -1.2060
 2246SOL    HW218198   4.618   3.262   0.128  1.3346 -0.5269  0.5666
 2247SOL     OW18199   1.408   2.488   7.282 -0.1080  0.3303  0.6762
 2247SOL    HW118200   1.484   2.461   7.333  0.2639  0.9587  0.4608
 2247SOL    HW218201   1.412   2.426   7.210  0.5746  0.1001  0.9216
 2248SOL     OW18202   4.611   2.259   0.287 -0.0314 -0.2473  0.1794
 2248SOL    HW118203   4.695   2.306   0.278  1.1159 -2.1838  0.8460
 2248SOL    HW218204   4.601   2.206   0.208  1.7180 -0.1151 -0.1454
 2249SOL     OW18205   2.244   0.778   0.251 -0.4554  0.4204  0.1744
 2249SOL    HW118206   2.178   0.730   0.301  0.5447  0.7040  1.7671
 2249SOL    HW218207   2.258   0.850   0.312  1.9283  0.6317 -0.5978
 2250SOL     OW18208   1.441   0.539   6.060 -0.1941 -0.6044  0.2930
 2250SOL    HW118209   1.475   0.520   5.972  0.8436  0.0820  0.5484
 2250SOL    HW218210   1.382   0.613   6.043  1.6329  0.8447  0.3366
 2251SOL     OW18211   4.528   0.248  15.693 -0.0896  0.2194 -0.3194
 2251SOL    HW118212   4.520   0.340  15.670 -0.6618 -0.0881 -1.3887
 2251SOL    HW218213   4.455   0.251  15.755  0.3894 -0.8649  0.3022
 2252SOL     OW18214   2.628   2.446  10.713  0.1120  0.2707 -0.0407
 2252SOL    HW118215   2.548   2.435  10.662  0.0824 -1.7987  0.4580
 2252SOL    HW218216   2.688   2.387  10.667 -1.4476  0.0738 -1.7959
 2253SOL     OW18217   0.489   1.078  11.714  0.1777 -0.7216  0.0599
 2253SOL    HW118218   0.468   1.025  11.636  1.3391  1.4290 -1.7276
 2253SOL    HW218219   0.481   1.014  11.784 -1.3542 -0.5748  0.0093
 2254SOL     OW18220   0.787   3.759   1.859  0.2788 -0.5929  0.1956
 2254SOL    HW118221   0.882   3.754   1.865  0.3492 -1.4593 -1.5825
 2254SOL    HW218222   0.759   3.759   1.951  4.0487  1.2729  1.3300
 2255SOL     OW18223   2.262   3.085  16.546  0.0955  0.3603 -0.1542
 2255SOL    HW118224   2.312   3.037  16.612 -2.6543 -2.5288 -0.1751
 2255SOL    HW218225   2.217   3.153  16.596  0.4148  0.2849  0.2392
 2256SOL     OW18226   3.209   1.409   9.178  0.3442 -0.9328 -0.5452
 2256SOL    HW118227   3.243   1.371   9.259 -0.7818  0.0654  0.4011
 2256SOL    HW218228   3.114   1.401   9.189  0.6688 -2.4525  1.0701
 2257SOL     OW18229   3.558   1.802  13.878 -0.2495  0.0243  0.3881
 2257SOL    HW118230   3.558   1.706  13.880 -0.7640  0.0235  0.1943
 2257SOL    HW218231   3.652   1.819  13.867 -0.4939  1.1168  0.0642
 2258SOL     OW18232   1.040   3.977   4.919  0.2492  0.0031 -0.0924
 2258SOL    HW118233   1.076   4.065   4.905 -1.0549  0.5086 -0.3401
 2258SOL    HW218234   1.119   3.935   4.952 -0.2555  0.1982  1.3446
 2259SOL     OW18235   0.853   3.986   7.421  0.9777 -0.0111 -0.0159
 2259SOL    HW118236   0.937   3.971   7.464  0.2191 -0.5501  1.2677
 2259SOL    HW218237   0.872   4.073   7.386 -0.0939  0.0931 -0.3278
 2260SOL     OW18238   2.970   4.149  13.767 -0.1458 -0.1222 -0.1148
 2260SOL    HW118239   3.027   4.219  13.800  0.9268 -0.5967 -0.9346
 2260SOL    HW218240   2.886   4.193  13.776 -0.3155  0.3683 -3.9408
 2261SOL     OW18241   2.497   0.610   8.728 -0.1882  0.0687 -0.3039
 2261SOL    HW118242   2.532   0.522   8.711 -0.8193 -0.4465  1.0781
 2261SOL    HW218243   2.517   0.628   8.819  1.1348 -0.3042 -0.5143
 2262SOL     OW18244   2.809   0.045   6.222 -0.0322  0.0337 -0.0691
 2262SOL    HW118245   2.817   0.135   6.192  1.8874 -0.3246 -0.6957
 2262SOL    HW218246   2.900   0.022   6.202  0.1809  0.4300  0.4440
 2263SOL     OW18247   0.272   3.816  13.429 -0.0703 -0.7186  0.1926
 2263SOL    HW118248   0.325   3.745  13.392 -0.2290 -1.2227  0.9164
 2263SOL    HW218249   0.327   3.893  13.418 -0.2569 -0.7432 -0.8589
 2264SOL     OW18250   3.386   0.635   8.484  0.1558 -0.7431  0.0279
 2264SOL    HW118251   3.387   0.555   8.431  1.3771 -0.8364  0.1981
 2264SOL    HW218252   3.371   0.598   8.571  2.2335 -0.5258  0.4936
 2265SOL     OW18253   2.907   2.699   4.197 -0.2307 -0.0313  0.0078
 2265SOL    HW118254   2.914   2.745   4.113  1.1459  2.8507  1.6998
 2265SOL    HW218255   2.997   2.703   4.228 -0.1354  2.5705 -0.5287
 2266SOL     OW18256   4.056   1.265   1.849  0.4614 -0.2627 -0.0903
 2266SOL    HW118257   4.105   1.214   1.785 -1.5113 -0.0190 -1.8050
 2266SOL    HW218258   4.119   1.326   1.886  1.8832 -2.1282  0.5268
 2267SOL     OW18259   3.414   3.682   7.071  0.4897 -0.5479  0.0469
 2267SOL    HW118260   3.394   3.603   7.020 -1.6962 -1.0644  1.6814
 2267SOL    HW218261   3.504   3.710   7.056  0.7239 -1.8522 -0.9593
 2268SOL     OW18262   3.994   3.193   3.613  0.3218  0.0075  0.6491
 2268SOL    HW118263   4.008   3.114   3.665  1.9444  0.2156  0.5502
 2268SOL    HW218264   3.903   3.181   3.587  0.0732 -1.6843  2.2815
 2269SOL     OW18265   3.286   2.804  16.947  0.0334  0.3009  0.0438
 2269SOL    HW118266   3.346   2.767  16.882  0.4225 -1.0471  1.1772
 2269SOL    HW218267   3.269   2.739  17.015  2.4131 -0.4134 -0.0470
 2270SOL     OW18268   3.994   1.710   6.741  0.3206  0.2896 -0.7069
 2270SOL    HW118269   3.958   1.628   6.707  2.0317  0.0581 -1.9688
 2270SOL    HW218270   4.058   1.670   6.800 -0.0672  3.7400  2.0584
 2271SOL     OW18271   3.397   0.011  17.461  0.0398  0.0550  0.3569
 2271SOL    HW118272   3.330   0.064  17.418 -2.8107 -3.3218  0.6067
 2271SOL    HW218273   3.354   4.681  17.531 -3.2992  1.6072 -0.5825
 2272SOL     OW18274   1.152   2.154   5.729  0.3698  0.6384 -0.5859
 2272SOL    HW118275   1.058   2.149   5.717  0.5935 -2.9122 -1.0204
 2272SOL    HW218276   1.170   2.073   5.777  0.1251  1.0164  0.1324
 2273SOL     OW18277   0.030   0.006   7.506  0.0278 -0.7524  0.1657
 2273SOL    HW118278   4.710   4.642   7.532 -0.6321 -0.6744 -0.6054
 2273SOL    HW218279   4.672   0.062   7.512 -0.2650 -1.0897 -0.5704
 2274SOL     OW18280   3.335   1.738  10.083 -0.0946  0.4139  0.2881
 2274SOL    HW118281   3.397   1.809  10.102 -1.3477  1.2176  1.3400
 2274SOL    HW218282   3.257   1.765  10.130  2.3866  1.7372  3.6579
 2275SOL     OW18283   2.094   3.313   3.901 -0.2027  0.0714 -0.0571
 2275SOL    HW118284   2.122   3.222   3.914  1.5912  0.9624  2.5260
 2275SOL    HW218285   2.153   3.348   3.834 -0.0444 -1.7258 -0.8572
 2276SOL     OW18286   2.703   2.039   7.377  0.1421 -0.6598 -0.3013
 2276SOL    HW118287   2.709   2.045   7.473 -1.8614 -1.0590 -0.1515
 2276SOL    HW218288   2.679   2.128   7.354 -2.0767 -1.9936 -3.0816
 2277SOL     OW18289   2.967   3.924   5.614  0.3222 -0.5049 -0.3568
 2277SOL    HW118290   2.919   3.845   5.587  1.3548 -0.5810 -1.9431
 2277SOL    HW218291   3.013   3.949   5.534  3.2952 -2.7301  0.6797
 2278SOL     OW18292   3.165   0.312   6.030  0.7388  0.2227 -0.0087
 2278SOL    HW118293   3.181   0.329   5.938 -0.0040 -0.7154 -0.3089
 2278SOL    HW218294   3.070   0.324   6.032  0.8272  0.7271  1.8867
 2279SOL     OW18295   3.298   1.526   8.793  0.0394  0.5587 -0.1057
 2279SOL    HW118296   3.290   1.532   8.698  1.1086 -1.5770 -0.3226
 2279SOL    HW218297   3.379   1.575   8.803 -0.6064  1.1907  2.1667
 2280SOL     OW18298   1.107   0.786   6.569 -0.0759 -0.3807  0.2289
 2280SOL    HW118299   1.154   0.834   6.501 -1.6455  0.6064 -0.1582
 2280SOL    HW218300   1.044   0.732   6.521 -0.5684  0.4362 -0.0381
 2281SOL     OW18301   0.191   1.758  14.653  0.2330 -0.3500  0.2620
 2281SOL    HW118302   0.135   1.722  14.721 -1.0573  1.3274  0.0954
 2281SOL    HW218303   0.145   1.717  14.579 -0.3162  0.2191  0.2922
 2282SOL     OW18304   3.541   2.439  11.412  0.5754 -0.4151 -0.0473
 2282SOL    HW118305   3.482   2.507  11.445  0.8193 -0.1219 -0.2118
 2282SOL    HW218306   3.604   2.485  11.355 -1.3741  2.3763  0.0527
 2283SOL     OW18307   3.436   3.436   5.726  0.6482 -0.2835 -0.0771
 2283SOL    HW118308   3.473   3.514   5.769 -2.2780 -0.0422  1.9437
 2283SOL    HW218309   3.427   3.382   5.804  1.2073 -0.5523 -0.1946
 2284SOL     OW18310   4.003   2.063   3.045  0.3039  0.3347  0.0136
 2284SOL    HW118311   3.951   2.136   3.077  1.0092  0.3648  1.0853
 2284SOL    HW218312   3.969   2.057   2.956  1.1512  1.4943 -0.3846
 2285SOL     OW18313   4.233   1.923   0.400  0.1768  0.1765 -0.1688
 2285SOL    HW118314   4.188   1.851   0.355  0.8632 -0.1665 -0.3190
 2285SOL    HW218315   4.317   1.880   0.417  0.4295  0.6085 -0.3379
 2286SOL     OW18316   4.531   0.628   5.082 -1.0233 -0.1824  0.4152
 2286SOL    HW118317   4.522   0.693   5.013  1.5930 -1.9044 -1.5303
 2286SOL    HW218318   4.452   0.650   5.132 -0.7389 -0.1926  0.8677
 2287SOL     OW18319   1.950   3.012   2.106  0.0460 -0.2457 -0.0662
 2287SOL    HW118320   1.933   3.071   2.179  0.1199 -0.0255 -0.2246
 2287SOL    HW218321   2.045   3.018   2.101 -0.0092  1.3727  0.8684
 2288SOL     OW18322   0.453   0.755  15.720 -0.3553  0.1334  0.5018
 2288SOL    HW118323   0.458   0.660  15.721 -1.4307  0.0873  1.4815
 2288SOL    HW218324   0.528   0.778  15.665 -1.3121  0.9689 -0.4664
 2289SOL     OW18325   4.460   4.067   5.731  0.3215 -0.2424 -0.1473
 2289SOL    HW118326   4.512   4.050   5.653 -1.3730 -0.1848 -1.2971
 2289SOL    HW218327   4.531   4.087   5.792 -2.0440  0.7386  2.3024
 2290SOL     OW18328   1.268   1.638   8.486  0.1751  0.5884 -0.3181
 2290SOL    HW118329   1.269   1.734   8.488 -1.0293  0.6178 -1.3523
 2290SOL    HW218330   1.174   1.621   8.477  0.2090  0.6611 -0.8079
 2291SOL     OW18331   4.365   4.270  12.806 -0.2568 -0.3562  0.2114
 2291SOL    HW118332   4.361   4.248  12.713 -1.3121 -0.5547  0.3081
 2291SOL    HW218333   4.385   4.363  12.813 -0.4426 -0.3865  1.2120
 2292SOL     OW18334   2.043   1.260   1.981  0.2836  0.1500 -0.0600
 2292SOL    HW118335   1.960   1.234   1.940  0.7971 -1.2833 -0.1957
 2292SOL    HW218336   2.074   1.187   2.034 -0.1914  1.3910  1.9142
 2293SOL     OW18337   2.838   0.591   9.773  0.2391  0.1841  0.2534
 2293SOL    HW118338   2.821   0.655   9.704  1.4606 -0.6620 -0.8174
 2293SOL    HW218339   2.772   0.609   9.840 -0.2025 -0.9656  0.1168
 2294SOL     OW18340   2.990   3.979  16.062 -0.1705 -0.0225 -0.0947
 2294SOL    HW118341   3.016   4.068  16.084  0.4430 -0.4399  0.8896
 2294SOL    HW218342   2.900   3.996  16.033  0.0898 -0.8595 -1.4083
 2295SOL     OW18343   0.780   3.170   8.346  0.0626  0.7164 -0.3031
 2295SOL    HW118344   0.741   3.129   8.424  2.2404  0.4083  0.6173
 2295SOL    HW218345   0.874   3.165   8.358 -0.4031 -2.2313  2.1684
 2296SOL     OW18346   3.278   2.079   7.597  0.0835  0.0301 -0.0160
 2296SOL    HW118347   3.333   2.002   7.615  1.5654  0.6285 -1.9931
 2296SOL    HW218348   3.192   2.059   7.635  0.1861  0.9126  0.6605
 2297SOL     OW18349   4.263   4.639   4.948  0.2651 -0.5700  0.0681
 2297SOL    HW118350   4.249   4.575   4.878 -0.3851  0.4413 -0.7293
 2297SOL    HW218351   4.281   0.002   4.903 -0.2668 -1.6556 -2.1373
 2298SOL     OW18352   0.610   1.651   0.429  0.3795  0.2890  0.0851
 2298SOL    HW118353   0.549   1.690   0.365  0.6467  0.2135 -0.2160
 2298SOL    HW218354   0.612   1.564   0.388 -1.9831 -0.7006  2.0251
 2299SOL     OW18355   3.514   0.603   3.190 -0.6619  0.1082  0.2770
 2299SOL    HW118356   3.457   0.544   3.240  2.7698 -3.4831 -0.0328
 2299SOL    HW218357   3.512   0.672   3.257  0.5188  0.0951  0.3320
 2300SOL     OW18358   3.438   3.008   4.851  0.2352  0.5671 -0.0622
 2300SOL    HW118359   3.419   3.100   4.832  0.8528 -0.0166 -3.4724
 2300SOL    HW218360   3.460   3.016   4.944 -1.2223  0.9981  0.2421
 2301SOL     OW18361   3.963   1.377  10.925 -0.1367  0.0640  0.3611
 2301SOL    HW118362   3.930   1.452  10.976  2.1481 -1.1065  3.5812
 2301SOL    HW218363   3.890   1.324  10.895 -0.3038  0.0110  0.8630
 2302SOL     OW18364   4.322   0.270  15.859  0.4816  0.1726 -0.1106
 2302SOL    HW118365   4.264   0.336  15.821  1.8074  0.6896 -1.2517
 2302SOL    HW218366   4.323   0.301  15.950 -0.6980 -0.6448  0.1728
 2303SOL     OW18367   2.023   1.927   3.379  0.2953 -0.4729  0.7807
 2303SOL    HW118368   1.993   1.973   3.301 -1.7264 -1.5921  0.9047
 2303SOL    HW218369   1.995   1.991   3.444 -1.7167  1.8286 -2.3480
 2304SOL     OW18370   0.344   1.777   5.419 -0.2923  0.1539 -0.1620
 2304SOL    HW118371   0.398   1.802   5.494  1.6745  0.6707 -1.7513
 2304SOL    HW218372   0.378   1.690   5.400 -2.2172 -0.3597 -1.3192
 2305SOL     OW18373   1.485   4.603   2.522  0.2000  0.1356 -0.6113
 2305SOL    HW118374   1.552   4.671   2.526 -0.7565  1.1276 -1.6301
 2305SOL    HW218375   1.529   4.526   2.560  1.6405  0.8106 -0.9330
 2306SOL     OW18376   3.668   3.012   8.399 -0.0839  0.4414 -0.4537
 2306SOL    HW118377   3.760   3.007   8.426 -0.1257  1.4625 -0.1099
 2306SOL    HW218378   3.655   2.924   8.364 -1.5367  0.4731  0.0258
 2307SOL     OW18379   0.973   1.946  14.522 -0.2079 -0.3137  0.2328
 2307SOL    HW118380   0.915   1.880  14.560 -2.8618  0.6184 -2.1706
 2307SOL    HW218381   1.045   1.947  14.584  0.5516  0.1750 -0.6518
 2308SOL     OW18382   3.956   4.262   2.390  0.5432  0.6706  0.0541
 2308SOL    HW118383   4.031   4.245   2.448 -0.0895  0.6152  0.8519
 2308SOL    HW218384   4.000   4.299   2.313  0.5234 -0.7730 -0.6508
 2309SOL     OW18385   4.144   4.356   8.503  0.1540  0.0397 -0.3498
 2309SOL    HW118386   4.143   4.372   8.408 -0.4377 -0.2801 -0.3959
 2309SOL    HW218387   4.087   4.280   8.510  0.1269  0.1519  0.6662
 2310SOL     OW18388   0.378   1.474   5.377  0.3707  0.1279 -0.2544
 2310SOL    HW118389   0.473   1.489   5.371  0.4848 -0.4594  0.1443
 2310SOL    HW218390   0.351   1.453   5.287 -3.1945  2.7698  0.1932
 2311SOL     OW18391   1.807   3.427  16.656 -0.2795 -0.0450 -0.7642
 2311SOL    HW118392   1.864   3.371  16.709  0.9464  0.5923 -1.4077
 2311SOL    HW218393   1.743   3.458  16.720  2.6276  1.5038  1.3984
 2312SOL     OW18394   2.562   3.901   2.487 -0.7196 -0.4648  0.2572
 2312SOL    HW118395   2.632   3.854   2.442 -0.5934  0.6290 -0.7141
 2312SOL    HW218396   2.507   3.828   2.516 -0.4762 -0.1553  1.4619
 2313SOL     OW18397   4.518   1.658   7.342 -0.0477 -0.0315  0.1182
 2313SOL    HW118398   4.432   1.618   7.350  0.1977  0.2049  3.8926
 2313SOL    HW218399   4.576   1.610   7.401 -1.2059  1.1408  2.2399
 2314SOL     OW18400   2.022   0.974   2.599 -0.1802 -0.0783  0.1139
 2314SOL    HW118401   2.081   1.001   2.528 -1.3699 -0.1564 -0.9093
 2314SOL    HW218402   2.072   0.948   2.676  0.6899 -0.1273 -0.4647
 2315SOL     OW18403   1.576   3.681   2.521 -0.4273 -0.7587 -0.0739
 2315SOL    HW118404   1.545   3.764   2.557  1.7857  0.1262 -0.2583
 2315SOL    HW218405   1.609   3.701   2.434 -1.4190  1.0198 -0.0408
 2316SOL     OW18406   1.236   2.166   9.054  0.1124 -0.0169 -0.0759
 2316SOL    HW118407   1.327   2.175   9.026 -0.8224  1.4019 -2.6558
 2316SOL    HW218408   1.203   2.107   8.986  0.9647 -0.3477 -0.2004
 2317SOL     OW18409   0.025   3.233   5.174  0.2898 -0.0677  0.0941
 2317SOL    HW118410   4.694   3.233   5.093  1.0287 -1.0688 -0.3711
 2317SOL    HW218411   0.113   3.233   5.136  1.0844 -1.2825  1.9156
 2318SOL     OW18412   3.022   0.814   4.777  0.3094  0.1745 -0.3805
 2318SOL    HW118413   3.046   0.768   4.697  2.5889 -1.0438  1.0076
 2318SOL    HW218414   3.046   0.744   4.838 -0.0855  0.4938  0.1476
 2319SOL     OW18415   4.645   2.346  10.392 -0.2973  0.3221 -0.3702
 2319SOL    HW118416   4.698   2.300  10.457  0.8669  0.1933 -1.4212
 2319SOL    HW218417   4.573   2.283  10.386  0.0727  0.2296 -4.2296
 2320SOL     OW18418   3.338   0.609  12.320 -0.4605 -0.2327  0.3596
 2320SOL    HW118419   3.337   0.644  12.231  0.7526  1.2320  0.9274
 2320SOL    HW218420   3.375   0.683  12.368 -0.1774 -0.6064  0.7121
 2321SOL     OW18421   4.325   1.081   3.459 -0.8868  0.3445  0.0348
 2321SOL    HW118422   4.283   1.017   3.401 -2.0074  0.7096  0.4396
 2321SOL    HW218423   4.414   1.047   3.471  0.1049  2.3260 -1.6427
 2322SOL     OW18424   3.474   0.395   5.647  0.5860 -0.0804  0.3760
 2322SOL    HW118425   3.453   0.324   5.707 -1.2345  0.1331 -0.0012
 2322SOL    HW218426   3.568   0.383   5.658  1.3131  3.1151 -2.1782
 2323SOL     OW18427   4.297   1.479  11.978  0.0473  0.3148 -0.3377
 2323SOL    HW118428   4.381   1.522  11.960  1.7410 -1.2310  3.8043
 2323SOL    HW218429   4.330   1.437  12.058  0.3527 -2.1957 -1.7730
 2324SOL     OW18430   3.466   0.655   5.625  0.3743  0.0503  0.1174
 2324SOL    HW118431   3.469   0.561   5.605  2.0859 -0.1889  1.5588
 2324SOL    HW218432   3.511   0.690   5.548 -2.2790  2.2592 -0.4168
 2325SOL     OW18433   0.415   3.611  11.895 -0.1286  0.0322  0.0552
 2325SOL    HW118434   0.436   3.533  11.948  0.7553  0.2240 -0.0042
 2325SOL    HW218435   0.322   3.595  11.880 -0.2112 -0.3110  0.9208
 2326SOL     OW18436   1.735   1.487   7.879  0.2270 -0.8860  0.0988
 2326SOL    HW118437   1.663   1.476   7.818 -0.5849 -2.8766  1.4094
 2326SOL    HW218438   1.688   1.469   7.961  1.1217 -1.9583  0.3893
 2327SOL     OW18439   3.553   1.635  11.236  0.1183  0.4136 -0.3109
 2327SOL    HW118440   3.489   1.695  11.200 -1.4190 -1.0443 -0.0317
 2327SOL    HW218441   3.497   1.572  11.283  0.5147 -0.7113 -1.3347
 2328SOL     OW18442   2.779   3.242   7.195 -0.6800  0.4283 -0.2479
 2328SOL    HW118443   2.763   3.155   7.160  0.9611  0.2646 -0.5839
 2328SOL    HW218444   2.817   3.222   7.280 -1.1889 -1.6395 -0.5205
 2329SOL     OW18445   1.887   3.675   4.600  0.0220 -0.3746  0.6059
 2329SOL    HW118446   1.927   3.691   4.515 -0.9586 -1.3513 -0.0496
 2329SOL    HW218447   1.803   3.638   4.572  0.6797 -2.1532  0.9500
 2330SOL     OW18448   0.101   2.054  17.356 -0.6435 -0.6564 -0.5787
 2330SOL    HW118449   0.012   2.046  17.389 -0.7737  2.4326 -0.2063
 2330SOL    HW218450   0.143   2.007  17.428 -0.7782 -2.5781 -1.7654
 2331SOL     OW18451   4.131   2.851   1.132 -0.2316  0.3597 -0.0861
 2331SOL    HW118452   4.107   2.941   1.152  0.2540  0.3991  0.3045
 2331SOL    HW218453   4.167   2.869   1.045 -1.9064  0.8673 -0.6689
 2332SOL     OW18454   0.218   4.074  13.648  0.1528  0.4250 -0.2140
 2332SOL    HW118455   0.288   4.042  13.705 -0.8205  1.7217  1.7353
 2332SOL    HW218456   0.265   4.109  13.572  1.1661  2.4095  1.3211
 2333SOL     OW18457   3.836   2.434   1.324  0.1870 -0.1958  0.3737
 2333SOL    HW118458   3.903   2.500   1.308 -1.4233  0.6731 -2.7356
 2333SOL    HW218459   3.768   2.462   1.262  1.4579  0.0582 -0.9050
 2334SOL     OW18460   0.607   1.721   2.833 -0.1328 -0.1405  0.0282
 2334SOL    HW118461   0.616   1.813   2.859  1.4618  0.3570 -2.3815
 2334SOL    HW218462   0.512   1.708   2.833 -0.3754  1.6833 -1.7609
 2335SOL     OW18463   0.933   2.940   7.012 -0.0290 -0.0877 -0.3876
 2335SOL    HW118464   0.939   2.950   7.107 -0.1933 -0.6176 -0.3217
 2335SOL    HW218465   0.856   2.883   7.013 -0.2495  0.2041 -0.9500
 2336SOL     OW18466   0.273   0.400   9.226 -0.0494 -0.1171  0.2285
 2336SOL    HW118467   0.240   0.367   9.310 -0.6686 -0.6937 -0.2454
 2336SOL    HW218468   0.212   0.365   9.161 -0.6055 -1.3822  1.4491
 2337SOL     OW18469   4.715   4.708   7.844  0.3313  0.5300 -0.1978
 2337SOL    HW118470   0.014   4.619   7.875  0.8520  1.2052  1.3904
 2337SOL    HW218471   4.629   4.702   7.802 -0.9148  2.4059  2.1103
 2338SOL     OW18472   4.509   2.744   4.407 -0.1572  0.5155  0.3983
 2338SOL    HW118473   4.531   2.676   4.471 -0.0093  0.5235  0.3579
 2338SOL    HW218474   4.476   2.694   4.333  0.4952  0.3893  0.1856
 2339SOL     OW18475   3.536   4.642   9.418 -0.3523 -0.5326  0.6240
 2339SOL    HW118476   3.525   0.006   9.464 -3.0941 -0.3932 -0.2677
 2339SOL    HW218477   3.583   4.678   9.342 -1.0374 -0.9956 -0.0205
 2340SOL     OW18478   0.145   1.204   7.110  0.5670  0.5860  0.4629
 2340SOL    HW118479   0.068   1.191   7.166 -0.8316 -1.2472 -1.8613
 2340SOL    HW218480   0.205   1.151   7.162 -0.9820 -1.7900 -0.1650
 2341SOL     OW18481   4.422   2.893   1.798 -0.2621  0.7773 -0.2011
 2341SOL    HW118482   4.463   2.814   1.835 -0.4107  0.4188 -0.8027
 2341SOL    HW218483   4.344   2.852   1.760  0.9293  0.6856 -2.5089
 2342SOL     OW18484   3.540   0.275   8.541 -0.2932  0.1708  0.4043
 2342SOL    HW118485   3.456   0.307   8.573 -0.4541  0.2045 -0.0486
 2342SOL    HW218486   3.583   0.352   8.501  1.5369 -0.0915  1.8803
 2343SOL     OW18487   3.085   0.443   1.912  0.2564 -0.1112 -0.1381
 2343SOL    HW118488   3.146   0.413   1.844 -0.1356 -0.7263 -0.2137
 2343SOL    HW218489   3.057   0.363   1.956  0.4686  0.7143  1.4726
 2344SOL     OW18490   3.340   2.169   5.592 -0.4363  0.3950 -0.4016
 2344SOL    HW118491   3.352   2.263   5.605  1.4470  0.4929 -2.9515
 2344SOL    HW218492   3.331   2.161   5.497  1.8985  2.4383 -0.7931
 2345SOL     OW18493   3.786   4.062  17.545  0.0735 -0.4001 -0.2711
 2345SOL    HW118494   3.747   3.980  17.574  1.0134 -0.1440  1.7719
 2345SOL    HW218495   3.724   4.085  17.477 -1.0147 -2.4615  0.0219
 2346SOL     OW18496   3.390   3.411   7.003 -0.2379  0.1126  0.8519
 2346SOL    HW118497   3.424   3.419   7.092  0.4820 -0.7905  0.6617
 2346SOL    HW218498   3.370   3.317   7.000 -0.3433  0.1730 -0.1979
 2347SOL     OW18499   2.445   3.703   2.992  0.5487 -0.2217 -0.0208
 2347SOL    HW118500   2.375   3.675   3.051 -0.1957  2.7073  0.5050
 2347SOL    HW218501   2.398   3.727   2.913 -0.0468  0.2047  0.4576
 2348SOL     OW18502   4.035   0.345  10.862  0.2428  0.2103  0.1225
 2348SOL    HW118503   3.995   0.322  10.778 -2.3285  0.3485  1.3325
 2348SOL    HW218504   4.055   0.434  10.832 -0.0622  0.0464 -0.5708
 2349SOL     OW18505   1.028   3.633   7.202 -0.2764 -0.8638 -0.2756
 2349SOL    HW118506   1.047   3.550   7.245  2.2845 -0.6112 -0.8878
 2349SOL    HW218507   0.961   3.609   7.138 -1.1065  0.1360  0.2206
 2350SOL     OW18508   1.567   4.487   2.203 -0.3907 -0.2068 -0.5330
 2350SOL    HW118509   1.570   4.489   2.107  0.3624  0.2577 -0.4998
 2350SOL    HW218510   1.609   4.406   2.231 -2.8429 -0.6871  1.8058
 2351SOL     OW18511   2.958   2.337   5.051 -0.3984 -0.7874  0.0622
 2351SOL    HW118512   2.912   2.421   5.044  1.7304  0.4603  1.0767
 2351SOL    HW218513   3.009   2.358   5.129  0.3871  0.4142 -0.7678
 2352SOL     OW18514   0.851   2.704   6.747  0.1224  0.6538 -0.0131
 2352SOL    HW118515   0.931   2.703   6.695  1.1566 -2.8845  1.6455
 2352SOL    HW218516   0.894   2.673   6.827  2.3686 -0.5109 -1.6834
 2353SOL     OW18517   3.401   4.562   0.796  0.2997  0.3966  0.0294
 2353SOL    HW118518   3.333   4.508   0.837  0.9575 -0.3001  0.2032
 2353SOL    HW218519   3.398   4.644   0.846  1.0930  2.5118 -3.3735
 2354SOL     OW18520   2.567   2.193   4.949 -0.6546  0.3609  0.0201
 2354SOL    HW118521   2.574   2.284   4.918 -1.4210  0.7498  0.9632
 2354SOL    HW218522   2.633   2.137   4.908 -1.2559  0.8344 -1.6121
 2355SOL     OW18523   4.604   4.375   8.101  0.3709 -0.3674 -0.1649
 2355SOL    HW118524   4.568   4.287   8.108 -0.0260 -0.2056 -0.1231
 2355SOL    HW218525   4.612   4.402   8.192  0.9788  0.7900 -0.5564
 2356SOL     OW18526   3.793   0.493   5.127 -0.0142  0.5018  0.4891
 2356SOL    HW118527   3.821   0.454   5.044  2.8631  2.5114  0.5262
 2356SOL    HW218528   3.713   0.441   5.137  0.4344 -0.8734 -2.9638
 2357SOL     OW18529   1.061   2.679   3.674 -0.1875  0.3144  0.2580
 2357SOL    HW118530   0.974   2.707   3.646  0.0175  0.2645 -0.4223
 2357SOL    HW218531   1.035   2.606   3.729 -0.9515 -0.0594 -0.5920
 2358SOL     OW18532   3.818   2.765  15.216  0.2425  0.0224 -0.0722
 2358SOL    HW118533   3.885   2.803  15.273  0.7129 -0.5281 -0.2569
 2358SOL    HW218534   3.756   2.717  15.272  2.3113 -1.4404  0.9681
 2359SOL     OW18535   4.040   0.135  10.197 -0.9311  0.2211 -0.3102
 2359SOL    HW118536   4.097   0.198  10.155 -0.2958  0.0822  0.3399
 2359SOL    HW218537   3.963   0.150  10.142 -2.0678  1.4657  1.6398
 2360SOL     OW18538   1.169   1.505  10.707 -0.0883 -0.1629  0.4592
 2360SOL    HW118539   1.137   1.591  10.679  0.3107 -0.4076 -0.7456
 2360SOL    HW218540   1.107   1.480  10.775 -1.4696 -0.1247 -0.7977
 2361SOL     OW18541   4.197   4.177   2.042 -0.6197  0.4087 -0.0060
 2361SOL    HW118542   4.184   4.083   2.050 -1.3533  0.4622 -0.5113
 2361SOL    HW218543   4.153   4.190   1.958 -1.4160  1.4480  0.5680
 2362SOL     OW18544   1.288   3.288   4.325 -0.0603 -0.3587  0.3086
 2362SOL    HW118545   1.276   3.290   4.230  1.0114  1.4108  0.2082
 2362SOL    HW218546   1.322   3.200   4.342  1.6081  0.2711  0.2335
 2363SOL     OW18547   3.287   0.094   4.869  0.3929  0.2326 -0.5315
 2363SOL    HW118548   3.196   0.124   4.872  0.2030 -0.5093  1.4506
 2363SOL    HW218549   3.307   0.095   4.963 -2.0068 -3.5697  0.0017
 2364SOL     OW18550   3.744   4.515  11.503 -0.5493  0.6419 -0.3802
 2364SOL    HW118551   3.773   4.598  11.539 -0.1428  0.2397  0.2164
 2364SOL    HW218552   3.825   4.463  11.503 -0.8110  0.2303 -0.3815
 2365SOL     OW18553   4.331   3.247   3.747 -0.5628 -0.3500  0.1081
 2365SOL    HW118554   4.255   3.297   3.717  1.5372  3.0188  0.5025
 2365SOL    HW218555   4.387   3.311   3.790 -1.6488  0.7499 -0.1269
 2366SOL     OW18556   1.491   3.097   2.406  0.2636  0.1604  0.5985
 2366SOL    HW118557   1.486   3.183   2.363  0.0606  0.3014  0.9077
 2366SOL    HW218558   1.541   3.047   2.340  0.7613 -0.6014  1.5543
 2367SOL     OW18559   3.041   2.770   5.614 -0.8979  0.0448  0.3129
 2367SOL    HW118560   2.977   2.751   5.684 -2.6870  3.3147 -0.4155
 2367SOL    HW218561   3.104   2.801   5.680 -2.0001 -0.3473  1.5617
 2368SOL     OW18562   1.597   1.347   2.090  0.6133  0.0270  0.6125
 2368SOL    HW118563   1.614   1.259   2.123  0.4456 -0.2433 -0.0101
 2368SOL    HW218564   1.682   1.358   2.046 -1.6212  0.7736 -3.5067
 2369SOL     OW18565   4.551   4.460   9.638  0.4750 -0.2755 -0.1469
 2369SOL    HW118566   4.551   4.472   9.733  1.3420 -0.0166 -0.1822
 2369SOL    HW218567   4.480   4.521   9.617 -0.4552 -2.4311 -3.2817
 2370SOL     OW18568   0.987   4.419   0.326  0.0557 -0.0394 -0.3340
 2370SOL    HW118569   0.915   4.362   0.353 -0.3700  1.5219  1.8242
 2370SOL    HW218570   1.061   4.362   0.349 -0.4817 -0.3705  0.5789
 2371SOL     OW18571   0.530   3.647   6.064  0.4235  0.2225  0.1251
 2371SOL    HW118572   0.564   3.640   5.975  1.4990 -1.0046  0.6333
 2371SOL    HW218573   0.543   3.740   6.084  0.2563 -0.1440  1.9629
 2372SOL     OW18574   2.983   0.070   7.518  0.2249  0.6588  0.5712
 2372SOL    HW118575   2.990   0.037   7.608 -1.6197  1.3298  0.9488
 2372SOL    HW218576   2.952   0.158   7.540 -0.2017  1.2884 -2.6138
 2373SOL     OW18577   2.503   1.977   5.654  0.4227  0.9043  0.7993
 2373SOL    HW118578   2.509   2.072   5.650  3.1455  0.7825  1.7157
 2373SOL    HW218579   2.575   1.954   5.713  1.2405  1.5551  0.0564
 2374SOL     OW18580   1.958   4.604  12.372  0.2609 -0.5154 -0.6910
 2374SOL    HW118581   1.952   4.556  12.455  2.9239 -0.6663 -0.5793
 2374SOL    HW218582   1.963   4.693  12.407 -0.9611 -0.4635 -0.6297
 2375SOL     OW18583   4.630   3.632   7.698  0.0774 -0.2146  0.3341
 2375SOL    HW118584   4.667   3.666   7.780  1.5530  0.5596 -0.6551
 2375SOL    HW218585   4.676   3.550   7.681 -2.2619 -1.3673 -0.3442
 2376SOL     OW18586   2.990   2.775   2.681 -0.0953  0.1503 -0.0823
 2376SOL    HW118587   2.899   2.804   2.682 -0.7075 -1.7806  0.3411
 2376SOL    HW218588   3.025   2.837   2.745 -3.3522  0.4248  1.4258
 2377SOL     OW18589   1.646   3.071   6.914  0.5559 -0.3452  0.3424
 2377SOL    HW118590   1.721   3.037   6.865 -0.7993  0.6352 -2.4174
 2377SOL    HW218591   1.683   3.068   7.002  1.4072  1.1988  0.0229
 2378SOL     OW18592   1.492   1.527  12.704  0.4413  0.1721  0.0728
 2378SOL    HW118593   1.518   1.436  12.720  1.7312  0.7920  1.5739
 2378SOL    HW218594   1.533   1.585  12.768 -0.9042  0.1872  0.9104
 2379SOL     OW18595   1.833   2.059   1.270  0.5549 -0.4345 -0.3759
 2379SOL    HW118596   1.894   2.038   1.341  1.2544  2.0675 -0.2643
 2379SOL    HW218597   1.786   2.135   1.303  0.0256 -1.4960  1.3481
 2380SOL     OW18598   0.298   0.817   7.131 -0.2765 -0.1525  0.2655
 2380SOL    HW118599   0.241   0.786   7.202  0.3019  0.5672  1.0455
 2380SOL    HW218600   0.323   0.736   7.087  1.0285  0.3015  0.1846
 2381SOL     OW18601   1.824   3.127   0.387 -0.0898 -0.0732  0.3161
 2381SOL    HW118602   1.918   3.141   0.377 -0.2724 -0.1524 -1.5534
 2381SOL    HW218603   1.826   3.115   0.482  1.1956  1.2437  0.4385
 2382SOL     OW18604   4.465   2.476   0.398 -0.0675 -0.3015 -0.0788
 2382SOL    HW118605   4.530   2.545   0.413 -0.4836  0.3573 -1.2777
 2382SOL    HW218606   4.527   2.406   0.379  0.3060  0.6344 -2.2973
 2383SOL     OW18607   2.390   1.628  16.860 -0.4355 -0.1459  0.9005
 2383SOL    HW118608   2.389   1.559  16.793 -1.4592  1.3740 -0.6532
 2383SOL    HW218609   2.341   1.700  16.821 -3.8263 -3.0224 -0.1701
 2384SOL     OW18610   0.847   0.370   9.665 -0.4127 -0.0512 -0.0467
 2384SOL    HW118611   0.866   0.360   9.758 -1.7709  1.4177  0.3860
 2384SOL    HW218612   0.934   0.392   9.631 -0.1007  2.0842  2.1515
 2385SOL     OW18613   3.268   0.525   3.041 -0.0892  0.2591  0.3612
 2385SOL    HW118614   3.287   0.561   2.954 -0.5142  1.6527  0.8316
 2385SOL    HW218615   3.334   0.573   3.092  0.1100 -1.2318  1.4983
 2386SOL     OW18616   4.631   1.143   6.587 -0.2806 -0.1379  0.3093
 2386SOL    HW118617   4.608   1.216   6.645  1.4999 -2.0310  3.4020
 2386SOL    HW218618   4.702   1.106   6.639  1.3286  2.9280  0.3117
 2387SOL     OW18619   2.950   1.381   2.144  0.2271  0.4413  0.1050
 2387SOL    HW118620   2.976   1.387   2.052  1.5182  1.5604  0.5440
 2387SOL    HW218621   2.889   1.455   2.142  2.9779  2.7486  2.4182
 2388SOL     OW18622   0.357   0.145  15.438  1.0803 -0.5224  0.2958
 2388SOL    HW118623   0.347   0.049  15.441 -0.1471 -0.3856  0.3212
 2388SOL    HW218624   0.306   0.161  15.359 -0.7598 -1.6067  1.2595
 2389SOL     OW18625   1.712   4.100   3.898 -0.5881  0.2911  0.0360
 2389SOL    HW118626   1.672   4.123   3.982 -0.9271  0.0665 -0.0624
 2389SOL    HW218627   1.632   4.058   3.864  0.1209 -1.1933  0.1868
 2390SOL     OW18628   4.020   3.070   4.612 -0.3178  0.0422  0.0384
 2390SOL    HW118629   4.093   3.017   4.581  0.1558  0.0186  1.2109
 2390SOL    HW218630   3.968   3.005   4.659 -1.3047 -1.1550 -2.7364
 2391SOL     OW18631   4.044   1.608   2.594 -0.4071 -0.4244 -0.0365
 2391SOL    HW118632   4.019   1.675   2.530 -1.3586  0.1776  0.9632
 2391SOL    HW218633   4.139   1.608   2.592 -0.4117  0.5585 -0.2999
 2392SOL     OW18634   0.120   2.823   2.920  0.3450 -0.3383  0.2456
 2392SOL    HW118635   0.184   2.806   2.850  2.6951 -0.9291  2.5581
 2392SOL    HW218636   0.053   2.868   2.868 -1.2360 -1.2838  1.4671
 2393SOL     OW18637   2.013   0.735   3.932  0.0643 -0.4927  0.4936
 2393SOL    HW118638   2.076   0.709   3.865 -1.4663 -0.8246 -0.8140
 2393SOL    HW218639   2.039   0.677   4.005  1.7447 -0.2049  0.1354
 2394SOL     OW18640   2.264   0.078   2.866 -0.3136 -0.5474 -0.2328
 2394SOL    HW118641   2.209   0.035   2.800  2.2598 -2.5232 -1.1136
 2394SOL    HW218642   2.302   0.142   2.807 -1.0826  0.9434  0.8992
 2395SOL     OW18643   2.180   1.001  13.915 -0.3460 -0.1404 -0.1075
 2395SOL    HW118644   2.170   0.967  13.826 -0.5514  1.0572 -0.5372
 2395SOL    HW218645   2.170   0.922  13.969  0.9992  0.2263  0.6730
 2396SOL     OW18646   4.331   3.403   7.724 -0.3379 -0.7439 -0.0079
 2396SOL    HW118647   4.384   3.345   7.778 -0.6598  0.9024  2.0998
 2396SOL    HW218648   4.357   3.384   7.634  2.0736  0.4256  0.4427
 2397SOL     OW18649   0.116   0.982   3.389  0.0708 -0.6662  0.5029
 2397SOL    HW118650   0.098   0.995   3.296 -0.1728 -0.6111  0.5581
 2397SOL    HW218651   0.026   1.004   3.415 -0.3334 -0.7109 -0.8538
 2398SOL     OW18652   4.457   1.373   6.249  0.0806  0.0162 -0.6216
 2398SOL    HW118653   4.392   1.309   6.280 -0.6705  0.7864 -0.6086
 2398SOL    HW218654   4.392   1.431   6.209  0.3633  1.0596  0.4138
 2399SOL     OW18655   0.963   1.188   4.357  0.0884  0.3807  0.0013
 2399SOL    HW118656   0.964   1.260   4.294  1.2946 -0.3946 -0.8512
 2399SOL    HW218657   0.900   1.128   4.317  1.2732 -0.0771 -1.1845
 2400SOL     OW18658   0.098   1.098   2.890  0.4772 -1.0175  0.1602
 2400SOL    HW118659   0.083   1.086   2.796  2.6182  0.9270 -0.4290
 2400SOL    HW218660   0.165   1.167   2.892 -0.4105 -0.1385 -0.6945
 2401SOL     OW18661   2.952   1.216   7.129 -0.3654  0.0129  0.4775
 2401SOL    HW118662   3.021   1.268   7.170  0.6088 -1.2727  0.5030
 2401SOL    HW218663   2.889   1.202   7.200 -1.7087 -0.2268 -0.7724
 2402SOL     OW18664   1.849   1.204   8.269 -0.2685  0.4171 -0.3327
 2402SOL    HW118665   1.888   1.194   8.356 -0.7094  1.6376  0.0061
 2402SOL    HW218666   1.836   1.299   8.263 -3.3258  0.0865  0.9680
 2403SOL     OW18667   1.381   2.470   2.609 -0.1179  0.3733  0.1576
 2403SOL    HW118668   1.331   2.432   2.682 -1.1155  2.0946  0.3654
 2403SOL    HW218669   1.469   2.433   2.617 -0.1664  0.0262 -1.0094
 2404SOL     OW18670   1.456   3.152  12.421  0.1716  0.4867 -0.0542
 2404SOL    HW118671   1.532   3.094  12.422  1.0751  1.6313 -1.0723
 2404SOL    HW218672   1.425   3.152  12.512  0.3859  0.8722  0.0220
 2405SOL     OW18673   4.691   3.204  12.785  0.0113  0.3294  0.4401
 2405SOL    HW118674   4.675   3.200  12.879 -0.6405 -1.1690  0.2751
 2405SOL    HW218675   4.601   3.204  12.752  0.0769 -1.8157  0.2286
 2406SOL     OW18676   4.385   4.548   4.295 -0.3999  0.1336 -0.6184
 2406SOL    HW118677   4.408   4.457   4.275  0.3695  0.0504  0.6672
 2406SOL    HW218678   4.315   4.562   4.232 -0.0423  0.4010 -0.9593
 2407SOL     OW18679   0.851   4.304  15.575  0.2610  0.2915  0.1558
 2407SOL    HW118680   0.876   4.250  15.500 -0.4304 -1.1787  0.9846
 2407SOL    HW218681   0.758   4.314  15.554  0.4758  2.9149  0.5223
 2408SOL     OW18682   3.928   1.875   6.519  0.2908  0.2040 -0.0963
 2408SOL    HW118683   3.854   1.925   6.554 -0.9934 -0.8114 -1.3087
 2408SOL    HW218684   3.970   1.851   6.601 -0.2427  2.0415  0.7017
 2409SOL     OW18685   2.050   2.883  16.547  0.0917 -0.7505  0.1297
 2409SOL    HW118686   2.113   2.819  16.515  1.1570  0.0709  0.5935
 2409SOL    HW218687   2.080   2.888  16.638 -0.9657  2.2863  0.3182
 2410SOL     OW18688   2.502   3.520   6.512 -0.1403  0.3340  0.8599
 2410SOL    HW118689   2.598   3.523   6.515 -0.1500  0.7635  0.8252
 2410SOL    HW218690   2.475   3.601   6.555  0.1247  1.0046 -0.2348
 2411SOL     OW18691   2.865   0.932  14.187 -0.6455 -0.1661 -0.0274
 2411SOL    HW118692   2.816   1.013  14.173  1.2189  1.2173  1.4513
 2411SOL    HW218693   2.794   0.880  14.223 -0.0919 -1.2007 -0.4378
 2412SOL     OW18694   4.012   3.682  15.790 -0.3697 -0.4381  0.1185
 2412SOL    HW118695   4.015   3.607  15.731  0.6214 -0.8188  0.6574
 2412SOL    HW218696   3.944   3.648  15.848  0.7337 -1.4528  0.8323
 2413SOL     OW18697   1.178   1.308   4.543  0.3183  0.5096  0.6193
 2413SOL    HW118698   1.107   1.317   4.607  0.7719 -0.3970  1.2440
 2413SOL    HW218699   1.129   1.296   4.462  0.2858 -1.1063  0.8902
 2414SOL     OW18700   3.365   2.021   8.984 -0.0162  0.4665  0.3549
 2414SOL    HW118701   3.425   1.960   8.941 -0.4257  0.2921  0.0305
 2414SOL    HW218702   3.389   2.109   8.954  0.7371  0.1619  0.0821
 2415SOL     OW18703   2.004   4.473  13.509  0.2140  0.4176  0.3373
 2415SOL    HW118704   2.024   4.548  13.565  0.5335  0.3036  0.3727
 2415SOL    HW218705   2.032   4.405  13.570 -1.7311  1.7557  2.7140
 2416SOL     OW18706   0.620   0.800  11.162 -0.3533 -0.4662  0.8204
 2416SOL    HW118707   0.547   0.821  11.220 -0.5295 -0.6552  0.6675
 2416SOL    HW218708   0.692   0.806  11.225  2.5026  1.6100 -2.6559
 2417SOL     OW18709   4.212   4.162  10.950 -0.2114  0.1620  0.5895
 2417SOL    HW118710   4.141   4.190  11.008  1.7362  4.4664  0.8468
 2417SOL    HW218711   4.241   4.085  10.999 -0.2476  0.2996  0.8289
 2418SOL     OW18712   2.653   2.889   7.467 -0.5331 -0.3040 -0.1297
 2418SOL    HW118713   2.647   2.967   7.412  0.8841  0.2557  0.5166
 2418SOL    HW218714   2.574   2.898   7.520 -1.4759 -0.1534 -1.5566
 2419SOL     OW18715   0.744   1.740  12.348  0.0538 -0.3742  0.0061
 2419SOL    HW118716   0.679   1.809  12.336  1.7182  1.1095 -0.4271
 2419SOL    HW218717   0.815   1.784  12.395  1.4415 -0.2585 -2.2341
 2420SOL     OW18718   4.433   0.159   3.327  0.4466  0.2174 -0.3846
 2420SOL    HW118719   4.413   0.122   3.241  1.3123  1.3516 -1.0592
 2420SOL    HW218720   4.363   0.224   3.333  1.2007  0.9540  0.2541
 2421SOL     OW18721   3.446   3.798   5.508 -0.0620 -0.3330  0.6699
 2421SOL    HW118722   3.486   3.717   5.538 -0.5590 -0.9757 -0.3916
 2421SOL    HW218723   3.454   3.782   5.414  0.4113  0.5946  0.5484
 2422SOL     OW18724   2.680   2.489   5.937 -0.2392  0.0167 -0.0896
 2422SOL    HW118725   2.661   2.478   6.030 -0.2481  3.0740  0.2597
 2422SOL    HW218726   2.754   2.428   5.929  1.3616  2.0002 -0.3004
 2423SOL     OW18727   2.777   3.425   1.923 -0.2030  0.5215 -0.1927
 2423SOL    HW118728   2.738   3.416   1.836 -0.1889 -1.2096 -0.0337
 2423SOL    HW218729   2.774   3.332   1.947 -0.3091  0.6424  0.2660
 2424SOL     OW18730   0.188   4.679   9.730  0.2342  0.0686  0.6480
 2424SOL    HW118731   0.176   0.021   9.802  1.3981  1.7795 -0.6152
 2424SOL    HW218732   0.213   0.023   9.663 -2.4789 -1.2196 -1.6041
 2425SOL     OW18733   1.138   1.969   6.205  0.4389  0.8189 -0.2182
 2425SOL    HW118734   1.197   1.970   6.280  0.0921 -1.1927  0.1051
 2425SOL    HW218735   1.060   2.022   6.224  0.6978  1.1238 -0.0080
 2426SOL     OW18736   0.589   4.073   8.333 -0.0243  0.1411  0.1602
 2426SOL    HW118737   0.632   4.049   8.251 -1.1132  0.4133 -0.4928
 2426SOL    HW218738   0.618   3.996   8.382 -3.0318 -1.0928  0.0017
 2427SOL     OW18739   4.198   2.335   6.073 -0.5869  0.5314  0.4441
 2427SOL    HW118740   4.212   2.345   6.167 -1.9055  0.3334  0.6751
 2427SOL    HW218741   4.222   2.242   6.066  0.8176  1.1109 -2.0498
 2428SOL     OW18742   3.658   2.137   6.145 -0.2653  0.2894 -0.3399
 2428SOL    HW118743   3.645   2.117   6.238  4.8694 -2.1422 -0.1066
 2428SOL    HW218744   3.609   2.071   6.096 -0.0629  1.4183 -2.0509
 2429SOL     OW18745   3.875   0.047  11.668  0.2745  0.3970 -0.1640
 2429SOL    HW118746   3.930   0.119  11.700  0.3959  0.2936 -0.1399
 2429SOL    HW218747   3.872   0.069  11.575 -0.2161 -2.6445 -0.8611
 2430SOL     OW18748   3.759   4.022   5.558  0.1665  0.4369 -0.0010
 2430SOL    HW118749   3.671   4.023   5.595 -0.3225  0.0265 -1.1698
 2430SOL    HW218750   3.741   3.964   5.485 -2.3667  2.6847 -1.1522
 2431SOL     OW18751   2.581   2.244   7.789  0.4164  0.1396 -0.0601
 2431SOL    HW118752   2.655   2.260   7.847  0.6817 -1.1275 -0.0600
 2431SOL    HW218753   2.517   2.228   7.859  0.5738 -1.1687 -0.2216
 2432SOL     OW18754   2.557   0.283   5.954  0.0571  0.0155 -0.1446
 2432SOL    HW118755   2.564   0.369   5.996 -0.0981 -0.2525  0.4143
 2432SOL    HW218756   2.498   0.300   5.880  0.3601  1.9537  0.0369
 2433SOL     OW18757   2.428   2.626   3.898 -0.2193 -0.3792  0.3809
 2433SOL    HW118758   2.513   2.623   3.943  1.4035 -0.5068 -2.6743
 2433SOL    HW218759   2.450   2.631   3.805 -0.3123 -0.9431  0.3250
 2434SOL     OW18760   1.863   0.578   4.933 -0.1105 -0.2021 -0.3341
 2434SOL    HW118761   1.780   0.537   4.954 -0.6591 -0.2184 -2.5387
 2434SOL    HW218762   1.862   0.577   4.837  3.8380  2.1623 -0.4061
 2435SOL     OW18763   0.789   0.368  15.200 -0.1134  0.0993  0.2973
 2435SOL    HW118764   0.738   0.302  15.247 -3.0754  1.3995 -1.1386
 2435SOL    HW218765   0.719   0.427  15.173 -0.0930  0.6858  1.5438
 2436SOL     OW18766   1.955   3.983   4.372 -0.2121  0.1792  0.1157
 2436SOL    HW118767   1.938   4.019   4.285  0.5626  0.8381  0.2460
 2436SOL    HW218768   1.949   3.889   4.357  0.5616  0.8122 -3.9732
 2437SOL     OW18769   4.442   4.016   2.553 -0.1945 -0.4267  0.3282
 2437SOL    HW118770   4.460   4.110   2.560  2.7704 -0.9254 -0.7965
 2437SOL    HW218771   4.464   3.999   2.461 -0.3935  0.3909  0.1230
 2438SOL     OW18772   2.432   0.473   9.249 -0.2109 -0.5823  0.3934
 2438SOL    HW118773   2.399   0.563   9.248 -1.4411 -1.0290 -1.6631
 2438SOL    HW218774   2.345   0.433   9.244  0.1390 -1.5677  2.3302
 2439SOL     OW18775   1.165   2.051  14.929 -0.6151  0.2690 -0.1060
 2439SOL    HW118776   1.243   2.027  14.979  0.3950  1.5982 -1.0277
 2439SOL    HW218777   1.109   1.974  14.932 -0.4851  0.2994  3.1899
 2440SOL     OW18778   2.121   0.968   7.774  0.4706 -0.2565  0.1192
 2440SOL    HW118779   2.047   0.993   7.719  0.7346  1.4867  0.5366
 2440SOL    HW218780   2.191   1.022   7.737 -0.8709  1.9504  0.8320
 2441SOL     OW18781   1.724   0.326   6.497 -0.7957  0.1293  0.1680
 2441SOL    HW118782   1.661   0.341   6.427 -0.9835  2.4079  0.8155
 2441SOL    HW218783   1.674   0.276   6.561  0.9720  1.4094  2.5480
 2442SOL     OW18784   2.352   1.381   1.958 -0.4301 -0.1902 -0.1162
 2442SOL    HW118785   2.298   1.415   2.029 -0.5662 -2.5262  0.8988
 2442SOL    HW218786   2.284   1.375   1.891 -1.2771  1.1590  0.6422
 2443SOL     OW18787   3.082   1.746   2.439  0.3955 -0.5840 -0.2916
 2443SOL    HW118788   3.001   1.783   2.474 -0.6543 -1.7312 -1.5138
 2443SOL    HW218789   3.096   1.669   2.494  2.4845 -0.0744 -0.0763
 2444SOL     OW18790   0.283   0.487   2.198 -0.2877  0.4111 -0.1468
 2444SOL    HW118791   0.337   0.566   2.208  0.6186 -0.0423 -1.4611
 2444SOL    HW218792   0.324   0.436   2.128 -0.4482  1.3313 -0.9139
 2445SOL     OW18793   2.240   4.633   8.379 -0.1851  0.4481  0.0326
 2445SOL    HW118794   2.244   4.608   8.471  0.2703  1.1448  0.1976
 2445SOL    HW218795   2.150   4.663   8.372 -0.5920 -0.8960 -0.4299
 2446SOL     OW18796   3.802   1.688  17.211 -0.4732 -0.1168  0.2168
 2446SOL    HW118797   3.838   1.603  17.236 -0.0587 -0.2544 -0.8424
 2446SOL    HW218798   3.714   1.686  17.249  0.1594 -0.7835  1.6345
 2447SOL     OW18799   1.532   3.635   3.973 -0.4726  0.2457  0.1954
 2447SOL    HW118800   1.467   3.616   4.040  0.5543 -1.3514  0.7663
 2447SOL    HW218801   1.557   3.722   4.004  2.9114 -0.5750 -0.1697
 2448SOL     OW18802   0.153   2.339   1.164 -0.1432 -0.1323 -0.2965
 2448SOL    HW118803   0.185   2.339   1.255 -2.8864 -0.9671  0.6843
 2448SOL    HW218804   0.231   2.366   1.117 -1.1389 -0.3996 -2.0827
 2449SOL     OW18805   0.979   0.685  16.601 -0.4557  0.0619 -0.4125
 2449SOL    HW118806   1.006   0.738  16.675  0.3407 -0.6995 -0.1521
 2449SOL    HW218807   0.884   0.695  16.609 -0.2953  1.5963 -0.4746
 2450SOL     OW18808   1.577   2.696   5.490  0.2024  0.2560  0.2222
 2450SOL    HW118809   1.584   2.644   5.410 -0.3412 -0.3042  0.5441
 2450SOL    HW218810   1.525   2.639   5.546 -0.6824 -0.2927 -1.1628
 2451SOL     OW18811   3.013   0.587   7.205 -0.1308 -0.2129  0.1710
 2451SOL    HW118812   3.046   0.549   7.286  1.1480 -1.0985 -0.7528
 2451SOL    HW218813   3.083   0.652   7.201  0.1193 -0.4222  1.1738
 2452SOL     OW18814   2.964   1.938   5.044 -0.1058 -0.0834  0.0078
 2452SOL    HW118815   2.977   2.003   4.975  2.3027 -1.1147 -0.5043
 2452SOL    HW218816   3.045   1.890   5.028 -0.2011 -0.7595  1.4837
 2453SOL     OW18817   3.265   1.071   4.576  0.0282 -0.5077 -0.4203
 2453SOL    HW118818   3.284   1.055   4.484 -2.5941  2.3021 -1.4524
 2453SOL    HW218819   3.334   1.137   4.581  1.8099 -2.4585  0.7413
 2454SOL     OW18820   4.561   3.195  13.624 -0.5469  0.1255  0.4871
 2454SOL    HW118821   4.475   3.227  13.597 -0.7690 -1.8126 -1.1079
 2454SOL    HW218822   4.531   3.113  13.663  0.0888  0.0537  0.8223
 2455SOL     OW18823   1.423   0.568   2.622 -0.2867 -0.1879 -0.3085
 2455SOL    HW118824   1.491   0.509   2.590 -0.2759  0.2661 -1.1354
 2455SOL    HW218825   1.443   0.643   2.565 -2.2379 -0.1996 -1.0032
 2456SOL     OW18826   2.136   1.161   5.445  0.4088  0.3092  0.2684
 2456SOL    HW118827   2.148   1.165   5.540  3.7740  0.5499 -0.1821
 2456SOL    HW218828   2.169   1.249   5.428 -1.1779  0.9167  0.2787
 2457SOL     OW18829   2.716   1.531  10.620 -0.4359 -0.2483  0.2672
 2457SOL    HW118830   2.695   1.555  10.530  2.1772 -1.1940 -0.5755
 2457SOL    HW218831   2.665   1.452  10.638 -0.4792 -0.4025 -0.5545
 2458SOL     OW18832   4.340   2.215  10.466 -0.4994  0.2093  0.3084
 2458SOL    HW118833   4.261   2.168  10.493 -0.3898 -0.1623 -0.0153
 2458SOL    HW218834   4.307   2.305  10.465  2.1378  1.1814 -0.0739
 2459SOL     OW18835   4.561   2.928   7.279 -0.7235 -0.2718 -0.1809
 2459SOL    HW118836   4.549   3.023   7.289 -0.5011 -0.0281 -2.1884
 2459SOL    HW218837   4.599   2.916   7.366 -0.7220  2.5771  0.2152
 2460SOL     OW18838   3.741   4.075   5.962  0.5319  0.8661  0.2488
 2460SOL    HW118839   3.742   4.144   6.028 -0.9715 -1.0739  2.3176
 2460SOL    HW218840   3.653   4.078   5.925 -0.7389  0.8697  3.2739
 2461SOL     OW18841   1.192   0.441   5.583  1.1278 -0.1779 -0.2629
 2461SOL    HW118842   1.156   0.406   5.665 -2.2862 -0.4383 -1.8477
 2461SOL    HW218843   1.106   0.449   5.541  1.2543 -3.1148 -1.1262
 2462SOL     OW18844   3.759   2.735   1.010  0.0983  0.0094  0.3318
 2462SOL    HW118845   3.831   2.752   0.949 -0.0948  2.0711  0.6669
 2462SOL    HW218846   3.751   2.815   1.062  2.3683  0.7439 -0.4917
 2463SOL     OW18847   4.602   1.706   4.457  0.2773  0.2117 -0.0914
 2463SOL    HW118848   4.599   1.736   4.366  1.6526  3.5255  0.9440
 2463SOL    HW218849   4.694   1.681   4.458  0.1612 -0.2336 -0.4865
 2464SOL     OW18850   1.383   1.472   5.800  0.0843 -0.6499 -0.5320
 2464SOL    HW118851   1.402   1.561   5.770  0.3924 -0.1186  1.2275
 2464SOL    HW218852   1.360   1.489   5.891  1.7492  3.3029 -0.8310
 2465SOL     OW18853   1.463   3.774   6.949  0.1543 -0.1161 -0.1722
 2465SOL    HW118854   1.412   3.743   6.874 -0.4054 -0.9624  0.5414
 2465SOL    HW218855   1.394   3.759   7.015  0.6486  1.8716  0.8093
 2466SOL     OW18856   2.269   1.391  10.418 -0.3337  0.1852  0.4744
 2466SOL    HW118857   2.313   1.424  10.497 -0.1588 -2.4281  1.4453
 2466SOL    HW218858   2.181   1.392  10.456  1.1957 -0.8052  4.0621
 2467SOL     OW18859   4.222   0.988   9.377 -0.2368  0.4246 -0.0029
 2467SOL    HW118860   4.248   1.079   9.364 -0.1073 -0.0661 -3.1961
 2467SOL    HW218861   4.145   1.005   9.432 -0.0941 -2.4025  1.0658
 2468SOL     OW18862   3.104   1.938  15.307  0.2294  0.9209  0.3641
 2468SOL    HW118863   3.106   1.999  15.233  0.8322  0.9637  0.4174
 2468SOL    HW218864   3.180   1.886  15.284 -1.7978 -2.8498  2.1914
 2469SOL     OW18865   0.890   1.009  13.553 -0.0036  0.1455 -0.0958
 2469SOL    HW118866   0.938   0.933  13.520  0.0808 -0.4837  1.4487
 2469SOL    HW218867   0.803   0.985  13.523  0.1565 -0.0765 -0.3849
 2470SOL     OW18868   1.901   2.749   2.299 -0.0345  0.7002  0.3310
 2470SOL    HW118869   1.861   2.727   2.383 -0.4858 -0.7714 -0.2675
 2470SOL    HW218870   1.964   2.815   2.329  0.3490  1.0208 -1.1711
 2471SOL     OW18871   1.915   0.318   2.505  0.2633  0.2674  0.5000
 2471SOL    HW118872   1.907   0.347   2.595  1.5338 -1.4629  1.1746
 2471SOL    HW218873   1.899   0.396   2.452 -2.2042 -0.3348  0.3690
 2472SOL     OW18874   0.481   1.203  10.769  0.7723  0.0695 -0.2340
 2472SOL    HW118875   0.541   1.278  10.762  0.8199  0.0973  0.5189
 2472SOL    HW218876   0.491   1.177  10.677 -0.4559  0.8053 -0.5691
 2473SOL     OW18877   1.882   0.163   7.601 -0.3400  0.2438 -0.2721
 2473SOL    HW118878   1.897   0.125   7.514  0.1927  1.8830 -0.8906
 2473SOL    HW218879   1.965   0.154   7.648 -0.5395  0.6058  0.1499
 2474SOL     OW18880   2.530   2.682   2.539  0.0725 -0.1789  0.4830
 2474SOL    HW118881   2.559   2.597   2.571 -1.5771 -1.2054 -0.7515
 2474SOL    HW218882   2.541   2.722   2.625 -2.5830  0.0865  0.7151
 2475SOL     OW18883   1.837   3.422   9.735  0.6186 -0.5088 -0.5182
 2475SOL    HW118884   1.857   3.427   9.642  0.6428  3.3315 -0.3158
 2475SOL    HW218885   1.814   3.514   9.751 -0.4828 -1.3384  2.5932
 2476SOL     OW18886   4.007   0.588   5.259 -0.2605  0.6573  0.1373
 2476SOL    HW118887   3.966   0.650   5.319  0.4646  1.2637  0.0104
 2476SOL    HW218888   3.929   0.543   5.228 -0.6632  1.1299  0.4682
 2477SOL     OW18889   1.654   2.509   7.078  0.2571  0.2975 -0.2626
 2477SOL    HW118890   1.602   2.546   7.007 -1.2612  1.2565  1.3622
 2477SOL    HW218891   1.647   2.415   7.062 -0.7817  0.3296  0.0161
 2478SOL     OW18892   0.201   0.649   0.623 -0.4069  0.0030  0.2046
 2478SOL    HW118893   0.152   0.725   0.653  0.5301  1.7474 -2.7428
 2478SOL    HW218894   0.153   0.635   0.542  0.8707  1.2333 -0.7473
 2479SOL     OW18895   4.352   0.625   3.208 -0.3052  0.0410  0.1565
 2479SOL    HW118896   4.422   0.685   3.184 -1.0668  0.8599 -0.0218
 2479SOL    HW218897   4.294   0.626   3.132  2.0942  0.1347 -1.6745
 2480SOL     OW18898   1.308   1.165   8.601  0.5751 -0.2131 -0.0829
 2480SOL    HW118899   1.293   1.072   8.580 -0.5130  0.2517 -1.3689
 2480SOL    HW218900   1.381   1.188   8.542 -0.0582  0.8652 -0.4270
 2481SOL     OW18901   4.483   1.583  16.364  0.2849  0.0922  0.5483
 2481SOL    HW118902   4.446   1.500  16.392 -4.2500  1.9290  0.0662
 2481SOL    HW218903   4.578   1.572  16.371  0.4717  0.5529 -1.2588
 2482SOL     OW18904   3.623   3.240   3.901  0.5529 -0.0790  0.2266
 2482SOL    HW118905   3.583   3.249   3.988  3.1482 -0.3260  1.4299
 2482SOL    HW218906   3.715   3.244   3.927  0.0719 -1.4835  2.1631
 2483SOL     OW18907   3.682   0.460   7.745 -0.6462  0.3911 -0.3507
 2483SOL    HW118908   3.770   0.466   7.708  0.8141  0.6270  3.1573
 2483SOL    HW218909   3.673   0.365   7.753  0.9051  0.5113  2.5746
 2484SOL     OW18910   3.598   1.170   8.153  0.6836  0.5977  0.0196
 2484SOL    HW118911   3.526   1.134   8.101  0.0253 -0.0171  1.3775
 2484SOL    HW218912   3.658   1.097   8.163  1.8795  1.2103 -2.5044
 2485SOL     OW18913   1.423   4.178   5.914 -0.3196 -0.2400  0.0063
 2485SOL    HW118914   1.390   4.267   5.926 -2.5019 -1.0298 -0.2198
 2485SOL    HW218915   1.514   4.205   5.898 -0.0776 -0.7465  0.5119
 2486SOL     OW18916   1.899   0.765   5.152 -0.0710  0.2095  0.0067
 2486SOL    HW118917   1.948   0.724   5.223 -0.1351  0.3437  0.1260
 2486SOL    HW218918   1.877   0.688   5.098  0.2550  0.4118 -0.4160
 2487SOL     OW18919   2.846   1.305   9.456  0.0080 -0.9610 -0.2630
 2487SOL    HW118920   2.912   1.250   9.498 -0.6121 -1.7874 -0.3723
 2487SOL    HW218921   2.895   1.337   9.380 -1.2911 -0.8731 -1.0533
 2488SOL     OW18922   4.446   3.486   3.891  0.2974 -0.4230 -0.3026
 2488SOL    HW118923   4.490   3.524   3.815  2.1631  0.8764  1.4214
 2488SOL    HW218924   4.434   3.568   3.940  0.0654  0.5830 -2.0468
 2489SOL     OW18925   3.598   3.185   1.382 -0.1721  0.0323 -0.2231
 2489SOL    HW118926   3.682   3.152   1.350  0.9070  2.6768 -0.1192
 2489SOL    HW218927   3.543   3.108   1.381 -1.3432  0.8754 -0.6673
 2490SOL     OW18928   3.340   2.200  16.952  0.6402 -0.1732 -0.1607
 2490SOL    HW118929   3.378   2.276  16.996  1.2709 -1.4315  1.4524
 2490SOL    HW218930   3.256   2.235  16.925 -0.6116 -1.5673  1.9414
 2491SOL     OW18931   2.490   2.929  16.426 -0.3193 -0.1301  0.5812
 2491SOL    HW118932   2.463   2.986  16.354 -0.3704  0.5749  1.1578
 2491SOL    HW218933   2.401   2.918  16.458 -0.5756  0.9711  0.2283
 2492SOL     OW18934   2.957   0.304   8.755 -0.1526  0.1272 -0.6740
 2492SOL    HW118935   2.891   0.347   8.810  1.9319  1.3482  0.8686
 2492SOL    HW218936   3.037   0.294   8.807 -0.1633  1.6428 -0.3607
 2493SOL     OW18937   3.029   3.739   9.596 -0.3999 -0.2213  0.4268
 2493SOL    HW118938   3.121   3.754   9.576 -1.0349  0.0127 -2.3679
 2493SOL    HW218939   3.006   3.647   9.583 -1.4524  0.2842 -1.2823
 2494SOL     OW18940   4.482   2.995   4.114  0.2822 -0.0801  0.8642
 2494SOL    HW118941   4.480   3.088   4.093  0.7010 -0.1439  0.5460
 2494SOL    HW218942   4.393   2.963   4.128  0.4547  0.3256  2.8735
 2495SOL     OW18943   3.657   2.782   3.489 -0.2244  0.2831  0.4199
 2495SOL    HW118944   3.744   2.756   3.519 -0.6479 -1.3081  0.2416
 2495SOL    HW218945   3.609   2.748   3.564  1.8158  0.1205  1.6487
 2496SOL     OW18946   3.309   0.908   7.532  0.9233  0.0743  0.1936
 2496SOL    HW118947   3.304   1.003   7.521  1.1446  0.0848  0.1981
 2496SOL    HW218948   3.367   0.886   7.459 -0.3569 -4.1116  0.4611
 2497SOL     OW18949   1.930   1.714   4.758  0.4727  0.2607 -0.3360
 2497SOL    HW118950   1.876   1.640   4.729  1.7456 -0.0357 -1.9269
 2497SOL    HW218951   2.020   1.684   4.751 -0.0496 -1.3426 -0.3608
 2498SOL     OW18952   0.745   2.382   7.287 -0.1773  0.0978  0.4855
 2498SOL    HW118953   0.783   2.463   7.322 -2.2466  0.2524  2.4098
 2498SOL    HW218954   0.688   2.353   7.359 -2.0295  1.7041 -0.3217
 2499SOL     OW18955   3.168   3.679   2.068  0.0009 -0.6432 -0.5347
 2499SOL    HW118956   3.085   3.679   2.021 -0.4546  0.6779  0.2825
 2499SOL    HW218957   3.199   3.589   2.059  0.7214 -0.7244  2.6321
 2500SOL     OW18958   0.085   0.618   5.848  0.3583  0.1516 -0.2504
 2500SOL    HW118959   0.003   0.598   5.893  0.0932 -0.3629 -0.9634
 2500SOL    HW218960   0.051   0.643   5.762  0.9375  3.3655  0.4660
 2501SOL     OW18961   0.745   3.823  14.634  0.1055 -0.3249  0.3128
 2501SOL    HW118962   0.676   3.773  14.591 -0.5610 -0.5252  1.6328
 2501SOL    HW218963   0.821   3.790  14.586  0.2142 -0.6185  0.6936
 2502SOL     OW18964   2.155   2.781  12.556 -0.5063 -0.2342 -0.3120
 2502SOL    HW118965   2.110   2.738  12.629  0.2935 -1.0061 -0.2798
 2502SOL    HW218966   2.184   2.857  12.607 -0.3053 -0.1784 -0.5111
 2503SOL     OW18967   0.734   3.421   2.475 -0.3878 -0.0562 -0.4812
 2503SOL    HW118968   0.806   3.485   2.472 -0.7742  0.5910  3.6149
 2503SOL    HW218969   0.740   3.382   2.562  0.0539  2.3149  0.5586
 2504SOL     OW18970   4.191   0.577   6.842 -0.2998 -0.6267 -0.3781
 2504SOL    HW118971   4.208   0.646   6.778 -0.3973  0.7932  1.1157
 2504SOL    HW218972   4.116   0.534   6.801  0.7403 -3.1545  0.3768
 2505SOL     OW18973   2.730   4.169   7.026 -0.3117  0.4700 -0.6047
 2505SOL    HW118974   2.760   4.259   7.014  0.5790  0.1883 -0.4623
 2505SOL    HW218975   2.803   4.126   6.982  0.3593  0.0396  0.9317
 2506SOL     OW18976   1.156   2.391  11.569 -0.3521 -0.6234  0.1870
 2506SOL    HW118977   1.219   2.329  11.604 -0.6592 -0.0386  1.7791
 2506SOL    HW218978   1.086   2.331  11.542 -1.5332 -0.2779  2.4717
 2507SOL     OW18979   3.308   2.905   1.332  0.4006 -0.3280 -0.2984
 2507SOL    HW118980   3.273   2.992   1.352 -2.7735 -1.5165 -0.7232
 2507SOL    HW218981   3.311   2.871   1.421  0.2296  0.2755 -0.0649
 2508SOL     OW18982   4.419   3.331   6.318  0.0759 -0.2556  0.8441
 2508SOL    HW118983   4.415   3.314   6.412 -1.1085 -0.0804  0.8337
 2508SOL    HW218984   4.496   3.387   6.317 -1.0157  1.1958 -1.5760
 2509SOL     OW18985   0.475   2.362   3.289 -0.0710  0.2189  0.2159
 2509SOL    HW118986   0.558   2.399   3.316 -0.1179 -0.2872  1.0476
 2509SOL    HW218987   0.417   2.437   3.304  2.3748  1.9907  0.7305
 2510SOL     OW18988   3.482   0.209   6.187  0.1589 -0.4374 -0.6103
 2510SOL    HW118989   3.437   0.283   6.228 -2.0455 -1.6344 -0.8728
 2510SOL    HW218990   3.571   0.219   6.220 -0.1433 -0.4041  0.1906
 2511SOL     OW18991   0.116   1.884   8.186 -0.0801  0.2925  0.4154
 2511SOL    HW118992   0.056   1.887   8.261  1.2875 -0.7536  1.5554
 2511SOL    HW218993   0.102   1.969   8.145  1.3354  0.1122 -0.4211
 2512SOL     OW18994   0.621   2.656   4.004  0.6087 -0.7569  0.3735
 2512SOL    HW118995   0.660   2.735   4.043 -2.7839  0.1253  1.9910
 2512SOL    HW218996   0.563   2.692   3.936 -1.4061 -4.5279  0.1283
 2513SOL     OW18997   3.771   1.379   9.128 -1.5616 -0.2379 -0.2980
 2513SOL    HW118998   3.827   1.454   9.113  0.4426 -1.6359  0.1443
 2513SOL    HW218999   3.814   1.315   9.072  3.1363  1.7016  1.1086
 2514SOL     OW19000   1.907   3.596  16.473  0.1855 -0.6718 -0.4063
 2514SOL    HW119001   1.853   3.553  16.540  1.1975 -1.2221  0.0493
 2514SOL    HW219002   1.982   3.629  16.521 -0.6743  0.7898 -0.0584
 2515SOL     OW19003   1.629   3.456   9.189 -0.2353  0.2066  0.2208
 2515SOL    HW119004   1.654   3.467   9.281 -1.1079 -0.7560  0.5792
 2515SOL    HW219005   1.693   3.509   9.143  1.6428 -1.7506  0.6007
 2516SOL     OW19006   3.500   4.177  15.722 -0.4784  0.3411 -0.0118
 2516SOL    HW119007   3.441   4.143  15.789  0.1279  0.7604  0.7352
 2516SOL    HW219008   3.568   4.221  15.773  1.0864 -2.4966  0.3247
 2517SOL     OW19009   0.708   1.567  16.407 -0.3111 -0.8280 -0.0185
 2517SOL    HW119010   0.738   1.482  16.375 -0.6911 -0.7174 -0.6683
 2517SOL    HW219011   0.787   1.620  16.412 -1.9076  1.4321  1.3043
 2518SOL     OW19012   0.814   4.389  14.794  0.0979 -0.8985 -0.4231
 2518SOL    HW119013   0.888   4.448  14.780 -0.1118 -1.0425 -2.2072
 2518SOL    HW219014   0.855   4.330  14.857  1.3348  0.2182 -0.1847
 2519SOL     OW19015   0.201   2.901   5.857 -0.0144  0.4910 -0.1521
 2519SOL    HW119016   0.107   2.891   5.869  0.1555  0.4923  1.1173
 2519SOL    HW219017   0.236   2.812   5.862  0.7265  0.8184  0.5537
 2520SOL     OW19018   1.376   1.139   4.656 -0.4899  0.6660  0.0167
 2520SOL    HW119019   1.313   1.204   4.626 -0.7846  0.3483 -0.0574
 2520SOL    HW219020   1.400   1.170   4.743  0.9383 -0.3116 -0.0329
 2521SOL     OW19021   0.222   2.124   8.057  0.1734 -0.7688  0.0107
 2521SOL    HW119022   0.302   2.079   8.030  0.2685 -0.9913  0.6670
 2521SOL    HW219023   0.260   2.205   8.093  0.9773 -0.2149 -2.0684
 2522SOL     OW19024   0.249   4.023   4.307 -0.5790  0.3240  0.1461
 2522SOL    HW119025   0.341   4.021   4.330 -0.2349 -0.0947 -1.2427
 2522SOL    HW219026   0.208   3.981   4.383  1.1172 -0.2035  0.7574
 2523SOL     OW19027   2.719   2.217   1.214 -0.0755 -0.1675  0.5819
 2523SOL    HW119028   2.656   2.183   1.278 -0.9545 -1.2677 -0.8491
 2523SOL    HW219029   2.694   2.309   1.217 -1.3737 -0.5420  1.4935
 2524SOL     OW19030   3.201   1.394   6.457  0.0485 -0.1411 -0.9241
 2524SOL    HW119031   3.287   1.356   6.440  0.4673  0.3961 -0.0048
 2524SOL    HW219032   3.151   1.318   6.426 -0.5073 -0.2923  0.3433
 2525SOL     OW19033   0.273   3.118   3.682 -0.3073  0.6234 -0.0096
 2525SOL    HW119034   0.243   3.175   3.611  0.4312  3.3097  1.8442
 2525SOL    HW219035   0.364   3.102   3.659 -1.1672 -1.3700 -2.0272
 2526SOL     OW19036   0.289   2.012   1.989  0.2037 -0.1324  0.2349
 2526SOL    HW119037   0.218   1.948   1.996  0.8595 -0.9902 -0.9783
 2526SOL    HW219038   0.316   1.997   2.079 -0.1680 -0.2847  0.3239
 2527SOL     OW19039   0.374   2.296   8.196  0.4490  0.2178 -0.0148
 2527SOL    HW119040   0.376   2.349   8.275  2.2113 -1.2632  0.9228
 2527SOL    HW219041   0.450   2.242   8.218 -1.5038 -1.8174  1.8167
 2528SOL     OW19042   1.483   0.021   7.884 -0.2341 -0.0449 -0.4095
 2528SOL    HW119043   1.481   0.106   7.928 -0.2705 -0.6460  0.7557
 2528SOL    HW219044   1.425   0.041   7.811  0.6956  0.3299 -1.0451
 2529SOL     OW19045   0.120   3.744   8.255 -0.0444  0.1446 -0.2332
 2529SOL    HW119046   0.193   3.699   8.212  1.2726  0.9289  1.1727
 2529SOL    HW219047   0.161   3.765   8.339  1.4579  0.4981 -1.0575
 2530SOL     OW19048   0.674   4.071  11.830 -0.2521  0.5887  0.4677
 2530SOL    HW119049   0.656   4.021  11.909  1.0177 -1.7883 -0.7513
 2530SOL    HW219050   0.742   4.136  11.851  1.4738 -1.1214  0.1778
 2531SOL     OW19051   2.921   4.712   6.500 -0.3968  0.3505 -0.6045
 2531SOL    HW119052   2.927   4.628   6.455 -1.7590  0.8110 -1.6445
 2531SOL    HW219053   2.878   0.047   6.434 -0.0096  1.3662 -0.0139
 2532SOL     OW19054   0.894   2.890  15.248  0.6468 -0.1343  0.1853
 2532SOL    HW119055   0.884   2.977  15.209  1.1725  0.6634  1.8388
 2532SOL    HW219056   0.947   2.853  15.177 -0.8288 -1.6532 -0.0997
 2533SOL     OW19057   1.522   0.893   3.271 -0.5112 -0.2764 -0.0871
 2533SOL    HW119058   1.516   0.900   3.367  0.7234 -1.0780  0.0432
 2533SOL    HW219059   1.482   0.976   3.244  0.4995  0.2880  0.1547
 2534SOL     OW19060   2.154   1.806   7.722  0.6856 -0.3220  0.2307
 2534SOL    HW119061   2.076   1.861   7.713  1.4558  1.2887  3.2548
 2534SOL    HW219062   2.106   1.724   7.736  1.5592 -0.7885  0.4840
 2535SOL     OW19063   4.154   2.014   9.261  0.0606 -0.5472  0.0331
 2535SOL    HW119064   4.233   1.961   9.270  1.3473  1.1952 -1.0248
 2535SOL    HW219065   4.184   2.105   9.266 -0.2743 -0.6279  3.2910
 2536SOL     OW19066   2.059   4.580  12.119 -0.3155  0.2708 -0.0234
 2536SOL    HW119067   2.014   4.575  12.203  1.0201 -0.5136  0.6552
 2536SOL    HW219068   2.098   4.667  12.117  0.6526 -0.1792 -1.5666
 2537SOL     OW19069   4.214   0.043   6.671  0.0322  0.3495 -0.5240
 2537SOL    HW119070   4.134   0.095   6.668  0.5136  1.3122  2.8891
 2537SOL    HW219071   4.207   4.716   6.755 -2.0877  3.2254  0.9053
 2538SOL     OW19072   0.787   3.527   7.100 -0.0112 -0.5691 -0.1497
 2538SOL    HW119073   0.712   3.469   7.084  0.4016 -1.1085 -0.1170
 2538SOL    HW219074   0.856   3.474   7.062  2.7996  2.3233  0.8740
 2539SOL     OW19075   2.422   0.573   5.687  0.4349  0.1362  0.0887
 2539SOL    HW119076   2.385   0.492   5.724  0.5455  0.8506  1.7797
 2539SOL    HW219077   2.347   0.597   5.633 -0.8005 -0.4744  1.5232
 2540SOL     OW19078   0.975   0.784   1.834 -0.4099 -0.3288  0.1739
 2540SOL    HW119079   0.905   0.767   1.898  0.7056  0.8741  1.7013
 2540SOL    HW219080   0.939   0.755   1.750  0.5110 -0.9767  0.0125
 2541SOL     OW19081   0.226   2.189  11.459 -0.1410 -0.1937  0.4336
 2541SOL    HW119082   0.180   2.112  11.493  2.4511 -0.6803  2.8342
 2541SOL    HW219083   0.154   2.247  11.436 -0.5057 -0.6357  0.4592
 2542SOL     OW19084   1.552   4.668   9.670 -0.6415 -0.1474 -0.3386
 2542SOL    HW119085   1.520   0.019   9.726  0.5215 -0.3958  0.6606
 2542SOL    HW219086   1.620   4.707   9.615 -1.0538 -0.1040 -0.8161
 2543SOL     OW19087   2.179   2.699   4.756 -0.1767 -0.4995  0.5234
 2543SOL    HW119088   2.092   2.733   4.779  0.1109  0.6209 -0.0250
 2543SOL    HW219089   2.160   2.649   4.676  1.0916 -0.7523  0.3868
 2544SOL     OW19090   1.105   1.332   5.420 -0.2658 -0.0422  0.3160
 2544SOL    HW119091   1.103   1.362   5.511 -0.0627 -0.1867  0.3683
 2544SOL    HW219092   1.110   1.238   5.436 -1.7182 -0.0820  0.5923
 2545SOL     OW19093   0.526   1.894   6.208  0.0468  0.0526  0.1800
 2545SOL    HW119094   0.539   1.926   6.297  0.3940 -0.2459  0.2386
 2545SOL    HW219095   0.558   1.804   6.209  1.0219  0.3488 -3.5758
 2546SOL     OW19096   2.057   3.382   6.198  0.1556  0.2144  0.1653
 2546SOL    HW119097   2.047   3.438   6.122  2.9632  2.4660  1.4584
 2546SOL    HW219098   2.145   3.408   6.223 -0.3252  1.4979  0.5053
 2547SOL     OW19099   1.101   2.542   3.078 -0.0252  0.3511 -0.2587
 2547SOL    HW119100   1.049   2.617   3.106 -0.9406 -0.4198  0.1296
 2547SOL    HW219101   1.147   2.582   3.005  0.6656  1.1636  0.6221
 2548SOL     OW19102   1.635   0.243  16.038 -0.1425  0.0999 -0.3899
 2548SOL    HW119103   1.574   0.174  16.012  1.8415 -1.7784 -0.1125
 2548SOL    HW219104   1.689   0.195  16.101 -1.2072 -1.1588 -0.4297
 2549SOL     OW19105   2.707   1.661   6.150  0.2452  0.2145 -0.1533
 2549SOL    HW119106   2.764   1.712   6.207  0.0593  1.3416 -0.9699
 2549SOL    HW219107   2.718   1.572   6.183  0.8841  0.1486 -0.5491
 2550SOL     OW19108   1.415   2.367   0.094  0.2118  0.1944  0.0304
 2550SOL    HW119109   1.429   2.456   0.125  0.8103 -0.2572  1.0262
 2550SOL    HW219110   1.494   2.317   0.115 -0.0594  0.0259  0.6454
 2551SOL     OW19111   3.204   0.490  13.941  0.4497 -0.0824  0.4590
 2551SOL    HW119112   3.220   0.578  13.906 -0.5803 -0.2090 -0.3541
 2551SOL    HW219113   3.217   0.520  14.031 -0.1112 -2.2362  1.2418
 2552SOL     OW19114   0.561   2.112   1.903  0.3165  0.4930  0.3719
 2552SOL    HW119115   0.614   2.044   1.945  2.0347 -0.1125 -2.7894
 2552SOL    HW219116   0.475   2.072   1.917  0.1749  0.3809 -0.8404
 2553SOL     OW19117   2.932   3.208   1.534  0.1064  1.0191  0.2954
 2553SOL    HW119118   2.876   3.155   1.591 -0.1444 -0.5740 -1.4289
 2553SOL    HW219119   2.856   3.223   1.478  0.1507 -2.5983 -0.7090
 2554SOL     OW19120   3.103   1.135  17.511  0.1999  0.0842  0.0477
 2554SOL    HW119121   3.110   1.201  17.442  1.5815 -0.7454 -0.6140
 2554SOL    HW219122   3.133   1.059  17.460  2.6473 -0.4159  2.2368
 2555SOL     OW19123   3.243   1.649   8.538 -0.2442  0.4451 -0.0422
 2555SOL    HW119124   3.290   1.636   8.456 -0.9830 -1.3757 -0.1794
 2555SOL    HW219125   3.159   1.610   8.514 -0.0719  0.5802 -0.8780
 2556SOL     OW19126   0.739   2.150   2.486  0.1906 -0.5415  0.6025
 2556SOL    HW119127   0.763   2.132   2.576 -0.1031 -2.1993  0.3559
 2556SOL    HW219128   0.643   2.159   2.488  0.2127  0.6044 -2.1475
 2557SOL     OW19129   2.468   3.068   5.119  0.1145 -0.3253  0.1073
 2557SOL    HW119130   2.497   3.146   5.071  0.5210  0.6671  1.9758
 2557SOL    HW219131   2.528   3.002   5.085  1.9506  1.9718 -1.0545
 2558SOL     OW19132   1.106   2.080   7.027 -0.2402 -0.2391 -0.3264
 2558SOL    HW119133   1.137   2.026   7.099 -1.0877 -0.2384  0.0329
 2558SOL    HW219134   1.174   2.073   6.959 -1.9004 -1.0226 -1.9174
 2559SOL     OW19135   1.930   0.932   0.249 -0.0483  0.3725 -0.1360
 2559SOL    HW119136   1.999   0.885   0.296 -0.8073 -0.7225 -0.1017
 2559SOL    HW219137   1.919   1.012   0.300  0.0299  1.1189 -1.2956
 2560SOL     OW19138   1.843   0.735   5.737 -0.6020  0.6133 -0.3723
 2560SOL    HW119139   1.790   0.814   5.727  0.5245  1.3128 -0.7228
 2560SOL    HW219140   1.789   0.690   5.802 -0.1248  2.3807  1.2331
 2561SOL     OW19141   4.613   1.585   5.269  0.1588  0.3500 -0.1813
 2561SOL    HW119142   4.612   1.588   5.173  0.0974 -0.3331 -0.1992
 2561SOL    HW219143   4.690   1.637   5.291  0.0110  0.9453 -1.0585
 2562SOL     OW19144   3.248   1.630   3.935 -0.0606 -0.2725  0.1768
 2562SOL    HW119145   3.181   1.685   3.977 -1.3730 -0.7144 -1.3482
 2562SOL    HW219146   3.324   1.667   3.980  0.4209 -1.3076  0.2227
 2563SOL     OW19147   3.067   4.229   8.350  0.3084  0.4629 -0.5243
 2563SOL    HW119148   3.151   4.267   8.376 -0.0222  0.6442  0.2654
 2563SOL    HW219149   3.053   4.272   8.266  1.9374  1.5174 -0.2661
 2564SOL     OW19150   2.090   3.790   7.987 -0.2874  0.2969 -0.0308
 2564SOL    HW119151   2.085   3.885   7.978 -1.0490  0.2491 -0.1010
 2564SOL    HW219152   2.108   3.761   7.898 -2.1655  0.7652 -0.5507
 2565SOL     OW19153   3.812   1.003   4.536 -0.3282 -0.0221  0.0650
 2565SOL    HW119154   3.729   1.049   4.549 -0.1609  0.6864 -1.3535
 2565SOL    HW219155   3.824   1.033   4.446  1.1678  0.4867  0.4427
 2566SOL     OW19156   1.069   3.217   9.387 -0.1315  0.2144  0.9274
 2566SOL    HW119157   1.151   3.201   9.340 -0.3370  2.0741 -0.0764
 2566SOL    HW219158   1.015   3.197   9.311 -0.0267  1.6624  0.4712
 2567SOL     OW19159   3.391   0.008   2.565 -0.3056  0.0710 -0.8586
 2567SOL    HW119160   3.444   0.065   2.621  1.8147 -3.2057  0.4363
 2567SOL    HW219161   3.454   4.660   2.540  0.7165  0.2954  1.1063
 2568SOL     OW19162   4.566   2.093  16.803  0.6406 -0.1027 -0.5817
 2568SOL    HW119163   4.499   2.046  16.754  1.1126 -2.3563  0.9538
 2568SOL    HW219164   4.514   2.108  16.882 -2.8954 -2.3169 -2.4975
 2569SOL     OW19165   4.220   1.444   6.835 -0.2764 -0.2049  0.7596
 2569SOL    HW119166   4.158   1.463   6.905  1.4089  1.6648  1.7447
 2569SOL    HW219167   4.276   1.520   6.850  0.7304 -0.8093  0.0317
 2570SOL     OW19168   4.293   1.090  12.165  0.0431 -0.0777  0.0606
 2570SOL    HW119169   4.310   1.050  12.080  0.9859 -1.0436  0.6890
 2570SOL    HW219170   4.346   1.170  12.165  1.3182 -0.9227 -1.7186
 2571SOL     OW19171   2.344   2.117   4.391 -0.1526  0.0869 -0.2539
 2571SOL    HW119172   2.336   2.204   4.351  1.5211  0.5354  0.3880
 2571SOL    HW219173   2.260   2.079   4.367 -0.3418  0.0675  0.4324
 2572SOL     OW19174   1.904   4.453   7.108  0.4002 -0.6431  0.1515
 2572SOL    HW119175   1.994   4.440   7.139  0.3624 -3.0712 -0.8052
 2572SOL    HW219176   1.920   4.438   7.015  0.3082  0.0161  0.0313
 2573SOL     OW19177   2.698   0.101   1.328 -0.3385 -0.4146  0.3397
 2573SOL    HW119178   2.720   0.186   1.366 -0.3639 -0.0693 -0.4176
 2573SOL    HW219179   2.784   0.077   1.293  1.3040  1.6506  2.9227
 2574SOL     OW19180   0.976   2.625   8.444 -0.5826 -0.4203  0.1940
 2574SOL    HW119181   0.911   2.690   8.468 -1.5633 -1.2496 -0.2108
 2574SOL    HW219182   1.051   2.665   8.488 -0.2131  0.6315 -1.3959
 2575SOL     OW19183   1.239   0.967   3.396 -0.4506  0.5276  0.0638
 2575SOL    HW119184   1.258   1.036   3.460 -2.6786  0.9671  0.2557
 2575SOL    HW219185   1.153   0.936   3.422 -0.1862  2.2138  2.9277
 2576SOL     OW19186   1.005   0.507  10.419 -0.2394 -0.0156 -1.0359
 2576SOL    HW119187   1.097   0.536  10.415 -0.3108  0.1329 -1.5545
 2576SOL    HW219188   1.006   0.423  10.374 -1.8628 -0.6447  0.1190
 2577SOL     OW19189   3.674   1.996   6.744 -0.0355 -0.3202 -0.4008
 2577SOL    HW119190   3.712   1.945   6.816 -1.2977 -0.6154  0.0491
 2577SOL    HW219191   3.727   2.076   6.742 -0.7310  0.2014  1.7882
 2578SOL     OW19192   2.029   1.500   8.008 -0.1506  0.1649  1.0262
 2578SOL    HW119193   2.030   1.429   8.073  1.0808 -0.1320  0.7026
 2578SOL    HW219194   1.935   1.507   7.993 -0.2887 -0.4182  1.6121
 2579SOL     OW19195   4.415   0.655   9.027  0.1731  0.1764  0.6566
 2579SOL    HW119196   4.477   0.614   8.967 -0.2514  1.6383 -0.8063
 2579SOL    HW219197   4.474   0.676   9.099  2.5497 -1.8021 -0.7198
 2580SOL     OW19198   0.795   4.430   5.338 -0.2620 -0.3426  0.0145
 2580SOL    HW119199   0.749   4.471   5.265 -0.5133  0.0394  0.3901
 2580SOL    HW219200   0.868   4.491   5.354 -0.8384  0.3411  0.0408
 2581SOL     OW19201   3.916   0.870  11.030  0.1363  0.0204 -0.1163
 2581SOL    HW119202   3.875   0.948  11.069  1.7329 -1.0725  3.7972
 2581SOL    HW219203   4.006   0.874  11.061 -0.5430  0.8908  1.8074
 2582SOL     OW19204   1.458   2.559   6.130 -0.1524  0.0945  0.3545
 2582SOL    HW119205   1.366   2.569   6.104 -0.2012 -0.2832  0.3734
 2582SOL    HW219206   1.466   2.473   6.172  3.5525 -0.8705 -2.3215
 2583SOL     OW19207   3.950   4.259  13.298 -0.3233  0.1234 -0.2857
 2583SOL    HW119208   3.928   4.277  13.389  1.4360 -0.6421  0.2825
 2583SOL    HW219209   3.899   4.326  13.251 -1.1857 -1.1651 -1.1828
 2584SOL     OW19210   4.472   3.620  15.164  0.0454 -0.4586  0.3761
 2584SOL    HW119211   4.548   3.678  15.163 -0.1684 -0.1633  0.9556
 2584SOL    HW219212   4.482   3.569  15.084  0.4832 -1.0653  0.8128
 2585SOL     OW19213   0.061   1.510  17.624 -0.4226  0.0011 -0.1968
 2585SOL    HW119214   0.147   1.469  17.631 -0.4529  0.0972  0.6950
 2585SOL    HW219215   0.010   1.440  17.666  0.0732 -0.8107 -0.9638
 2586SOL     OW19216   3.759   3.176   1.778 -0.4991 -0.1220 -0.2019
 2586SOL    HW119217   3.783   3.253   1.831 -3.1409 -0.1792  1.0931
 2586SOL    HW219218   3.697   3.210   1.714  0.9861  1.6271 -0.7160
 2587SOL     OW19219   0.307   4.463   5.943 -0.8164 -0.0926 -0.1871
 2587SOL    HW119220   0.263   4.471   5.859 -1.1038  0.0050 -0.0299
 2587SOL    HW219221   0.336   4.554   5.956 -1.6103  0.2161 -0.5887
 2588SOL     OW19222   1.651   1.039   7.080 -0.3897 -0.5422 -0.4503
 2588SOL    HW119223   1.710   1.045   7.005 -1.8367 -4.0487 -1.8496
 2588SOL    HW219224   1.641   0.944   7.078  1.6116 -0.7515 -1.2285
 2589SOL     OW19225   3.978   0.803   4.751  0.3093 -0.2041  0.0990
 2589SOL    HW119226   4.022   0.823   4.669 -0.6021 -0.1163 -0.3642
 2589SOL    HW219227   3.893   0.776   4.716 -0.0621 -0.1942  1.0009
 2590SOL     OW19228   3.270   1.628  15.936 -0.5874 -0.4687 -0.9173
 2590SOL    HW119229   3.229   1.699  15.886 -0.0765  1.3053  1.1379
 2590SOL    HW219230   3.251   1.657  16.025  1.3650 -0.3072 -0.5358
 2591SOL     OW19231   0.562   3.457   1.455  0.6717 -0.1805  0.7663
 2591SOL    HW119232   0.568   3.420   1.544 -1.1048 -0.9476  0.5703
 2591SOL    HW219233   0.633   3.521   1.451  1.0468 -0.7438 -1.1084
 2592SOL     OW19234   4.279   2.182   3.707  0.0821 -0.1938  0.0818
 2592SOL    HW119235   4.362   2.226   3.728  0.9534 -2.0429  0.5313
 2592SOL    HW219236   4.307   2.120   3.640 -0.3992 -1.7531  1.3157
 2593SOL     OW19237   1.207   2.633   5.288 -0.7323 -0.0434 -0.1200
 2593SOL    HW119238   1.269   2.651   5.218 -0.8393  1.5390  0.1886
 2593SOL    HW219239   1.166   2.719   5.295  0.8236  0.6385  0.6976
 2594SOL     OW19240   4.641   1.778   8.006  0.2426  0.7753  0.0276
 2594SOL    HW119241   4.717   1.825   8.038  0.6702 -0.5479  0.9531
 2594SOL    HW219242   4.680   1.707   7.955  1.2902 -0.5784  2.7170
 2595SOL     OW19243   0.906   4.656   3.490 -0.0367  0.2119 -0.3430
 2595SOL    HW119244   0.984   4.675   3.438  0.6187 -1.0017  0.1909
 2595SOL    HW219245   0.929   4.709   3.566 -0.5309  1.1985 -0.8849
 2596SOL     OW19246   3.164   1.867   6.149  0.4688  0.3955  0.3255
 2596SOL    HW119247   3.195   1.919   6.223 -0.4659 -1.4374  1.9995
 2596SOL    HW219248   3.073   1.894   6.145  0.2451 -0.5198 -0.6848
 2597SOL     OW19249   1.833   1.754   5.017 -0.0886 -0.1165 -0.4467
 2597SOL    HW119250   1.866   1.746   4.928  1.2113  2.2854 -0.1832
 2597SOL    HW219251   1.742   1.783   5.010  0.1947  0.9439  0.3268
 2598SOL     OW19252   3.905   3.707   7.328  0.5949 -0.2405 -0.2113
 2598SOL    HW119253   3.971   3.742   7.269 -1.5365 -0.7889 -2.9124
 2598SOL    HW219254   3.844   3.668   7.265  1.3591 -0.1892 -0.9826
 2599SOL     OW19255   4.319   1.082   6.588 -0.5832  0.2792  0.4057
 2599SOL    HW119256   4.340   0.996   6.626  0.2637 -0.3776 -1.5620
 2599SOL    HW219257   4.401   1.132   6.590 -0.5397  0.2211 -0.1394
 2600SOL     OW19258   0.223   0.821   8.593  0.8836 -0.5653 -0.2937
 2600SOL    HW119259   0.200   0.816   8.500  1.7378  0.0878 -0.5417
 2600SOL    HW219260   0.245   0.731   8.615  0.0028 -0.4584  1.0113
 2601SOL     OW19261   4.595   0.596   2.945 -0.0338 -0.1159  0.3749
 2601SOL    HW119262   4.517   0.548   2.918  0.3394  0.1101 -1.1084
 2601SOL    HW219263   4.646   0.594   2.863  0.2197  0.1262  0.5247
 2602SOL     OW19264   4.054   3.252   2.342 -0.2897 -0.0895  0.2184
 2602SOL    HW119265   3.984   3.284   2.400  0.3701  0.0619  0.9343
 2602SOL    HW219266   4.008   3.231   2.261  0.0580  1.7618 -0.4579
 2603SOL     OW19267   0.664   3.908   7.719  0.8651  0.1446  0.3800
 2603SOL    HW119268   0.675   3.827   7.669  1.1176 -0.4169  1.3448
 2603SOL    HW219269   0.756   3.932   7.732  0.6681  1.2216 -0.2285
 2604SOL     OW19270   1.774   2.413   5.058 -0.2864  0.2831  0.4980
 2604SOL    HW119271   1.759   2.325   5.022  0.6364  0.6454 -0.7922
 2604SOL    HW219272   1.868   2.412   5.041 -0.6116 -1.5745 -1.2054
 2605SOL     OW19273   2.185   0.384  17.454 -0.0259 -0.4831  0.0334
 2605SOL    HW119274   2.242   0.338  17.393  0.4408  2.0462 -1.4015
 2605SOL    HW219275   2.105   0.397  17.402 -1.4423  2.9347  3.0808
 2606SOL     OW19276   1.774   0.807   8.893 -0.4516  0.0549 -0.3698
 2606SOL    HW119277   1.755   0.784   8.984  1.9854  2.8201  0.8580
 2606SOL    HW219278   1.835   0.879   8.910  1.4565 -1.4324 -0.9512
 2607SOL     OW19279   3.579   2.693   3.233 -0.1327  0.0245 -0.2109
 2607SOL    HW119280   3.628   2.724   3.310 -3.2071 -1.5524  2.3559
 2607SOL    HW219281   3.635   2.725   3.162  1.1473 -0.1271  0.7357
 2608SOL     OW19282   4.676   2.304   5.448 -0.7040 -0.5993 -0.2513
 2608SOL    HW119283   4.659   2.389   5.490 -1.9182 -0.8423 -0.2686
 2608SOL    HW219284   4.680   2.328   5.355 -0.5303  3.0449  0.6741
 2609SOL     OW19285   3.052   0.987   1.120 -0.2403  0.4780  0.4778
 2609SOL    HW119286   3.130   0.990   1.064 -0.3681  1.2969  0.3540
 2609SOL    HW219287   3.059   0.899   1.158  2.9097  0.8835  0.8506
 2610SOL     OW19288   1.336   1.884   9.372  0.0016 -0.2205  0.9113
 2610SOL    HW119289   1.398   1.956   9.356 -0.5113  0.2042  0.8082
 2610SOL    HW219290   1.282   1.929   9.437  1.1386  0.3222  1.4753
 2611SOL     OW19291   1.462   0.418   7.831  0.2661 -0.1121  0.0954
 2611SOL    HW119292   1.523   0.345   7.835 -0.4595 -0.7962 -1.0669
 2611SOL    HW219293   1.461   0.435   7.737  0.9023 -1.1623 -0.1021
 2612SOL     OW19294   2.835   4.440   4.961 -0.3086 -0.9033 -0.3638
 2612SOL    HW119295   2.783   4.401   5.031 -0.8537 -1.3354 -1.0105
 2612SOL    HW219296   2.921   4.442   5.002 -0.3964  1.1563 -0.2519
 2613SOL     OW19297   0.372   4.342   8.861 -0.1500 -0.5099  0.2176
 2613SOL    HW119298   0.319   4.313   8.787  1.5600 -0.9174 -0.8513
 2613SOL    HW219299   0.421   4.415   8.823 -0.8580 -0.3184 -0.3143
 2614SOL     OW19300   4.641   0.352   4.447 -0.4378  0.0511  0.1854
 2614SOL    HW119301   4.591   0.296   4.388  2.3225 -1.1657 -0.9706
 2614SOL    HW219302   0.003   0.302   4.452 -0.0965  0.4920 -1.0721
 2615SOL     OW19303   2.467   2.680   4.804  0.2574  0.1947 -0.2678
 2615SOL    HW119304   2.505   2.651   4.721 -0.2738 -0.3286 -0.3304
 2615SOL    HW219305   2.380   2.702   4.770 -0.0849  1.8476  1.6673
 2616SOL     OW19306   2.597   0.746   6.812 -0.2624 -0.2676  0.2905
 2616SOL    HW119307   2.662   0.734   6.881  1.2402 -0.6846 -1.2238
 2616SOL    HW219308   2.631   0.699   6.737  0.2334 -1.7353  1.4358
 2617SOL     OW19309   3.002   3.216   3.914 -0.4975  0.1225  0.1478
 2617SOL    HW119310   2.920   3.217   3.963  1.4150  0.5392  3.3172
 2617SOL    HW219311   2.969   3.229   3.825  0.7875  0.3369 -0.3021
 2618SOL     OW19312   1.141   4.493  15.322 -0.1989  0.4743  0.4017
 2618SOL    HW119313   1.183   4.410  15.300 -2.3035 -0.7941  1.1319
 2618SOL    HW219314   1.212   4.554  15.342  0.0997  0.5734 -1.0078
 2619SOL     OW19315   0.693   3.840   8.442  0.3297 -0.1967 -0.3317
 2619SOL    HW119316   0.659   3.756   8.411 -2.4717  0.5441  0.6703
 2619SOL    HW219317   0.777   3.849   8.399 -0.7724  1.3356 -2.1584
 2620SOL     OW19318   1.241   3.063  13.729  0.0975  0.1745  0.0718
 2620SOL    HW119319   1.154   3.090  13.758 -0.3649 -1.1333 -0.1071
 2620SOL    HW219320   1.225   3.041  13.637  1.0172 -0.7293  0.1217
 2621SOL     OW19321   2.268   0.525   8.530  0.6369 -0.5856 -0.3013
 2621SOL    HW119322   2.225   0.600   8.489  2.8228  0.5356 -0.5341
 2621SOL    HW219323   2.352   0.565   8.549  0.5096  0.6134 -2.1957
 2622SOL     OW19324   4.030   1.836   0.620  0.0197 -0.1551 -0.2546
 2622SOL    HW119325   4.079   1.912   0.651  0.8928  0.2641 -2.6524
 2622SOL    HW219326   4.097   1.776   0.589  0.9775  1.4879 -1.3746
 2623SOL     OW19327   3.211   3.971   3.034  0.0075 -0.3768 -0.0010
 2623SOL    HW119328   3.303   3.985   3.056 -0.1794  0.4476  0.2645
 2623SOL    HW219329   3.203   4.028   2.958 -2.1413  0.5248  0.8760
 2624SOL     OW19330   3.924   4.686   5.517 -0.3657  0.1944  0.0670
 2624SOL    HW119331   3.993   0.006   5.571 -0.7480 -2.4128  2.4937
 2624SOL    HW219332   3.940   4.592   5.531 -0.9408  0.4849  2.6662
 2625SOL     OW19333   4.319   1.438   4.476 -0.1948 -0.0668 -0.4214
 2625SOL    HW119334   4.400   1.444   4.425  0.1124  1.0536  0.2078
 2625SOL    HW219335   4.269   1.376   4.423 -1.9188 -0.5016  1.7444
 2626SOL     OW19336   0.234   3.738   4.672 -0.3221  0.6091 -0.3286
 2626SOL    HW119337   0.308   3.753   4.730  0.7221  0.4847 -1.6139
 2626SOL    HW219338   0.204   3.823   4.639  1.0416  0.9487 -0.6934
 2627SOL     OW19339   3.689   2.758  10.571  0.3706  0.2691 -0.3523
 2627SOL    HW119340   3.683   2.781  10.663 -2.3692  0.5825 -0.6195
 2627SOL    HW219341   3.683   2.849  10.541 -2.9399 -0.0960 -0.7777
 2628SOL     OW19342   3.568   4.334   8.976  0.2875 -0.3336 -0.7717
 2628SOL    HW119343   3.647   4.325   9.030  0.3312  1.2906 -0.5397
 2628SOL    HW219344   3.596   4.413   8.930  1.1632 -1.3558 -1.9774
 2629SOL     OW19345   1.787   4.241   8.836 -0.2256 -0.3073 -0.0623
 2629SOL    HW119346   1.754   4.165   8.789  2.2053 -0.7896 -0.9527
 2629SOL    HW219347   1.703   4.282   8.856  0.4632  1.4989 -0.8190
 2630SOL     OW19348   1.248   0.902   5.680  0.3004  0.2602  0.4470
 2630SOL    HW119349   1.302   0.868   5.610  0.4372  0.0042  0.6773
 2630SOL    HW219350   1.199   0.825   5.707  0.7298 -0.4897 -0.9344
 2631SOL     OW19351   1.912   0.919  12.445 -0.6326  0.1004  0.6826
 2631SOL    HW119352   1.986   0.898  12.389  0.0151 -0.1581  1.6429
 2631SOL    HW219353   1.845   0.945  12.382 -0.3832 -1.2077 -0.1234
 2632SOL     OW19354   0.388   0.207  12.748 -0.0458 -0.3408 -0.0964
 2632SOL    HW119355   0.429   0.293  12.741 -0.3849 -0.0957  0.8541
 2632SOL    HW219356   0.466   0.152  12.751 -0.2344 -0.5910  0.1805
 2633SOL     OW19357   4.088   3.528   3.910  0.2476  0.4085  0.1428
 2633SOL    HW119358   4.021   3.546   3.976  0.5115 -0.1751  0.5641
 2633SOL    HW219359   4.159   3.498   3.966  2.0922  0.5134 -2.1147
 2634SOL     OW19360   0.223   0.520   4.845 -0.5232  0.2476  0.4479
 2634SOL    HW119361   0.263   0.475   4.770  0.3162  0.7286  0.6039
 2634SOL    HW219362   0.304   0.561   4.876  0.5707 -1.6676  0.1661
 2635SOL     OW19363   3.488   1.468   5.679  0.8489  0.0739  0.2181
 2635SOL    HW119364   3.560   1.409   5.701  0.7662  0.0738  0.4921
 2635SOL    HW219365   3.548   1.533   5.644  1.1711 -0.8931 -1.0435
 2636SOL     OW19366   0.268   2.476   5.227  0.4290 -0.3163 -0.3373
 2636SOL    HW119367   0.306   2.496   5.313 -0.3902 -0.3190  0.0191
 2636SOL    HW219368   0.292   2.384   5.227 -1.3754 -0.7680 -2.6656
 2637SOL     OW19369   4.590   0.627   8.330 -1.0931 -0.5597  0.1068
 2637SOL    HW119370   4.507   0.626   8.283 -1.5826 -1.6148  1.0081
 2637SOL    HW219371   4.583   0.546   8.379 -0.0968 -1.2934 -0.9572
 2638SOL     OW19372   1.486   1.730   5.733  0.3925 -0.7458 -0.5546
 2638SOL    HW119373   1.552   1.724   5.665  0.6660  0.1989 -0.3800
 2638SOL    HW219374   1.512   1.801   5.792 -0.1922 -0.7963 -0.2224
 2639SOL     OW19375   1.348   2.732   7.149 -0.2244 -0.2683  0.0213
 2639SOL    HW119376   1.321   2.793   7.218  0.7744  0.1331  0.0713
 2639SOL    HW219377   1.364   2.657   7.207 -1.3485 -1.3850 -1.1331
 2640SOL     OW19378   1.389   4.611   3.874 -0.0055  0.0083  0.2219
 2640SOL    HW119379   1.403   4.695   3.831  0.2978  0.8934  2.0696
 2640SOL    HW219380   1.312   4.585   3.823 -0.1647 -0.5314  0.7430
 2641SOL     OW19381   3.742   3.904   2.659 -0.1461  0.7081  0.1183
 2641SOL    HW119382   3.716   3.978   2.604  2.5268  1.1314 -0.5556
 2641SOL    HW219383   3.836   3.920   2.653 -0.0466 -0.4834 -1.5262
 2642SOL     OW19384   3.298   3.355   6.697  0.4912  0.0814  0.3777
 2642SOL    HW119385   3.278   3.433   6.645  0.8134  0.4305  0.7802
 2642SOL    HW219386   3.303   3.391   6.786 -1.7719 -1.1807  1.0191
 2643SOL     OW19387   2.469   2.289   9.044  0.1097  0.1691  0.0903
 2643SOL    HW119388   2.518   2.334   9.113 -2.3070  0.2406  1.7664
 2643SOL    HW219389   2.382   2.294   9.085 -0.7454 -0.4632 -1.6175
 2644SOL     OW19390   3.730   4.658   6.979 -0.6088 -0.1984  0.3258
 2644SOL    HW119391   3.801   4.716   6.950  0.0266 -1.8148 -1.3682
 2644SOL    HW219392   3.738   4.672   7.073 -2.7493  4.1819 -0.1520
 2645SOL     OW19393   4.127   0.221   2.131  0.1236 -0.1745  0.1447
 2645SOL    HW119394   4.191   0.204   2.200 -0.1222  0.3676  0.5049
 2645SOL    HW219395   4.123   0.144   2.075  0.9263 -0.4013  0.3971
 2646SOL     OW19396   3.655   4.215   3.756 -0.1404 -0.8360  0.2728
 2646SOL    HW119397   3.707   4.256   3.687 -2.5210  0.3248 -0.8259
 2646SOL    HW219398   3.718   4.153   3.792 -2.0730 -1.8987  1.7891
 2647SOL     OW19399   4.424   3.041  17.649  0.1237  0.2414 -0.2082
 2647SOL    HW119400   4.374   3.109  17.604 -0.4936 -0.0437  0.0517
 2647SOL    HW219401   4.486   3.094   0.020  0.1538 -0.7867  0.8228
 2648SOL     OW19402   3.384   0.364  13.303 -0.2186  0.1003 -0.3013
 2648SOL    HW119403   3.442   0.321  13.240 -1.3643  0.6693 -1.7501
 2648SOL    HW219404   3.362   0.441  13.250  0.1516  1.8164  2.0235
 2649SOL     OW19405   2.756   4.384   1.827  0.1970 -0.3578 -0.0470
 2649SOL    HW119406   2.703   4.452   1.869  2.4327  1.0531  0.5031
 2649SOL    HW219407   2.830   4.428   1.785 -2.0078  0.7587 -2.8676
 2650SOL     OW19408   3.161   2.268   7.842 -0.2551 -0.2782 -0.2450
 2650SOL    HW119409   3.133   2.230   7.925 -1.2590 -0.5144 -0.6966
 2650SOL    HW219410   3.151   2.198   7.778 -0.3319  1.8825 -2.5753
 2651SOL     OW19411   4.455   0.947  16.358 -0.6824 -0.5286  0.7374
 2651SOL    HW119412   4.369   0.963  16.396 -0.7814 -0.3509  0.4365
 2651SOL    HW219413   4.463   0.856  16.387  0.6859 -0.4009  0.7581
 2652SOL     OW19414   2.613   2.270  11.648  0.1186 -0.4569  0.2263
 2652SOL    HW119415   2.666   2.265  11.568 -0.5864  0.7030 -0.3103
 2652SOL    HW219416   2.590   2.363  11.651 -0.2769 -0.5736  0.7763
 2653SOL     OW19417   3.281   0.299   9.764  0.1369  0.2094 -0.1110
 2653SOL    HW119418   3.349   0.361   9.790 -0.8366  1.3270 -0.1742
 2653SOL    HW219419   3.246   0.282   9.852  0.7849 -2.2404 -0.3515
 2654SOL     OW19420   2.708   0.732  17.218  0.0210  0.0362  0.7010
 2654SOL    HW119421   2.637   0.776  17.265 -0.7478  0.8579 -1.2375
 2654SOL    HW219422   2.667   0.723  17.132 -0.0935  1.5855  0.5887
 2655SOL     OW19423   2.397   0.815  12.549  0.3413 -0.2231  0.2242
 2655SOL    HW119424   2.424   0.725  12.532  1.4441 -0.1108  1.4239
 2655SOL    HW219425   2.481   0.859  12.539 -0.6852  1.1634 -2.3395
 2656SOL     OW19426   4.503   1.612  14.544 -0.3316  0.4264 -0.6704
 2656SOL    HW119427   4.432   1.559  14.579  0.1465 -0.2964 -0.7933
 2656SOL    HW219428   4.513   1.668  14.621  0.0774  0.1140 -0.5001
 2657SOL     OW19429   1.046   1.668   3.731 -0.1354 -0.3890  0.3833
 2657SOL    HW119430   1.075   1.616   3.656  1.1472 -0.5131  0.9674
 2657SOL    HW219431   1.127   1.716   3.747 -1.1205  1.9421 -1.6931
 2658SOL     OW19432   0.518   4.577   7.593  0.6704 -0.1966  0.2980
 2658SOL    HW119433   0.578   4.650   7.579 -0.9222  0.9300 -0.5883
 2658SOL    HW219434   0.467   4.569   7.513  2.4239 -0.7784 -0.7715
 2659SOL     OW19435   3.651   0.037   1.862 -0.0263  0.4992 -0.1580
 2659SOL    HW119436   3.730   0.042   1.915  0.3929 -0.4087 -0.6918
 2659SOL    HW219437   3.655   0.121   1.817  0.0735 -1.7486 -4.3850
 2660SOL     OW19438   2.322   3.868   1.709 -0.1995  0.4077  0.2122
 2660SOL    HW119439   2.252   3.874   1.645  0.8040  1.4981 -0.7926
 2660SOL    HW219440   2.374   3.793   1.678 -0.3077  1.2110 -1.9090
 2661SOL     OW19441   4.578   1.441   7.943 -0.4512  0.0332  0.3006
 2661SOL    HW119442   4.618   1.470   8.025 -1.2417  0.9611  0.3601
 2661SOL    HW219443   4.641   1.484   7.885 -2.3849  1.8884 -0.4280
 2662SOL     OW19444   1.498   3.348  15.623 -0.3592  0.2962 -0.0568
 2662SOL    HW119445   1.536   3.261  15.637 -0.7384 -0.0779 -1.3446
 2662SOL    HW219446   1.436   3.342  15.695 -2.0042 -0.6661 -1.5553
 2663SOL     OW19447   1.256   4.222  10.890  0.1710  0.0301  0.2479
 2663SOL    HW119448   1.257   4.127  10.905 -1.6788 -0.1764 -1.0249
 2663SOL    HW219449   1.257   4.234  10.795 -0.1839 -1.1683  0.0899
 2664SOL     OW19450   1.243   0.103   2.635 -0.8538 -0.1416  0.4692
 2664SOL    HW119451   1.255   0.192   2.669 -1.9396  0.2913 -0.2819
 2664SOL    HW219452   1.302   0.094   2.561  0.9794  0.1002  1.9124
 2665SOL     OW19453   0.913   1.895  12.492  0.3824 -0.6866  0.0963
 2665SOL    HW119454   0.972   1.960  12.455  0.0739 -0.5657 -0.1785
 2665SOL    HW219455   0.968   1.829  12.534  0.8212 -1.1505 -1.1987
 2666SOL     OW19456   0.529   2.753   7.372 -0.2052 -0.4246  0.1562
 2666SOL    HW119457   0.437   2.751   7.398  0.4327 -0.3742  2.3597
 2666SOL    HW219458   0.556   2.817   7.437  2.0391 -0.0729 -1.1091
 2667SOL     OW19459   1.994   1.824   5.526 -0.0293 -0.3833  0.9019
 2667SOL    HW119460   2.040   1.862   5.451 -0.5151 -2.9464 -0.7236
 2667SOL    HW219461   1.958   1.905   5.561  0.8029  0.5043 -0.2912
 2668SOL     OW19462   0.963   2.406  13.968 -0.1556 -1.1841  0.3238
 2668SOL    HW119463   1.034   2.400  13.904  0.6601  0.0328  1.1218
 2668SOL    HW219464   1.006   2.431  14.050  0.1423  2.9284 -1.1202
 2669SOL     OW19465   3.485   2.436   9.443 -0.0677 -0.4250  0.9625
 2669SOL    HW119466   3.565   2.404   9.485  1.4027  1.5335 -0.3645
 2669SOL    HW219467   3.523   2.496   9.379  2.7771  0.5554  3.5601
 2670SOL     OW19468   0.983   3.670  13.271 -0.7219  0.4216  0.2166
 2670SOL    HW119469   1.026   3.755  13.255  2.2182 -0.8792  1.1915
 2670SOL    HW219470   0.966   3.679  13.364 -0.6749  2.5734  0.0271
 2671SOL     OW19471   4.284   2.844   3.263  0.3013 -0.6542  0.5121
 2671SOL    HW119472   4.367   2.818   3.222 -1.0096 -1.4240 -1.6298
 2671SOL    HW219473   4.230   2.786   3.210  1.5212 -1.5840  0.2813
 2672SOL     OW19474   4.515   3.365  15.244 -0.1666 -0.0313  0.0803
 2672SOL    HW119475   4.511   3.460  15.252 -0.2477 -0.0280  0.0037
 2672SOL    HW219476   4.597   3.369  15.196  0.2358  2.2812  0.9452
 2673SOL     OW19477   1.477   0.982  10.999  0.0164 -0.1940  0.1308
 2673SOL    HW119478   1.487   0.951  11.089  0.0513  1.3858  0.6590
 2673SOL    HW219479   1.500   1.073  11.015  0.9195 -0.2540 -0.8037
 2674SOL     OW19480   4.103   0.357   3.697 -0.1750 -0.6699  0.3945
 2674SOL    HW119481   4.141   0.416   3.762  1.4333 -1.1006 -0.1503
 2674SOL    HW219482   4.159   0.368   3.620  0.3146 -0.5982  0.7631
 2675SOL     OW19483   1.657   4.688  13.884 -0.4463 -0.2612 -0.0966
 2675SOL    HW119484   1.734   4.690  13.828 -0.8118 -3.0204 -0.6860
 2675SOL    HW219485   1.658   0.060  13.915  0.3766  0.0626 -1.0684
 2676SOL     OW19486   2.126   1.645   9.605  0.1082  0.0776  0.1242
 2676SOL    HW119487   2.187   1.710   9.570  0.5470 -0.7858 -0.7161
 2676SOL    HW219488   2.176   1.567   9.582 -1.7971 -1.4200  1.0864
 2677SOL     OW19489   3.978   1.081   0.438  0.1337 -0.0919 -0.6911
 2677SOL    HW119490   3.945   1.069   0.349  0.9233 -2.0037 -0.7091
 2677SOL    HW219491   3.981   1.177   0.441 -0.4771 -0.0969  0.1433
 2678SOL     OW19492   0.834   3.739   2.597 -0.9495 -0.2660 -0.5402
 2678SOL    HW119493   0.905   3.704   2.650 -1.8519 -1.2891 -0.0008
 2678SOL    HW219494   0.880   3.782   2.525  1.0110 -1.7294 -0.1694
 2679SOL     OW19495   4.550   3.830  14.835 -0.4490 -0.5611  0.4652
 2679SOL    HW119496   4.590   3.813  14.921  1.0763 -0.6573 -0.2568
 2679SOL    HW219497   4.626   3.814  14.779  0.1023 -2.5524  1.7552
 2680SOL     OW19498   3.035   2.815   6.563 -0.0894  0.3143  0.2653
 2680SOL    HW119499   3.107   2.788   6.620  0.7757  3.0071  0.4323
 2680SOL    HW219500   3.027   2.733   6.515  1.8336  0.9850 -1.1899
 2681SOL     OW19501   0.337   1.908   6.851  0.3060  0.0697 -0.0462
 2681SOL    HW119502   0.362   1.969   6.921 -0.9320  0.9693 -0.3982
 2681SOL    HW219503   0.320   1.823   6.893  2.9406 -0.1674  0.5363
 2682SOL     OW19504   0.474   2.014   6.630 -0.0276 -0.0823  0.1262
 2682SOL    HW119505   0.437   1.928   6.650 -0.6706 -0.3407 -2.0825
 2682SOL    HW219506   0.549   2.020   6.689 -1.6105 -1.4139  2.2668
 2683SOL     OW19507   1.656   2.578   9.231 -0.1734 -0.7772 -0.7280
 2683SOL    HW119508   1.657   2.644   9.301  0.2034  0.2086 -1.6621
 2683SOL    HW219509   1.727   2.610   9.176 -2.1307  2.0768 -1.6021
 2684SOL     OW19510   2.506   2.199   2.127 -0.5562 -0.1149 -0.2046
 2684SOL    HW119511   2.423   2.219   2.170 -1.1045 -1.0897 -0.8017
 2684SOL    HW219512   2.516   2.104   2.139  1.0653 -0.1680 -1.9638
 2685SOL     OW19513   3.041   3.381   4.755  0.1785 -0.5857  0.3028
 2685SOL    HW119514   2.995   3.432   4.822 -1.6280  1.7867 -2.7653
 2685SOL    HW219515   2.975   3.315   4.732  1.1479 -0.8562 -1.6975
 2686SOL     OW19516   1.504   3.126   1.468 -0.2995 -0.0467  0.6204
 2686SOL    HW119517   1.599   3.131   1.455 -0.2981  0.2140  0.7179
 2686SOL    HW219518   1.479   3.175   1.390 -0.9826 -0.2944  0.6834
 2687SOL     OW19519   2.091   2.216  17.278  0.3407 -0.3330 -0.5654
 2687SOL    HW119520   2.179   2.200  17.312  0.0001  0.0630  0.5009
 2687SOL    HW219521   2.045   2.239  17.359  0.8368  0.7551 -0.5990
 2688SOL     OW19522   3.216   1.580  16.921  0.1705  0.2482 -0.2849
 2688SOL    HW119523   3.275   1.652  16.897 -0.9967  1.5694  0.8231
 2688SOL    HW219524   3.206   1.543  16.833 -0.5666 -1.2675  0.4475
 2689SOL     OW19525   4.661   4.716   6.942  0.5369  0.3005 -0.6094
 2689SOL    HW119526   4.595   4.658   6.903 -1.3187 -0.4065  3.5548
 2689SOL    HW219527   4.694   0.023   6.856 -0.7350 -0.9444 -1.4762
 2690SOL     OW19528   0.111   4.546  15.934  0.1421  0.6516 -0.0128
 2690SOL    HW119529   0.052   4.477  15.904 -0.5858  1.0952  0.3895
 2690SOL    HW219530   0.097   4.608  15.861  2.9936  3.1165  1.5621
 2691SOL     OW19531   4.618   4.577   9.405  0.1008 -0.6499 -0.4147
 2691SOL    HW119532   4.565   4.507   9.369 -0.9778 -0.0134 -0.0632
 2691SOL    HW219533   4.637   4.543   9.493 -1.2364 -0.4079 -0.0312
 2692SOL     OW19534   1.826   1.195  16.525  0.4371 -0.5090 -0.1615
 2692SOL    HW119535   1.737   1.227  16.507  0.4444 -0.6277 -0.3935
 2692SOL    HW219536   1.854   1.264  16.586 -0.2054 -1.5226  1.2832
 2693SOL     OW19537   3.096   3.551   7.557  0.0153 -0.4827  0.7061
 2693SOL    HW119538   3.041   3.626   7.580  0.5933  0.1294  0.1320
 2693SOL    HW219539   3.063   3.483   7.615  0.1644  0.3477  1.7727
 2694SOL     OW19540   2.225   1.361   4.424  0.0004 -0.0051  0.4455
 2694SOL    HW119541   2.237   1.423   4.353  1.0485 -0.7770 -0.0606
 2694SOL    HW219542   2.260   1.283   4.380  1.6146 -0.1472  1.9574
 2695SOL     OW19543   4.281   1.469  14.639 -0.0832 -0.2991  0.4910
 2695SOL    HW119544   4.202   1.516  14.664  1.5874  2.8530 -0.1548
 2695SOL    HW219545   4.246   1.433  14.558  2.5017  2.9859 -2.0311
 2696SOL     OW19546   3.181   2.254  15.365  0.4831  0.1578  0.1517
 2696SOL    HW119547   3.253   2.258  15.428  1.5302 -1.0577 -0.9906
 2696SOL    HW219548   3.182   2.168  15.323 -1.0787  1.5285 -2.7194
 2697SOL     OW19549   1.343   3.640  13.481 -0.4544 -0.2830  0.5977
 2697SOL    HW119550   1.250   3.657  13.493 -0.0323  0.1394  3.3103
 2697SOL    HW219551   1.360   3.696  13.405 -0.3051  0.2089  0.9878
 2698SOL     OW19552   0.543   1.100  14.773 -0.5128 -0.8012  0.1670
 2698SOL    HW119553   0.455   1.064  14.761 -0.7596 -0.0435 -0.2436
 2698SOL    HW219554   0.596   1.021  14.759  0.5066  0.0418 -0.8189
 2699SOL     OW19555   4.422   2.190  10.018 -0.4874 -0.5236  0.3043
 2699SOL    HW119556   4.434   2.277   9.979  1.6115 -1.1589 -0.4460
 2699SOL    HW219557   4.512   2.160  10.031 -1.5239 -2.3873  3.2046
 2700SOL     OW19558   3.075   2.574   2.173 -0.1901 -0.6976  0.3509
 2700SOL    HW119559   3.079   2.632   2.249  1.6287  0.1788 -0.4215
 2700SOL    HW219560   2.980   2.561   2.166 -0.1101 -1.0678 -0.0677
 2701SOL     OW19561   0.185   3.407  11.806  0.0419  0.4981  0.0873
 2701SOL    HW119562   0.263   3.357  11.831  0.2651  0.3510 -0.8866
 2701SOL    HW219563   0.118   3.378  11.867 -0.0438  0.5603  0.0229
 2702SOL     OW19564   4.383   3.875   5.338  0.5019  0.2932  0.2397
 2702SOL    HW119565   4.307   3.870   5.396  0.4907 -1.8921  0.0605
 2702SOL    HW219566   4.440   3.807   5.373 -0.5573 -1.0015 -0.5561
 2703SOL     OW19567   1.099   1.500  15.312  0.4234  0.2724 -1.0139
 2703SOL    HW119568   1.016   1.510  15.265  0.4217  0.1359 -1.0380
 2703SOL    HW219569   1.075   1.427  15.369 -0.7297 -1.0981 -3.2463
 2704SOL     OW19570   1.933   1.280   7.548 -0.3452 -0.0339 -0.0985
 2704SOL    HW119571   1.943   1.372   7.574  4.2948 -0.8766  1.1249
 2704SOL    HW219572   2.006   1.261   7.489 -1.2480  1.4412 -1.6758
 2705SOL     OW19573   2.625   2.469   4.941 -0.5636  0.1847  0.3666
 2705SOL    HW119574   2.708   2.516   4.944  0.4859 -1.5556 -1.8866
 2705SOL    HW219575   2.566   2.543   4.927  0.2263  1.0090  1.3362
 2706SOL     OW19576   3.639   0.740   3.901 -0.1351 -0.2677  0.1681
 2706SOL    HW119577   3.658   0.769   3.991  1.8633  1.0612 -0.6937
 2706SOL    HW219578   3.544   0.727   3.904 -0.2435  0.3304 -0.8377
 2707SOL     OW19579   3.926   4.665   2.922 -0.2460  0.3467 -0.3952
 2707SOL    HW119580   4.001   4.606   2.912 -1.2128 -0.7551 -1.0945
 2707SOL    HW219581   3.863   4.628   2.860 -1.1921  0.4723  0.4874
 2708SOL     OW19582   0.852   4.282  11.826  0.8357  0.2844 -0.1639
 2708SOL    HW119583   0.924   4.313  11.881 -0.6219 -1.8031  2.8869
 2708SOL    HW219584   0.900   4.253  11.748 -0.7534  0.2393 -1.1215
 2709SOL     OW19585   1.753   2.974  10.621  0.0082  0.8404  0.1165
 2709SOL    HW119586   1.802   2.902  10.660 -0.6569 -0.3623 -1.2350
 2709SOL    HW219587   1.811   3.047  10.642  1.5183 -0.1076 -0.7303
 2710SOL     OW19588   1.785   2.313   3.175 -0.0766 -0.4491  0.0242
 2710SOL    HW119589   1.812   2.365   3.099 -2.0013 -0.9056 -0.9682
 2710SOL    HW219590   1.760   2.388   3.230  1.5217 -0.0659  0.2326
 2711SOL     OW19591   4.237   3.202  17.251 -0.1285 -0.1055 -0.1861
 2711SOL    HW119592   4.313   3.209  17.194 -0.8668  0.1659 -1.1313
 2711SOL    HW219593   4.177   3.181  17.180  1.0327  1.1744 -1.5476
 2712SOL     OW19594   4.003   3.086   7.843  0.0484 -0.0593  0.2010
 2712SOL    HW119595   4.048   3.171   7.846  0.8568 -0.4105 -2.4923
 2712SOL    HW219596   4.015   3.059   7.752 -0.6203 -0.0890  0.1210
 2713SOL     OW19597   2.523   3.901   5.230 -0.0240 -0.2354 -0.3986
 2713SOL    HW119598   2.553   3.964   5.296  0.6900 -0.8129 -0.1729
 2713SOL    HW219599   2.583   3.832   5.259 -1.4055 -2.4184 -2.7895
 2714SOL     OW19600   3.127   3.762   2.300  0.4827 -0.7522  0.1488
 2714SOL    HW119601   3.140   3.762   2.205  0.3210  3.3247  0.1386
 2714SOL    HW219602   3.180   3.687   2.327 -0.8253 -1.4879  0.6461
 2715SOL     OW19603   4.408   3.050  15.634 -0.0688 -0.1349  0.2265
 2715SOL    HW119604   4.386   3.134  15.593  0.5169 -0.0361  0.1104
 2715SOL    HW219605   4.332   3.036  15.690 -1.4467 -0.2188 -1.6805
 2716SOL     OW19606   3.455   0.155   7.110  0.2198 -0.2639  0.6373
 2716SOL    HW119607   3.518   0.180   7.042 -0.1869 -0.9207  0.0142
 2716SOL    HW219608   3.505   0.177   7.189  1.6666  0.3046 -0.4367
 2717SOL     OW19609   1.304   1.922  15.822  0.6551 -0.4536  0.1918
 2717SOL    HW119610   1.380   1.886  15.868  1.1177 -1.4259 -1.3128
 2717SOL    HW219611   1.344   1.946  15.738 -1.2877  0.9333 -0.3190
 2718SOL     OW19612   2.849   4.237   5.893  0.8649  0.4970  0.1367
 2718SOL    HW119613   2.918   4.201   5.949 -0.6196  3.5725  3.9802
 2718SOL    HW219614   2.886   4.225   5.806 -3.4405  1.8297 -1.9021
 2719SOL     OW19615   3.666   0.319   9.667  0.7952  0.0899  0.6564
 2719SOL    HW119616   3.615   0.379   9.720  1.1251  0.9587 -0.0012
 2719SOL    HW219617   3.723   0.386   9.629  2.0311 -0.4588  1.5716
 2720SOL     OW19618   4.125   3.084   3.943 -0.1089  0.7676 -0.3000
 2720SOL    HW119619   4.139   3.081   4.038 -2.8132  1.2283  0.1170
 2720SOL    HW219620   4.214   3.072   3.910  0.1848  3.4636 -0.4618
 2721SOL     OW19621   1.215   3.531   5.540 -0.1668  0.4972  0.4559
 2721SOL    HW119622   1.308   3.544   5.557 -0.4241  2.0330  0.6722
 2721SOL    HW219623   1.187   3.478   5.614  0.6688 -0.0562  0.3800
 2722SOL     OW19624   2.065   0.449  17.081 -0.1067 -0.2499 -0.1147
 2722SOL    HW119625   2.017   0.412  17.155  0.5137  1.7244  1.2914
 2722SOL    HW219626   2.085   0.540  17.107 -0.6650  0.2540 -1.4808
 2723SOL     OW19627   1.536   0.582   8.105 -0.7142 -0.2087  0.1605
 2723SOL    HW119628   1.443   0.561   8.091 -0.9695  1.1487 -0.2360
 2723SOL    HW219629   1.529   0.627   8.189  2.6156  0.2680  0.1806
 2724SOL     OW19630   1.791   2.828   5.255 -0.1991  0.5653  0.0318
 2724SOL    HW119631   1.790   2.895   5.187 -0.7211  0.3863 -0.1383
 2724SOL    HW219632   1.731   2.755   5.239 -0.9194  0.7295  1.9662
 2725SOL     OW19633   0.393   0.137   4.717  0.2789  0.3269  0.3366
 2725SOL    HW119634   0.301   0.115   4.733  0.8374 -0.4629  2.5198
 2725SOL    HW219635   0.380   0.226   4.684 -0.3367  0.2182  0.2836
 2726SOL     OW19636   1.437   1.960  11.651 -0.1862 -0.6845  0.2975
 2726SOL    HW119637   1.394   1.923  11.728  1.1185 -1.7587  0.4960
 2726SOL    HW219638   1.432   1.890  11.586  2.5081  1.1322 -1.8374
 2727SOL     OW19639   2.409   2.801  11.707  0.4362 -0.3185 -1.1934
 2727SOL    HW119640   2.501   2.826  11.701  0.5648 -0.1604  1.3889
 2727SOL    HW219641   2.372   2.851  11.780  1.5799  1.3176 -1.7495
 2728SOL     OW19642   4.305   1.840   2.878 -0.2600  0.3226 -0.3107
 2728SOL    HW119643   4.267   1.846   2.966 -1.8279  0.3213 -0.9856
 2728SOL    HW219644   4.363   1.766   2.894 -0.1650  0.3819 -0.3844
 2729SOL     OW19645   3.650   2.504   1.126  0.0937 -0.0924 -0.7944
 2729SOL    HW119646   3.674   2.578   1.071  1.6650 -0.5988 -0.8068
 2729SOL    HW219647   3.555   2.500   1.122  0.0733 -0.3675 -0.1615
 2730SOL     OW19648   4.228   3.166  11.662 -0.3126 -0.0066  0.2258
 2730SOL    HW119649   4.236   3.091  11.603 -2.5742  0.0302 -0.1010
 2730SOL    HW219650   4.211   3.123  11.746  3.7217  1.1916  1.6832
 2731SOL     OW19651   3.934   1.529   2.173 -0.9805 -0.4099  0.0375
 2731SOL    HW119652   3.912   1.548   2.082 -1.8689  0.7014  0.4804
 2731SOL    HW219653   3.888   1.449   2.198 -0.3193 -1.0082 -0.6663
 2732SOL     OW19654   0.861   1.011   4.770  0.0780 -0.0641 -0.1222
 2732SOL    HW119655   0.789   1.049   4.822 -1.2348  0.1383 -2.0876
 2732SOL    HW219656   0.859   1.084   4.708 -0.4633 -0.8454 -1.0140
 2733SOL     OW19657   3.190   3.503   8.267 -0.3240  0.5980 -0.1826
 2733SOL    HW119658   3.152   3.500   8.179  0.7853 -1.3148 -0.6119
 2733SOL    HW219659   3.128   3.566   8.305  0.8152  0.5628  1.7405
 2734SOL     OW19660   4.136   4.665  17.632 -0.6271 -0.6544  0.4859
 2734SOL    HW119661   4.219   4.708  17.655 -1.7627  1.4963  0.5569
 2734SOL    HW219662   4.164   4.613  17.556 -0.2794  0.4766 -0.1679
 2735SOL     OW19663   1.749   2.687   0.362  0.0876 -0.2470  0.3636
 2735SOL    HW119664   1.828   2.678   0.309 -1.3876  0.5039 -1.9315
 2735SOL    HW219665   1.756   2.607   0.415 -3.0509 -1.1799 -0.6423
 2736SOL     OW19666   3.265   0.830   8.661  0.2008  1.3643 -0.6629
 2736SOL    HW119667   3.188   0.871   8.703 -0.3265 -0.0977 -0.2079
 2736SOL    HW219668   3.272   0.887   8.584  2.0245  2.1297  0.0769
 2737SOL     OW19669   0.929   2.367  16.973 -0.4636  0.1451  0.2499
 2737SOL    HW119670   0.997   2.341  17.035  0.1463  1.7058  0.2244
 2737SOL    HW219671   0.977   2.435  16.926 -1.0148  0.2159 -0.2158
 2738SOL     OW19672   0.214   4.257   6.796 -0.1368  0.3063 -0.1698
 2738SOL    HW119673   0.185   4.229   6.883  0.5288 -3.1588 -1.0385
 2738SOL    HW219674   0.303   4.287   6.812 -0.4029  1.6496 -1.2259
 2739SOL     OW19675   4.370   2.540   2.180  0.0022  0.3998  0.5164
 2739SOL    HW119676   4.293   2.583   2.142 -0.9899  0.3383  2.4514
 2739SOL    HW219677   4.431   2.557   2.109 -2.1272  0.9943 -1.1592
 2740SOL     OW19678   2.585   3.919   2.968  0.0601  0.1781 -0.1729
 2740SOL    HW119679   2.539   3.842   3.002  0.0236  0.3388  0.1451
 2740SOL    HW219680   2.518   3.978   2.933 -0.6207  0.7903  2.1398
 2741SOL     OW19681   0.518   0.529   5.119 -0.4214 -0.3683 -0.0827
 2741SOL    HW119682   0.585   0.590   5.150 -2.3287  1.2800  0.7276
 2741SOL    HW219683   0.446   0.534   5.181  0.0665  0.5494  0.4026
 2742SOL     OW19684   3.598   2.732   4.762  0.1429 -1.0110  0.8930
 2742SOL    HW119685   3.548   2.702   4.686 -2.2688  0.0162  2.0706
 2742SOL    HW219686   3.570   2.822   4.775  0.6361 -0.5625 -1.2554
 2743SOL     OW19687   4.573   2.631  15.375 -0.5156  0.0884 -0.0599
 2743SOL    HW119688   4.537   2.699  15.432 -0.3675  0.9125 -0.9639
 2743SOL    HW219689   4.662   2.634  15.411 -1.3314  0.6647  1.9342
 2744SOL     OW19690   3.969   0.541   8.497 -0.6196 -0.0982  0.3977
 2744SOL    HW119691   4.044   0.568   8.444 -0.9815 -0.1618 -0.1477
 2744SOL    HW219692   3.975   0.609   8.564  1.2704 -0.1690  0.2941
 2745SOL     OW19693   0.365   2.720   1.779 -0.3439  0.5296 -0.2993
 2745SOL    HW119694   0.331   2.797   1.825 -2.6195 -0.1780 -0.7977
 2745SOL    HW219695   0.279   2.699   1.743  0.1442  0.8988 -1.7120
 2746SOL     OW19696   4.077   2.198   8.929 -0.3706  0.1476  0.1080
 2746SOL    HW119697   4.104   2.246   9.008 -0.3574 -0.0667  0.2348
 2746SOL    HW219698   4.073   2.269   8.865 -1.4562 -1.2015 -1.2998
 2747SOL     OW19699   2.830   0.302   3.267  0.8496  0.1579 -0.3494
 2747SOL    HW119700   2.914   0.329   3.230  0.9687  0.3959  0.0917
 2747SOL    HW219701   2.847   0.212   3.295  0.7284  0.7309  1.5777
 2748SOL     OW19702   2.511   1.584   5.280 -0.4285  0.3234  0.2146
 2748SOL    HW119703   2.456   1.574   5.202  0.8952  0.4054 -0.7340
 2748SOL    HW219704   2.447   1.631   5.334 -1.4026 -1.2398  0.4185
 2749SOL     OW19705   3.578   4.496   2.531 -0.1562 -0.2294  0.0958
 2749SOL    HW119706   3.504   4.437   2.548  0.8294 -1.5232 -0.0656
 2749SOL    HW219707   3.584   4.507   2.436 -1.3971  0.4146  0.0998
 2750SOL     OW19708   0.902   2.221   7.757  0.1106  0.2719  0.0398
 2750SOL    HW119709   0.873   2.153   7.696 -0.1750 -0.5151  1.0629
 2750SOL    HW219710   0.966   2.170   7.805  0.2521 -0.0598 -0.5011
 2751SOL     OW19711   0.229   3.428   2.350  1.1801  0.1616  0.3934
 2751SOL    HW119712   0.195   3.341   2.327  0.6458 -0.0290  1.9013
 2751SOL    HW219713   0.151   3.483   2.342  1.9495  1.0184 -1.1966
 2752SOL     OW19714   4.104   0.485   5.649 -0.2546 -0.3647  0.7626
 2752SOL    HW119715   4.166   0.488   5.722  1.1245 -2.5429 -0.3315
 2752SOL    HW219716   4.035   0.424   5.677 -1.1226 -0.3151 -1.2503
 2753SOL     OW19717   2.241   1.418   3.440 -0.1910 -0.3163  0.1637
 2753SOL    HW119718   2.178   1.390   3.375  1.6640  1.0245 -2.2263
 2753SOL    HW219719   2.212   1.508   3.459 -1.3784 -0.8901  1.0613
 2754SOL     OW19720   2.494   1.750   2.716 -0.6100 -0.4060  0.7161
 2754SOL    HW119721   2.438   1.676   2.742 -0.9559 -0.7345 -0.9996
 2754SOL    HW219722   2.558   1.746   2.787 -0.0184 -0.8513  0.1600
 2755SOL     OW19723   4.381   4.394  11.366 -0.7448 -0.6643  0.0927
 2755SOL    HW119724   4.307   4.343  11.334 -0.7785 -0.0473 -0.8084
 2755SOL    HW219725   4.334   4.476  11.381  0.4131 -0.3755  2.1385
 2756SOL     OW19726   2.539   3.765   9.927  0.0439  0.1064 -0.1841
 2756SOL    HW119727   2.532   3.806  10.013 -1.8652  1.1709 -0.8218
 2756SOL    HW219728   2.456   3.721   9.905 -0.5281  0.0214  2.1757
 2757SOL     OW19729   3.544   4.192   3.034 -0.3443  0.0766  0.3815
 2757SOL    HW119730   3.560   4.195   2.940  0.2014 -1.5731  0.4129
 2757SOL    HW219731   3.574   4.103   3.053 -2.4195 -1.1492 -2.0593
 2758SOL     OW19732   3.360   1.957  10.968  0.0723 -0.1948 -0.2990
 2758SOL    HW119733   3.441   1.941  10.920  0.5109  0.6133  0.1795
 2758SOL    HW219734   3.352   1.872  11.012 -0.6854 -0.5312 -1.0737
 2759SOL     OW19735   2.462   0.324   0.226 -0.3568  0.1195 -0.1525
 2759SOL    HW119736   2.429   0.357   0.310  0.9049  0.3767  0.2398
 2759SOL    HW219737   2.546   0.295   0.261  0.4994  2.8315  0.0723
 2760SOL     OW19738   4.209   2.730   5.466  0.4162  0.1902  0.7709
 2760SOL    HW119739   4.201   2.691   5.378 -0.6461 -1.1426  1.4580
 2760SOL    HW219740   4.196   2.651   5.519 -0.4075 -0.6571 -0.7037
 2761SOL     OW19741   0.623   1.778  14.569 -0.4629 -0.3825 -0.1701
 2761SOL    HW119742   0.664   1.846  14.622  1.0551 -0.3561 -1.3746
 2761SOL    HW219743   0.674   1.699  14.586 -2.7690 -0.8072  4.7067
 2762SOL     OW19744   3.437   0.968   5.113 -0.0517 -0.4106  0.3161
 2762SOL    HW119745   3.532   0.975   5.102 -0.5791  4.4541 -0.9573
 2762SOL    HW219746   3.405   1.047   5.071 -0.7830 -2.9399 -3.8634
 2763SOL     OW19747   3.465   2.122   7.197 -0.0122  0.1305 -0.4452
 2763SOL    HW119748   3.467   2.029   7.221 -1.8331  0.3897  0.7268
 2763SOL    HW219749   3.558   2.142   7.205 -0.7289  1.8355  3.7485
 2764SOL     OW19750   4.335   3.112   6.616  0.5146 -0.4177 -0.3747
 2764SOL    HW119751   4.245   3.083   6.630  0.3191  0.3393 -0.0759
 2764SOL    HW219752   4.393   3.050   6.660 -1.0242 -1.2267  0.5257
 2765SOL     OW19753   1.906   4.476   8.932  0.4600  0.0227  0.0646
 2765SOL    HW119754   1.944   4.451   9.016 -0.8547  1.6149  1.1447
 2765SOL    HW219755   1.860   4.392   8.925  2.2989 -0.8138 -1.9417
 2766SOL     OW19756   1.366   2.195  11.575 -0.7583 -0.5576 -0.4832
 2766SOL    HW119757   1.436   2.236  11.625  0.4305 -1.0087 -1.7643
 2766SOL    HW219758   1.385   2.104  11.596  2.8755  0.4782  0.7345
 2767SOL     OW19759   3.266   4.268   6.543  0.0571 -0.2138  0.1515
 2767SOL    HW119760   3.259   4.318   6.462  2.4709  0.0869  0.1530
 2767SOL    HW219761   3.204   4.319   6.596  0.6964  0.4415  0.2730
 2768SOL     OW19762   3.659   1.808   7.141 -0.3194  0.1932  0.1033
 2768SOL    HW119763   3.722   1.833   7.072 -0.0433  0.5083  0.4700
 2768SOL    HW219764   3.655   1.714   7.121  1.7570  0.5352 -1.9745
 2769SOL     OW19765   0.542   2.880   6.012  0.1058  0.1705  0.3743
 2769SOL    HW119766   0.479   2.947   5.988 -0.8063 -1.8554 -2.8468
 2769SOL    HW219767   0.496   2.841   6.086  0.7853 -2.8009 -0.7654
 2770SOL     OW19768   2.568   3.632   5.999  0.3851 -0.0133 -0.2977
 2770SOL    HW119769   2.512   3.703   6.032 -2.1767 -1.5277 -1.3521
 2770SOL    HW219770   2.589   3.580   6.077 -1.4424  2.1309  1.6062
 2771SOL     OW19771   1.230   1.481   8.199 -0.1269 -0.7228  0.1165
 2771SOL    HW119772   1.276   1.409   8.155  1.0867 -1.5455  2.7633
 2771SOL    HW219773   1.172   1.434   8.259 -5.5379  2.5049 -2.5543
 2772SOL     OW19774   1.940   4.417   2.994  0.4437  0.7952  0.2132
 2772SOL    HW119775   1.943   4.512   2.992 -0.4724  0.8472  1.1754
 2772SOL    HW219776   1.846   4.400   3.001  0.5675 -0.2195 -0.4307
 2773SOL     OW19777   2.351   1.245   7.096  0.0460 -0.6840 -0.6464
 2773SOL    HW119778   2.375   1.317   7.155 -1.6870 -0.6250 -0.0155
 2773SOL    HW219779   2.416   1.177   7.114  0.9575  0.1445 -0.8109
 2774SOL     OW19780   0.815   0.188  16.081  0.2219 -0.5797  0.3557
 2774SOL    HW119781   0.762   0.142  16.146  0.5411  1.0896  1.8213
 2774SOL    HW219782   0.901   0.145  16.085  0.2315 -0.5457  0.5661
 2775SOL     OW19783   2.616   1.667  15.220  0.2404  0.1639 -0.3260
 2775SOL    HW119784   2.677   1.704  15.284  2.8255 -0.3085 -2.5509
 2775SOL    HW219785   2.576   1.591  15.263  0.9979  0.0917  0.2376
 2776SOL     OW19786   2.157   0.738  12.149  0.2594 -0.1070 -0.0407
 2776SOL    HW119787   2.160   0.811  12.210  2.3000  0.3325 -0.6680
 2776SOL    HW219788   2.204   0.770  12.071 -0.6275  1.6148  0.1278
 2777SOL     OW19789   2.623   1.742  14.716 -0.0690  0.3234  0.1847
 2777SOL    HW119790   2.563   1.749  14.642  0.6888  0.5997 -0.4112
 2777SOL    HW219791   2.609   1.828  14.754 -0.8514 -0.0752  0.7895
 2778SOL     OW19792   2.981   0.224   1.993 -0.4172 -0.1657 -0.1452
 2778SOL    HW119793   2.962   0.204   1.902 -3.2662 -0.0847  0.4324
 2778SOL    HW219794   3.034   0.151   2.026  0.9196 -0.4810 -2.9704
 2779SOL     OW19795   2.883   3.853  10.087 -0.6904  0.2075 -0.1947
 2779SOL    HW119796   2.859   3.786  10.151 -2.0420  1.7103  0.8538
 2779SOL    HW219797   2.872   3.811  10.001 -2.8721 -2.1042  1.2409
 2780SOL     OW19798   2.325   0.272  11.493  0.0421  0.0342 -0.0121
 2780SOL    HW119799   2.363   0.187  11.516 -2.8707 -1.2600  0.0108
 2780SOL    HW219800   2.232   0.256  11.482 -0.7029  2.9368  2.0846
 2781SOL     OW19801   2.326   3.373   9.939  0.0010 -0.3762 -0.2228
 2781SOL    HW119802   2.235   3.402   9.944  0.4111  1.1990 -1.5573
 2781SOL    HW219803   2.325   3.294   9.885  1.9826 -0.2459 -0.4467
 2782SOL     OW19804   2.521   3.367   3.339 -0.1721 -0.3469 -0.3308
 2782SOL    HW119805   2.570   3.439   3.378  1.2638 -1.4068 -0.1987
 2782SOL    HW219806   2.558   3.357   3.251  1.9585  0.3805  0.4956
 2783SOL     OW19807   0.256   0.095   2.706 -0.3451  0.1149 -0.3873
 2783SOL    HW119808   0.245   0.005   2.736  0.4418  0.0143 -0.3891
 2783SOL    HW219809   0.175   0.134   2.738  0.9398  1.1570  1.6128
 2784SOL     OW19810   0.425   1.109   5.504  0.1763 -0.3678  0.0879
 2784SOL    HW119811   0.471   1.116   5.421 -0.1123  0.6250  0.0175
 2784SOL    HW219812   0.343   1.140   5.466 -0.7592 -0.7131  1.7900
 2785SOL     OW19813   1.632   4.213   5.627 -0.3090  0.0715  0.0326
 2785SOL    HW119814   1.678   4.253   5.701  0.7202 -0.3592 -0.3772
 2785SOL    HW219815   1.688   4.246   5.557 -0.5274 -0.3765 -0.3541
 2786SOL     OW19816   2.304   0.683   3.000 -0.3321 -0.3765  0.0703
 2786SOL    HW119817   2.360   0.609   3.021 -0.0837  0.0811  1.0374
 2786SOL    HW219818   2.225   0.641   2.966 -1.4639  0.4972  1.5686
 2787SOL     OW19819   0.944   2.911  12.105 -0.8744  0.0470  0.1980
 2787SOL    HW119820   1.007   2.917  12.177 -1.4977  2.0806  0.5953
 2787SOL    HW219821   0.973   2.835  12.056  0.3924  1.4831 -1.2929
 2788SOL     OW19822   0.913   1.693   6.579  0.3294 -0.0383  0.2802
 2788SOL    HW119823   0.936   1.633   6.651  0.9323 -0.2741 -0.1051
 2788SOL    HW219824   1.001   1.730   6.565  0.0495  0.6372  0.3240
 2789SOL     OW19825   3.156   1.077   9.663 -0.0431 -0.0745 -0.5076
 2789SOL    HW119826   3.209   1.043   9.736 -1.4452 -0.2413  0.4407
 2789SOL    HW219827   3.169   1.172   9.673 -2.6942  0.2118  0.1027
 2790SOL     OW19828   3.550   1.000   5.530  0.0032 -0.1676  0.1710
 2790SOL    HW119829   3.499   0.953   5.465  1.2509 -1.8659  0.4113
 2790SOL    HW219830   3.487   1.053   5.579  1.1908  1.5035 -0.1044
 2791SOL     OW19831   4.129   1.668   7.475  0.3760  0.0358 -0.6046
 2791SOL    HW119832   4.095   1.716   7.400 -0.3103  0.0425 -0.2813
 2791SOL    HW219833   4.205   1.620   7.439 -0.7632 -2.2252 -0.0126
 2792SOL     OW19834   4.626   1.460   3.046  0.0583  0.1503 -0.7617
 2792SOL    HW119835   4.709   1.468   2.999  1.8974  0.3870  2.5183
 2792SOL    HW219836   4.567   1.459   2.970  0.6891 -0.5637 -1.2413
 2793SOL     OW19837   1.206   3.958   2.249  0.0953 -0.2924 -0.7082
 2793SOL    HW119838   1.152   3.920   2.180 -0.9251  1.1274 -0.7036
 2793SOL    HW219839   1.226   4.045   2.213 -0.5351  0.1058 -0.0905
 2794SOL     OW19840   4.229   1.615   2.173 -0.2303 -0.0023  0.1387
 2794SOL    HW119841   4.169   1.653   2.238  1.1051  0.1980  1.2429
 2794SOL    HW219842   4.164   1.574   2.116 -2.3556  2.7974  0.5588
 2795SOL     OW19843   1.015   0.346   9.922  0.1283 -0.0991 -0.5236
 2795SOL    HW119844   0.937   0.384   9.964  1.1866  1.0992  0.3522
 2795SOL    HW219845   1.002   0.255   9.947 -0.3996  0.0160 -0.3816
 2796SOL     OW19846   3.906   1.813   8.129  0.4522 -0.7333  0.8715
 2796SOL    HW119847   3.897   1.720   8.150 -2.3248 -1.0232 -1.5182
 2796SOL    HW219848   3.832   1.861   8.168  0.3744 -0.4790  0.4139
 2797SOL     OW19849   2.521   0.326   4.968  0.2564 -0.7460 -0.6379
 2797SOL    HW119850   2.458   0.262   5.002  0.7247  0.4384  2.3746
 2797SOL    HW219851   2.600   0.273   4.979 -0.0058 -0.9400  0.2825
 2798SOL     OW19852   0.603   0.605   9.960  0.3260  0.2819 -0.1585
 2798SOL    HW119853   0.643   0.614   9.874 -0.7652 -2.2877 -0.9108
 2798SOL    HW219854   0.676   0.590  10.020 -1.6012 -2.3115  1.5293
 2799SOL     OW19855   2.765   2.056   4.786 -0.2758  0.7692  0.5087
 2799SOL    HW119856   2.762   1.961   4.799 -1.1574  0.8236  0.7027
 2799SOL    HW219857   2.857   2.063   4.761 -0.3656 -0.8188 -0.2800
 2800SOL     OW19858   1.752   0.706   3.464  0.2485 -0.2281  0.0921
 2800SOL    HW119859   1.666   0.740   3.441 -0.1823 -1.6633 -0.4379
 2800SOL    HW219860   1.730   0.664   3.548  1.3360  2.1579  1.5900
 2801SOL     OW19861   4.082   3.795   4.922  0.6794  0.7082 -0.2863
 2801SOL    HW119862   4.120   3.744   4.850  0.6143  1.0430 -0.5537
 2801SOL    HW219863   4.162   3.840   4.947  1.2181 -1.9128  2.8074
 2802SOL     OW19864   2.856   0.865   5.567 -0.0487 -0.0837  0.7020
 2802SOL    HW119865   2.874   0.936   5.505  0.1095 -1.1278 -0.4394
 2802SOL    HW219866   2.903   0.891   5.647  1.0241  1.7676 -0.5192
 2803SOL     OW19867   3.424   4.393   9.398  0.1067 -0.1980  0.0228
 2803SOL    HW119868   3.341   4.417   9.357  2.1159  2.7958 -2.3087
 2803SOL    HW219869   3.466   4.478   9.414  0.9393 -0.1540 -2.4134
 2804SOL     OW19870   3.894   2.810  13.819  0.1420 -0.3166  0.0148
 2804SOL    HW119871   3.846   2.732  13.847 -2.4791  1.4209  0.4468
 2804SOL    HW219872   3.871   2.876  13.885 -0.2233  1.4981 -1.8966
 2805SOL     OW19873   0.397   2.446   7.431  0.2601 -0.3873 -0.9181
 2805SOL    HW119874   0.474   2.427   7.484  0.6523 -0.4120 -1.4915
 2805SOL    HW219875   0.383   2.539   7.446  3.6158  0.0851 -0.8651
 2806SOL     OW19876   3.246   3.724   9.007 -0.2658 -0.0837 -0.2841
 2806SOL    HW119877   3.230   3.783   8.933  1.4614  1.1918  0.3564
 2806SOL    HW219878   3.176   3.763   9.058 -0.1954 -1.1351  0.6172
 2807SOL     OW19879   0.009   3.515   7.120  0.0610  0.6011  0.8058
 2807SOL    HW119880   4.693   3.458   7.052 -0.0912  1.8027 -0.1083
 2807SOL    HW219881   4.691   3.596   7.086  1.1330  1.4600  1.6983
 2808SOL     OW19882   0.322   3.599   7.783  0.5135  0.1647 -0.3013
 2808SOL    HW119883   0.327   3.650   7.703  0.5057  0.9227  0.1846
 2808SOL    HW219884   0.345   3.665   7.848 -1.0125 -0.7856  1.2235
 2809SOL     OW19885   2.456   2.690  13.459 -0.4572 -0.1444 -0.1715
 2809SOL    HW119886   2.369   2.661  13.433 -0.5926  1.2359 -1.2635
 2809SOL    HW219887   2.437   2.759  13.522  1.2283 -0.0916  0.2776
 2810SOL     OW19888   3.096   3.410   1.692  0.0488  0.3185  0.0093
 2810SOL    HW119889   3.089   3.338   1.629 -1.0618  0.1061  0.3697
 2810SOL    HW219890   3.039   3.477   1.654 -0.5011  1.6397  3.1628
 2811SOL     OW19891   2.043   2.604   4.546  0.5266 -0.3470 -0.1220
 2811SOL    HW119892   1.965   2.608   4.601 -0.0281  1.6346 -1.0325
 2811SOL    HW219893   2.001   2.598   4.460 -0.9075  1.7118  0.4301
 2812SOL     OW19894   2.379   2.196  17.415  0.3460 -0.0429  0.2399
 2812SOL    HW119895   2.440   2.252  17.368  0.8800  0.3083  1.3588
 2812SOL    HW219896   2.440   2.155  17.476  1.7106 -2.2411 -2.6002
 2813SOL     OW19897   4.173   4.595  10.260  0.1150 -0.1266  0.0614
 2813SOL    HW119898   4.142   4.676  10.222  2.0253  0.8450  0.5640
 2813SOL    HW219899   4.267   4.611  10.274 -0.3476  1.7608  0.9267
 2814SOL     OW19900   0.981   3.907   5.694 -0.2584  0.0357  0.4453
 2814SOL    HW119901   1.031   3.922   5.774  1.6994  0.4968 -0.8616
 2814SOL    HW219902   1.039   3.929   5.621 -0.2391  3.2611  1.4512
 2815SOL     OW19903   0.395   3.455   3.694  0.2287  0.2716  0.2749
 2815SOL    HW119904   0.442   3.534   3.719  1.5695  0.2244 -2.1374
 2815SOL    HW219905   0.420   3.400   3.768 -0.6674 -1.0773 -0.4235
 2816SOL     OW19906   3.363   2.916  12.035  0.4855  0.1157  0.6200
 2816SOL    HW119907   3.392   2.838  11.988  1.6407  0.8713  0.0708
 2816SOL    HW219908   3.440   2.956  12.076  0.6008 -0.9727  1.4699
 2817SOL     OW19909   0.068   2.926  11.219 -0.2375  0.2561 -0.3626
 2817SOL    HW119910   0.018   2.869  11.278 -0.2913  1.0992  0.4191
 2817SOL    HW219911   0.066   2.864  11.147  1.2054 -0.5359  0.2930
 2818SOL     OW19912   1.275   1.152   3.022 -0.1008  0.8672 -0.2747
 2818SOL    HW119913   1.193   1.105   3.036  1.0727  0.0159  3.6866
 2818SOL    HW219914   1.315   1.132   3.106  2.9890 -0.0383 -1.9506
 2819SOL     OW19915   0.509   2.217  14.388  0.5458  0.2307 -0.4307
 2819SOL    HW119916   0.487   2.251  14.475  1.2563  0.4900 -0.3579
 2819SOL    HW219917   0.419   2.220  14.353 -0.5588 -0.9418  2.3053
 2820SOL     OW19918   2.632   2.884   1.426 -0.5855  0.0687  0.2725
 2820SOL    HW119919   2.705   2.825   1.447 -1.5551 -2.5085 -3.6296
 2820SOL    HW219920   2.681   2.951   1.379 -1.2320  0.0749 -0.3825
 2821SOL     OW19921   0.212   2.024   3.437 -0.2763 -0.2279  0.3047
 2821SOL    HW119922   0.288   2.043   3.380  1.8582 -2.3413  2.4649
 2821SOL    HW219923   0.257   2.043   3.519 -1.7450  0.9175  0.8480
 2822SOL     OW19924   1.139   3.361   5.900 -0.0419 -0.1117  0.1663
 2822SOL    HW119925   1.185   3.278   5.896 -0.3101 -0.1949 -1.1374
 2822SOL    HW219926   1.094   3.369   5.816 -3.5838  0.3836  2.1272
 2823SOL     OW19927   0.821   0.311   5.908  0.6396 -0.2276 -0.0775
 2823SOL    HW119928   0.737   0.317   5.862  0.7761  0.9163 -0.1638
 2823SOL    HW219929   0.800   0.369   5.982 -1.1339 -1.4141  0.3653
 2824SOL     OW19930   1.728   4.463   6.525 -0.1069 -0.0451 -0.2102
 2824SOL    HW119931   1.742   4.557   6.522  1.5562 -0.3003 -0.3454
 2824SOL    HW219932   1.725   4.449   6.620  1.0397 -0.8658 -0.2979
 2825SOL     OW19933   0.612   1.375  16.061 -0.0891 -0.0813 -0.4593
 2825SOL    HW119934   0.633   1.304  16.000 -2.6998  0.4452 -1.9958
 2825SOL    HW219935   0.641   1.346  16.147  2.1072 -1.0171 -1.5163
 2826SOL     OW19936   2.811   1.876   3.276  0.6356  0.1619  0.3049
 2826SOL    HW119937   2.742   1.818   3.309 -0.3570  0.8303 -0.6046
 2826SOL    HW219938   2.824   1.835   3.191  0.6521 -2.2971  1.4879
 2827SOL     OW19939   3.489   3.583  17.056 -0.0096  0.7006  0.0966
 2827SOL    HW119940   3.425   3.519  17.022  0.1644  0.4326  0.2753
 2827SOL    HW219941   3.479   3.575  17.151  0.7112  1.6804  0.2500
 2828SOL     OW19942   3.388   1.942   2.179 -0.1822  0.6813  0.4739
 2828SOL    HW119943   3.359   1.879   2.245  1.4441  1.0227  1.5093
 2828SOL    HW219944   3.453   1.895   2.127 -2.2130 -1.6223  0.0753
 2829SOL     OW19945   0.911   1.784  16.420 -0.1004 -0.8536  0.1528
 2829SOL    HW119946   0.980   1.812  16.480 -1.6523  0.3546  1.3762
 2829SOL    HW219947   0.851   1.859  16.421  0.1289 -0.6746  0.7300
 2830SOL     OW19948   1.239   2.727  15.181 -0.2218  0.1193 -0.4599
 2830SOL    HW119949   1.154   2.740  15.140 -0.9927 -0.2053  1.0393
 2830SOL    HW219950   1.230   2.643  15.226  0.5618  0.0794 -0.3729
 2831SOL     OW19951   0.089   0.487  10.221 -0.1361 -0.2438 -0.6262
 2831SOL    HW119952   0.012   0.454  10.174  0.9292  0.1438 -2.6179
 2831SOL    HW219953   0.044   0.560  10.264 -0.9772 -0.9059 -0.3727
 2832SOL     OW19954   4.389   0.748  15.030 -0.0012 -0.1415  0.2612
 2832SOL    HW119955   4.388   0.666  14.981  2.7728  0.2838 -0.4555
 2832SOL    HW219956   4.456   0.716  15.091  0.0965 -1.2063 -0.4154
 2833SOL     OW19957   2.745   3.571   9.027 -0.5200 -0.0475 -0.0821
 2833SOL    HW119958   2.711   3.576   8.937  0.1345 -0.0668 -0.3290
 2833SOL    HW219959   2.815   3.505   9.021 -0.2875  0.1520  0.4251
 2834SOL     OW19960   2.289   4.555  12.378  0.5654 -0.3245  0.6022
 2834SOL    HW119961   2.338   4.588  12.302 -0.7904 -0.3966 -0.2888
 2834SOL    HW219962   2.227   4.625  12.397  0.6778  0.2602 -1.1579
 2835SOL     OW19963   3.817   0.748   5.407  0.2459 -0.5218 -0.2756
 2835SOL    HW119964   3.796   0.667   5.453  0.6615  0.3284  1.4091
 2835SOL    HW219965   3.736   0.769   5.361 -0.2966  1.4174  1.5844
 2836SOL     OW19966   3.354   4.679   6.245 -0.6798  0.1708 -0.0770
 2836SOL    HW119967   3.434   4.627   6.249 -1.1607 -0.8052 -3.2027
 2836SOL    HW219968   3.394   0.046   6.238  0.3338 -0.4468 -1.9404
 2837SOL     OW19969   1.101   2.026   7.872 -0.3041  0.0239 -0.0366
 2837SOL    HW119970   1.108   1.973   7.952  1.4795  0.9738  0.4276
 2837SOL    HW219971   1.129   2.114   7.896 -1.4620  0.0711  1.1440
 2838SOL     OW19972   4.040   4.010   7.560 -0.0053  0.2882 -0.3606
 2838SOL    HW119973   3.974   3.965   7.613  0.5380  0.3089  0.3391
 2838SOL    HW219974   4.116   3.992   7.615 -0.5109 -3.5694 -0.8653
 2839SOL     OW19975   3.690   1.291   7.906 -0.2878 -0.3857  0.2425
 2839SOL    HW119976   3.691   1.271   8.000  0.9297 -0.1694  0.2807
 2839SOL    HW219977   3.618   1.352   7.889  0.0258 -0.4864 -1.4604
 2840SOL     OW19978   3.158   0.069   7.313 -0.6899  0.1147  0.1083
 2840SOL    HW119979   3.244   0.107   7.331 -0.5493 -0.1213 -0.0524
 2840SOL    HW219980   3.108   0.067   7.394  2.7793  3.5465  2.3154
 2841SOL     OW19981   3.220   2.503   3.711 -0.1055 -0.7675  0.0704
 2841SOL    HW119982   3.218   2.442   3.785  0.3877 -2.7904 -1.5625
 2841SOL    HW219983   3.273   2.441   3.660  0.4480  0.5620 -0.9687
 2842SOL     OW19984   1.716   1.437   2.733 -0.5749 -0.1176 -0.3283
 2842SOL    HW119985   1.665   1.361   2.760  1.0680 -0.3954  2.0907
 2842SOL    HW219986   1.650   1.497   2.699  0.5956  1.9509  0.9853
 2843SOL     OW19987   1.271   1.558  17.229 -0.1993 -0.2155 -0.0201
 2843SOL    HW119988   1.326   1.496  17.278  1.4996  1.2927 -0.0239
 2843SOL    HW219989   1.226   1.603  17.300 -1.6381 -0.7757 -0.5701
 2844SOL     OW19990   1.339   1.214   3.538  0.4726  0.4475  0.1095
 2844SOL    HW119991   1.434   1.225   3.543  0.5854 -0.8878  0.9957
 2844SOL    HW219992   1.310   1.292   3.584 -0.6704  0.3222 -0.3868
 2845SOL     OW19993   2.800   2.152   5.188 -0.2061  0.2389  0.5018
 2845SOL    HW119994   2.841   2.201   5.117 -0.2942 -0.6199 -0.1522
 2845SOL    HW219995   2.746   2.223   5.222 -0.6043  1.1461 -2.0019
 2846SOL     OW19996   2.589   2.022   6.802 -0.1343  1.1945 -0.4954
 2846SOL    HW119997   2.676   1.987   6.782  0.3135  1.6948  0.5646
 2846SOL    HW219998   2.614   2.088   6.867 -1.4692 -0.2998  1.5431
 2847SOL     OW19999   1.825   3.085   8.805  0.0376  0.1062  0.2730
 2847SOL    HW120000   1.748   3.137   8.829 -2.5154 -2.6433 -1.9917
 2847SOL    HW220001   1.849   3.130   8.724  2.1822 -0.5963  0.5204
 2848SOL     OW20002   2.280   3.221   8.860  0.0278  0.1676 -0.3364
 2848SOL    HW120003   2.297   3.166   8.783  1.0157  1.5716 -1.1359
 2848SOL    HW220004   2.298   3.306   8.819 -0.7068  0.9912  1.0825
 2849SOL     OW20005   1.115   3.249   4.932  0.4548 -0.5290 -0.0030
 2849SOL    HW120006   1.089   3.286   5.017 -1.9103 -1.3189 -0.3976
 2849SOL    HW220007   1.106   3.155   4.947 -1.5956 -0.4627 -0.9234
 2850SOL     OW20008   0.150   0.397   2.754  0.7389  0.1924 -0.4326
 2850SOL    HW120009   0.209   0.383   2.680  1.2027 -1.1439  0.1913
 2850SOL    HW220010   0.081   0.451   2.716 -0.7886 -2.4455 -1.3984
 2851SOL     OW20011   0.999   3.444  10.294  0.3705 -0.0766  0.1987
 2851SOL    HW120012   0.998   3.365  10.349 -1.2568 -0.4506 -0.3798
 2851SOL    HW220013   1.029   3.513  10.354 -1.3275  0.6799  0.1892
 2852SOL     OW20014   3.409   1.052   7.984 -0.1681 -0.0192  0.0108
 2852SOL    HW120015   3.363   1.127   7.946  0.5610  0.4193 -0.0025
 2852SOL    HW220016   3.435   0.995   7.911 -3.1552 -0.8659 -0.4003
 2853SOL     OW20017   3.577   2.451   2.852 -0.1249 -0.1771 -0.3186
 2853SOL    HW120018   3.630   2.492   2.783  1.7904  0.3464  1.4776
 2853SOL    HW220019   3.542   2.524   2.902  1.5266  0.5079 -0.1526
 2854SOL     OW20020   0.883   4.214   5.448 -0.0238 -0.0042  0.2696
 2854SOL    HW120021   0.850   4.285   5.393 -0.9022 -1.4781 -1.0802
 2854SOL    HW220022   0.933   4.258   5.518 -3.0775  3.0441  0.5349
 2855SOL     OW20023   0.345   4.002  16.086 -0.3869  0.1681 -0.1029
 2855SOL    HW120024   0.277   4.066  16.066  0.3535  1.6408  2.0898
 2855SOL    HW220025   0.352   4.028  16.178 -0.3932  0.4963 -0.1953
 2856SOL     OW20026   1.769   1.999   7.074  0.5936 -0.0382  0.9412
 2856SOL    HW120027   1.819   1.976   6.996 -2.7976  2.0764 -1.8519
 2856SOL    HW220028   1.803   1.953   7.150 -0.0226 -0.5431  0.9052
 2857SOL     OW20029   1.335   0.899   9.582 -0.0618 -0.4453  0.1661
 2857SOL    HW120030   1.346   0.993   9.594  1.9440 -0.6386 -0.1259
 2857SOL    HW220031   1.308   0.881   9.672 -0.0666 -0.4732  0.1592
 2858SOL     OW20032   3.665   0.256   6.611  0.3080 -0.3081  0.1885
 2858SOL    HW120033   3.570   0.255   6.613  0.3275  0.5964  1.5971
 2858SOL    HW220034   3.692   0.321   6.676 -1.4815 -1.7357  2.3385
 2859SOL     OW20035   0.826   4.008   5.276 -0.1624 -0.2488  0.1510
 2859SOL    HW120036   0.841   4.078   5.340 -0.9592  1.8158 -1.9314
 2859SOL    HW220037   0.873   4.051   5.205  0.7146  0.5359  1.2172
 2860SOL     OW20038   2.079   2.167   7.513 -0.5027  0.5335 -0.0902
 2860SOL    HW120039   2.054   2.076   7.496 -1.2229  0.8065 -0.4941
 2860SOL    HW220040   2.064   2.177   7.607 -1.0506 -2.4763  0.1655
 2861SOL     OW20041   0.299   0.988   5.716  0.4034  0.4348  0.4018
 2861SOL    HW120042   0.380   1.015   5.760  0.7749 -1.2073  0.7525
 2861SOL    HW220043   0.337   1.015   5.633 -1.7034  1.2852 -0.2829
 2862SOL     OW20044   1.286   4.193  13.968 -0.2741  0.0794  0.1683
 2862SOL    HW120045   1.254   4.121  13.914  1.0967 -0.6433  0.3216
 2862SOL    HW220046   1.308   4.134  14.040  0.8554  1.0485  0.6112
 2863SOL     OW20047   2.774   3.337   4.348  0.4599  0.7792  0.2469
 2863SOL    HW120048   2.850   3.278   4.352 -0.3037 -0.1037  1.8379
 2863SOL    HW220049   2.814   3.414   4.389  1.4980  0.8158 -0.8269
 2864SOL     OW20050   4.573   0.174   7.622  0.6155 -0.0310 -0.1913
 2864SOL    HW120051   4.580   0.174   7.717 -1.0522  0.0168 -0.0653
 2864SOL    HW220052   4.565   0.266   7.598  0.3501 -0.4240 -1.6176
 2865SOL     OW20053   2.408   4.347  13.880 -0.0239 -0.3993  0.3105
 2865SOL    HW120054   2.435   4.303  13.961 -0.8669  2.1853  1.9836
 2865SOL    HW220055   2.480   4.309  13.829  0.3464  1.1238 -0.2962
 2866SOL     OW20056   2.285   4.616   7.140  0.0241 -0.0977 -0.5863
 2866SOL    HW120057   2.345   4.557   7.094  1.5068  1.1278 -0.2492
 2866SOL    HW220058   2.217   4.645   7.080 -4.0898  1.4694  4.8633
 2867SOL     OW20059   2.625   1.475   9.119  0.0012  0.4567  0.3278
 2867SOL    HW120060   2.563   1.430   9.176 -0.3098  0.2276 -0.1932
 2867SOL    HW220061   2.620   1.563   9.155 -1.5164  0.3945  0.2648
 2868SOL     OW20062   1.762   3.103   3.299  0.7234  0.2669  0.1272
 2868SOL    HW120063   1.714   3.078   3.378 -0.0242 -0.2139 -0.4679
 2868SOL    HW220064   1.787   3.018   3.264 -2.9289 -0.1037 -1.6178
 2869SOL     OW20065   1.377   2.077   8.696 -0.2493  0.1950  0.2157
 2869SOL    HW120066   1.290   2.058   8.733 -0.9573  0.1531 -1.4571
 2869SOL    HW220067   1.400   2.143   8.761  0.1508  2.3283 -2.1210
 2870SOL     OW20068   3.821   0.400   3.643  0.3219  0.5429  0.0658
 2870SOL    HW120069   3.908   0.369   3.667  0.0360  0.2722  0.7485
 2870SOL    HW220070   3.827   0.491   3.670 -2.3790  0.1195  2.1461
 2871SOL     OW20071   1.231   4.632   5.436 -0.2154  0.0403  0.2573
 2871SOL    HW120072   1.207   4.610   5.526  0.8531  1.2436  0.8390
 2871SOL    HW220073   1.303   4.693   5.452 -2.0931  2.2495  0.2471
 2872SOL     OW20074   0.240   1.319   0.002 -0.2141  0.2346 -1.2190
 2872SOL    HW120075   0.322   1.340  17.638  0.6577  1.6470  1.0582
 2872SOL    HW220076   0.266   1.295   0.092  0.7035  0.1057 -1.5190
 2873SOL     OW20077   1.038   1.970   3.307  0.4875 -0.3082 -0.0906
 2873SOL    HW120078   1.024   2.006   3.220 -2.2835  1.3693  1.0426
 2873SOL    HW220079   0.968   1.905   3.306 -0.4225  0.6054  1.8898
 2874SOL     OW20080   1.351   2.212  15.883 -0.4106  0.1271 -0.1869
 2874SOL    HW120081   1.344   2.119  15.861  0.9529 -0.3187  1.2246
 2874SOL    HW220082   1.430   2.221  15.936 -1.9113  0.2380  2.0372
 2875SOL     OW20083   1.876   2.254  14.922  0.6338 -0.1426 -0.4308
 2875SOL    HW120084   1.880   2.230  14.829 -0.9363  2.1593 -1.0965
 2875SOL    HW220085   1.935   2.329  14.933  0.1731  0.2505 -0.5903
 2876SOL     OW20086   4.299   0.735   0.064  0.2151  0.2210  0.3897
 2876SOL    HW120087   4.260   0.743  17.657  1.5482 -1.6925 -0.3773
 2876SOL    HW220088   4.280   0.648   0.100  0.2581  0.0909  0.0997
 2877SOL     OW20089   3.644   4.503  16.625  0.3252  0.0971 -0.6035
 2877SOL    HW120090   3.567   4.550  16.595 -0.0666  0.0573  0.3298
 2877SOL    HW220091   3.719   4.560  16.604  0.6795 -0.3378 -0.5246
 2878SOL     OW20092   0.815   0.453   6.117  0.6050  0.0707  0.2225
 2878SOL    HW120093   0.892   0.440   6.173  0.7891 -2.0712 -0.5138
 2878SOL    HW220094   0.762   0.386   6.160  3.6879 -1.7858  1.1122
 2879SOL     OW20095   0.015   2.044  15.915 -0.7120 -0.4702 -0.4955
 2879SOL    HW120096   4.645   2.077  15.923 -0.2603  0.3683  0.9554
 2879SOL    HW220097   4.709   1.951  15.914  1.5278 -1.0840  1.3899
 2880SOL     OW20098   2.286   4.284   3.688  0.0129  0.1059  0.0232
 2880SOL    HW120099   2.242   4.250   3.610  0.2340 -0.6575  0.2296
 2880SOL    HW220100   2.322   4.365   3.651  0.2057 -0.2078 -0.4825
 2881SOL     OW20101   1.388   2.500   4.810  0.0966  0.0015  0.1684
 2881SOL    HW120102   1.460   2.438   4.796  0.7481  1.2242 -2.0105
 2881SOL    HW220103   1.328   2.432   4.838 -1.2611  0.9243 -0.4757
 2882SOL     OW20104   1.484   4.559  12.710 -0.5474 -0.5784  0.0160
 2882SOL    HW120105   1.485   4.653  12.732 -1.4263 -0.9964  1.8320
 2882SOL    HW220106   1.481   4.523  12.799  3.2956  0.1836  0.4641
 2883SOL     OW20107   0.354   2.766   7.874  0.2571 -0.2006  0.0155
 2883SOL    HW120108   0.446   2.763   7.849  0.1625  1.3306 -0.5376
 2883SOL    HW220109   0.355   2.819   7.954 -0.6725  0.0819 -0.1513
 2884SOL     OW20110   1.758   3.141   9.786 -0.1448 -0.1746  0.1621
 2884SOL    HW120111   1.777   3.235   9.789  0.7006 -0.2958 -1.6950
 2884SOL    HW220112   1.713   3.126   9.869  0.0153  1.1425  0.4999
 2885SOL     OW20113   0.762   0.141   0.141 -0.0733  0.2281  0.4088
 2885SOL    HW120114   0.724   0.102   0.062 -1.4055  0.4375  0.9328
 2885SOL    HW220115   0.820   0.069   0.164 -0.4064 -0.3690 -0.6306
 2886SOL     OW20116   3.596   3.911   6.970 -0.1551  0.0537 -0.6749
 2886SOL    HW120117   3.688   3.932   6.957 -0.4963  1.4083 -0.9329
 2886SOL    HW220118   3.554   3.928   6.885 -0.2860  0.4828 -0.5259
 2887SOL     OW20119   3.257   3.269   7.915 -0.1793 -0.1433  0.4076
 2887SOL    HW120120   3.317   3.318   7.859  0.5999 -1.5274  0.0288
 2887SOL    HW220121   3.215   3.218   7.846  0.3462  1.4084 -1.0453
 2888SOL     OW20122   0.400   3.553   1.710  0.1860  0.6080  0.2095
 2888SOL    HW120123   0.397   3.469   1.666  1.0696  0.6579  0.0554
 2888SOL    HW220124   0.346   3.597   1.644  0.0931 -0.6723 -0.5516
 2889SOL     OW20125   3.628   1.849   6.505 -0.2569  0.4344  0.1959
 2889SOL    HW120126   3.630   1.919   6.571 -1.2032 -0.7636  1.4881
 2889SOL    HW220127   3.575   1.892   6.438  2.5019 -0.6171 -2.6426
 2890SOL     OW20128   1.018   1.811   2.281 -0.1673 -0.8336  0.0577
 2890SOL    HW120129   1.002   1.736   2.225  2.3008 -0.3552 -1.2797
 2890SOL    HW220130   0.926   1.826   2.303 -0.1013  2.5016 -2.0055
 2891SOL     OW20131   1.934   0.028  15.253 -0.1474  0.1341 -0.0097
 2891SOL    HW120132   1.996   4.688  15.210 -0.7040 -0.5061  0.0689
 2891SOL    HW220133   1.849   4.704  15.247 -1.2040  2.3716 -1.3014
 2892SOL     OW20134   1.834   0.609  16.297 -0.5702 -0.1432  0.3078
 2892SOL    HW120135   1.857   0.530  16.248  0.6268  1.3231 -1.4782
 2892SOL    HW220136   1.913   0.617  16.351  0.3288 -0.7267 -0.9245
 2893SOL     OW20137   0.037   4.617   5.983 -0.5659  0.0605 -0.0503
 2893SOL    HW120138   0.009   4.709   5.974 -1.9357 -0.4763 -1.3956
 2893SOL    HW220139   0.024   4.572   5.899 -0.4008  0.0279 -0.0582
 2894SOL     OW20140   3.003   2.674  15.723 -0.2667  0.0733  0.4102
 2894SOL    HW120141   3.071   2.708  15.780  0.4114 -1.5468  0.5649
 2894SOL    HW220142   2.946   2.619  15.777 -0.8524 -0.0078 -0.2791
 2895SOL     OW20143   2.013   4.305   6.422  0.1784 -0.2792  0.1734
 2895SOL    HW120144   2.063   4.285   6.501  0.5194  1.8385  0.4823
 2895SOL    HW220145   1.969   4.380   6.462  0.7256 -0.4064  1.0128
 2896SOL     OW20146   3.857   3.263   6.853 -0.4150  0.1256 -0.3096
 2896SOL    HW120147   3.899   3.297   6.774  0.7473  1.2864  0.8044
 2896SOL    HW220148   3.926   3.280   6.917  0.0546  0.0084 -0.7976
 2897SOL     OW20149   1.016   4.151   0.815 -0.2778  0.0266 -0.7123
 2897SOL    HW120150   1.096   4.179   0.859 -1.7845  1.0103  1.3650
 2897SOL    HW220151   0.952   4.160   0.885  1.2573  0.4875  0.6193
 2898SOL     OW20152   2.759   3.352  13.227 -0.4401 -0.0233 -0.1282
 2898SOL    HW120153   2.738   3.264  13.195 -1.2213  0.2028 -0.2368
 2898SOL    HW220154   2.763   3.407  13.149 -0.4618  1.1898  0.7264
 2899SOL     OW20155   2.333   3.489   4.520  0.0986 -0.4209 -0.9491
 2899SOL    HW120156   2.249   3.449   4.541  1.3405 -2.2480  0.5815
 2899SOL    HW220157   2.342   3.445   4.436  2.3675  2.3965 -2.1935
 2900SOL     OW20158   1.302   1.371   5.240 -0.4148  0.3612 -0.0155
 2900SOL    HW120159   1.219   1.341   5.277  0.1355 -0.4144  0.5730
 2900SOL    HW220160   1.367   1.346   5.306 -0.3159 -1.4561 -0.7767
 2901SOL     OW20161   3.452   0.286   4.230  0.1144 -0.5295 -0.5145
 2901SOL    HW120162   3.506   0.320   4.301 -0.3696 -2.8036  0.9442
 2901SOL    HW220163   3.475   0.348   4.160  0.5558 -1.9197 -1.6266
 2902SOL     OW20164   3.644   1.390  16.530 -0.0175  0.4590  0.6596
 2902SOL    HW120165   3.639   1.373  16.624 -1.9284 -2.1835  0.0856
 2902SOL    HW220166   3.597   1.319  16.487 -1.9590  0.1885  3.2467
 2903SOL     OW20167   3.972   4.234  11.107 -0.3160 -0.4373 -0.2593
 2903SOL    HW120168   3.892   4.190  11.136  0.6520 -0.7264  2.0177
 2903SOL    HW220169   3.947   4.324  11.130  0.6963 -0.7791  2.2312
 2904SOL     OW20170   2.542   0.017   0.578 -0.3285  0.0601 -0.1222
 2904SOL    HW120171   2.618   0.047   0.529 -1.1995  0.0117 -1.5131
 2904SOL    HW220172   2.468   0.028   0.519 -1.2764  0.8446  1.2076
 2905SOL     OW20173   0.485   3.892  11.983 -0.0368  0.1384 -0.0154
 2905SOL    HW120174   0.443   3.810  11.955  0.2952 -0.4644  1.2550
 2905SOL    HW220175   0.521   3.860  12.066 -0.7256 -0.0620  0.2067
 2906SOL     OW20176   2.231   2.868  15.836 -0.2969 -0.2710 -0.1514
 2906SOL    HW120177   2.192   2.930  15.898  2.1888  1.6634 -0.5513
 2906SOL    HW220178   2.228   2.793  15.896 -2.0645 -0.9365 -1.0796
 2907SOL     OW20179   3.086   0.585   4.920  0.4098  0.7383 -0.2659
 2907SOL    HW120180   3.072   0.531   4.998  0.2618  2.8919  1.1653
 2907SOL    HW220181   3.152   0.641   4.961 -1.1043  1.2372  1.4523
 2908SOL     OW20182   3.579   4.397  15.980 -0.3411 -0.8294  0.2665
 2908SOL    HW120183   3.614   4.465  15.922 -2.4085  0.0289  0.0339
 2908SOL    HW220184   3.626   4.407  16.063 -3.3271 -0.7826  1.9587
 2909SOL     OW20185   2.909   0.382   5.928 -0.2079 -0.3464  0.4532
 2909SOL    HW120186   2.846   0.454   5.934  0.0380 -0.3106  2.6309
 2909SOL    HW220187   2.967   0.421   5.862 -1.1456 -2.2904 -1.4857
 2910SOL     OW20188   2.550   2.764   4.489  0.0500  0.0314  0.0860
 2910SOL    HW120189   2.470   2.725   4.454 -0.1367  1.5793 -1.2034
 2910SOL    HW220190   2.618   2.769   4.421 -0.8592  3.0905 -0.6170
 2911SOL     OW20191   2.429   3.851   3.340  0.6453  0.4258  0.2141
 2911SOL    HW120192   2.346   3.882   3.302  1.4308  0.8165 -1.1718
 2911SOL    HW220193   2.479   3.824   3.263 -0.6495  2.6469 -1.4210
 2912SOL     OW20194   2.855   0.546   3.027 -0.4285  0.1089 -0.6859
 2912SOL    HW120195   2.911   0.605   2.977 -1.5781  1.6741 -0.1359
 2912SOL    HW220196   2.920   0.483   3.057 -0.1330  0.8864  0.3134
 2913SOL     OW20197   2.739   0.982   4.677 -0.2018  0.0509  0.5843
 2913SOL    HW120198   2.690   1.040   4.618 -0.7576  1.3762  2.3589
 2913SOL    HW220199   2.829   1.014   4.668  0.3372 -1.3858  0.7866
 2914SOL     OW20200   4.161   0.003   3.921  0.4986  0.1676 -0.6442
 2914SOL    HW120201   4.217   0.065   3.874  0.9497  1.1845  1.2391
 2914SOL    HW220202   4.088   0.058   3.948  1.3438  1.4747 -0.9932
 2915SOL     OW20203   4.660   1.470   3.326  0.2388 -0.4867  0.0564
 2915SOL    HW120204   4.574   1.439   3.352 -0.3618  0.7929 -0.3953
 2915SOL    HW220205   4.646   1.465   3.231  0.8954  0.2333 -0.0759
 2916SOL     OW20206   4.376   4.594   3.796 -0.1552  0.2593 -0.5573
 2916SOL    HW120207   4.283   4.616   3.797 -0.2262 -0.0975  1.1501
 2916SOL    HW220208   4.397   4.660   3.862 -1.3650  0.1419 -0.0523
 2917SOL     OW20209   0.022   2.630   4.316  0.2957  0.4854  0.0423
 2917SOL    HW120210   4.663   2.680   4.341  0.0988 -0.5520  1.4950
 2917SOL    HW220211   0.085   2.667   4.379  1.3244  0.7121 -1.1250
 2918SOL     OW20212   0.394   3.195  11.860  0.0447  0.4025  0.5223
 2918SOL    HW120213   0.338   3.153  11.794  1.7805 -1.7791  0.4233
 2918SOL    HW220214   0.478   3.206  11.815 -0.0682 -0.5324  0.0732
 2919SOL     OW20215   2.204   1.679   4.662 -0.0938  0.4143 -0.7315
 2919SOL    HW120216   2.218   1.700   4.570 -2.1395  1.1280 -0.8690
 2919SOL    HW220217   2.281   1.729   4.689 -0.4490  0.0182  1.0282
 2920SOL     OW20218   0.239   3.940   6.890 -0.0468 -0.1937 -0.0338
 2920SOL    HW120219   0.247   3.950   6.985 -1.0342  1.7186 -0.1607
 2920SOL    HW220220   0.302   4.006   6.863 -0.2819  0.3191  0.6751
 2921SOL     OW20221   2.705   3.069   6.028  0.1440 -0.1314  0.4027
 2921SOL    HW120222   2.614   3.079   6.000  1.1169  3.7560 -1.4085
 2921SOL    HW220223   2.710   3.152   6.076 -1.5727  1.1395 -1.6365
 2922SOL     OW20224   0.138   4.087  15.310 -0.5241 -0.2333 -0.4303
 2922SOL    HW120225   0.099   4.119  15.228  2.1047 -2.1644 -2.4193
 2922SOL    HW220226   0.231   4.103  15.296 -0.7968  1.8496  0.0902
 2923SOL     OW20227   0.168   1.021   6.313  0.2292  0.0034 -0.1592
 2923SOL    HW120228   0.180   0.946   6.372  1.0914  1.9726  2.1984
 2923SOL    HW220229   0.190   0.969   6.235  1.6980 -1.0173  0.9130
 2924SOL     OW20230   3.053   0.900  15.458 -0.3748 -0.2514  0.2499
 2924SOL    HW120231   3.029   0.871  15.370 -1.4065 -1.3193  0.8812
 2924SOL    HW220232   2.984   0.967  15.464 -2.4451 -2.4772  1.2693
 2925SOL     OW20233   0.322   0.297  11.527 -0.1325 -0.9435 -0.4908
 2925SOL    HW120234   0.323   0.350  11.606 -1.1283  0.4098 -1.3959
 2925SOL    HW220235   0.229   0.293  11.508 -0.4500  0.9158  0.7344
 2926SOL     OW20236   2.489   3.306   4.423 -0.0632  0.3908 -0.1416
 2926SOL    HW120237   2.576   3.337   4.446  1.6902 -2.4114 -2.9987
 2926SOL    HW220238   2.481   3.233   4.483 -4.4754 -0.5344 -1.8534
 2927SOL     OW20239   0.106   4.033   9.755  0.0203  0.6237  0.1378
 2927SOL    HW120240   0.084   4.079   9.836 -0.3132 -1.1080  1.0442
 2927SOL    HW220241   0.036   4.069   9.701  1.1247 -0.6501 -2.1603
 2928SOL     OW20242   1.129   0.951   8.813  0.0960 -0.3121  0.8666
 2928SOL    HW120243   1.061   0.885   8.805 -1.5939  1.5517 -0.2022
 2928SOL    HW220244   1.112   1.007   8.737 -0.9132  0.3261  1.5666
 2929SOL     OW20245   2.144   2.491   4.963 -0.2143 -0.2035 -0.2283
 2929SOL    HW120246   2.092   2.477   4.884 -0.0814  2.2801 -0.7564
 2929SOL    HW220247   2.189   2.564   4.920  2.1314  0.9263  4.1107
 2930SOL     OW20248   1.436   1.566  13.293 -0.4291 -0.1189  0.3788
 2930SOL    HW120249   1.362   1.521  13.334  0.4285 -0.7353  1.2415
 2930SOL    HW220250   1.400   1.648  13.260  0.5038 -0.0352 -0.4484
 2931SOL     OW20251   3.171   1.794  16.590  0.5699 -0.2392  0.2446
 2931SOL    HW120252   3.266   1.793  16.576  0.9690 -0.7642  3.0757
 2931SOL    HW220253   3.161   1.799  16.685 -0.2595 -0.7195  0.1818
 2932SOL     OW20254   3.603   2.644   6.034  0.5372 -0.4032 -0.0756
 2932SOL    HW120255   3.619   2.624   6.127  2.1382 -0.3960 -0.3459
 2932SOL    HW220256   3.532   2.708   6.036  1.6920  0.8321  1.6314
 2933SOL     OW20257   2.237   2.771  14.199  0.3984 -0.5331 -0.2163
 2933SOL    HW120258   2.166   2.706  14.199 -0.8471  0.8088  0.9597
 2933SOL    HW220259   2.279   2.747  14.281 -0.0192  0.3825  0.2588
 2934SOL     OW20260   4.599   3.807   6.657 -0.1327 -0.0398  0.0828
 2934SOL    HW120261   4.534   3.870   6.689 -0.0770  1.2467 -2.3550
 2934SOL    HW220262   4.653   3.868   6.608  0.1747 -1.7657 -1.7244
 2935SOL     OW20263   0.765   4.027  13.119  0.4856 -0.7512 -0.0256
 2935SOL    HW120264   0.736   3.946  13.078  1.9789 -0.5925 -1.3969
 2935SOL    HW220265   0.850   4.031  13.075 -0.2633 -1.1942 -1.5377
 2936SOL     OW20266   0.355   0.638   8.256  0.7361  0.1162 -0.1830
 2936SOL    HW120267   0.385   0.559   8.302 -0.3103  0.1548  0.5546
 2936SOL    HW220268   0.343   0.602   8.168  1.2091 -2.4129  0.7809
 2937SOL     OW20269   2.559   0.373  12.661  0.1005  0.2371 -0.4417
 2937SOL    HW120270   2.613   0.427  12.603  0.0063  0.6347 -0.1628
 2937SOL    HW220271   2.613   0.296  12.674  2.0874  1.5890 -0.6229
 2938SOL     OW20272   1.652   3.968   2.626  0.4521 -0.8341 -0.3316
 2938SOL    HW120273   1.718   3.930   2.568  1.5888  0.2225  0.2880
 2938SOL    HW220274   1.698   4.030   2.683 -2.6592 -0.8154  2.2170
 2939SOL     OW20275   1.005   3.209  16.656  0.4495 -0.2128 -0.1014
 2939SOL    HW120276   1.097   3.224  16.675 -0.2238  1.8366  1.5912
 2939SOL    HW220277   0.999   3.233  16.564  0.9498 -1.0307 -0.3467
 2940SOL     OW20278   1.084   2.528   4.785  0.0240 -0.1410 -0.0366
 2940SOL    HW120279   1.134   2.449   4.805 -1.6528 -1.0769  0.4692
 2940SOL    HW220280   1.129   2.604   4.823 -0.9791  0.7479 -0.6386
 2941SOL     OW20281   3.518   0.582  15.713  0.7817 -0.0209 -0.1891
 2941SOL    HW120282   3.487   0.561  15.801  2.0466 -3.0707 -0.4736
 2941SOL    HW220283   3.526   0.676  15.729  2.0239 -0.1199 -0.2169
 2942SOL     OW20284   2.907   3.463   5.961  0.5289  0.3355 -0.1422
 2942SOL    HW120285   2.929   3.485   5.870  1.2674 -0.9476 -0.2716
 2942SOL    HW220286   2.834   3.404   5.941 -0.0751  1.1305 -0.2853
 2943SOL     OW20287   2.826   2.236  16.163 -0.1033  0.0931 -0.5159
 2943SOL    HW120288   2.811   2.229  16.068  0.4850  1.6249 -0.7274
 2943SOL    HW220289   2.916   2.206  16.150 -0.4324 -1.1596  0.1668
 2944SOL     OW20290   2.344   2.600  12.476  0.5275 -0.0395 -0.0387
 2944SOL    HW120291   2.416   2.605  12.539  0.7786 -0.2217 -0.3095
 2944SOL    HW220292   2.271   2.622  12.534  0.6078 -0.8258  0.3658
 2945SOL     OW20293   0.191   1.394   5.561  0.1593  0.1791  0.1367
 2945SOL    HW120294   0.165   1.316   5.512  1.1420 -0.2820  0.3657
 2945SOL    HW220295   0.242   1.430   5.489  0.6729 -1.6030 -0.3789
 2946SOL     OW20296   3.874   1.797  12.237 -0.4381  0.5297 -0.0130
 2946SOL    HW120297   3.908   1.721  12.190 -0.5084 -0.5578  1.6928
 2946SOL    HW220298   3.924   1.797  12.318  0.3640  0.1373 -0.5074
 2947SOL     OW20299   0.926   1.893   8.542  0.4004  0.6302 -0.4888
 2947SOL    HW120300   0.932   1.820   8.604 -1.7834 -0.3980 -1.4824
 2947SOL    HW220301   1.018   1.908   8.523  0.7168 -0.0013  0.5701
 2948SOL     OW20302   3.214   4.196   1.916  0.4781 -0.6095 -0.0409
 2948SOL    HW120303   3.221   4.106   1.884 -2.2183 -1.2523  1.2248
 2948SOL    HW220304   3.170   4.243   1.844  1.3155  1.2421  0.6580
 2949SOL     OW20305   3.497   2.649   8.202  0.5480  0.1093  0.3115
 2949SOL    HW120306   3.432   2.687   8.262 -0.7046  0.3198 -1.1614
 2949SOL    HW220307   3.527   2.729   8.159  1.3440  0.4341  1.4570
 2950SOL     OW20308   2.734   3.522   7.129 -0.0267  0.4445 -0.2628
 2950SOL    HW120309   2.728   3.432   7.161 -0.1362  0.9116  1.0330
 2950SOL    HW220310   2.803   3.520   7.063  1.6124 -0.5921  1.4815
 2951SOL     OW20311   2.731   0.148   9.429 -0.2191 -0.0700 -1.3321
 2951SOL    HW120312   2.792   0.162   9.502 -0.7863  0.9570 -1.0542
 2951SOL    HW220313   2.665   0.098   9.477  0.0209  0.0484 -0.8796
 2952SOL     OW20314   0.908   0.857   5.515 -0.2774 -0.3738 -0.2148
 2952SOL    HW120315   0.859   0.775   5.504 -1.0868 -0.0327  0.8696
 2952SOL    HW220316   0.888   0.869   5.608  0.6074  1.8157 -0.3150
 2953SOL     OW20317   4.218   2.051   7.803  0.0823  0.4547 -0.2422
 2953SOL    HW120318   4.177   1.983   7.857 -0.5225 -0.0925 -1.4023
 2953SOL    HW220319   4.152   2.120   7.797  2.5750  2.9257  0.3905
 2954SOL     OW20320   1.577   0.315   8.313  0.4405  0.6851  0.3698
 2954SOL    HW120321   1.568   0.291   8.405 -1.2304  0.2569  0.0784
 2954SOL    HW220322   1.566   0.410   8.322 -2.2567  0.4496 -0.5818
 2955SOL     OW20323   3.232   2.013   0.660 -0.7794 -0.1632  0.1286
 2955SOL    HW120324   3.282   1.950   0.711  1.3652  3.1776  2.2136
 2955SOL    HW220325   3.153   2.030   0.711 -0.4793  0.0934  0.5090
 2956SOL     OW20326   1.146   3.144  12.864 -0.3775 -0.7714  0.1492
 2956SOL    HW120327   1.230   3.164  12.822 -0.2854  1.2806  1.3036
 2956SOL    HW220328   1.086   3.214  12.840  0.1424 -0.4644 -0.2651
 2957SOL     OW20329   0.736   4.083  12.705  0.2613 -0.1990 -0.3509
 2957SOL    HW120330   0.830   4.086  12.724  0.3706  1.5688 -1.1537
 2957SOL    HW220331   0.696   4.151  12.759 -1.3546 -1.1512 -0.3608
 2958SOL     OW20332   3.699   1.584   7.952 -0.3493  0.7984 -0.0649
 2958SOL    HW120333   3.766   1.638   7.993 -1.0667  0.2172  1.8815
 2958SOL    HW220334   3.680   1.520   8.021  2.6113  0.0273  0.0326
 2959SOL     OW20335   0.600   0.737  17.616 -0.8960 -0.0927  0.0357
 2959SOL    HW120336   0.585   0.813  17.672  2.0755  0.2041  0.4335
 2959SOL    HW220337   0.676   0.694  17.656  1.0966  2.6960 -0.7382
 2960SOL     OW20338   0.233   3.080   0.317 -0.0210 -0.3140  0.0562
 2960SOL    HW120339   0.154   3.074   0.371 -0.3961 -0.8392 -0.5636
 2960SOL    HW220340   0.273   2.995   0.335  0.4806  0.1514  1.2004
 2961SOL     OW20341   0.684   4.241  15.289  0.5617  0.1651  0.4251
 2961SOL    HW120342   0.740   4.167  15.268 -1.8459 -1.7179  0.7026
 2961SOL    HW220343   0.742   4.313  15.264 -0.2858  0.8775  0.5194
 2962SOL     OW20344   2.900   2.835   8.610  0.6727 -0.5146  0.2451
 2962SOL    HW120345   2.863   2.776   8.676  0.4188 -1.3821 -0.6792
 2962SOL    HW220346   2.956   2.889   8.666  1.0266 -0.3079 -0.3141
 2963SOL     OW20347   0.351   3.555  15.193  0.0618  0.1687  0.0609
 2963SOL    HW120348   0.331   3.461  15.191 -0.8750  0.3642  0.0220
 2963SOL    HW220349   0.364   3.561  15.098 -0.6923  0.4706 -0.0236
 2964SOL     OW20350   1.002   2.465   5.761 -0.1320  0.4728 -0.2916
 2964SOL    HW120351   1.053   2.449   5.682 -0.8095 -0.9341 -0.4398
 2964SOL    HW220352   0.979   2.375   5.787 -2.6871  1.5287  1.0965
 2965SOL     OW20353   0.068   1.279  11.567  0.3809 -0.4554 -0.0081
 2965SOL    HW120354   0.135   1.308  11.628  0.1524  0.8692 -0.3990
 2965SOL    HW220355   0.077   1.343  11.496  2.3373  0.6714  1.2654
 2966SOL     OW20356   0.145   4.317  14.798 -0.0043 -0.0459  0.5001
 2966SOL    HW120357   0.110   4.264  14.727  1.4147  0.7702 -0.8257
 2966SOL    HW220358   0.205   4.382  14.760 -0.7397  0.1351 -0.3458
 2967SOL     OW20359   3.575   0.794   1.847 -0.3597  0.0260  0.4104
 2967SOL    HW120360   3.603   0.818   1.935  1.0732 -0.2521  0.0306
 2967SOL    HW220361   3.646   0.830   1.795 -0.1353 -0.4579  0.3842
 2968SOL     OW20362   0.637   1.933   3.200 -0.3671  0.3659 -0.5932
 2968SOL    HW120363   0.594   1.851   3.174  1.5335 -0.5802 -0.7984
 2968SOL    HW220364   0.720   1.896   3.233 -1.3809 -0.9735  0.4667
 2969SOL     OW20365   1.971   2.186   6.521 -0.6653 -0.5042 -0.3439
 2969SOL    HW120366   2.023   2.205   6.600 -2.0590  1.1321  0.1758
 2969SOL    HW220367   2.048   2.154   6.474  0.4851  0.1153  1.1159
 2970SOL     OW20368   1.001   4.546  13.904  0.0086  0.5094 -0.3583
 2970SOL    HW120369   0.972   4.628  13.944 -1.2612  0.1882 -0.6326
 2970SOL    HW220370   1.056   4.507  13.972  1.9917  0.3504 -2.0391
 2971SOL     OW20371   2.431   0.832   9.964 -0.0622 -0.2981  0.0586
 2971SOL    HW120372   2.527   0.829   9.970 -0.0587 -1.7934 -0.5653
 2971SOL    HW220373   2.422   0.858   9.873  0.0918 -2.3096 -0.5449
 2972SOL     OW20374   0.816   1.007   1.139 -0.4520 -0.0324 -0.3942
 2972SOL    HW120375   0.847   0.999   1.049  0.0193 -2.5913  0.0064
 2972SOL    HW220376   0.835   0.918   1.168  1.0957  0.5400  0.2994
 2973SOL     OW20377   0.293   3.733  17.028  0.2955 -0.2865  0.0819
 2973SOL    HW120378   0.355   3.805  17.013 -1.2205  0.8758 -0.5303
 2973SOL    HW220379   0.319   3.678  16.954  0.0902  1.1741 -1.0820
 2974SOL     OW20380   0.766   0.089  14.216 -0.5396 -0.4316  0.2868
 2974SOL    HW120381   0.695   0.056  14.270 -0.5728 -0.0667  0.4686
 2974SOL    HW220382   0.791   0.167  14.266 -1.7092 -0.0135  0.2196
 2975SOL     OW20383   1.389   4.715   4.678 -0.0025  0.1749  0.2946
 2975SOL    HW120384   1.388   0.056   4.753 -0.9252  0.6627 -0.1251
 2975SOL    HW220385   1.479   0.024   4.659 -0.0569  0.0870 -0.0886
 2976SOL     OW20386   1.026   0.136  11.949  0.3475 -0.1050  0.3334
 2976SOL    HW120387   1.118   0.129  11.977 -0.0803  0.5425  1.9315
 2976SOL    HW220388   0.989   0.193  12.016  0.0755 -0.3334  0.3788
 2977SOL     OW20389   0.027   2.938   3.615  0.2217  0.0011 -0.6469
 2977SOL    HW120390   0.051   3.017   3.664  0.9333 -0.1207 -0.7996
 2977SOL    HW220391   0.031   2.877   3.689  3.0708 -0.0451 -0.8536
 2978SOL     OW20392   2.889   1.440   3.194  0.3573  0.5328  0.2549
 2978SOL    HW120393   2.973   1.436   3.240  1.2382 -1.5951 -1.5603
 2978SOL    HW220394   2.843   1.357   3.205  1.0040 -0.1918 -2.4320
 2979SOL     OW20395   2.371   0.299   5.725 -0.0629  0.7317 -0.2318
 2979SOL    HW120396   2.303   0.238   5.753  0.2749 -0.4428 -2.0050
 2979SOL    HW220397   2.415   0.256   5.652 -2.0321 -3.0931  0.8183
 2980SOL     OW20398   0.311   3.627   2.113 -0.5544 -0.4794  0.4025
 2980SOL    HW120399   0.278   3.715   2.096  0.9676 -0.2983 -1.6159
 2980SOL    HW220400   0.269   3.595   2.193 -0.5801  0.4542  0.7712
 2981SOL     OW20401   3.945   0.299   7.658  0.1141  0.4236  0.3396
 2981SOL    HW120402   3.865   0.247   7.653  0.9095 -0.9460  1.5503
 2981SOL    HW220403   3.990   0.255   7.730 -1.1936 -1.9907 -0.2916
 2982SOL     OW20404   2.353   2.435  16.036  0.0118 -0.2410  0.9613
 2982SOL    HW120405   2.270   2.421  15.991  0.8703  0.4544 -0.8308
 2982SOL    HW220406   2.412   2.398  15.971 -1.5571 -1.9368  0.4847
 2983SOL     OW20407   3.946   2.430   2.259  0.1572  0.0845  0.3932
 2983SOL    HW120408   3.859   2.390   2.269  1.3900 -1.8741  3.5396
 2983SOL    HW220409   4.007   2.357   2.248  0.0371  0.0687 -0.1514
 2984SOL     OW20410   2.836   0.011   8.189  0.1128  0.2242 -0.6315
 2984SOL    HW120411   2.888   0.046   8.261  0.0007  1.5714 -1.2062
 2984SOL    HW220412   2.906   0.003   8.124  1.5790  0.9758  0.8528
 2985SOL     OW20413   3.715   0.474   8.414 -0.2657  0.4199  0.7261
 2985SOL    HW120414   3.716   0.456   8.320 -2.0961 -1.7963  1.1264
 2985SOL    HW220415   3.808   0.482   8.436 -0.6673  2.3901  1.6112
 2986SOL     OW20416   3.181   0.356   5.760  0.7246 -0.2359 -0.1994
 2986SOL    HW120417   3.112   0.347   5.693 -0.1122 -0.3590  0.6799
 2986SOL    HW220418   3.259   0.369   5.706  1.2974 -1.5360  0.3004
 2987SOL     OW20419   0.214   0.069  11.048 -0.2207  0.0589  0.6336
 2987SOL    HW120420   0.180   0.108  10.968  0.3739  5.6626  3.1414
 2987SOL    HW220421   0.302   0.051  11.016 -1.2742  0.9386 -2.7344
 2988SOL     OW20422   4.576   1.943   2.340 -0.1093  0.3242 -0.6093
 2988SOL    HW120423   4.579   1.935   2.244 -3.3545 -0.8339 -0.6011
 2988SOL    HW220424   4.535   2.030   2.342 -0.5016  0.1582 -1.4479
 2989SOL     OW20425   3.553   2.537   6.319 -0.0879  0.5483  0.0524
 2989SOL    HW120426   3.598   2.619   6.336  1.4108 -0.3615  0.5013
 2989SOL    HW220427   3.601   2.472   6.371  0.3565  1.0589  0.2800
 2990SOL     OW20428   4.392   1.303  10.826  0.0085 -0.0620  0.5517
 2990SOL    HW120429   4.340   1.355  10.886 -0.3316 -0.8181  0.9118
 2990SOL    HW220430   4.368   1.214  10.853  1.2207 -0.9408 -1.2503
 2991SOL     OW20431   3.625   0.484   1.017  0.6781  0.0940 -0.2389
 2991SOL    HW120432   3.679   0.554   0.983 -2.4084  1.2039 -2.7941
 2991SOL    HW220433   3.543   0.525   1.042  0.3025  0.5256 -2.2128
 2992SOL     OW20434   0.762   3.791   6.999  0.4538  0.1524  0.2530
 2992SOL    HW120435   0.781   3.701   7.025 -0.9541  0.0634  0.9511
 2992SOL    HW220436   0.713   3.820   7.076  2.0715 -0.7779  1.6175
 2993SOL     OW20437   1.094   1.621  17.024 -0.1172 -0.2496  0.2510
 2993SOL    HW120438   1.020   1.675  17.053 -0.6199 -0.6318 -0.3145
 2993SOL    HW220439   1.135   1.596  17.106 -0.0740 -1.5678 -0.1710
 2994SOL     OW20440   1.873   4.148  10.083  0.0697 -0.1024  0.3279
 2994SOL    HW120441   1.800   4.088  10.098  1.4177 -1.7636  0.2684
 2994SOL    HW220442   1.944   4.114  10.137  1.1077  2.0131  0.2852
 2995SOL     OW20443   3.097   4.543   7.210  0.1020  0.1935 -0.5658
 2995SOL    HW120444   3.133   4.542   7.121 -2.2337  1.0237 -1.5373
 2995SOL    HW220445   3.145   4.619   7.241  1.4614 -0.4586 -1.0554
 2996SOL     OW20446   2.365   4.036   1.919  0.5528 -0.8197  0.0111
 2996SOL    HW120447   2.298   4.031   1.987 -1.3191  0.0397 -1.7243
 2996SOL    HW220448   2.331   3.974   1.855 -1.1536 -0.8254  0.9304
 2997SOL     OW20449   4.304   3.222  13.864  0.2532 -1.0009 -0.0138
 2997SOL    HW120450   4.379   3.280  13.854  0.2764 -1.5145 -2.9014
 2997SOL    HW220451   4.325   3.184  13.949  1.7340  0.8409  0.4518
 2998SOL     OW20452   3.712   3.965   8.091 -0.0577 -0.0955 -0.0818
 2998SOL    HW120453   3.671   3.880   8.105  0.4583 -0.2645  0.4051
 2998SOL    HW220454   3.797   3.951   8.132 -0.9421 -0.0183  1.7474
 2999SOL     OW20455   4.066   0.766  12.770  0.0181 -0.1058  0.7947
 2999SOL    HW120456   4.095   0.689  12.720 -0.9157  0.0493  0.0207
 2999SOL    HW220457   4.066   0.832  12.701  2.6156  0.7703  1.6371
 3000SOL     OW20458   1.651   0.488   0.191 -0.3141 -0.0090  0.3007
 3000SOL    HW120459   1.685   0.496   0.280  1.1245 -1.6505 -0.1106
 3000SOL    HW220460   1.695   0.563   0.149 -1.0788  0.5464  0.4913
 3001SOL     OW20461   0.773   0.062  13.534 -0.0922 -0.1668  0.1691
 3001SOL    HW120462   0.867   0.068  13.522 -0.2056 -2.4703 -1.8742
 3001SOL    HW220463   0.772   0.024  13.622 -1.4924  0.4951  0.4543
 3002SOL     OW20464   4.214   1.928   2.174  0.5246  0.2211 -0.2337
 3002SOL    HW120465   4.265   2.007   2.156  1.6951 -0.3940  0.3614
 3002SOL    HW220466   4.217   1.884   2.089  0.4755 -0.0852 -0.0787
 3003SOL     OW20467   4.424   0.462   1.886  0.5314 -0.1264 -0.5162
 3003SOL    HW120468   4.371   0.492   1.812 -0.2099  0.0207  0.0758
 3003SOL    HW220469   4.500   0.519   1.875  1.2173 -1.0189 -0.3968
 3004SOL     OW20470   3.142   0.246  13.166 -0.4639  0.2179  0.2451
 3004SOL    HW120471   3.090   0.166  13.161  0.7768 -0.6179  0.7812
 3004SOL    HW220472   3.183   0.232  13.251 -0.2231  0.3029  0.1453
 3005SOL     OW20473   2.094   3.234   7.929 -0.0426  0.3250 -0.4910
 3005SOL    HW120474   2.015   3.281   7.904  0.7372  1.9828  0.1102
 3005SOL    HW220475   2.129   3.238   7.840 -0.1896  2.2004 -0.4642
 3006SOL     OW20476   0.309   2.858   3.469 -0.4601 -0.2971  0.1517
 3006SOL    HW120477   0.314   2.920   3.396  0.8292  0.3419  0.7958
 3006SOL    HW220478   0.246   2.916   3.513 -0.1507 -1.6370  2.3692
 3007SOL     OW20479   1.537   1.381   4.304 -0.0055  0.6274  0.6643
 3007SOL    HW120480   1.574   1.347   4.386  1.9663  0.0611 -0.4475
 3007SOL    HW220481   1.620   1.412   4.267 -0.0586 -1.4664 -1.1822
 3008SOL     OW20482   4.060   0.778  11.373  0.0204  0.5092 -0.2875
 3008SOL    HW120483   3.996   0.748  11.437  0.3294 -0.5349 -0.4694
 3008SOL    HW220484   4.132   0.785  11.435 -0.8927  1.6169  0.6430
 3009SOL     OW20485   0.522   1.280   3.692  0.1513  0.0901  0.3248
 3009SOL    HW120486   0.533   1.367   3.655  0.3101  1.2408  3.0806
 3009SOL    HW220487   0.590   1.233   3.643  0.0010 -0.4259  0.6023
 3010SOL     OW20488   3.326   1.771  15.297 -0.0237 -0.0421  0.5019
 3010SOL    HW120489   3.388   1.699  15.288  2.5462  2.2924 -0.4547
 3010SOL    HW220490   3.392   1.841  15.300 -2.3104  2.1477 -0.4126
 3011SOL     OW20491   2.521   1.929   3.905  0.3975  0.4316 -1.1279
 3011SOL    HW120492   2.523   2.013   3.949 -0.0327  0.2533 -0.7754
 3011SOL    HW220493   2.594   1.945   3.845  2.6051 -1.0675  1.1498
 3012SOL     OW20494   0.468   1.622   3.182 -0.2016 -0.3537 -0.4945
 3012SOL    HW120495   0.415   1.650   3.256  0.8871  0.7714 -0.1369
 3012SOL    HW220496   0.493   1.533   3.206 -1.2264 -0.0943  1.5088
 3013SOL     OW20497   0.147   0.942   6.051  0.2566  0.2192  0.1959
 3013SOL    HW120498   0.136   1.035   6.032  1.9740  0.3593 -0.1269
 3013SOL    HW220499   0.225   0.927   5.997 -0.4771 -0.5876 -0.6418
 3014SOL     OW20500   0.026   0.685  17.492 -0.3602  0.1285 -0.9747
 3014SOL    HW120501   4.651   0.697  17.484 -0.6107 -1.2929 -0.2179
 3014SOL    HW220502   0.052   0.693  17.400 -0.7594 -0.1358 -1.1088
 3015SOL     OW20503   4.432   2.462   5.020  0.8111 -0.6203  0.3224
 3015SOL    HW120504   4.374   2.395   5.057  0.9683 -2.0044 -1.9169
 3015SOL    HW220505   4.377   2.540   5.013  2.7818  0.7372  0.0758
 3016SOL     OW20506   3.634   0.487  10.524 -0.0391 -0.1910  0.3131
 3016SOL    HW120507   3.557   0.534  10.493  0.4233 -0.1977 -0.8385
 3016SOL    HW220508   3.663   0.440  10.446 -0.4479  1.3463 -0.7799
 3017SOL     OW20509   3.799   1.209   5.512  0.0749 -0.8795 -0.5965
 3017SOL    HW120510   3.770   1.195   5.422  0.3351 -0.5323 -0.7342
 3017SOL    HW220511   3.813   1.117   5.536 -0.3325 -0.5642  0.8470
 3018SOL     OW20512   2.556   1.144   0.855 -0.4827  0.3492  0.1306
 3018SOL    HW120513   2.642   1.139   0.897  0.1959  4.4476 -0.8524
 3018SOL    HW220514   2.569   1.078   0.786 -0.2810 -0.8033  1.2612
 3019SOL     OW20515   4.235   0.140   9.953  1.2115 -0.2262 -0.2482
 3019SOL    HW120516   4.284   0.196  10.012 -1.6926  0.2294  1.7511
 3019SOL    HW220517   4.298   0.149   9.882 -0.0607 -0.3649 -1.4031
 3020SOL     OW20518   3.247   2.479  12.820 -0.2660 -0.7718 -0.1522
 3020SOL    HW120519   3.228   2.413  12.753 -1.3715  0.7015 -1.2839
 3020SOL    HW220520   3.279   2.426  12.893 -0.1863  0.5331  0.7698
 3021SOL     OW20521   3.743   0.134   8.425  0.0189  0.5751  0.0244
 3021SOL    HW120522   3.747   0.071   8.497 -4.0061  0.3318  0.0310
 3021SOL    HW220523   3.682   0.202   8.453 -0.7001 -0.9437  2.0787
 3022SOL     OW20524   3.989   2.337   6.829  0.9678 -0.1120 -0.4457
 3022SOL    HW120525   4.059   2.279   6.859 -0.7967 -2.2338 -0.3748
 3022SOL    HW220526   4.042   2.381   6.762  0.3779 -0.4762 -1.1545
 3023SOL     OW20527   1.614   1.138  15.145  0.0917 -0.4115  0.0238
 3023SOL    HW120528   1.522   1.111  15.135  0.2644 -1.0396  0.1273
 3023SOL    HW220529   1.658   1.053  15.143  0.4322 -0.2308 -0.1342
 3024SOL     OW20530   4.649   3.195   2.119  0.2848  0.2710  0.0195
 3024SOL    HW120531   0.022   3.178   2.136  0.2665  0.0992 -0.0521
 3024SOL    HW220532   4.625   3.275   2.167  1.0259  0.0717  0.7244
 3025SOL     OW20533   1.855   3.771  11.032 -0.1062  0.2669 -0.1953
 3025SOL    HW120534   1.836   3.677  11.029  0.6786  0.0778  0.8912
 3025SOL    HW220535   1.949   3.772  11.015 -0.3370 -0.5403 -1.4715
 3026SOL     OW20536   3.422   2.478   4.783 -0.2876 -0.1218 -0.6081
 3026SOL    HW120537   3.502   2.425   4.783  0.9956  1.8168  0.4245
 3026SOL    HW220538   3.385   2.453   4.868  1.8601  1.0003  0.6770
 3027SOL     OW20539   0.936   1.212  11.722  0.2318 -0.0576 -0.1502
 3027SOL    HW120540   0.846   1.244  11.726  0.6175  0.9384  0.4305
 3027SOL    HW220541   0.934   1.120  11.694  3.5497 -0.6562  1.6315
 3028SOL     OW20542   2.345   4.445   5.963 -0.3773  0.5763 -0.0638
 3028SOL    HW120543   2.364   4.539   5.957 -2.4874  0.8552 -2.3073
 3028SOL    HW220544   2.433   4.408   5.955 -0.4403  0.2042  0.9616
 3029SOL     OW20545   4.641   1.555   3.718  0.3789 -0.1991  0.0485
 3029SOL    HW120546   4.559   1.523   3.683 -0.5114  1.8735  0.2042
 3029SOL    HW220547   4.609   1.645   3.725  0.4247  0.0020 -2.4235
 3030SOL     OW20548   3.552   0.774   9.001 -0.1193 -0.4704  0.8077
 3030SOL    HW120549   3.564   0.864   8.969  1.6096 -0.9976 -0.0521
 3030SOL    HW220550   3.552   0.725   8.919  0.4648  2.6839 -1.0999
 3031SOL     OW20551   3.885   0.477   2.766  0.2606 -0.0988  0.1338
 3031SOL    HW120552   3.877   0.551   2.825  1.0982 -1.5223  2.0467
 3031SOL    HW220553   3.817   0.417   2.795  0.7320 -0.3838  0.6483
 3032SOL     OW20554   2.448   1.111   5.149 -0.0298  0.1769  0.3503
 3032SOL    HW120555   2.408   1.055   5.082  1.4761  1.7359 -1.8580
 3032SOL    HW220556   2.535   1.078   5.128 -1.0580 -1.6718 -1.1209
 3033SOL     OW20557   2.616   2.957   4.710  0.1178 -0.1299  0.7326
 3033SOL    HW120558   2.589   3.048   4.697  1.9499  0.3000  0.0009
 3033SOL    HW220559   2.585   2.918   4.628 -0.3536 -1.5931  1.6220
 3034SOL     OW20560   1.628   2.164   7.859 -0.2559  0.5642 -0.2394
 3034SOL    HW120561   1.550   2.158   7.915 -1.3402 -1.0279 -1.9280
 3034SOL    HW220562   1.686   2.120   7.921  0.1776  2.7365  0.9053
 3035SOL     OW20563   3.452   2.819   0.870 -0.0196  0.0695 -0.5163
 3035SOL    HW120564   3.456   2.852   0.960 -1.2671  1.0576 -0.8212
 3035SOL    HW220565   3.529   2.866   0.838 -1.8693  1.7111 -2.5155
 3036SOL     OW20566   0.492   3.646   9.274 -0.2441  0.2405 -0.5451
 3036SOL    HW120567   0.551   3.649   9.199 -2.9461  0.0964 -2.7020
 3036SOL    HW220568   0.503   3.732   9.315  0.6046 -0.2287  0.2213
 3037SOL     OW20569   3.533   2.079   6.391 -0.0576  0.2116 -0.0326
 3037SOL    HW120570   3.497   2.168   6.390 -1.5964 -0.4303 -1.7261
 3037SOL    HW220571   3.457   2.023   6.378 -1.9328  1.9904  3.3356
 3038SOL     OW20572   0.376   2.015   6.029  0.1146 -0.3034 -0.1095
 3038SOL    HW120573   0.323   2.068   6.087 -0.3845 -0.4427 -0.4401
 3038SOL    HW220574   0.424   1.965   6.095 -1.0547 -1.6888 -0.3204
 3039SOL     OW20575   1.665   1.471  14.916 -0.2298 -0.5505 -0.7158
 3039SOL    HW120576   1.595   1.510  14.863 -0.0174  2.1966  1.0724
 3039SOL    HW220577   1.730   1.541  14.924  0.3408 -1.2534  0.7030
 3040SOL     OW20578   3.741   2.436   6.526  0.7242 -0.5280  0.6287
 3040SOL    HW120579   3.763   2.364   6.584 -0.0635  1.0531  2.8855
 3040SOL    HW220580   3.827   2.477   6.520 -0.4654  1.8971  0.1885
 3041SOL     OW20581   2.086   3.675   4.382 -0.7072 -0.2246  0.4664
 3041SOL    HW120582   2.078   3.636   4.295  0.2779 -0.2831  0.4022
 3041SOL    HW220583   2.123   3.604   4.433 -1.7827 -0.2400  1.2146
 3042SOL     OW20584   3.344   2.288   6.352 -0.2144 -1.0184 -0.6013
 3042SOL    HW120585   3.271   2.349   6.343  0.2928 -0.2260  0.6672
 3042SOL    HW220586   3.289   2.210   6.366 -0.8777 -0.4317  0.0571
 3043SOL     OW20587   1.494   0.539   5.589 -0.1929  0.2334 -0.1919
 3043SOL    HW120588   1.530   0.534   5.501 -0.6864  0.1807 -0.3876
 3043SOL    HW220589   1.403   0.521   5.568 -0.8404  1.7830  1.3719
 3044SOL     OW20590   3.343   4.158   8.631 -0.0867 -0.4735 -0.2380
 3044SOL    HW120591   3.415   4.151   8.693 -0.6301 -0.5443  0.3793
 3044SOL    HW220592   3.353   4.080   8.576 -0.1222 -1.9821  1.9066
 3045SOL     OW20593   2.929   0.851  15.212 -0.1826 -0.2504  0.2217
 3045SOL    HW120594   2.917   0.933  15.164  0.1812  0.0159  0.5789
 3045SOL    HW220595   2.844   0.812  15.231 -1.2835  1.9280 -0.2800
 3046SOL     OW20596   2.363   0.273  12.991 -0.1611 -0.4727  0.5339
 3046SOL    HW120597   2.375   0.329  13.068 -0.3883 -0.0830  0.2778
 3046SOL    HW220598   2.326   0.333  12.927  0.0328 -0.7733  0.1392
 3047SOL     OW20599   3.660   0.177   7.719 -0.2144 -0.3654  0.3148
 3047SOL    HW120600   3.572   0.160   7.686 -0.1261 -0.7054  0.2611
 3047SOL    HW220601   3.687   0.087   7.732  0.4422 -0.1321  0.5461
 3048SOL     OW20602   4.191   2.784   5.767  0.2143  0.0892  0.2229
 3048SOL    HW120603   4.171   2.726   5.693 -0.5545  0.2977  0.2685
 3048SOL    HW220604   4.191   2.721   5.838 -0.5261 -0.9393 -0.6893
 3049SOL     OW20605   3.984   4.249   6.438  0.2429 -0.5162 -0.6648
 3049SOL    HW120606   3.896   4.212   6.446  0.5512 -1.1485 -0.1413
 3049SOL    HW220607   4.024   4.178   6.387 -2.2031 -2.2247 -0.2531
 3050SOL     OW20608   3.515   1.900   7.647  0.1645  0.2701 -0.1891
 3050SOL    HW120609   3.502   1.908   7.741 -0.5062  0.9494 -0.3424
 3050SOL    HW220610   3.611   1.905   7.643  0.4134 -3.3418  1.2156
 3051SOL     OW20611   1.388   1.424   3.241  0.4668  0.7455  0.2671
 3051SOL    HW120612   1.336   1.412   3.162 -0.5227 -0.9310  1.1678
 3051SOL    HW220613   1.326   1.419   3.313  3.3035 -0.1808  2.6255
 3052SOL     OW20614   2.013   2.220   5.619  0.2091  0.5182  0.5438
 3052SOL    HW120615   2.029   2.311   5.594  0.4867  0.3464  0.0911
 3052SOL    HW220616   1.931   2.202   5.572  0.8571  1.6588 -1.0320
 3053SOL     OW20617   4.370   2.150   2.120  0.0267 -0.3541 -0.2321
 3053SOL    HW120618   4.393   2.155   2.027  2.0109  1.6832  0.3777
 3053SOL    HW220619   4.434   2.211   2.157 -0.8861 -0.1393  0.9817
 3054SOL     OW20620   1.858   2.832   7.988 -0.4570 -0.1473 -0.2415
 3054SOL    HW120621   1.920   2.798   8.053 -0.7973 -0.7645 -0.2377
 3054SOL    HW220622   1.807   2.888   8.046  0.2719  1.3826 -1.0778
 3055SOL     OW20623   4.059   1.958   6.974 -0.0446 -0.3302 -0.2178
 3055SOL    HW120624   4.119   2.031   6.960 -1.0252  0.3279 -0.9838
 3055SOL    HW220625   4.092   1.911   6.897  3.0727 -0.0339  0.9445
 3056SOL     OW20626   1.938   4.440   5.888 -0.1995  0.0995  0.0263
 3056SOL    HW120627   1.969   4.418   5.975  1.4283  0.5352 -0.4431
 3056SOL    HW220628   1.876   4.510   5.910  0.5270  0.5566  0.6003
 3057SOL     OW20629   2.852   2.594   5.022 -0.0942 -0.4581 -0.1319
 3057SOL    HW120630   2.919   2.649   4.982 -0.4202  0.9710  1.3196
 3057SOL    HW220631   2.846   2.624   5.112  2.2462 -0.9664  0.1703
 3058SOL     OW20632   1.557   0.910  11.622  0.2452 -0.0851 -0.3750
 3058SOL    HW120633   1.539   0.818  11.600 -1.4370  0.4528 -1.2988
 3058SOL    HW220634   1.476   0.951  11.590  0.2690  0.7107  0.6132
 3059SOL     OW20635   0.843   4.182   9.872 -0.1045  0.1144 -0.0939
 3059SOL    HW120636   0.777   4.136   9.820  2.4366 -1.9355 -1.4937
 3059SOL    HW220637   0.838   4.270   9.835 -0.8507 -0.1111 -0.5368
 3060SOL     OW20638   1.664   4.088   9.241 -0.1694 -0.6847  0.1696
 3060SOL    HW120639   1.576   4.053   9.256  0.7183 -1.5535  3.5264
 3060SOL    HW220640   1.714   4.056   9.316  2.4424 -0.7274 -1.5884
 3061SOL     OW20641   3.153   1.821   8.949  0.0531  0.0860 -0.0342
 3061SOL    HW120642   3.220   1.887   8.965 -0.8143  0.7071  0.9972
 3061SOL    HW220643   3.213   1.758   8.909  2.0558  1.4855  0.8172
 3062SOL     OW20644   3.667   4.431  10.046  0.5740  0.5400 -0.0928
 3062SOL    HW120645   3.741   4.459  10.100  1.0852  1.4442 -1.2432
 3062SOL    HW220646   3.630   4.351  10.084  1.7508  0.7271  1.4446
 3063SOL     OW20647   3.722   3.261   8.140 -0.1517  0.1029 -0.1313
 3063SOL    HW120648   3.629   3.245   8.123 -0.3237 -0.6769  1.5977
 3063SOL    HW220649   3.758   3.175   8.161  0.0784 -0.3403 -2.3154
 3064SOL     OW20650   2.516   0.863   6.237 -0.3857 -0.2265 -0.0665
 3064SOL    HW120651   2.428   0.889   6.211 -0.2086  0.2632 -0.1656
 3064SOL    HW220652   2.493   0.781   6.282  1.5348 -0.2000  0.9769
 3065SOL     OW20653   4.082   3.127  15.363 -0.1029  0.1404  0.3398
 3065SOL    HW120654   4.168   3.167  15.350 -0.0628  0.5667  1.8472
 3065SOL    HW220655   4.025   3.203  15.352  0.1517  0.1126 -1.1655
 3066SOL     OW20656   2.716   2.022   9.298 -0.4291 -0.2287  0.0124
 3066SOL    HW120657   2.740   2.087   9.364  1.5508 -0.9863  0.0315
 3066SOL    HW220658   2.683   1.950   9.353  0.1235 -0.9129 -0.5407
 3067SOL     OW20659   3.651   3.849   2.318 -0.3216 -0.3423 -0.2885
 3067SOL    HW120660   3.741   3.816   2.320  1.4378  4.4164 -1.7390
 3067SOL    HW220661   3.608   3.779   2.367 -0.6273  1.2905  1.7665
 3068SOL     OW20662   4.575   1.228  15.353  0.6205 -0.1818  0.0231
 3068SOL    HW120663   4.636   1.228  15.279 -0.2637 -0.4427 -0.6972
 3068SOL    HW220664   4.576   1.320  15.381 -0.2525 -0.5397  1.2232
 3069SOL     OW20665   0.836   4.626   8.905 -0.1281  0.4294  0.2478
 3069SOL    HW120666   0.870   4.604   8.992  3.0664  1.1970 -0.8470
 3069SOL    HW220667   0.758   4.676   8.930  2.0470  4.7422 -1.7125
 3070SOL     OW20668   1.302   4.682  13.960  0.1174  0.6238  0.1841
 3070SOL    HW120669   1.289   0.039  14.018  0.7517  2.3540 -1.9354
 3070SOL    HW220670   1.240   4.703  13.891  1.3171 -0.6077 -1.2462
 3071SOL     OW20671   0.024   3.043   1.915  0.0015 -0.1293  0.1384
 3071SOL    HW120672   4.670   3.073   1.968 -1.1958  0.3265 -1.8068
 3071SOL    HW220673   0.039   3.123   1.864  1.1228  0.6357  1.6737
 3072SOL     OW20674   4.341   2.227   5.710 -0.1424  0.5437 -0.3057
 3072SOL    HW120675   4.388   2.220   5.793  1.3081  1.3266 -1.0719
 3072SOL    HW220676   4.257   2.200   5.748 -1.2897  1.2410 -2.3823
 3073SOL     OW20677   0.123   3.986   0.417 -0.4260  0.1117 -0.2768
 3073SOL    HW120678   0.135   4.054   0.483  2.3082 -1.0012  0.3873
 3073SOL    HW220679   0.197   4.006   0.360 -0.9172  0.3349 -0.8354
 3074SOL     OW20680   3.793   4.606   1.549 -0.2891 -0.2900  0.5575
 3074SOL    HW120681   3.810   4.679   1.608  1.9776 -0.5505  0.2079
 3074SOL    HW220682   3.831   4.540   1.607  5.6257  1.6925 -1.0965
 3075SOL     OW20683   4.587   1.124   8.770  0.0975  0.7671 -0.8715
 3075SOL    HW120684   4.607   1.103   8.861 -0.2499  2.6454 -0.3557
 3075SOL    HW220685   4.558   1.041   8.732 -0.8017 -0.6498  2.8451
 3076SOL     OW20686   1.805   0.001   6.483  0.0414  0.4426 -0.4914
 3076SOL    HW120687   1.768   0.089   6.480  0.3984  0.6458  0.9791
 3076SOL    HW220688   1.878   0.013   6.423 -0.3435 -1.4733 -1.3568
 3077SOL     OW20689   1.903   3.747   3.595  0.4627  0.3960 -0.4620
 3077SOL    HW120690   1.895   3.825   3.650  1.5340  0.0912  0.1344
 3077SOL    HW220691   1.824   3.706   3.630 -0.9418  1.6208 -2.2438
 3078SOL     OW20692   4.238   2.181  12.325  0.1602 -0.0724 -0.0304
 3078SOL    HW120693   4.305   2.205  12.262  2.0197  1.2191  2.4729
 3078SOL    HW220694   4.164   2.155  12.270 -1.2785  3.8564  0.0484
 3079SOL     OW20695   3.620   1.161   0.454 -0.2805  0.1221  0.0829
 3079SOL    HW120696   3.672   1.200   0.383 -1.1290 -2.9926 -2.2584
 3079SOL    HW220697   3.538   1.133   0.414 -1.5416  3.7155  0.2135
 3080SOL     OW20698   0.211   3.656   6.767 -0.1557 -0.1346  0.4656
 3080SOL    HW120699   0.264   3.603   6.826  0.9609 -0.0313 -0.4399
 3080SOL    HW220700   0.251   3.742   6.779 -1.4567  0.5087  0.2221
 3081SOL     OW20701   1.197   2.723   8.569 -0.0933 -0.2175  0.0454
 3081SOL    HW120702   1.233   2.743   8.655  2.4324 -2.2155 -0.5318
 3081SOL    HW220703   1.239   2.796   8.524  1.1910 -1.9592 -1.6102
 3082SOL     OW20704   3.046   0.341   3.091  0.3939  0.0869  0.0359
 3082SOL    HW120705   3.098   0.266   3.117  1.5279  1.2527  1.1221
 3082SOL    HW220706   3.108   0.396   3.043 -1.6190  1.0627 -1.5043
 3083SOL     OW20707   0.782   2.333  13.791  0.0795 -0.5805  0.6767
 3083SOL    HW120708   0.846   2.292  13.733  0.5319 -1.3591  1.7269
 3083SOL    HW220709   0.834   2.379  13.857 -0.9166 -0.3958  1.3390
 3084SOL     OW20710   1.306   2.183  14.063  0.2496 -0.3495  0.1611
 3084SOL    HW120711   1.307   2.265  14.015  0.3150 -0.0778  0.6312
 3084SOL    HW220712   1.215   2.170  14.087  0.1080  3.8661  1.8080
 3085SOL     OW20713   3.927   1.490   9.900  0.0483  0.0395 -0.3505
 3085SOL    HW120714   3.854   1.486   9.962 -0.4003 -1.5982 -0.9740
 3085SOL    HW220715   3.937   1.395   9.893 -0.8673 -0.0516 -0.4528
 3086SOL     OW20716   3.446   1.227   5.345  0.8410  0.4354 -0.1385
 3086SOL    HW120717   3.528   1.179   5.341  0.4719 -0.1470 -0.7832
 3086SOL    HW220718   3.411   1.219   5.256  0.7567 -1.6046  0.0647
 3087SOL     OW20719   1.607   1.100   5.848 -0.4122  0.5331  0.8288
 3087SOL    HW120720   1.610   1.079   5.754  0.6984  2.0531  0.5114
 3087SOL    HW220721   1.669   1.040   5.890  0.2142 -0.6595 -1.7657
 3088SOL     OW20722   0.324   4.410   3.818  0.0682 -0.1448 -0.5006
 3088SOL    HW120723   0.375   4.439   3.743  2.4790 -2.7622  0.1261
 3088SOL    HW220724   0.320   4.491   3.869 -0.0426  0.3868 -1.3430
 3089SOL     OW20725   4.583   1.153   8.342 -0.1371  0.4854  0.0310
 3089SOL    HW120726   4.525   1.091   8.387  1.4873 -1.1357 -0.0815
 3089SOL    HW220727   4.538   1.235   8.363 -0.9357  0.2546 -0.7423
 3090SOL     OW20728   2.728   1.476   0.904  0.1556  0.4380 -0.0446
 3090SOL    HW120729   2.790   1.541   0.871  0.5393  0.2972  0.3916
 3090SOL    HW220730   2.699   1.516   0.987  2.8318  0.9738  0.6170
 3091SOL     OW20731   2.674   3.939   1.238 -0.4980 -0.3901  0.5003
 3091SOL    HW120732   2.649   3.874   1.173  2.8365 -2.3629  1.1371
 3091SOL    HW220733   2.664   3.908   1.328 -0.5571 -2.7778 -0.3150
 3092SOL     OW20734   4.197   4.578   6.887 -0.3305 -0.2045 -0.5295
 3092SOL    HW120735   4.286   4.580   6.921 -0.6908  0.0330  0.4084
 3092SOL    HW220736   4.141   4.573   6.964  0.2571 -2.2447 -0.2326
 3093SOL     OW20737   0.973   0.043   7.219  0.3034 -0.0806 -0.6980
 3093SOL    HW120738   0.987   0.072   7.129  3.5669 -1.0547 -0.4968
 3093SOL    HW220739   0.931   0.123   7.252 -1.5513 -0.4504 -2.1172
 3094SOL     OW20740   2.975   4.383   9.352 -0.4119 -0.0241  0.1142
 3094SOL    HW120741   2.995   4.421   9.437  0.7291 -1.9294  0.6948
 3094SOL    HW220742   3.055   4.401   9.303 -0.6941  2.0077  0.4006
 3095SOL     OW20743   2.065   2.310   8.450 -0.5804 -0.1410 -0.6070
 3095SOL    HW120744   2.094   2.222   8.474  1.3054  0.8948  1.0126
 3095SOL    HW220745   1.994   2.311   8.514 -0.3600 -1.4871 -0.3509
 3096SOL     OW20746   1.506   1.850   2.890 -0.3140  0.1765 -0.1432
 3096SOL    HW120747   1.463   1.791   2.953 -1.0397  2.1588  1.2388
 3096SOL    HW220748   1.587   1.857   2.941 -0.5536  1.5582  0.0452
 3097SOL     OW20749   1.836   1.083  11.203  0.1949  0.3788 -0.3391
 3097SOL    HW120750   1.793   0.999  11.185 -0.2291  0.2042  1.5573
 3097SOL    HW220751   1.899   1.051  11.268  0.8978  1.0843 -0.6712
 3098SOL     OW20752   0.943   0.367   0.705  0.0113  0.1487 -0.1724
 3098SOL    HW120753   0.877   0.436   0.699 -0.3990 -0.1459  0.9081
 3098SOL    HW220754   0.887   0.300   0.745  1.3227 -0.0357  1.3846
 3099SOL     OW20755   2.890   1.249   5.617  0.3558 -0.3355 -0.4520
 3099SOL    HW120756   2.930   1.326   5.656 -0.6067  1.9968 -4.0517
 3099SOL    HW220757   2.796   1.269   5.624  0.4127  0.5871 -2.3117
 3100SOL     OW20758   3.375   2.510   1.119  0.0631  0.1789  0.6133
 3100SOL    HW120759   3.332   2.595   1.109  0.8538  0.6670  1.3932
 3100SOL    HW220760   3.296   2.460   1.137  1.4449 -2.4037 -0.5111
 3101SOL     OW20761   1.358   2.155   7.647 -0.0684 -0.0520 -0.0918
 3101SOL    HW120762   1.346   2.247   7.669 -0.7301  0.2207 -1.6138
 3101SOL    HW220763   1.283   2.137   7.590  1.7702 -1.2611 -2.1196
 3102SOL     OW20764   4.692   1.260  10.963 -0.1008  0.0889 -0.2372
 3102SOL    HW120765   0.042   1.252  10.897 -0.3815 -1.1618 -0.3747
 3102SOL    HW220766   4.674   1.172  10.996 -0.9895  0.0662 -0.7716
 3103SOL     OW20767   2.706   2.126   0.024 -0.0142  0.1544  0.9422
 3103SOL    HW120768   2.728   2.082   0.107 -2.5763  0.1500  1.6209
 3103SOL    HW220769   2.707   2.219   0.044 -1.2779  0.1600  0.9395
 3104SOL     OW20770   0.127   3.112   2.299 -0.3641 -0.1192  0.0017
 3104SOL    HW120771   0.076   3.032   2.284 -0.6339 -0.4426  2.7663
 3104SOL    HW220772   0.189   3.074   2.361 -0.4537  1.3358  0.9743
 3105SOL     OW20773   3.458   1.882   6.957  0.4939  0.0002 -0.6251
 3105SOL    HW120774   3.530   1.890   7.019 -0.2283  2.0144 -0.0563
 3105SOL    HW220775   3.481   1.946   6.891  0.0303  1.5999  0.7701
 3106SOL     OW20776   4.426   2.331   2.971  0.3820 -0.1902  0.1392
 3106SOL    HW120777   4.439   2.324   3.065 -1.2472  5.0835  0.7960
 3106SOL    HW220778   4.514   2.342   2.935  1.1052 -0.4433  1.8167
 3107SOL     OW20779   4.168   3.517  15.408 -0.2331 -0.3406 -0.3546
 3107SOL    HW120780   4.104   3.515  15.336  2.5872 -0.0009 -2.8741
 3107SOL    HW220781   4.187   3.611  15.404 -0.6076 -0.2743 -0.5831
 3108SOL     OW20782   3.859   3.494  16.166 -0.2740 -0.4628 -0.1786
 3108SOL    HW120783   3.953   3.476  16.157 -0.1255  0.9735 -1.5305
 3108SOL    HW220784   3.840   3.534  16.081 -0.2215 -1.8079 -0.8267
 3109SOL     OW20785   3.515   0.900  14.782  0.5132  0.4929  0.2183
 3109SOL    HW120786   3.576   0.846  14.731  1.6322  3.0843 -1.1683
 3109SOL    HW220787   3.576   0.945  14.840  2.1891 -3.8151  1.8384
 3110SOL     OW20788   1.829   2.389  12.824  0.1630  0.3116  0.1639
 3110SOL    HW120789   1.784   2.325  12.768  0.6957 -0.9427  1.1633
 3110SOL    HW220790   1.789   2.360  12.906 -1.7023 -0.8276 -1.1464
 3111SOL     OW20791   0.113   1.913   1.123 -0.0711 -0.2215  0.2707
 3111SOL    HW120792   0.169   1.957   1.188  0.3336 -1.5181  0.8058
 3111SOL    HW220793   0.113   1.973   1.049  0.1562 -0.4333  0.1009
 3112SOL     OW20794   3.807   4.397   8.648 -0.0750 -0.3932 -0.0486
 3112SOL    HW120795   3.864   4.362   8.717 -0.4033 -2.9284 -1.0752
 3112SOL    HW220796   3.725   4.425   8.688 -0.5099 -1.3877 -0.2318
 3113SOL     OW20797   2.761   1.646   4.552  0.8263 -0.0266  0.4775
 3113SOL    HW120798   2.753   1.713   4.620 -2.0753 -0.0767  0.1751
 3113SOL    HW220799   2.753   1.569   4.609  1.4199  0.1989  0.8733
 3114SOL     OW20800   0.349   3.973   9.050 -0.2550  0.0815 -0.3146
 3114SOL    HW120801   0.411   4.021   8.995 -0.8552  0.6804 -0.4733
 3114SOL    HW220802   0.271   4.027   9.034 -0.6421 -0.2305  0.5654
 3115SOL     OW20803   1.779   1.993   1.604 -0.0509 -0.0638  0.4670
 3115SOL    HW120804   1.798   1.903   1.576  2.4966  0.5455  0.1902
 3115SOL    HW220805   1.856   2.031   1.562 -0.3776  0.1977  0.1077
 3116SOL     OW20806   1.486   0.775   2.368  0.7354 -0.0449  0.7577
 3116SOL    HW120807   1.552   0.729   2.421  0.0572  0.6179  2.1951
 3116SOL    HW220808   1.451   0.700   2.321  0.2760  0.2268  0.6751
 3117SOL     OW20809   2.815   2.055   1.020  0.1439 -0.0674 -0.4524
 3117SOL    HW120810   2.733   2.020   0.984 -0.0649  1.3479 -1.3704
 3117SOL    HW220811   2.781   2.114   1.087  3.2452  1.7314 -0.4352
 3118SOL     OW20812   2.568   1.443   3.851  0.1486  0.1354 -0.0041
 3118SOL    HW120813   2.527   1.416   3.769 -0.6528 -0.1899  0.4990
 3118SOL    HW220814   2.497   1.502   3.878 -1.3208  0.3439 -4.3870
 3119SOL     OW20815   3.977   0.180   2.617  0.2594 -0.5364 -0.0392
 3119SOL    HW120816   3.966   0.212   2.527 -0.2509 -2.6046 -0.7234
 3119SOL    HW220817   3.886   0.150   2.627 -0.1860  0.7518 -0.2221
 3120SOL     OW20818   2.952   1.566   2.959 -0.1938  0.5593 -0.0011
 3120SOL    HW120819   2.925   1.657   2.971  0.4997  0.7567  0.0754
 3120SOL    HW220820   2.919   1.528   3.041 -1.0301  0.0548 -0.5733
 3121SOL     OW20821   2.639   1.504   6.738  0.8990  0.4184 -0.3191
 3121SOL    HW120822   2.557   1.520   6.691 -0.4800 -0.5268  1.8000
 3121SOL    HW220823   2.644   1.573   6.805  0.5484  0.1874 -0.0566
 3122SOL     OW20824   3.721   2.117  16.417 -0.2448 -0.2367  0.2536
 3122SOL    HW120825   3.771   2.080  16.490  0.2849 -0.9931 -0.4971
 3122SOL    HW220826   3.736   2.202  16.459  0.4236  0.1219 -0.7289
 3123SOL     OW20827   1.374   1.143   7.109  0.3128 -0.3977 -0.8521
 3123SOL    HW120828   1.387   1.198   7.032  0.2235  0.2711 -0.3856
 3123SOL    HW220829   1.464   1.126   7.136 -0.1428 -0.6256  0.5035
 3124SOL     OW20830   2.995   3.152  16.854 -0.1527  0.3968  0.2170
 3124SOL    HW120831   2.993   3.104  16.771  0.4671  0.2150  0.3070
 3124SOL    HW220832   3.061   3.218  16.832 -1.5309  1.2273 -1.4165
 3125SOL     OW20833   0.892   3.448   9.396 -0.0395 -0.1100  0.1013
 3125SOL    HW120834   0.890   3.518   9.461  0.1726  2.8526 -3.0419
 3125SOL    HW220835   0.968   3.406   9.436 -0.3576 -1.7626 -1.0476
 3126SOL     OW20836   4.181   4.487  11.797 -0.5965 -0.0110 -0.1906
 3126SOL    HW120837   4.175   4.429  11.872  0.2550  0.7619  0.4786
 3126SOL    HW220838   4.108   4.542  11.825 -1.5712 -0.5956 -1.5673
 3127SOL     OW20839   4.006   3.078   5.996 -0.2002 -0.3778  0.3337
 3127SOL    HW120840   4.086   3.046   6.038  0.0259  3.2971  2.7079
 3127SOL    HW220841   3.994   3.015   5.925 -2.0630  0.8549 -0.4521
 3128SOL     OW20842   1.266   1.988   5.935 -0.1513 -0.0067  0.5067
 3128SOL    HW120843   1.260   1.992   6.030 -1.9065  0.0454  0.3916
 3128SOL    HW220844   1.361   1.978   5.931 -0.0510  0.5520  1.4972
 3129SOL     OW20845   2.433   0.082   7.826  0.4200 -0.0031 -0.2323
 3129SOL    HW120846   2.407   0.166   7.864  0.4586 -0.2751  0.4046
 3129SOL    HW220847   2.450   0.032   7.906  0.4587  1.4378  0.6489
 3130SOL     OW20848   0.235   2.285   7.276 -0.5661  0.3564 -0.4816
 3130SOL    HW120849   0.282   2.205   7.300 -1.5569  0.4447  1.7555
 3130SOL    HW220850   0.282   2.355   7.321 -0.4448  0.6899 -1.1256
 3131SOL     OW20851   2.224   0.242   5.476 -0.3411  0.1644 -0.0961
 3131SOL    HW120852   2.235   0.306   5.405 -2.6847  0.7532  0.0466
 3131SOL    HW220853   2.188   0.311   5.533 -1.6227 -0.0419 -0.6440
 3132SOL     OW20854   1.061   2.224  12.742  0.0620 -0.2143  0.0208
 3132SOL    HW120855   1.016   2.140  12.738  0.0914 -0.2747  1.0347
 3132SOL    HW220856   1.081   2.219  12.835  1.8420 -1.8904 -0.4448
 3133SOL     OW20857   4.245   0.845   2.100 -0.6882  0.1775 -0.0596
 3133SOL    HW120858   4.329   0.801   2.114  0.0119  1.8117  0.9151
 3133SOL    HW220859   4.228   0.808   2.014 -0.3576 -2.3282  0.9355
 3134SOL     OW20860   3.948   4.052   7.115  0.4804  0.0590 -0.1980
 3134SOL    HW120861   3.917   4.039   7.205  1.7359 -1.5402  0.0187
 3134SOL    HW220862   3.931   3.963   7.084  2.2094 -0.9069  1.5601
 3135SOL     OW20863   2.349   1.929   6.672 -0.0016 -0.2574 -0.5526
 3135SOL    HW120864   2.431   1.973   6.693 -0.2442 -0.5321  0.9782
 3135SOL    HW220865   2.386   1.867   6.610 -0.3696  0.1577 -1.1860
 3136SOL     OW20866   2.412   2.348   5.389  0.0259 -0.4246 -0.1096
 3136SOL    HW120867   2.338   2.345   5.328  0.9034 -1.8589 -1.0962
 3136SOL    HW220868   2.380   2.276   5.443  0.1793 -0.7164 -0.4060
 3137SOL     OW20869   4.217   4.694  12.428  0.2929  0.9606  0.4249
 3137SOL    HW120870   4.232   4.605  12.462  0.8565  0.8054 -0.2456
 3137SOL    HW220871   4.238   4.678  12.336 -1.0919  0.3464  0.2107
 3138SOL     OW20872   3.592   3.890  11.067 -0.9593 -0.2813 -0.1520
 3138SOL    HW120873   3.580   3.825  11.136 -0.1066  3.8276  3.9013
 3138SOL    HW220874   3.502   3.920  11.061 -1.5547 -2.2702 -1.2170
 3139SOL     OW20875   1.650   1.510   3.964 -0.1672  0.8014  0.0675
 3139SOL    HW120876   1.705   1.457   4.021 -0.8336 -2.4478 -2.3183
 3139SOL    HW220877   1.653   1.601   3.995  2.0026  0.8201 -0.1912
 3140SOL     OW20878   3.156   3.837  15.065  0.5509  0.3044 -0.6517
 3140SOL    HW120879   3.114   3.839  14.979 -1.1507  0.8931  0.2045
 3140SOL    HW220880   3.155   3.743  15.082  0.2588  0.0772 -1.9323
 3141SOL     OW20881   0.219   1.923   5.746 -0.4042 -0.5779 -0.8578
 3141SOL    HW120882   0.282   1.869   5.794 -1.3649 -1.4289 -0.5484
 3141SOL    HW220883   0.172   1.972   5.814 -1.0843  0.5200 -2.1353
 3142SOL     OW20884   1.425   3.837   8.530  0.2036 -0.4153 -0.3153
 3142SOL    HW120885   1.452   3.869   8.444 -0.2060  1.5755  0.3223
 3142SOL    HW220886   1.515   3.816   8.557 -0.5425 -0.5453  2.0341
 3143SOL     OW20887   3.652   3.791   4.738  0.1375  0.1085  0.1968
 3143SOL    HW120888   3.719   3.834   4.686  3.1741 -0.8357  3.3266
 3143SOL    HW220889   3.570   3.809   4.691  0.0682 -2.7758 -0.7347
 3144SOL     OW20890   1.037   2.327   7.132 -0.1791 -0.2244 -0.4598
 3144SOL    HW120891   1.063   2.237   7.113  1.3422  0.6449 -2.4832
 3144SOL    HW220892   0.956   2.320   7.183 -0.0783  1.0844 -0.1061
 3145SOL     OW20893   0.665   4.566  13.030 -0.1903  1.3115  0.3653
 3145SOL    HW120894   0.755   4.549  13.002 -0.3573  2.5319 -0.9335
 3145SOL    HW220895   0.641   4.629  12.961 -0.3083 -0.4797 -1.2240
 3146SOL     OW20896   3.632   1.923   5.453  0.7177  0.0985  0.5855
 3146SOL    HW120897   3.600   1.944   5.541 -0.0363  2.4758 -0.2553
 3146SOL    HW220898   3.580   1.982   5.398 -0.1747 -0.1847  1.1177
 3147SOL     OW20899   0.426   3.412  12.910  0.1257  0.0532  0.4115
 3147SOL    HW120900   0.338   3.386  12.883  0.1687  0.5721 -0.2070
 3147SOL    HW220901   0.487   3.349  12.870 -0.4900  1.4865 -2.7875
 3148SOL     OW20902   3.726   0.517  16.814  0.2936  0.1916 -0.4017
 3148SOL    HW120903   3.793   0.473  16.762  0.4085  1.8323 -1.6625
 3148SOL    HW220904   3.653   0.456  16.820 -0.3308  0.6475 -3.1096
 3149SOL     OW20905   1.237   1.316   6.392  0.1070 -0.0598 -0.1114
 3149SOL    HW120906   1.264   1.339   6.481 -0.6549 -0.3772  0.2008
 3149SOL    HW220907   1.260   1.223   6.395 -1.6096 -0.4791  0.3193
 3150SOL     OW20908   3.993   0.100  14.919 -0.5151 -0.5713 -0.1299
 3150SOL    HW120909   4.059   0.151  14.873 -0.4300 -0.1639  0.4497
 3150SOL    HW220910   3.998   0.031  14.852 -1.2693 -1.3398  0.5997
 3151SOL     OW20911   3.402   4.612   3.614 -0.2625 -0.2977 -0.2969
 3151SOL    HW120912   3.369   4.569   3.535 -0.2585 -0.6991 -0.0797
 3151SOL    HW220913   3.424   4.540   3.673 -3.5136  0.4587  1.8326
 3152SOL     OW20914   2.086   3.721  14.557 -0.2920  0.0483  0.2735
 3152SOL    HW120915   2.014   3.781  14.536 -0.4190 -0.3812 -0.5391
 3152SOL    HW220916   2.066   3.651  14.495 -0.5711 -1.8744  2.5362
 3153SOL     OW20917   1.802   2.961   6.121  0.1996  0.8900 -0.6934
 3153SOL    HW120918   1.892   2.987   6.140 -0.1497  0.7213  1.2341
 3153SOL    HW220919   1.769   2.962   6.211  1.9905 -1.3982 -0.0377
 3154SOL     OW20920   4.257   3.149   0.324 -0.2185  0.8781 -0.3073
 3154SOL    HW120921   4.318   3.198   0.380  0.2041 -1.1488  0.9933
 3154SOL    HW220922   4.262   3.192   0.238  2.5241 -1.7387 -1.4909
 3155SOL     OW20923   0.700   0.055   7.498  0.0207  0.0153 -0.2299
 3155SOL    HW120924   0.718   0.082   7.408 -1.9421 -0.2733 -0.6945
 3155SOL    HW220925   0.790   0.037   7.528  0.0025 -2.6971 -1.8133
 3156SOL     OW20926   1.523   3.858   1.739  0.1202 -0.3210 -0.6997
 3156SOL    HW120927   1.470   3.930   1.774 -0.3069 -1.4390  0.9461
 3156SOL    HW220928   1.517   3.873   1.645  0.7831 -0.2708 -0.7306
 3157SOL     OW20929   1.768   0.930   5.361 -0.1609 -0.2632  0.3400
 3157SOL    HW120930   1.825   1.004   5.338  0.8730 -0.9679  0.6043
 3157SOL    HW220931   1.808   0.860   5.309 -1.0677 -1.2111  0.9430
 3158SOL     OW20932   0.047   4.024   3.948  0.2945 -0.1549 -0.5037
 3158SOL    HW120933   0.100   4.091   3.907 -0.0191  0.2749 -0.2070
 3158SOL    HW220934   0.105   3.951   3.967  2.1143  1.5005  0.2631
 3159SOL     OW20935   1.795   4.659   4.146  0.0666 -0.6061  0.7029
 3159SOL    HW120936   1.713   4.615   4.123  0.5305 -0.9049 -0.3814
 3159SOL    HW220937   1.815   4.699   4.061 -1.8727  2.3599  1.6511
 3160SOL     OW20938   3.762   3.024   4.899 -0.4262 -0.3271  0.3568
 3160SOL    HW120939   3.808   2.980   4.970 -1.6720 -1.3666  0.5248
 3160SOL    HW220940   3.727   3.099   4.947  1.8146  2.5039 -2.4229
 3161SOL     OW20941   3.631   0.705   7.902 -0.3839  0.2501  0.2457
 3161SOL    HW120942   3.555   0.739   7.854 -1.8535  1.0372  3.1432
 3161SOL    HW220943   3.634   0.616   7.866 -0.1984 -0.1023  1.1312
 3162SOL     OW20944   1.301   2.889  12.561 -0.8659 -0.3906  0.3192
 3162SOL    HW120945   1.378   2.923  12.515 -0.5016 -0.3944  0.9291
 3162SOL    HW220946   1.347   2.883  12.645  0.5061 -0.1382 -0.4074
 3163SOL     OW20947   3.810   4.093   5.160 -0.0974  0.2834  0.0219
 3163SOL    HW120948   3.810   4.034   5.235 -0.9309  1.1867  0.7357
 3163SOL    HW220949   3.899   4.069   5.135 -0.1182  0.9905 -0.7018
 3164SOL     OW20950   2.817   0.623   5.999  0.3332  0.2223 -0.2485
 3164SOL    HW120951   2.836   0.712   6.029  1.9568  0.1962 -1.2480
 3164SOL    HW220952   2.869   0.628   5.919  0.6957 -2.7895 -0.1907
 3165SOL     OW20953   3.173   1.326   8.626  0.0063  0.1987 -0.4340
 3165SOL    HW120954   3.207   1.238   8.610 -1.8696 -0.5610 -0.1980
 3165SOL    HW220955   3.195   1.351   8.716 -3.4945  2.6156 -0.2443
 3166SOL     OW20956   2.370   3.468   7.573  0.3880  0.8557 -0.2606
 3166SOL    HW120957   2.301   3.402   7.586  1.3761 -0.2410 -0.5338
 3166SOL    HW220958   2.396   3.480   7.664  0.2051 -2.0874  0.2007
 3167SOL     OW20959   3.870   2.448   4.580 -0.2246  0.0829  0.3157
 3167SOL    HW120960   3.843   2.531   4.541 -0.2541  0.3059  0.7981
 3167SOL    HW220961   3.888   2.492   4.663 -1.1889 -0.3982  0.7786
 3168SOL     OW20962   1.299   3.439   8.478  0.8627  0.0927  0.2708
 3168SOL    HW120963   1.382   3.485   8.486  0.6219  0.4826  0.5243
 3168SOL    HW220964   1.283   3.461   8.387  1.1193  1.2650  0.5190
 3169SOL     OW20965   0.809   1.012  12.920 -0.2766 -0.8117 -0.1866
 3169SOL    HW120966   0.808   0.938  12.981 -0.9479  0.3550  1.2040
 3169SOL    HW220967   0.716   1.020  12.900 -0.5701 -1.9618  0.7290
 3170SOL     OW20968   1.585   2.235   1.295  0.1771  0.6793 -0.1121
 3170SOL    HW120969   1.591   2.248   1.390 -1.6437  3.1949 -0.3411
 3170SOL    HW220970   1.509   2.291   1.280  0.1943  0.6848 -0.1805
 3171SOL     OW20971   2.054   1.260   5.781  0.7130 -0.3273  0.1828
 3171SOL    HW120972   2.056   1.349   5.817  2.8094 -0.1855 -0.2926
 3171SOL    HW220973   2.146   1.237   5.784  0.8594 -0.0471 -1.8475
 3172SOL     OW20974   0.489   3.905   9.328 -0.4700  0.0257 -0.2869
 3172SOL    HW120975   0.505   3.949   9.245 -0.7306  2.0150  0.7099
 3172SOL    HW220976   0.397   3.923   9.346 -0.7783 -0.9860 -0.8771
 3173SOL     OW20977   1.325   1.284  16.697  0.0869  0.3702 -0.0078
 3173SOL    HW120978   1.373   1.245  16.770 -0.4512  0.9163  0.6244
 3173SOL    HW220979   1.255   1.336  16.737 -0.6046 -0.0135 -0.7248
 3174SOL     OW20980   3.148   0.696   6.889 -0.0360 -0.2860 -0.2186
 3174SOL    HW120981   3.159   0.723   6.980 -0.4505  0.0827 -0.2772
 3174SOL    HW220982   3.232   0.713   6.846  1.2131  0.4529  2.5032
 3175SOL     OW20983   3.684   2.765   6.399 -0.1074 -0.0159 -0.2474
 3175SOL    HW120984   3.739   2.746   6.475  0.8536  0.3616 -0.8473
 3175SOL    HW220985   3.741   2.836   6.370 -1.0716  0.8520 -0.0394
 3176SOL     OW20986   0.477   3.323   3.920 -0.2370  0.2499 -0.6940
 3176SOL    HW120987   0.546   3.372   3.965  0.7567 -2.8918  1.2007
 3176SOL    HW220988   0.518   3.237   3.917 -2.5717 -0.8540 -1.2770
 3177SOL     OW20989   1.909   3.408   7.856 -0.9294  0.0974  0.1305
 3177SOL    HW120990   1.932   3.471   7.788 -3.7725  1.8166  0.7671
 3177SOL    HW220991   1.875   3.464   7.925  2.9826  1.2179  1.1522
 3178SOL     OW20992   2.362   0.568  14.923  0.0471  0.0900 -0.1624
 3178SOL    HW120993   2.349   0.510  14.998 -0.4925  0.4682  0.0330
 3178SOL    HW220994   2.378   0.643  14.980  1.0962  1.0537 -1.7169
 3179SOL     OW20995   0.610   2.666   8.633  0.1157 -0.1858  0.0311
 3179SOL    HW120996   0.593   2.584   8.680 -1.9968  0.1896 -0.0851
 3179SOL    HW220997   0.518   2.692   8.630  0.0194 -0.4541  0.7849
 3180SOL     OW20998   0.018   1.368   6.241 -0.7323  0.7659 -0.3181
 3180SOL    HW120999   0.003   1.397   6.331 -2.6514  1.3319 -0.8383
 3180SOL    HW221000   4.647   1.347   6.220  0.4174 -0.7278 -3.7561
 3181SOL     OW21001   1.762   4.058   4.956  0.3859 -0.2974  0.4948
 3181SOL    HW121002   1.830   4.007   4.999  0.0797 -1.4778 -0.4169
 3181SOL    HW221003   1.717   4.102   5.028  3.0090  1.7449  0.8835
 3182SOL     OW21004   1.881   3.310   3.391  0.0401  0.0898  0.2063
 3182SOL    HW121005   1.877   3.320   3.486  0.5268 -2.0381  0.4469
 3182SOL    HW221006   1.808   3.253   3.368 -1.9220  2.9239 -0.6073
 3183SOL     OW21007   3.010   1.839   4.611 -0.4784  0.3504  0.1747
 3183SOL    HW121008   3.104   1.835   4.632 -0.3321  0.5139 -0.4501
 3183SOL    HW221009   2.984   1.770   4.672  1.3416 -0.6534 -0.1679
 3184SOL     OW21010   0.164   0.876  11.075  0.7446  0.2425  0.1637
 3184SOL    HW121011   0.151   0.813  11.004  0.2074  1.1173 -0.5163
 3184SOL    HW221012   0.185   0.820  11.150 -2.2695 -0.1113  0.7527
 3185SOL     OW21013   4.452   3.008   2.095 -0.0776  0.3218  0.0806
 3185SOL    HW121014   4.504   3.088   2.089 -1.9757  1.4617 -1.2214
 3185SOL    HW221015   4.418   3.007   2.005 -3.2397  0.3609  1.2688
 3186SOL     OW21016   1.838   3.657   6.789 -0.1356 -0.1083 -0.0533
 3186SOL    HW121017   1.868   3.676   6.878  1.8096  1.5964 -1.0641
 3186SOL    HW221018   1.754   3.702   6.792  0.2130  0.7379 -3.1043
 3187SOL     OW21019   0.442   0.303   0.110 -1.0299  0.0661 -0.2654
 3187SOL    HW121020   0.494   0.228   0.081 -1.2010 -0.1158 -0.1001
 3187SOL    HW221021   0.361   0.306   0.058 -1.1562  1.2441 -0.0129
 3188SOL     OW21022   0.817   2.384   5.471  0.5716  0.1861 -0.0722
 3188SOL    HW121023   0.753   2.425   5.529  0.0470 -0.9376  0.1501
 3188SOL    HW221024   0.822   2.297   5.510  1.2551  0.0786 -0.3972
 3189SOL     OW21025   0.694   0.951   1.505 -0.1699  0.8183 -0.1277
 3189SOL    HW121026   0.673   0.974   1.414 -1.4084 -1.6187 -0.4473
 3189SOL    HW221027   0.665   1.027   1.556  3.0818  1.1113  1.2828
 3190SOL     OW21028   1.355   3.304   5.257  0.1993  0.0336  0.3369
 3190SOL    HW121029   1.336   3.221   5.213 -0.1390 -0.0839  0.7011
 3190SOL    HW221030   1.277   3.351   5.228  0.3503 -0.2991 -0.6047
 3191SOL     OW21031   0.987   3.438  11.036 -0.1127 -0.3461  0.0393
 3191SOL    HW121032   0.900   3.471  11.058 -1.0790 -2.1343 -1.1809
 3191SOL    HW221033   1.028   3.452  11.122 -0.8242  0.3674  0.2640
 3192SOL     OW21034   2.570   0.794   5.570  0.0159 -0.2308 -0.2112
 3192SOL    HW121035   2.536   0.723   5.624  0.3384 -0.4852 -0.3415
 3192SOL    HW221036   2.662   0.801   5.596 -0.0271  2.3098 -0.7910
 3193SOL     OW21037   4.206   0.978  16.461  0.1513  0.5645  0.1590
 3193SOL    HW121038   4.181   1.070  16.474 -1.2075  0.5158 -2.1040
 3193SOL    HW221039   4.222   0.948  16.550 -3.0070  1.0084  0.8777
 3194SOL     OW21040   1.329   0.720   5.020  0.7826  0.1454  0.5916
 3194SOL    HW121041   1.347   0.649   5.081 -1.3041 -0.0607  0.9737
 3194SOL    HW221042   1.385   0.787   5.060  1.1357 -0.6633  1.4483
 3195SOL     OW21043   3.668   0.231  14.845  0.1468 -0.0488  0.0690
 3195SOL    HW121044   3.720   0.232  14.764  1.4650 -2.1088  0.9190
 3195SOL    HW221045   3.579   0.246  14.812  0.4189  1.2849 -0.0773
 3196SOL     OW21046   3.876   4.699  15.266 -0.6066 -0.3783 -0.1920
 3196SOL    HW121047   3.794   4.653  15.284 -0.9078  0.4168  0.4673
 3196SOL    HW221048   3.852   0.004  15.177 -2.9377  1.7543  1.0199
 3197SOL     OW21049   3.563   0.190   8.946 -0.4964  0.3276 -0.1149
 3197SOL    HW121050   3.648   0.219   8.915  0.5830 -1.0443  1.5463
 3197SOL    HW221051   3.510   0.270   8.950  0.7847  1.1759 -0.3349
 3198SOL     OW21052   3.940   1.307   3.932  0.0466 -0.0505  0.1565
 3198SOL    HW121053   4.029   1.298   3.966 -0.2848 -0.7563  0.8512
 3198SOL    HW221054   3.937   1.220   3.891 -1.3539  0.5579 -1.0386
 3199SOL     OW21055   4.108   2.763   8.327 -0.2664 -0.2949  0.1995
 3199SOL    HW121056   4.149   2.768   8.241 -1.5873  3.8772 -0.1478
 3199SOL    HW221057   4.115   2.668   8.344  2.0027  0.1024  1.4952
 3200SOL     OW21058   3.190   3.955   9.322  0.3906  0.0901  0.2030
 3200SOL    HW121059   3.196   3.870   9.365 -1.7835 -0.4544 -0.5626
 3200SOL    HW221060   3.275   3.983   9.354 -0.2300  0.7960  1.2485
 3201SOL     OW21061   2.714   3.280   6.202  0.1786  0.5000  0.0767
 3201SOL    HW121062   2.685   3.370   6.191  2.1823  1.3679  1.8615
 3201SOL    HW221063   2.740   3.287   6.293  0.8033 -2.5635  0.1578
 3202SOL     OW21064   4.511   4.338  14.634  0.1337 -0.0158 -0.7023
 3202SOL    HW121065   4.588   4.391  14.655 -0.4068  0.9766 -1.2078
 3202SOL    HW221066   4.440   4.400  14.652  0.0535 -0.0229 -1.0082
 3203SOL     OW21067   3.797   2.178   3.263  0.0823  0.0819 -0.0575
 3203SOL    HW121068   3.771   2.087   3.274  1.5509 -0.1899  1.1974
 3203SOL    HW221069   3.752   2.211   3.186 -1.0976  0.7253  0.8978
 3204SOL     OW21070   0.644   1.967  13.505 -0.0726  0.2009  0.0159
 3204SOL    HW121071   0.672   2.058  13.505  1.1647 -0.1769  0.0957
 3204SOL    HW221072   0.581   1.958  13.433 -0.8176 -0.3559  0.7277
 3205SOL     OW21073   2.972   1.679   4.095  0.4780  0.6261 -0.0321
 3205SOL    HW121074   2.917   1.685   4.017  0.4122  1.9760  0.1083
 3205SOL    HW221075   2.932   1.755   4.139  0.2594 -0.3542  1.4552
 3206SOL     OW21076   0.872   1.451   6.158  0.1148  0.0657  0.2251
 3206SOL    HW121077   0.875   1.532   6.209  0.6799  0.4761 -0.4668
 3206SOL    HW221078   0.846   1.481   6.071  0.7539  1.5919  0.5649
 3207SOL     OW21079   0.303   0.351   6.554  0.2331 -0.1707  0.0202
 3207SOL    HW121080   0.236   0.366   6.622 -0.3251 -0.4372 -0.4755
 3207SOL    HW221081   0.330   0.268   6.595 -1.6641 -1.7351 -1.8910
 3208SOL     OW21082   0.933   3.349   8.955 -0.3661  0.2234  0.0872
 3208SOL    HW121083   0.961   3.429   8.910 -0.2153  0.2011  0.1430
 3208SOL    HW221084   0.911   3.286   8.886 -3.0027  0.4029  0.7525
 3209SOL     OW21085   2.210   2.473   5.745  0.4454  0.3267 -0.1611
 3209SOL    HW121086   2.171   2.489   5.659 -0.3579 -6.3885 -1.0920
 3209SOL    HW221087   2.139   2.446   5.804  0.5286  1.3991  0.4354
 3210SOL     OW21088   0.873   4.522   7.857  0.0687  0.0688 -0.2620
 3210SOL    HW121089   0.945   4.576   7.825  1.5363 -2.6991 -1.6070
 3210SOL    HW221090   0.840   4.579   7.927  2.9706 -0.4859  1.5644
 3211SOL     OW21091   1.385   2.810  12.173  0.3164 -0.0812 -0.0564
 3211SOL    HW121092   1.336   2.731  12.197  1.7809 -0.4997  1.5312
 3211SOL    HW221093   1.470   2.800  12.217 -0.1337 -0.5901  0.6923
 3212SOL     OW21094   0.099   4.341  16.982  0.8919 -0.4121  0.3721
 3212SOL    HW121095   0.136   4.386  16.905  1.4974 -3.6566 -1.2376
 3212SOL    HW221096   0.067   4.263  16.937 -1.5261 -0.3026  1.9329
 3213SOL     OW21097   0.371   0.872   4.242  0.1079  0.4602  0.6068
 3213SOL    HW121098   0.275   0.866   4.246  0.0170  0.9237 -0.7610
 3213SOL    HW221099   0.393   0.965   4.237 -0.0435  0.3684 -2.0132
 3214SOL     OW21100   1.785   3.235   5.483  0.2567 -0.5497 -0.2239
 3214SOL    HW121101   1.790   3.306   5.419  1.1071 -0.4539 -0.0464
 3214SOL    HW221102   1.709   3.185   5.452 -1.4220  1.1961  1.0522
 3215SOL     OW21103   3.524   2.513  12.364 -0.4169 -1.1590  1.0861
 3215SOL    HW121104   3.448   2.460  12.341 -0.9450  0.0012  0.1913
 3215SOL    HW221105   3.496   2.580  12.426 -0.3979  0.6236 -0.8155
 3216SOL     OW21106   1.188   4.227   0.369  0.2108 -1.1233  0.0532
 3216SOL    HW121107   1.192   4.165   0.442 -1.4321 -0.7972  0.4127
 3216SOL    HW221108   1.267   4.279   0.359 -0.2484 -0.4603 -0.1090
 3217SOL     OW21109   4.036   1.983  10.067 -0.0752 -0.0235  0.4507
 3217SOL    HW121110   4.003   1.896  10.088 -1.0675 -0.0499 -1.1845
 3217SOL    HW221111   4.000   2.001   9.980 -0.1024 -2.2527 -0.0068
 3218SOL     OW21112   1.361   0.152   8.715 -0.8145 -0.4455  0.3923
 3218SOL    HW121113   1.309   0.075   8.691 -0.9564 -0.9587  2.3688
 3218SOL    HW221114   1.341   0.159   8.808 -1.3061  0.5060  0.2138
 3219SOL     OW21115   0.504   0.267  17.048  0.7666 -0.5625  0.1675
 3219SOL    HW121116   0.595   0.292  17.031 -0.0442  1.3039 -1.4408
 3219SOL    HW221117   0.500   0.183  17.002 -0.8548  1.0862 -2.7284
 3220SOL     OW21118   0.901   2.076  16.953 -0.2640 -0.1601  0.1953
 3220SOL    HW121119   0.891   2.122  16.870  0.8252  2.2650  1.4206
 3220SOL    HW221120   0.892   2.144  17.019  0.7368 -0.1719  0.3317
 3221SOL     OW21121   2.734   0.344   8.188  0.6561 -0.1111 -0.0036
 3221SOL    HW121122   2.683   0.330   8.268  0.7373 -1.3282 -0.1674
 3221SOL    HW221123   2.741   0.255   8.154  0.1394 -0.6164  1.2251
 3222SOL     OW21124   1.268   3.123   1.077  0.0256  0.1834  0.2991
 3222SOL    HW121125   1.181   3.144   1.110 -1.1735 -0.2033 -2.5764
 3222SOL    HW221126   1.254   3.030   1.060 -1.8024  0.4378  0.4031
 3223SOL     OW21127   4.604   1.118  13.952 -0.3340  0.3196  0.3838
 3223SOL    HW121128   4.628   1.077  14.035 -0.2823 -1.3942 -0.4802
 3223SOL    HW221129   4.687   1.153  13.919 -1.2637  2.8410  0.6835
 3224SOL     OW21130   1.282   0.577   2.277  0.2223  0.5013 -0.0567
 3224SOL    HW121131   1.229   0.498   2.283 -1.0331  1.3015 -0.7728
 3224SOL    HW221132   1.341   0.566   2.202 -1.6097 -1.8966 -1.1586
 3225SOL     OW21133   0.146   4.267  15.080  0.1071  0.1711 -0.0130
 3225SOL    HW121134   0.203   4.330  15.124 -3.4935  1.5589  2.7369
 3225SOL    HW221135   0.180   4.263  14.991 -0.5024 -0.3988 -0.2209
 3226SOL     OW21136   0.513   1.541   8.127  0.0226 -0.2486  0.1317
 3226SOL    HW121137   0.456   1.518   8.201  0.7620 -1.3498  0.3486
 3226SOL    HW221138   0.458   1.500   8.061  1.4066  2.1336 -2.4803
 3227SOL     OW21139   2.596   1.354  14.821  0.1951 -0.1474  0.1790
 3227SOL    HW121140   2.665   1.419  14.806 -0.6587  1.1084  1.7111
 3227SOL    HW221141   2.562   1.348  14.731  0.2566 -1.1898  0.2246
 3228SOL     OW21142   4.594   0.724  13.877 -0.5430  0.2463  0.1392
 3228SOL    HW121143   4.688   0.707  13.878 -0.5750 -0.2068 -2.4715
 3228SOL    HW221144   4.561   0.658  13.937 -0.8414  0.3864  0.1295
 3229SOL     OW21145   2.456   3.585   0.671  0.3288  0.0208 -0.5298
 3229SOL    HW121146   2.376   3.622   0.710 -0.1328 -2.8270  1.3066
 3229SOL    HW221147   2.493   3.662   0.629  0.2362  0.6258  0.4978
 3230SOL     OW21148   3.910   1.264   8.315 -0.1496 -0.0356  0.5296
 3230SOL    HW121149   3.876   1.290   8.401 -1.7858  1.7878 -0.6762
 3230SOL    HW221150   3.964   1.186   8.327 -1.6654 -1.1479  0.1200
 3231SOL     OW21151   3.997   0.006  10.905  0.0719  1.2282 -0.5641
 3231SOL    HW121152   3.964   0.026  10.817  1.1358  0.0098 -1.2383
 3231SOL    HW221153   4.087   0.034  10.888  1.0187 -1.5920 -0.2488
 3232SOL     OW21154   2.549   0.817   3.007  0.0217 -0.3354 -1.1796
 3232SOL    HW121155   2.460   0.806   3.040 -0.7224  1.9906 -2.3556
 3232SOL    HW221156   2.584   0.873   3.077 -2.0076 -0.7399  0.1412
 3233SOL     OW21157   3.004   3.032   8.738  0.3254 -0.4243 -0.6826
 3233SOL    HW121158   3.047   3.033   8.824 -0.1319 -1.2671 -0.4465
 3233SOL    HW221159   2.997   3.126   8.720  1.2100 -0.0542  0.8495
 3234SOL     OW21160   4.417   3.143  16.970 -0.1978  0.1979 -0.1524
 3234SOL    HW121161   4.458   3.229  16.961 -1.4421  0.9219  1.0113
 3234SOL    HW221162   4.366   3.152  16.889  0.4139 -1.7998 -0.7636
 3235SOL     OW21163   3.045   4.081   4.818  0.0190  0.6953  0.4943
 3235SOL    HW121164   3.040   4.163   4.768  0.6530 -0.9065 -2.1852
 3235SOL    HW221165   3.094   4.107   4.897 -1.0846 -0.0061  1.4043
 3236SOL     OW21166   0.125   1.046  12.803  0.0897 -0.4841 -0.2067
 3236SOL    HW121167   0.057   1.112  12.790 -0.5495 -0.9187  0.9358
 3236SOL    HW221168   0.191   1.078  12.742 -0.5243 -0.4852 -0.8700
 3237SOL     OW21169   2.945   2.711   3.349 -0.3915 -0.7701 -0.4405
 3237SOL    HW121170   2.954   2.644   3.280  0.0216  0.7709 -1.8750
 3237SOL    HW221171   2.960   2.659   3.428  0.9323  1.2502  0.6189
 3238SOL     OW21172   1.217   4.447   9.479  0.5552  0.9413 -0.3033
 3238SOL    HW121173   1.192   4.426   9.569  0.1832 -3.4180 -1.4114
 3238SOL    HW221174   1.209   4.361   9.439 -2.5711  0.6392  0.9879
 3239SOL     OW21175   3.136   3.967   1.138  0.4040 -0.2708 -0.6175
 3239SOL    HW121176   3.145   3.923   1.223  2.1395  1.8917  0.3234
 3239SOL    HW221177   3.132   4.058   1.165  1.6690  0.4677 -2.9305
 3240SOL     OW21178   0.248   1.187   1.590  0.0417  0.6099  0.3514
 3240SOL    HW121179   0.246   1.198   1.495  1.5410 -0.0994  0.2281
 3240SOL    HW221180   0.201   1.262   1.626  2.9375  1.0550  3.1985
 3241SOL     OW21181   2.784   3.840   2.138 -0.0933  0.0103 -0.6275
 3241SOL    HW121182   2.722   3.834   2.066 -1.7810 -0.3947  0.8422
 3241SOL    HW221183   2.841   3.767   2.112 -0.0573 -0.4833  0.7968
 3242SOL     OW21184   4.351   4.304  10.285  0.1159  0.0466 -0.4545
 3242SOL    HW121185   4.349   4.362  10.209 -2.4983  2.3249  1.4182
 3242SOL    HW221186   4.425   4.243  10.272 -1.0330 -1.8776  2.0503
 3243SOL     OW21187   0.418   0.462   6.199  0.0954  0.1081 -0.4867
 3243SOL    HW121188   0.474   0.520   6.147 -0.5783  1.6235  0.4620
 3243SOL    HW221189   0.351   0.429   6.139  1.4577 -1.0647 -1.3445
 3244SOL     OW21190   3.157   1.041   1.649  0.3068 -0.5931  0.0629
 3244SOL    HW121191   3.245   1.079   1.657  0.1138 -0.0136 -0.5311
 3244SOL    HW221192   3.140   1.049   1.743 -2.1357 -3.1397 -0.1676
 3245SOL     OW21193   3.722   1.881   8.667  0.0113  0.1687  0.0345
 3245SOL    HW121194   3.782   1.874   8.593  0.8677  0.5351  0.6989
 3245SOL    HW221195   3.780   1.926   8.728  0.2558 -0.8113  0.5310
 3246SOL     OW21196   3.744   0.104   3.061 -0.5222  0.3465  0.0289
 3246SOL    HW121197   3.764   0.047   3.135  0.0230 -0.8268 -1.0214
 3246SOL    HW221198   3.793   0.060   2.991 -0.2109  3.1457 -1.5042
 3247SOL     OW21199   2.613   3.041   2.637 -0.3339 -0.1438 -0.3308
 3247SOL    HW121200   2.695   3.088   2.620 -0.0361 -0.9574 -1.1641
 3247SOL    HW221201   2.639   2.961   2.682 -0.0104  0.2879  0.2486
 3248SOL     OW21202   2.033   4.159   8.947  0.2036 -0.1277 -0.0424
 3248SOL    HW121203   1.973   4.191   8.880  1.7006 -1.7674 -2.1677
 3248SOL    HW221204   2.017   4.226   9.014 -1.4780 -1.2810  0.6968
 3249SOL     OW21205   1.974   2.836   4.878  0.0302 -0.3594  0.5540
 3249SOL    HW121206   1.935   2.924   4.882  2.2707  0.5684  2.5060
 3249SOL    HW221207   2.041   2.848   4.946  0.2603  0.7167  0.1470
 3250SOL     OW21208   4.188   0.665   7.952 -0.2993 -0.5450  0.3837
 3250SOL    HW121209   4.194   0.734   7.886 -0.8962 -0.7798  0.0875
 3250SOL    HW221210   4.096   0.640   7.948 -0.6200  0.8587 -0.8499
 3251SOL     OW21211   2.588   4.161   8.636 -0.4478 -0.4143  0.4749
 3251SOL    HW121212   2.561   4.248   8.608  0.0562 -0.5386 -0.3893
 3251SOL    HW221213   2.681   4.179   8.647 -0.9912  1.2635  2.2875
 3252SOL     OW21214   1.638   2.668  17.017  0.4241 -0.1411 -0.4183
 3252SOL    HW121215   1.598   2.754  17.006  1.7811  0.3305 -1.6595
 3252SOL    HW221216   1.647   2.672  17.112 -2.8291 -0.2197 -0.1289
 3253SOL     OW21217   1.438   3.997   5.596  0.2801  0.3814 -0.4460
 3253SOL    HW121218   1.488   4.074   5.624 -1.4556  0.4937  2.3378
 3253SOL    HW221219   1.476   3.925   5.646 -0.1972 -0.7213 -1.6683
 3254SOL     OW21220   2.118   3.456   3.386  0.3214 -0.9321 -0.2482
 3254SOL    HW121221   2.145   3.432   3.475  0.4240 -1.0180 -0.3023
 3254SOL    HW221222   2.026   3.432   3.387 -0.6296  2.8339  1.7245
 3255SOL     OW21223   2.400   1.880   3.607  0.3557  0.5536  0.1148
 3255SOL    HW121224   2.429   1.932   3.532 -1.0237 -0.0211 -0.8046
 3255SOL    HW221225   2.442   1.798   3.582  2.5532  1.4204  0.9621
 3256SOL     OW21226   2.781   2.667   4.659 -0.1996  0.3892  0.1387
 3256SOL    HW121227   2.712   2.696   4.599  0.1051 -1.5395 -1.1417
 3256SOL    HW221228   2.761   2.718   4.737 -0.5689 -0.7163  0.7643
 3257SOL     OW21229   2.643   2.633   4.239  0.0788  0.3862  0.0848
 3257SOL    HW121230   2.724   2.682   4.221  0.3354 -0.3286 -0.7297
 3257SOL    HW221231   2.672   2.567   4.302 -0.7661 -0.2321 -0.1791
 3258SOL     OW21232   2.145   0.666   0.026  0.1378  0.7775  0.0099
 3258SOL    HW121233   2.099   0.598   0.075 -0.5066  1.2639  0.0672
 3258SOL    HW221234   2.187   0.712   0.099  1.4303 -4.1579  2.3922
 3259SOL     OW21235   4.414   1.824  16.222  0.4084  0.1491 -0.6671
 3259SOL    HW121236   4.458   1.749  16.263  0.2728 -0.6069 -1.9001
 3259SOL    HW221237   4.323   1.808  16.244  0.2677  3.1685  0.9452
 3260SOL     OW21238   4.604   1.159   7.831  0.3053  0.0979 -0.8356
 3260SOL    HW121239   4.602   1.254   7.841  0.8172  0.2272 -1.9810
 3260SOL    HW221240   4.587   1.135   7.922  1.5799 -0.7385 -0.8278
 3261SOL     OW21241   0.285   2.962   8.312 -0.3059  0.3167  0.1059
 3261SOL    HW121242   0.226   2.924   8.246 -1.4607 -0.8540  1.8324
 3261SOL    HW221243   0.231   3.036   8.339 -2.0370 -1.1677  0.7059
 3262SOL     OW21244   4.586   0.563   4.704 -0.2425  0.5923  0.1479
 3262SOL    HW121245   4.580   0.568   4.799 -2.8745 -1.3538  0.0916
 3262SOL    HW221246   4.521   0.627   4.677  0.3386  0.1477 -2.3300
 3263SOL     OW21247   0.418   1.326   6.400 -0.2672 -0.2641 -0.2268
 3263SOL    HW121248   0.378   1.276   6.471  0.1930 -1.5117 -0.8534
 3263SOL    HW221249   0.358   1.316   6.326  1.2033  2.5570 -1.8128
 3264SOL     OW21250   0.582   0.336   8.620  0.2239 -0.0972 -0.2782
 3264SOL    HW121251   0.536   0.411   8.580  0.8735 -0.2495 -1.3233
 3264SOL    HW221252   0.536   0.320   8.702 -0.9876 -0.1783 -0.9850
 3265SOL     OW21253   1.192   4.329   9.790 -0.0599  0.3005  0.2726
 3265SOL    HW121254   1.284   4.303   9.782  0.0038  1.0977 -1.5747
 3265SOL    HW221255   1.162   4.239   9.804 -1.6593  1.2003  2.5961
 3266SOL     OW21256   4.229   2.512   4.509 -0.5400  0.5333  0.0898
 3266SOL    HW121257   4.262   2.425   4.528 -0.9821  0.0188 -1.4843
 3266SOL    HW221258   4.304   2.549   4.461 -1.2114  2.3184  0.3975
 3267SOL     OW21259   3.902   0.457  10.494  0.0773  0.0946 -0.4783
 3267SOL    HW121260   3.907   0.362  10.504  1.5517  0.3198  0.8676
 3267SOL    HW221261   3.827   0.488  10.545  1.9121  4.7420 -0.5923
 3268SOL     OW21262   0.911   4.097   8.850  0.0326 -0.4481 -0.2179
 3268SOL    HW121263   0.933   4.186   8.824  0.1566 -0.0426  1.2781
 3268SOL    HW221264   0.896   4.058   8.764  0.7418  1.2459 -1.1073
 3269SOL     OW21265   0.391   3.592  13.357  0.3241  0.0760  0.1643
 3269SOL    HW121266   0.428   3.522  13.303  0.3023  0.5960 -0.5237
 3269SOL    HW221267   0.346   3.543  13.426  3.5515  0.3147  2.4726
 3270SOL     OW21268   1.446   1.345   2.505  0.0459  0.2746 -0.1916
 3270SOL    HW121269   1.444   1.288   2.582 -3.7678 -0.9343 -1.1751
 3270SOL    HW221270   1.533   1.316   2.480 -0.0484 -0.0957 -0.0816
 3271SOL     OW21271   3.987   2.346   9.982  0.2802  0.2965  0.3058
 3271SOL    HW121272   3.961   2.300  10.062  0.7920 -0.7745 -0.1432
 3271SOL    HW221273   4.071   2.377  10.017  0.0700  1.2992 -0.0694
 3272SOL     OW21274   0.666   2.021   5.233 -0.8430 -0.2465  0.3493
 3272SOL    HW121275   0.711   2.082   5.174 -0.7204  0.0828  0.7824
 3272SOL    HW221276   0.683   1.945   5.178 -3.2081  0.3710 -1.2151
 3273SOL     OW21277   0.452   3.822   5.558  0.2664  0.2251  0.1363
 3273SOL    HW121278   0.416   3.876   5.629  1.2639  0.1246  0.7244
 3273SOL    HW221279   0.520   3.877   5.520  0.1114 -1.4980 -2.6239
 3274SOL     OW21280   4.472   2.892   5.042  0.0142 -0.1101  0.0286
 3274SOL    HW121281   4.376   2.898   5.044  0.0433  0.5055 -0.7512
 3274SOL    HW221282   4.490   2.972   4.994  0.7253  0.6153  1.5039
 3275SOL     OW21283   1.730   1.833  17.298  0.1172 -0.1455 -0.5433
 3275SOL    HW121284   1.674   1.834  17.220  0.6590  0.3526 -0.9343
 3275SOL    HW221285   1.809   1.863  17.253  1.8182 -2.0185  1.2092
 3276SOL     OW21286   2.017   0.418   8.446  0.4772 -0.0962  0.2028
 3276SOL    HW121287   1.952   0.483   8.422 -2.0406 -2.5578  0.3856
 3276SOL    HW221288   2.064   0.449   8.523 -1.4181  1.8992  0.5559
 3277SOL     OW21289   1.668   2.829  11.805 -0.0631  0.4795  0.1915
 3277SOL    HW121290   1.624   2.914  11.808  1.7285  1.5050 -2.3864
 3277SOL    HW221291   1.602   2.789  11.749 -0.0768  2.6441 -1.3564
 3278SOL     OW21292   2.346   3.120   8.614 -0.3858 -0.6652  0.7263
 3278SOL    HW121293   2.392   3.037   8.626 -1.2359 -1.1227  0.9032
 3278SOL    HW221294   2.407   3.160   8.553  1.9119 -1.7536  2.3044
 3279SOL     OW21295   1.232   2.250   8.014 -0.3334 -0.4601 -0.2044
 3279SOL    HW121296   1.240   2.330   8.065  1.8960  0.3265 -1.7769
 3279SOL    HW221297   1.223   2.299   7.933  2.3742 -0.8006 -0.7189
 3280SOL     OW21298   3.786   0.839   6.683 -0.1723 -0.3661  0.0390
 3280SOL    HW121299   3.818   0.756   6.648 -2.0991 -1.6644  1.3476
 3280SOL    HW221300   3.706   0.854   6.632 -1.1059  0.7354  1.7963
 3281SOL     OW21301   4.184   1.278   7.495 -0.3853  0.8557 -0.2036
 3281SOL    HW121302   4.255   1.341   7.503 -1.1547  1.8599 -1.4154
 3281SOL    HW221303   4.159   1.301   7.406  1.4563  0.8620 -0.7196
 3282SOL     OW21304   3.769   4.538   2.731  0.7274  0.1924  0.2979
 3282SOL    HW121305   3.711   4.506   2.663  0.8405 -1.9089  1.1953
 3282SOL    HW221306   3.851   4.499   2.702  1.1749 -0.2599  2.1289
 3283SOL     OW21307   1.334   0.617   3.094 -0.0412 -0.1119 -0.0722
 3283SOL    HW121308   1.254   0.585   3.053 -0.4169  0.1806  0.4318
 3283SOL    HW221309   1.338   0.698   3.043  1.6841 -1.0534 -1.4438
 3284SOL     OW21310   0.919   3.837  17.602 -0.6308 -0.0076 -0.2715
 3284SOL    HW121311   0.947   3.749  17.630 -0.7627  0.8159  2.4742
 3284SOL    HW221312   0.986   3.868  17.541 -0.7156  2.6528  1.0128
 3285SOL     OW21313   1.195   3.372  13.718  0.3651 -0.1201  0.1605
 3285SOL    HW121314   1.146   3.336  13.792 -0.2434 -0.7736 -0.5665
 3285SOL    HW221315   1.136   3.358  13.645  0.5258  3.2003 -0.5988
 3286SOL     OW21316   2.384   2.077  16.016 -0.0693  0.1758  0.1033
 3286SOL    HW121317   2.353   2.115  16.098  1.4425 -0.0745  0.7923
 3286SOL    HW221318   2.441   2.147  15.986  0.7428 -1.3022 -1.8213
 3287SOL     OW21319   1.608   2.618   5.150 -0.2073 -0.5218  0.3676
 3287SOL    HW121320   1.650   2.533   5.134 -2.8180 -1.5186 -1.2238
 3287SOL    HW221321   1.515   2.604   5.130 -0.1563  2.1252 -1.7225
 3288SOL     OW21322   3.537   2.115   3.835  0.1631 -0.2643 -0.1552
 3288SOL    HW121323   3.527   2.054   3.761 -0.9510 -2.8711  2.1549
 3288SOL    HW221324   3.495   2.067   3.906 -2.9471  1.2577 -0.9778
 3289SOL     OW21325   0.853   1.555   0.155  0.4589 -0.2939  0.2287
 3289SOL    HW121326   0.883   1.644   0.142 -2.8827  0.3607 -2.9902
 3289SOL    HW221327   0.763   1.563   0.122  0.3070 -1.1150  0.4183
 3290SOL     OW21328   1.377   4.221   3.764 -0.1768  0.2082 -0.1217
 3290SOL    HW121329   1.416   4.139   3.796  0.7058  0.4814 -0.4913
 3290SOL    HW221330   1.285   4.205   3.786 -1.0713  2.4692 -2.2074
 3291SOL     OW21331   2.587   1.326  15.852 -0.3418 -0.2333  0.9144
 3291SOL    HW121332   2.503   1.283  15.871 -0.5050 -0.2200  0.2360
 3291SOL    HW221333   2.584   1.398  15.914  4.3670 -0.2151  1.1123
 3292SOL     OW21334   4.689   1.294  15.897  0.3722  0.0213  0.1052
 3292SOL    HW121335   0.031   1.244  15.842  0.3104 -0.8591  0.8377
 3292SOL    HW221336   0.009   1.382  15.893 -0.8665  0.6147  1.4024
 3293SOL     OW21337   2.879   1.844   8.546 -0.5286 -1.0229 -0.3337
 3293SOL    HW121338   2.914   1.755   8.548 -1.2134 -1.3045 -1.0114
 3293SOL    HW221339   2.938   1.895   8.602 -0.6289 -1.0966 -0.1578
 3294SOL     OW21340   1.321   2.148  12.228  0.3012  0.0491 -0.5531
 3294SOL    HW121341   1.412   2.145  12.198 -0.0161 -2.9139 -1.2350
 3294SOL    HW221342   1.282   2.137  12.142  0.2151  2.0438 -0.7679
 3295SOL     OW21343   2.779   4.049   4.131  0.6863 -0.3512 -0.2995
 3295SOL    HW121344   2.796   4.100   4.210 -1.0569 -1.8995  1.0833
 3295SOL    HW221345   2.815   3.962   4.147 -0.1659 -0.7715 -0.6613
 3296SOL     OW21346   4.103   0.133  15.209  0.4987 -0.1891 -0.1633
 3296SOL    HW121347   4.021   0.097  15.244 -0.2299  1.7469  0.1296
 3296SOL    HW221348   4.067   0.156  15.123  2.5844  3.2943 -0.0819
 3297SOL     OW21349   4.226   3.465  16.945  0.3712 -0.5647 -0.4304
 3297SOL    HW121350   4.183   3.380  16.960 -1.0199  0.3830  0.8519
 3297SOL    HW221351   4.150   3.522  16.941 -0.7091 -2.0406 -0.9599
 3298SOL     OW21352   4.109   4.619   9.907 -0.3038 -0.3816 -0.6303
 3298SOL    HW121353   4.094   4.616   9.813 -0.4402 -4.4624 -0.4512
 3298SOL    HW221354   4.139   4.710   9.917 -0.1313 -0.4141 -0.8573
 3299SOL     OW21355   3.292   0.218  13.913 -0.2717 -0.0698  0.3260
 3299SOL    HW121356   3.285   0.308  13.943 -1.2550 -0.1442  0.3142
 3299SOL    HW221357   3.317   0.221  13.821 -3.1180 -1.6756 -0.4904
 3300SOL     OW21358   0.548   4.078   7.215  0.3777  0.2841  0.7849
 3300SOL    HW121359   0.560   4.143   7.146  1.3458 -1.0285 -0.3005
 3300SOL    HW221360   0.564   4.128   7.295 -0.1165 -0.0076  1.0674
 3301SOL     OW21361   0.434   1.137   8.076  0.2051  0.3602  0.2817
 3301SOL    HW121362   0.469   1.070   8.135 -2.8722  0.1028  1.8020
 3301SOL    HW221363   0.512   1.193   8.073 -0.5080  1.2639 -1.3855
 3302SOL     OW21364   3.266   4.507  13.015 -0.4288 -0.2824  0.6624
 3302SOL    HW121365   3.326   4.480  13.084  1.5272  2.6467  0.0982
 3302SOL    HW221366   3.245   4.423  12.975  1.2150 -0.4144  0.0705
 3303SOL     OW21367   3.023   3.850   9.130 -0.5888 -0.3630 -0.4074
 3303SOL    HW121368   3.056   3.895   9.208 -0.4090  1.1315 -1.3607
 3303SOL    HW221369   2.949   3.901   9.098  0.0252 -0.7677 -2.4799
 3304SOL     OW21370   2.946   4.124  17.540  0.1098 -0.0502  0.2986
 3304SOL    HW121371   2.911   4.136  17.629 -1.6501  0.0862 -0.4132
 3304SOL    HW221372   2.879   4.167  17.486  0.0276 -0.2262  0.2605
 3305SOL     OW21373   1.449   2.882   7.407 -0.1374 -1.0764  0.5491
 3305SOL    HW121374   1.540   2.858   7.392 -0.1103 -0.3601 -0.4378
 3305SOL    HW221375   1.444   2.845   7.495  1.3215 -3.7141 -0.5121
 3306SOL     OW21376   0.832   0.980  14.873 -0.2827  0.3747  0.2680
 3306SOL    HW121377   0.918   0.940  14.885 -1.7540 -2.5812  0.8674
 3306SOL    HW221378   0.849   1.073  14.891 -0.5628  0.5779 -0.4796
 3307SOL     OW21379   3.651   3.648  12.696 -0.5280  0.2474  0.3117
 3307SOL    HW121380   3.728   3.658  12.751  1.1282  1.3677 -2.2499
 3307SOL    HW221381   3.588   3.598  12.748 -0.4670 -0.5144 -0.3289
 3308SOL     OW21382   2.087   1.661   5.745  0.2797 -0.0698  0.8498
 3308SOL    HW121383   2.178   1.677   5.718  0.3552 -0.6989  0.7463
 3308SOL    HW221384   2.045   1.723   5.684  0.0598 -1.2282 -0.1906
 3309SOL     OW21385   4.027   2.276   9.733 -0.1167  0.2370  0.3998
 3309SOL    HW121386   4.005   2.283   9.826  2.0195  1.1427  0.8447
 3309SOL    HW221387   4.120   2.255   9.735 -0.3108 -0.7271 -0.5654
 3310SOL     OW21388   1.648   4.200   8.303  0.3561 -0.2508  0.2439
 3310SOL    HW121389   1.625   4.286   8.338  0.5632 -0.5789  1.1724
 3310SOL    HW221390   1.710   4.223   8.234 -1.4582 -0.4902 -1.4850
 3311SOL     OW21391   1.457   4.398   4.265 -0.0229  0.0906 -0.2916
 3311SOL    HW121392   1.412   4.482   4.277 -2.3289 -1.3010  0.9462
 3311SOL    HW221393   1.407   4.342   4.324 -1.2222  1.4570  0.0082
 3312SOL     OW21394   2.861   4.064  14.496 -0.2876  0.8054  0.0965
 3312SOL    HW121395   2.952   4.091  14.510  0.4158 -1.4390 -0.0716
 3312SOL    HW221396   2.869   3.970  14.514  0.8156  1.7068  4.3870
 3313SOL     OW21397   2.324   2.263   7.410  0.8635 -0.3765  0.1769
 3313SOL    HW121398   2.231   2.267   7.430  1.3010  0.7743  2.0368
 3313SOL    HW221399   2.323   2.331   7.343  0.3654 -2.1795 -1.6346
 3314SOL     OW21400   1.669   2.628   8.351 -0.2596 -0.0981 -0.1460
 3314SOL    HW121401   1.643   2.628   8.443 -1.4305 -2.1702 -0.4620
 3314SOL    HW221402   1.657   2.720   8.328 -1.2846 -0.2266 -0.1212
 3315SOL     OW21403   1.556   3.828   0.779  0.2861  0.4829 -0.2102
 3315SOL    HW121404   1.522   3.792   0.697  0.2972 -0.1691  0.0709
 3315SOL    HW221405   1.494   3.794   0.843  0.2605 -1.8336 -1.4686
 3316SOL     OW21406   1.399   4.148  13.086  0.2165 -0.5292  0.3818
 3316SOL    HW121407   1.426   4.202  13.011  1.0098 -1.4481 -0.0001
 3316SOL    HW221408   1.313   4.113  13.061  0.4389  1.3433 -3.1420
 3317SOL     OW21409   3.478   1.275  11.006 -0.4083  0.0783  0.9202
 3317SOL    HW121410   3.387   1.250  11.024 -0.3851 -0.8182 -0.1930
 3317SOL    HW221411   3.464   1.347  10.944 -3.1502 -1.9350 -0.8227
 3318SOL     OW21412   0.984   3.592   6.597 -0.4032 -0.1593  0.3531
 3318SOL    HW121413   1.052   3.633   6.544 -1.0546 -0.0645 -0.4270
 3318SOL    HW221414   0.999   3.507   6.555 -3.0425 -0.2328 -0.4505
 3319SOL     OW21415   4.110   3.461   2.626  0.6153 -0.0863  0.0697
 3319SOL    HW121416   4.107   3.551   2.596  0.7180 -0.5421 -1.3178
 3319SOL    HW221417   4.019   3.432   2.632 -0.3755  2.7318 -1.2538
 3320SOL     OW21418   1.328   0.790   5.982  0.5827 -0.0503 -0.4839
 3320SOL    HW121419   1.249   0.755   5.941  0.1280 -0.2877  0.6096
 3320SOL    HW221420   1.329   0.881   5.952 -1.6946  0.4574  1.0184
 3321SOL     OW21421   1.130   3.796   8.526  0.2688  0.5338 -0.3988
 3321SOL    HW121422   1.218   3.828   8.505  0.2988 -0.1747 -1.3771
 3321SOL    HW221423   1.131   3.814   8.620 -1.0712  0.2037 -0.3215
 3322SOL     OW21424   3.309   0.296  12.964 -0.1819 -0.1247  0.0680
 3322SOL    HW121425   3.254   0.293  13.042 -1.9859  1.0535 -1.1637
 3322SOL    HW221426   3.399   0.317  12.990  0.2718 -3.6089  1.2922
 3323SOL     OW21427   4.690   3.242   6.681 -0.3632 -0.0302  0.0268
 3323SOL    HW121428   0.043   3.283   6.633  0.0023  1.1400  1.5686
 3323SOL    HW221429   4.710   3.153   6.708  0.8627 -0.2636 -1.6657
 3324SOL     OW21430   0.400   0.392   4.640 -0.0327  0.4614  0.5448
 3324SOL    HW121431   0.451   0.463   4.678 -0.1778  0.5213  0.6268
 3324SOL    HW221432   0.404   0.414   4.547  0.9678 -0.3816  0.3881
 3325SOL     OW21433   2.035   2.682   2.550  1.2329  0.1670  0.5701
 3325SOL    HW121434   1.994   2.600   2.522  0.9283  0.1195  1.1393
 3325SOL    HW221435   2.127   2.658   2.557  0.9800 -0.9788 -0.0674
 3326SOL     OW21436   0.587   3.619  13.002 -0.9373  0.0997 -0.3060
 3326SOL    HW121437   0.608   3.583  13.088 -0.8351 -0.5546 -0.6040
 3326SOL    HW221438   0.521   3.556  12.973 -0.5085 -0.6387  0.3198
 3327SOL     OW21439   2.547   3.189   2.057  0.4746  0.0277 -0.5744
 3327SOL    HW121440   2.508   3.114   2.102  3.2460  0.3011  2.2198
 3327SOL    HW221441   2.472   3.203   1.999  1.2495 -1.0057 -1.8450
 3328SOL     OW21442   4.236   3.909   3.790 -0.1707  0.3004 -0.1760
 3328SOL    HW121443   4.171   3.839   3.780  0.8599 -0.7459  0.3717
 3328SOL    HW221444   4.317   3.868   3.761  1.1698  2.4150  0.6119
 3329SOL     OW21445   3.250   1.660   4.319 -0.5542 -0.1309 -0.1607
 3329SOL    HW121446   3.169   1.614   4.340 -1.2647  0.9506 -0.5533
 3329SOL    HW221447   3.226   1.752   4.322  1.2559  0.3409 -0.4168
 3330SOL     OW21448   2.184   0.507   2.383  0.4884  0.2146  0.5079
 3330SOL    HW121449   2.179   0.444   2.454 -1.5823  0.1935  0.3268
 3330SOL    HW221450   2.260   0.474   2.334 -1.8070 -3.2356 -0.6829
 3331SOL     OW21451   3.355   0.680   1.977 -0.3627  0.4040 -0.2303
 3331SOL    HW121452   3.417   0.734   1.928  0.7449 -2.2688 -1.7382
 3331SOL    HW221453   3.382   0.589   1.966  2.5508  1.4652 -1.8140
 3332SOL     OW21454   2.875   1.270  13.134 -0.0064  0.8507 -0.6446
 3332SOL    HW121455   2.927   1.339  13.176  3.1755 -1.0391 -1.4902
 3332SOL    HW221456   2.844   1.315  13.055  1.9457  1.5496 -1.0052
 3333SOL     OW21457   3.647   2.650  13.925  0.0672 -0.6673 -0.2511
 3333SOL    HW121458   3.597   2.695  13.993  1.5348  0.5720 -0.0055
 3333SOL    HW221459   3.611   2.561  13.930  2.1327 -1.4480  0.5890
 3334SOL     OW21460   3.216   0.963  13.720 -0.1024  0.0185  0.5993
 3334SOL    HW121461   3.170   1.045  13.705 -1.1303 -0.4804  0.9957
 3334SOL    HW221462   3.306   0.989  13.705  0.3509  0.9158  5.0245
 3335SOL     OW21463   3.501   1.968  15.636  0.0350 -0.1908 -0.4281
 3335SOL    HW121464   3.432   1.909  15.606 -0.4589 -0.0135  0.3354
 3335SOL    HW221465   3.488   1.949  15.729  0.8509 -2.7613 -0.8428
 3336SOL     OW21466   1.325   2.887   8.396 -0.6383 -0.5949 -0.0417
 3336SOL    HW121467   1.296   2.878   8.305 -0.2102 -2.4293 -0.0031
 3336SOL    HW221468   1.309   2.978   8.418  0.3499 -0.1425 -1.2212
 3337SOL     OW21469   4.533   4.567   9.916  0.3470  0.9245 -0.2034
 3337SOL    HW121470   4.586   4.633   9.870  1.3420 -0.2100 -0.6792
 3337SOL    HW221471   4.594   4.557   9.989 -1.0898 -1.2899  0.6833
 3338SOL     OW21472   3.320   0.585   4.247  0.3042 -0.4477 -0.4640
 3338SOL    HW121473   3.391   0.603   4.186 -1.7545 -0.4812 -2.8996
 3338SOL    HW221474   3.247   0.577   4.185 -2.5541 -2.6710  3.2110
 3339SOL     OW21475   1.343   4.315  10.641  0.2515 -0.1422 -0.2557
 3339SOL    HW121476   1.432   4.326  10.676  0.4414  4.0493 -1.9784
 3339SOL    HW221477   1.343   4.389  10.580 -0.9796  0.7064  0.7736
 3340SOL     OW21478   2.413   4.469   1.847 -0.0742 -0.1212 -0.5005
 3340SOL    HW121479   2.409   4.540   1.784 -0.2910 -1.9162 -2.5335
 3340SOL    HW221480   2.352   4.508   1.910 -1.2440 -0.3804 -1.4611
 3341SOL     OW21481   4.284   1.833   2.428  0.7503 -0.4878  0.5901
 3341SOL    HW121482   4.244   1.746   2.423 -1.2785  0.4638  0.3385
 3341SOL    HW221483   4.277   1.868   2.339 -0.5435  2.7910  2.0019
 3342SOL     OW21484   1.590   2.443   8.168 -0.3818  0.0715  0.1718
 3342SOL    HW121485   1.524   2.396   8.219  0.2444 -0.9709  0.0192
 3342SOL    HW221486   1.644   2.490   8.232  2.1375  0.0244 -1.9010
 3343SOL     OW21487   3.522   3.055   3.109 -0.7888  0.7536  0.0398
 3343SOL    HW121488   3.617   3.062   3.105 -0.8456  0.0791 -2.5394
 3343SOL    HW221489   3.505   3.011   3.025 -3.9034  0.2665  0.9355
 3344SOL     OW21490   0.708   2.832   5.769 -0.2125  0.2277 -0.3410
 3344SOL    HW121491   0.794   2.844   5.808  0.2965 -1.4781 -0.9331
 3344SOL    HW221492   0.652   2.849   5.845 -0.2642  0.0876 -0.3470
 3345SOL     OW21493   2.529   1.545  14.075 -0.4501  0.1214 -0.3594
 3345SOL    HW121494   2.439   1.525  14.053 -0.1527  0.4664 -1.8737
 3345SOL    HW221495   2.521   1.524  14.168 -0.0783 -1.3226 -0.6487
 3346SOL     OW21496   0.268   2.147   5.529  0.2184  0.3659 -0.4691
 3346SOL    HW121497   0.302   2.236   5.515 -0.1767  0.3606 -1.4682
 3346SOL    HW221498   0.298   2.127   5.618  1.4910 -2.3954 -1.5190
 3347SOL     OW21499   0.741   0.398   8.937  0.1495  0.5190  0.4408
 3347SOL    HW121500   0.674   0.379   9.004 -1.0950  2.3810 -0.2786
 3347SOL    HW221501   0.818   0.378   8.990 -0.0759  0.2486  0.6683
 3348SOL     OW21502   0.117   2.123  12.156 -0.7046 -0.5943 -0.7099
 3348SOL    HW121503   0.189   2.122  12.218 -2.0555  0.3844  0.8894
 3348SOL    HW221504   0.147   2.194  12.100  1.2521 -1.2346 -0.4788
 3349SOL     OW21505   4.193   2.501   5.644  0.3266  0.0554 -0.8288
 3349SOL    HW121506   4.265   2.447   5.676 -1.7877 -1.5513  1.2140
 3349SOL    HW221507   4.117   2.462   5.688  1.5909  0.0310  1.3361
 3350SOL     OW21508   1.428   1.153   9.625  0.1249 -0.3659  0.0189
 3350SOL    HW121509   1.522   1.141   9.610 -0.2480 -0.6101 -2.2087
 3350SOL    HW221510   1.432   1.237   9.670  2.7422  1.0265 -2.7516
 3351SOL     OW21511   3.920   3.598   4.121 -0.2235 -0.2198 -0.0130
 3351SOL    HW121512   3.847   3.539   4.143 -0.5791  1.0231  2.1709
 3351SOL    HW221513   3.970   3.566   4.196  0.3814 -0.1256 -0.3758
 3352SOL     OW21514   1.428   3.197   2.088  0.2940 -0.0896 -0.3915
 3352SOL    HW121515   1.464   3.236   2.008 -0.7972 -2.4545 -2.0216
 3352SOL    HW221516   1.336   3.214   2.067  0.1723  1.7866  1.6563
 3353SOL     OW21517   3.924   1.541   1.917 -0.0635  0.0425 -0.1750
 3353SOL    HW121518   3.955   1.459   1.880  0.7823  0.9907 -1.6173
 3353SOL    HW221519   3.954   1.608   1.855 -0.2119 -2.3813 -2.8461
 3354SOL     OW21520   0.903   1.123   3.303  0.4169 -0.3091  0.6626
 3354SOL    HW121521   0.820   1.165   3.277  0.3843 -0.1189  1.0786
 3354SOL    HW221522   0.875   1.066   3.374  0.2793  0.7889  1.4797
 3355SOL     OW21523   0.615   0.831  14.932  0.2972 -0.0702 -0.2725
 3355SOL    HW121524   0.585   0.892  14.999  0.0630  0.1248 -0.5582
 3355SOL    HW221525   0.689   0.885  14.904 -0.2743  0.8207 -0.0396
 3356SOL     OW21526   2.115   2.550   6.701 -0.4791  0.0960  0.2359
 3356SOL    HW121527   2.185   2.585   6.755  0.6487 -0.4559 -0.8557
 3356SOL    HW221528   2.050   2.527   6.767 -0.1800 -2.0679 -0.2223
 3357SOL     OW21529   0.247   1.566   5.900 -0.4207 -0.1771  0.2940
 3357SOL    HW121530   0.317   1.501   5.896 -1.0655 -0.7870 -1.2609
 3357SOL    HW221531   0.301   1.642   5.919  3.4824 -2.5853 -1.2273
 3358SOL     OW21532   1.784   0.584   1.403  0.3834 -0.0695  0.4625
 3358SOL    HW121533   1.830   0.549   1.327  2.1089  0.3139  1.3288
 3358SOL    HW221534   1.784   0.675   1.372  0.8504  0.1427  1.0872
 3359SOL     OW21535   1.723   4.353   3.799  0.4370  0.0041  0.0237
 3359SOL    HW121536   1.736   4.273   3.849 -0.5895 -0.2452 -0.1212
 3359SOL    HW221537   1.694   4.412   3.868  0.5079 -0.8243  0.7606
 3360SOL     OW21538   0.009   4.363   0.621 -0.2284 -0.1329  0.0247
 3360SOL    HW121539   0.077   4.303   0.593 -1.0575 -0.8290 -0.4815
 3360SOL    HW221540   0.058   4.423   0.677  1.2045  0.5516 -1.9344
 3361SOL     OW21541   3.920   4.302  13.562  0.2032 -0.0811  0.2363
 3361SOL    HW121542   3.924   4.396  13.578  0.2662  0.1082 -0.8747
 3361SOL    HW221543   4.006   4.278  13.597  0.1846  1.0824  1.0620
 3362SOL     OW21544   1.153   0.208   3.061 -0.0091 -0.3809  0.2139
 3362SOL    HW121545   1.062   0.217   3.032 -0.2866  0.7126  1.4026
 3362SOL    HW221546   1.196   0.264   2.997  0.0139 -0.9424 -0.2630
 3363SOL     OW21547   2.556   1.816  15.013  0.4076  0.0041  0.2504
 3363SOL    HW121548   2.622   1.880  15.040 -1.8740  2.6981 -0.4901
 3363SOL    HW221549   2.580   1.734  15.055 -2.0139 -0.7686  0.1590
 3364SOL     OW21550   2.659   0.941   2.051  0.3556  0.0511  0.0122
 3364SOL    HW121551   2.722   0.904   1.989 -0.2554 -1.0939  0.0714
 3364SOL    HW221552   2.655   0.874   2.119 -2.8656  0.9898  0.7468
 3365SOL     OW21553   2.342   2.698   0.739  0.1325 -0.3434  0.7288
 3365SOL    HW121554   2.394   2.668   0.665  0.0614  1.1279  0.0877
 3365SOL    HW221555   2.254   2.668   0.716 -0.3515  2.6017 -1.2936
 3366SOL     OW21556   0.854   1.078   8.642  0.0467 -0.1655  0.0258
 3366SOL    HW121557   0.907   1.024   8.583 -1.7405 -0.4292 -1.3602
 3366SOL    HW221558   0.799   1.008   8.679 -2.0475  0.6171 -1.6286
 3367SOL     OW21559   1.841   0.723   2.794 -0.1552 -0.1262 -0.1259
 3367SOL    HW121560   1.861   0.665   2.867  1.5677 -1.2569 -1.4928
 3367SOL    HW221561   1.750   0.739   2.819 -0.4833  1.1781 -2.1509
 3368SOL     OW21562   3.420   4.192  14.500 -0.3844 -0.2710  0.3408
 3368SOL    HW121563   3.434   4.184  14.406  0.2994  0.2794  0.3957
 3368SOL    HW221564   3.438   4.101  14.525 -1.5531 -0.7159 -0.4522
 3369SOL     OW21565   2.552   1.446  14.329  0.4962  0.0131 -0.3497
 3369SOL    HW121566   2.579   1.407  14.412 -1.1240 -1.1336 -0.3770
 3369SOL    HW221567   2.504   1.376  14.286 -1.3126 -0.0913  1.8596
 3370SOL     OW21568   1.700   4.460  12.519 -0.0232  0.4143 -0.2402
 3370SOL    HW121569   1.617   4.460  12.472  1.6975  1.3728 -3.2782
 3370SOL    HW221570   1.677   4.455  12.612 -0.1749 -3.6641 -0.5151
 3371SOL     OW21571   2.715   1.854   8.295 -0.6560 -0.3903 -0.0141
 3371SOL    HW121572   2.797   1.804   8.285 -0.2580 -0.0584  1.6376
 3371SOL    HW221573   2.668   1.827   8.216 -0.2142  0.5742 -0.6043
 3372SOL     OW21574   2.542   1.224  11.465 -0.8605 -0.4054 -0.1950
 3372SOL    HW121575   2.591   1.155  11.420  0.7065 -0.2127  1.2001
 3372SOL    HW221576   2.610   1.289  11.484  0.2908 -2.0478  1.3318
 3373SOL     OW21577   4.656   2.035   3.433  0.1653 -0.2916  0.1944
 3373SOL    HW121578   4.646   1.963   3.371 -0.6720  0.1599 -0.1976
 3373SOL    HW221579   0.029   2.060   3.438  0.0450 -0.0866  1.4415
 3374SOL     OW21580   2.073   3.435  11.638 -0.5858 -0.1123 -0.4145
 3374SOL    HW121581   2.045   3.367  11.578 -3.1952  1.5347 -1.0436
 3374SOL    HW221582   2.051   3.517  11.592  0.9211 -0.1938 -1.2871
 3375SOL     OW21583   0.925   1.219   7.024  0.3333  0.2979  0.0514
 3375SOL    HW121584   0.876   1.142   6.997  1.6347 -0.6778  0.4972
 3375SOL    HW221585   0.866   1.275   7.075 -1.8197 -0.3391 -1.7097
 3376SOL     OW21586   3.172   3.749   6.430  0.0821  0.6244  0.4975
 3376SOL    HW121587   3.077   3.750   6.415  0.0170 -0.9179  0.7780
 3376SOL    HW221588   3.200   3.838   6.407 -3.3551  1.5546 -0.1730
 3377SOL     OW21589   1.815   3.366   3.916  0.2095 -0.3028  0.4152
 3377SOL    HW121590   1.796   3.452   3.951  1.7344  1.2277 -2.5003
 3377SOL    HW221591   1.911   3.371   3.919  0.2257 -0.1979 -0.3087
 3378SOL     OW21592   4.345   2.250   5.191 -0.0388 -0.3339 -0.3083
 3378SOL    HW121593   4.295   2.183   5.144  0.6661 -0.8663 -0.3044
 3378SOL    HW221594   4.389   2.194   5.256  0.2366 -0.1641 -0.3512
 3379SOL     OW21595   3.470   2.735   7.135  0.0993 -0.2627  0.0852
 3379SOL    HW121596   3.564   2.731   7.153  0.1097  1.8329  0.5211
 3379SOL    HW221597   3.440   2.742   7.226 -0.7181  0.8007 -0.2538
 3380SOL     OW21598   4.256   0.378   3.255 -0.1447 -0.3745  0.3106
 3380SOL    HW121599   4.212   0.377   3.170  0.9001 -2.5169 -0.2012
 3380SOL    HW221600   4.308   0.458   3.253  0.1683 -0.5635  1.1353
 3381SOL     OW21601   1.614   4.477   7.701 -0.5385 -0.4896  0.2930
 3381SOL    HW121602   1.628   4.483   7.606  0.4892 -2.1703  0.3425
 3381SOL    HW221603   1.691   4.517   7.743  0.1487 -0.6730 -0.7960
 3382SOL     OW21604   2.286   2.934   4.215 -0.1093 -0.5351  0.0570
 3382SOL    HW121605   2.198   2.920   4.249 -0.6200  1.1137 -0.5810
 3382SOL    HW221606   2.317   2.846   4.238  0.2723 -0.0719  1.2756
 3383SOL     OW21607   2.538   2.989   1.046  0.2309 -0.0899  0.3890
 3383SOL    HW121608   2.571   2.979   0.957 -2.9903  0.6153 -0.8805
 3383SOL    HW221609   2.449   2.957   1.030 -0.3705  0.5349  2.4697
 3384SOL     OW21610   2.774   4.549  11.566  0.6467  0.2487  0.0471
 3384SOL    HW121611   2.745   4.604  11.494 -0.9381 -0.4693  0.1446
 3384SOL    HW221612   2.853   4.595  11.595  1.2501 -0.7122 -0.0632
 3385SOL     OW21613   2.753   4.454   7.021 -0.3031 -0.1517  0.4205
 3385SOL    HW121614   2.753   4.462   7.116  1.5344 -1.0044  0.4856
 3385SOL    HW221615   2.788   4.536   6.985  1.8732 -0.7121  1.3133
 3386SOL     OW21616   0.495   1.490  13.784 -0.7027 -0.1928 -0.1157
 3386SOL    HW121617   0.483   1.577  13.822 -0.0060 -0.3924  0.5704
 3386SOL    HW221618   0.479   1.505  13.691 -0.0490  0.6521 -0.0895
 3387SOL     OW21619   1.082   0.644   2.104  0.1013 -0.1453 -0.2379
 3387SOL    HW121620   1.110   0.729   2.069 -0.7720 -0.8986 -2.7775
 3387SOL    HW221621   1.134   0.624   2.182  0.7160 -0.1222 -0.6392
 3388SOL     OW21622   2.046   4.587   6.578 -0.4880 -0.0611  0.2837
 3388SOL    HW121623   1.995   4.633   6.511  1.2033 -1.0743 -1.7071
 3388SOL    HW221624   2.136   4.607   6.553 -0.4640  1.3251  1.4986
 3389SOL     OW21625   0.598   2.692   7.797 -0.0290  0.2703 -0.1005
 3389SOL    HW121626   0.627   2.614   7.750  1.9811  0.8985  0.0909
 3389SOL    HW221627   0.650   2.761   7.755 -1.0416  0.8787 -0.3573
 3390SOL     OW21628   3.184   4.480   1.579  0.0585  0.4018  0.2798
 3390SOL    HW121629   3.269   4.453   1.614  0.9831  1.3859 -1.2055
 3390SOL    HW221630   3.179   4.410   1.513 -1.0920 -1.0447  1.9262
 3391SOL     OW21631   4.470   0.952  15.375 -0.0095 -0.4453 -0.6228
 3391SOL    HW121632   4.526   0.964  15.451 -2.0389 -0.8572  0.9143
 3391SOL    HW221633   4.482   1.040  15.338  0.0414 -0.9552 -1.8124
 3392SOL     OW21634   1.693   4.270   5.910 -0.0911  0.2914 -0.1581
 3392SOL    HW121635   1.759   4.243   5.974 -0.3963 -0.0732  0.0041
 3392SOL    HW221636   1.697   4.364   5.925  2.4444  0.3282 -1.0614
 3393SOL     OW21637   3.260   3.419   3.190  0.1326  0.2556  0.1066
 3393SOL    HW121638   3.279   3.389   3.279  2.8683 -0.7594 -0.7977
 3393SOL    HW221639   3.165   3.413   3.192  0.1814  0.2075  2.1651
 3394SOL     OW21640   0.655   2.500   3.572 -0.1774 -0.0643  0.5100
 3394SOL    HW121641   0.664   2.464   3.484 -0.5196 -0.3711  0.5984
 3394SOL    HW221642   0.642   2.424   3.629 -1.2864 -0.8247 -0.7778
 3395SOL     OW21643   2.481   4.717  11.065  0.3467 -0.2851 -0.2738
 3395SOL    HW121644   2.573   0.020  11.082  0.0576  1.1462 -0.6490
 3395SOL    HW221645   2.475   4.701  10.971 -1.6383 -0.5877 -0.0948
 3396SOL     OW21646   2.623   2.846   1.775 -0.6557 -0.2419 -0.7200
 3396SOL    HW121647   2.621   2.758   1.738 -2.6516 -1.2596  1.7448
 3396SOL    HW221648   2.568   2.830   1.852 -2.1978  0.2737 -1.7161
 3397SOL     OW21649   2.146   2.018   8.452 -0.4885 -0.5021 -0.0251
 3397SOL    HW121650   2.144   1.972   8.368 -0.4641  2.6796 -1.8073
 3397SOL    HW221651   2.232   2.060   8.453 -0.5573 -0.3660  0.1076
 3398SOL     OW21652   3.588   4.080   9.174  0.1238 -0.3536  0.5040
 3398SOL    HW121653   3.641   4.017   9.126 -0.6649  0.2869 -1.2016
 3398SOL    HW221654   3.650   4.152   9.183  0.2369 -0.5851  1.5975
 3399SOL     OW21655   1.875   3.283   0.776 -0.6444  0.5165  0.2056
 3399SOL    HW121656   1.878   3.266   0.871  0.0403 -3.2787 -0.5000
 3399SOL    HW221657   1.853   3.197   0.742 -1.9696  1.0029 -0.1636
 3400SOL     OW21658   4.353   3.912  11.466  0.4507 -0.4229  0.6638
 3400SOL    HW121659   4.324   3.895  11.556  2.9421 -3.2455  0.9497
 3400SOL    HW221660   4.280   3.953  11.420 -1.3513 -0.4585  3.4544
 3401SOL     OW21661   1.795   2.329   9.002  0.0598 -0.0378 -0.1611
 3401SOL    HW121662   1.839   2.244   8.996  1.4029  0.7743 -1.9088
 3401SOL    HW221663   1.849   2.386   8.947  1.5325  2.2851  3.7216
 3402SOL     OW21664   2.753   0.434   9.254  0.2898  0.3193 -0.0228
 3402SOL    HW121665   2.765   0.435   9.159 -1.8289 -0.1758 -0.3050
 3402SOL    HW221666   2.829   0.476   9.295 -1.1966 -1.1773  4.2684
 3403SOL     OW21667   1.941   0.443   6.569  0.4126 -0.6017  0.4535
 3403SOL    HW121668   2.005   0.414   6.504 -0.9313 -0.9179 -0.7258
 3403SOL    HW221669   1.863   0.398   6.538  0.4050 -0.3926  0.1708
 3404SOL     OW21670   3.263   0.728  13.828 -0.1850 -0.0504 -0.3263
 3404SOL    HW121671   3.242   0.820  13.814 -0.5566 -0.1663 -0.5423
 3404SOL    HW221672   3.358   0.733  13.837 -0.0238 -1.7756 -0.9149
 3405SOL     OW21673   1.276   3.803   7.341  0.6811  0.3309  0.4342
 3405SOL    HW121674   1.314   3.736   7.398 -2.7891 -0.8515  1.3300
 3405SOL    HW221675   1.273   3.766   7.253 -3.0246  1.1022  0.2473
 3406SOL     OW21676   4.663   0.593   1.816  0.3062 -0.4247  0.0005
 3406SOL    HW121677   4.699   0.595   1.728  1.2031 -2.4603  0.3293
 3406SOL    HW221678   0.001   0.662   1.849  2.1985 -1.5627 -0.9265
 3407SOL     OW21679   0.007   3.351   5.790  0.4849 -0.4288 -0.1992
 3407SOL    HW121680   0.043   3.379   5.706  0.3636  1.1315  0.2667
 3407SOL    HW221681   0.004   3.256   5.781 -0.0189 -0.5387  1.1231
 3408SOL     OW21682   1.580   2.771   4.166 -0.4375 -0.1520 -0.0315
 3408SOL    HW121683   1.508   2.717   4.133 -1.1670  1.1681 -0.5937
 3408SOL    HW221684   1.630   2.786   4.086 -1.8796  0.7309 -0.7711
 3409SOL     OW21685   1.043   3.372   6.432 -0.1704 -0.5027 -0.2101
 3409SOL    HW121686   1.135   3.347   6.424 -0.6344 -1.5502 -2.3289
 3409SOL    HW221687   1.024   3.336   6.345 -1.6836  2.4006 -1.0748
 3410SOL     OW21688   3.785   2.003   7.687 -0.2604 -0.8025 -0.5076
 3410SOL    HW121689   3.865   1.955   7.665 -1.1929 -3.2881  1.5112
 3410SOL    HW221690   3.791   2.086   7.640 -0.4112  0.1027  1.0964
 3411SOL     OW21691   0.195   3.987   3.641  0.7146  0.3679  0.1982
 3411SOL    HW121692   0.240   4.044   3.703  0.6609 -0.4178  0.9524
 3411SOL    HW221693   0.124   4.045   3.612 -0.9749 -1.1852  1.2792
 3412SOL     OW21694   0.106   0.448   5.404  0.3344  0.4853 -0.0083
 3412SOL    HW121695   0.177   0.482   5.349  1.0210 -0.9810 -0.0153
 3412SOL    HW221696   0.036   0.445   5.340  1.1031  2.5488 -0.9483
 3413SOL     OW21697   1.067   1.748  10.640  0.2398  0.6933 -0.0129
 3413SOL    HW121698   1.111   1.825  10.676  1.0246 -0.8164  2.2609
 3413SOL    HW221699   1.041   1.790  10.558  0.0257  0.2958 -0.1488
 3414SOL     OW21700   1.576   4.534   5.707  0.1592 -0.5267  0.4482
 3414SOL    HW121701   1.624   4.615   5.689  0.1920 -0.3109  1.5427
 3414SOL    HW221702   1.591   4.515   5.799  1.2660 -0.2843  0.3179
 3415SOL     OW21703   1.346   4.016  14.183  0.2672 -0.3413 -0.0857
 3415SOL    HW121704   1.424   3.961  14.188 -0.6880 -1.6744  0.0158
 3415SOL    HW221705   1.312   4.013  14.273 -2.0899  2.1328 -0.8905
 3416SOL     OW21706   1.608   1.604   4.567 -0.1458  0.1596  0.4811
 3416SOL    HW121707   1.673   1.540   4.595  1.4873  1.6162  0.0229
 3416SOL    HW221708   1.649   1.622   4.483 -0.3983 -1.6542 -0.0180
 3417SOL     OW21709   0.574   0.870   3.447  0.5940 -0.2592  0.1732
 3417SOL    HW121710   0.480   0.875   3.464  0.6336  0.9267  0.0627
 3417SOL    HW221711   0.576   0.837   3.357  1.5612  2.5477 -0.8614
 3418SOL     OW21712   2.456   0.153   3.740 -0.8295  0.1746 -0.2887
 3418SOL    HW121713   2.471   0.120   3.829  1.5170 -0.1359 -0.8022
 3418SOL    HW221714   2.415   0.072   3.709 -0.7528  1.0874 -2.6935
 3419SOL     OW21715   3.492   3.035  15.629 -0.0307  0.1922  0.2396
 3419SOL    HW121716   3.580   3.007  15.655  0.2183  1.3460  0.6101
 3419SOL    HW221717   3.436   2.979  15.683  0.1403  0.6661  0.9096
 3420SOL     OW21718   1.417   0.585   9.064  0.2066 -0.8110 -0.4826
 3420SOL    HW121719   1.490   0.646   9.051  0.0049 -0.5432 -0.3571
 3420SOL    HW221720   1.467   0.506   9.082  1.9703 -0.1061 -2.2410
 3421SOL     OW21721   1.014   1.448   3.896  0.4751  0.2079  0.0497
 3421SOL    HW121722   1.031   1.519   3.834  0.5362  0.1609  0.0126
 3421SOL    HW221723   0.966   1.378   3.852  0.5215  1.6371 -2.2768
 3422SOL     OW21724   3.335   3.650   5.969 -0.3336  0.1491 -0.3082
 3422SOL    HW121725   3.414   3.617   6.012 -0.6467  2.1501  1.8113
 3422SOL    HW221726   3.275   3.601   6.025 -2.3448  0.0398 -2.5723
 3423SOL     OW21727   0.112   0.364   9.458  0.1739  0.1906 -0.0335
 3423SOL    HW121728   0.094   0.359   9.551 -1.6961  2.7396 -0.2658
 3423SOL    HW221729   0.020   0.364   9.431  0.1433 -2.7123  0.1102
 3424SOL     OW21730   2.765   4.185   1.180  0.7752  0.7240  0.1757
 3424SOL    HW121731   2.738   4.098   1.208 -1.6510  1.4355  0.1014
 3424SOL    HW221732   2.684   4.236   1.192  0.0418 -0.6215  0.8677
 3425SOL     OW21733   3.437   2.080   5.272 -0.0551  0.4219  0.1678
 3425SOL    HW121734   3.415   2.021   5.200  2.9618 -0.8601  0.3104
 3425SOL    HW221735   3.351   2.112   5.301  0.1615  0.1023  1.1791
 3426SOL     OW21736   1.896   3.777   4.980 -0.1719 -0.5087  0.4988
 3426SOL    HW121737   1.949   3.769   5.059 -0.1831  0.0047  0.5590
 3426SOL    HW221738   1.960   3.780   4.908 -0.6528 -0.2639  0.0801
 3427SOL     OW21739   0.011   1.408  10.228  0.5411 -0.4897  0.2419
 3427SOL    HW121740   0.032   1.336  10.288  1.3168 -0.9014 -0.5367
 3427SOL    HW221741   0.043   1.486  10.274  1.6069 -0.1826 -1.0284
 3428SOL     OW21742   4.018   3.272   4.202  0.2306  0.0038 -0.2882
 3428SOL    HW121743   4.036   3.317   4.285 -0.5076  0.8491 -0.5847
 3428SOL    HW221744   4.099   3.301   4.161  1.0553  0.7432  1.8360
 3429SOL     OW21745   4.581   0.845  11.543 -0.1593  0.1376 -0.5950
 3429SOL    HW121746   4.583   0.824  11.449  2.6710  0.5465 -0.6068
 3429SOL    HW221747   4.658   0.900  11.552 -1.2573  2.0482 -2.5123
 3430SOL     OW21748   3.493   2.389   3.286  0.0853  0.5845  0.3427
 3430SOL    HW121749   3.567   2.343   3.247 -0.8781 -1.3101  0.7597
 3430SOL    HW221750   3.498   2.482   3.263 -1.2524  0.4968 -0.3262
 3431SOL     OW21751   3.662   2.491  11.909  0.2272  0.0542  0.3503
 3431SOL    HW121752   3.625   2.402  11.909  0.5826 -0.0929 -0.6616
 3431SOL    HW221753   3.668   2.527  11.998  0.2368  0.4883  0.1739
 3432SOL     OW21754   3.643   3.241   9.179 -0.2821 -0.8341 -0.1973
 3432SOL    HW121755   3.675   3.313   9.233  0.0746 -0.4811 -0.8867
 3432SOL    HW221756   3.711   3.180   9.205 -0.6758 -0.4689  1.6931
 3433SOL     OW21757   4.346   3.260   1.278 -0.3327 -0.0030  0.3546
 3433SOL    HW121758   4.337   3.298   1.190  0.0896  2.8513  1.5570
 3433SOL    HW221759   4.260   3.220   1.285 -0.0690 -0.7961 -0.9439
 3434SOL     OW21760   2.704   2.536   1.715  0.4538 -0.2160  0.2677
 3434SOL    HW121761   2.610   2.517   1.710  1.0603 -2.4655 -2.4489
 3434SOL    HW221762   2.747   2.463   1.670 -0.8313 -1.5596  1.2031
 3435SOL     OW21763   0.883   1.678   6.301 -0.1036  0.4816 -0.4515
 3435SOL    HW121764   0.898   1.652   6.392  1.6915  1.5012 -0.4542
 3435SOL    HW221765   0.937   1.757   6.296  1.8588 -0.8262  0.0979
 3436SOL     OW21766   2.795   3.199   5.453 -0.1688 -0.2427 -0.4847
 3436SOL    HW121767   2.710   3.163   5.430 -0.9322  0.8359  0.6747
 3436SOL    HW221768   2.853   3.123   5.451  0.3580  0.1351  0.6466
 3437SOL     OW21769   1.888   2.942   7.052 -0.4115 -0.6612 -0.3389
 3437SOL    HW121770   1.809   2.965   7.101 -0.9079  1.0855 -1.9753
 3437SOL    HW221771   1.943   3.002   7.102  0.3756 -1.4758 -0.2360
 3438SOL     OW21772   0.374   2.951  13.971  0.1326 -0.1748 -0.1483
 3438SOL    HW121773   0.347   3.029  14.020 -0.1933 -0.0655 -0.5048
 3438SOL    HW221774   0.283   2.933  13.945  0.2417 -0.6910 -0.1718
 3439SOL     OW21775   3.526   3.450   8.654  0.6005 -0.9004  0.6742
 3439SOL    HW121776   3.518   3.368   8.605  0.4053 -0.6291  0.2575
 3439SOL    HW221777   3.468   3.435   8.729  2.1833 -2.9822  1.4811
 3440SOL     OW21778   4.495   1.481   7.099  0.6793  0.3885  0.1564
 3440SOL    HW121779   4.574   1.502   7.148  0.4122 -2.3777  1.7278
 3440SOL    HW221780   4.513   1.391   7.072 -0.9530 -0.2324  1.1625
 3441SOL     OW21781   2.548   1.060   5.646 -0.1114  0.3043 -0.2342
 3441SOL    HW121782   2.587   0.977   5.619  0.2269  0.2504  0.4121
 3441SOL    HW221783   2.542   1.100   5.560  1.1173 -1.4754 -1.1486
 3442SOL     OW21784   0.622   1.337   3.241 -0.4994 -0.3399  0.5146
 3442SOL    HW121785   0.623   1.299   3.153 -1.0460 -2.4289  1.3986
 3442SOL    HW221786   0.556   1.276   3.276  0.3095 -0.0517  2.5749
 3443SOL     OW21787   3.885   3.262   3.968 -0.0313 -0.4289  0.0986
 3443SOL    HW121788   3.968   3.260   3.920 -0.1643 -0.4351 -0.1351
 3443SOL    HW221789   3.910   3.313   4.045  0.7344  1.2550 -1.2722
 3444SOL     OW21790   0.992   3.419   7.546 -0.3215 -0.4412 -0.0691
 3444SOL    HW121791   0.911   3.375   7.573 -0.4553  0.1768  0.5341
 3444SOL    HW221792   0.972   3.505   7.582 -4.9738 -1.0873 -1.0909
 3445SOL     OW21793   4.180   3.357  13.595 -0.2528 -0.1549  0.3523
 3445SOL    HW121794   4.120   3.404  13.537 -0.2086 -0.5704 -0.0281
 3445SOL    HW221795   4.259   3.411  13.595  0.0700 -0.6317 -0.6836
 3446SOL     OW21796   3.275   4.465   6.028 -0.0240  0.0910 -0.2012
 3446SOL    HW121797   3.250   4.523   5.957  0.5188  0.0802 -0.4019
 3446SOL    HW221798   3.351   4.423   5.987  1.5807  0.4326  2.4270
 3447SOL     OW21799   3.288   4.563   0.521 -0.2656 -0.3680  0.4222
 3447SOL    HW121800   3.374   4.559   0.562 -0.1303  0.3893  0.1990
 3447SOL    HW221801   3.279   4.658   0.523 -0.4267 -0.3724 -0.1917
 3448SOL     OW21802   0.077   0.511  15.311  0.2628  0.2843  0.2402
 3448SOL    HW121803   0.153   0.533  15.365  0.0020  0.2631  0.6194
 3448SOL    HW221804   0.045   0.428  15.347 -0.2307  1.2767  2.0626
 3449SOL     OW21805   3.724   0.265   0.876 -0.1381  0.3286 -0.0276
 3449SOL    HW121806   3.813   0.301   0.874 -1.5591  3.7254 -1.1479
 3449SOL    HW221807   3.678   0.328   0.931 -1.7090  0.1017 -1.0834
 3450SOL     OW21808   2.498   0.011   8.343  0.0662  0.1174  0.0829
 3450SOL    HW121809   2.526   0.000   8.434  0.7796 -1.5325 -0.3381
 3450SOL    HW221810   2.405   4.709   8.351 -0.0640  0.2146 -1.1453
 3451SOL     OW21811   2.919   3.861   8.847  0.3826  0.3909 -0.2462
 3451SOL    HW121812   3.005   3.903   8.840  0.3336  0.6225  0.5353
 3451SOL    HW221813   2.931   3.790   8.784 -0.6031  0.5847 -0.6617
 3452SOL     OW21814   3.627   0.453   4.437  0.5214  0.2701 -0.4078
 3452SOL    HW121815   3.686   0.473   4.509 -0.7022  1.7949  0.1763
 3452SOL    HW221816   3.685   0.464   4.362  2.4866  2.2950  1.4137
 3453SOL     OW21817   1.430   2.920   6.527 -0.2017  0.0743 -0.7668
 3453SOL    HW121818   1.474   2.836   6.543  1.9380  1.5765  1.1024
 3453SOL    HW221819   1.471   2.982   6.586 -0.7654 -0.9952  0.7502
 3454SOL     OW21820   1.312   2.859   3.626  0.4621 -0.1485  0.2746
 3454SOL    HW121821   1.225   2.868   3.666  0.6688  1.5946  0.3298
 3454SOL    HW221822   1.369   2.897   3.693  0.2386  0.7108 -0.0314
 3455SOL     OW21823   3.872   3.511  13.123  0.2421  0.4780 -0.5623
 3455SOL    HW121824   3.837   3.472  13.203  0.3298  0.4042 -0.5608
 3455SOL    HW221825   3.825   3.459  13.058 -0.4504 -1.4256  1.4830
 3456SOL     OW21826   0.132   0.067  13.476 -0.1385 -0.2568  0.2064
 3456SOL    HW121827   0.144   0.053  13.382 -3.3655  0.3381 -0.2789
 3456SOL    HW221828   0.225   0.061  13.499 -0.7536 -0.4142  2.6793
 3457SOL     OW21829   0.159   3.874   2.323  0.1293  0.2736 -0.0570
 3457SOL    HW121830   0.164   3.937   2.252  1.8176 -1.4657 -1.4618
 3457SOL    HW221831   0.089   3.814   2.297 -2.3722  3.5772 -0.9508
 3458SOL     OW21832   3.660   1.789   2.721 -0.1524 -0.1560 -0.1023
 3458SOL    HW121833   3.597   1.745   2.777 -0.1238  1.3227  1.0912
 3458SOL    HW221834   3.639   1.879   2.744 -1.3280 -0.1148 -1.3348
 3459SOL     OW21835   0.235   0.495  13.715 -0.0484 -0.8271 -0.0582
 3459SOL    HW121836   0.312   0.461  13.760  0.5540  0.6983  0.0938
 3459SOL    HW221837   0.200   0.556  13.781  0.3738 -1.7085  0.9927
 3460SOL     OW21838   1.855   1.537   3.093  0.7550 -0.1746  0.5452
 3460SOL    HW121839   1.846   1.585   3.011 -2.3228 -0.8236  0.4719
 3460SOL    HW221840   1.823   1.599   3.159  1.1227  1.0830 -0.4677
 3461SOL     OW21841   4.373   3.445   7.239 -0.4217 -0.1370 -0.3101
 3461SOL    HW121842   4.385   3.514   7.173  0.2858 -0.3261 -0.3757
 3461SOL    HW221843   4.279   3.428   7.235 -0.5041 -0.1632  1.9354
 3462SOL     OW21844   2.135   2.921  16.815 -0.0474 -0.2657  0.5665
 3462SOL    HW121845   2.152   3.013  16.832 -4.6319  0.3185  2.1687
 3462SOL    HW221846   2.229   2.903  16.818  0.0176  0.3160  1.7381
 3463SOL     OW21847   1.757   1.603  15.812  0.3026 -0.3228  0.1873
 3463SOL    HW121848   1.759   1.687  15.768  2.8014 -0.8793 -0.7619
 3463SOL    HW221849   1.665   1.580  15.798  0.4905 -0.7772 -0.3036
 3464SOL     OW21850   0.902   0.280   9.131 -0.5578 -0.2485  0.0042
 3464SOL    HW121851   0.871   0.221   9.199  1.3959  0.4141  1.4692
 3464SOL    HW221852   0.995   0.263   9.115 -0.9825 -2.4444 -0.0763
 3465SOL     OW21853   1.173   0.881   6.285 -0.2413 -0.0177  0.7756
 3465SOL    HW121854   1.113   0.955   6.291 -0.8037 -0.6502  2.9009
 3465SOL    HW221855   1.261   0.918   6.286 -0.8255  1.3647  1.0924
 3466SOL     OW21856   0.110   2.892   0.114  0.4116 -0.1383  0.2539
 3466SOL    HW121857   0.056   2.826   0.159 -1.7775  2.5185  1.5029
 3466SOL    HW221858   0.161   2.928   0.187  1.0679  0.8114 -0.6903
 3467SOL     OW21859   2.915   1.346   4.497  0.0682 -0.5409 -0.1889
 3467SOL    HW121860   2.914   1.420   4.437 -1.2198 -0.8838 -0.5909
 3467SOL    HW221861   2.966   1.279   4.451  1.0114 -0.0059  0.0865
 3468SOL     OW21862   0.395   2.906   4.465  0.4109  0.7536 -0.2225
 3468SOL    HW121863   0.444   2.917   4.383  0.4009 -1.2190 -0.5051
 3468SOL    HW221864   0.437   2.827   4.500  0.8838  1.0921 -0.0310
 3469SOL     OW21865   3.337   4.110   7.144  0.0769  0.1053 -0.3677
 3469SOL    HW121866   3.289   4.190   7.167 -0.1479 -0.0554 -0.2838
 3469SOL    HW221867   3.397   4.140   7.075  0.5972  1.1888  0.5511
 3470SOL     OW21868   0.453   3.601   2.844  0.0142  0.5494 -0.1953
 3470SOL    HW121869   0.458   3.510   2.815  0.6678  0.1907  1.0721
 3470SOL    HW221870   0.420   3.637   2.761  0.4055 -1.7377 -1.3499
 3471SOL     OW21871   2.902   2.923   1.941 -0.4209  0.9079  0.2947
 3471SOL    HW121872   2.849   2.847   1.919 -1.4720  2.2174 -1.6370
 3471SOL    HW221873   2.978   2.907   1.886  0.3167  2.5764  0.7937
 3472SOL     OW21874   0.044   1.151   6.851 -0.4694  0.2394 -0.1451
 3472SOL    HW121875   0.101   1.160   6.927  2.3259  2.1753 -2.4958
 3472SOL    HW221876   0.085   1.076   6.807 -0.8402 -0.2862  0.4033
 3473SOL     OW21877   2.263   2.802  13.669  0.3444  0.7573 -0.3831
 3473SOL    HW121878   2.193   2.842  13.720 -0.0159  0.4585 -0.6380
 3473SOL    HW221879   2.329   2.871  13.667  2.6756 -1.4406  0.7651
 3474SOL     OW21880   4.301   3.293   0.986  0.1304 -0.4191 -0.3689
 3474SOL    HW121881   4.330   3.286   0.895 -0.3884  0.5931 -0.6194
 3474SOL    HW221882   4.210   3.318   0.967 -0.1779 -0.2718  1.3022
 3475SOL     OW21883   0.319   3.361   8.075 -0.5579 -0.6996  0.9484
 3475SOL    HW121884   0.259   3.436   8.080 -1.2752 -1.2744  0.9619
 3475SOL    HW221885   0.337   3.346   8.168  4.1012 -0.7930  0.0288
 3476SOL     OW21886   2.273   0.423   7.376  0.0354  0.1864  0.2284
 3476SOL    HW121887   2.232   0.339   7.398 -0.2851  0.4512  0.6384
 3476SOL    HW221888   2.339   0.398   7.311 -2.0152 -0.6897 -1.5495
 3477SOL     OW21889   2.032   0.652   6.188  0.3163 -0.1212 -0.4690
 3477SOL    HW121890   2.089   0.699   6.250  1.5289 -2.4481  0.1675
 3477SOL    HW221891   2.073   0.661   6.102 -0.3433 -0.6277 -0.8333
 3478SOL     OW21892   1.169   3.900  14.984 -0.1423 -0.5118 -0.4122
 3478SOL    HW121893   1.144   3.968  15.046  0.7500 -0.6383  0.0899
 3478SOL    HW221894   1.233   3.865  15.045  0.5083 -2.5111 -2.2234
 3479SOL     OW21895   0.734   0.899   3.058 -0.1472 -0.4115  0.0572
 3479SOL    HW121896   0.679   0.864   3.128 -1.1821 -1.3848 -1.2389
 3479SOL    HW221897   0.726   0.828   2.995  0.6275  0.5936 -1.1622
 3480SOL     OW21898   3.231   1.885   1.788 -0.2963 -0.1248 -0.3604
 3480SOL    HW121899   3.323   1.860   1.794 -0.3008  0.2367  1.1569
 3480SOL    HW221900   3.196   1.801   1.818 -0.3264  0.7524  2.0530
 3481SOL     OW21901   4.370   1.712   8.056  0.0552  0.2435  0.1407
 3481SOL    HW121902   4.359   1.753   8.142  0.8727 -1.9772  1.2917
 3481SOL    HW221903   4.457   1.743   8.030  0.2736 -0.5046 -0.0316
 3482SOL     OW21904   0.724   0.947  10.980 -0.5083 -0.5744  0.0296
 3482SOL    HW121905   0.668   1.018  11.011  0.2585  0.5675 -1.2106
 3482SOL    HW221906   0.705   0.881  11.046 -2.2922 -0.4602 -0.3571
 3483SOL     OW21907   1.787   1.890   5.744  1.1153  0.0200 -0.1825
 3483SOL    HW121908   1.811   1.852   5.828  1.6154  0.2737 -0.2048
 3483SOL    HW221909   1.815   1.980   5.759 -0.4237  0.2064  1.4412
 3484SOL     OW21910   3.883   1.599  11.119  0.3332  0.3920  0.2955
 3484SOL    HW121911   3.819   1.586  11.050 -0.3080  0.4112  0.8823
 3484SOL    HW221912   3.821   1.635  11.183 -0.0618  1.1997 -0.5424
 3485SOL     OW21913   3.482   0.121   2.801 -0.1637  0.2394  0.2925
 3485SOL    HW121914   3.491   0.033   2.837 -0.9979  0.2291  0.4752
 3485SOL    HW221915   3.395   0.148   2.828 -1.0859 -3.2767  0.8845
 3486SOL     OW21916   0.720   3.620  10.788 -0.9177 -0.5664 -0.1034
 3486SOL    HW121917   0.766   3.538  10.771  0.1219  0.3621 -1.7203
 3486SOL    HW221918   0.686   3.588  10.871  3.0726 -1.8064  1.0872
 3487SOL     OW21919   3.421   0.358  10.147 -0.0981  0.4167 -0.1900
 3487SOL    HW121920   3.410   0.301  10.224 -1.2717 -1.2551 -1.6077
 3487SOL    HW221921   3.354   0.326  10.087 -2.2657  0.1553  2.3754
 3488SOL     OW21922   0.195   2.487   4.650 -0.1070 -0.2467  0.1308
 3488SOL    HW121923   0.127   2.454   4.708 -0.6438 -0.0318 -0.3800
 3488SOL    HW221924   0.161   2.574   4.631 -0.1947 -0.2422  0.3067
 3489SOL     OW21925   2.571   1.183   1.239 -0.4835  0.1256 -0.5941
 3489SOL    HW121926   2.603   1.130   1.312 -1.1955  1.1636  0.4794
 3489SOL    HW221927   2.476   1.184   1.254 -0.4200  1.2208 -0.2177
 3490SOL     OW21928   2.557   3.915   8.716 -0.5828 -0.2416 -0.0694
 3490SOL    HW121929   2.565   4.003   8.682 -0.2511 -0.1595  0.2247
 3490SOL    HW221930   2.463   3.924   8.734 -0.9878 -1.0857 -1.7520
 3491SOL     OW21931   4.702   0.793   7.586 -0.3035 -0.5464 -0.1571
 3491SOL    HW121932   4.668   0.734   7.653  0.2860 -2.0128 -1.1340
 3491SOL    HW221933   4.639   0.780   7.514  0.8072 -0.2451 -1.1803
 3492SOL     OW21934   2.471   2.089   5.213  0.2511  0.4194  0.1618
 3492SOL    HW121935   2.508   2.124   5.132  0.1052  1.7528  0.6652
 3492SOL    HW221936   2.546   2.036   5.242 -1.4260 -1.6290  0.7876
 3493SOL     OW21937   3.543   2.243  12.504 -0.4452  0.4232  0.4008
 3493SOL    HW121938   3.584   2.320  12.465  1.0841 -0.8566 -0.5242
 3493SOL    HW221939   3.590   2.178  12.453 -2.0297 -1.0655  0.8559
 3494SOL     OW21940   3.224   2.013   9.251  0.3576 -0.9320 -0.0371
 3494SOL    HW121941   3.266   2.003   9.166 -0.0812  2.8901 -0.6954
 3494SOL    HW221942   3.249   2.099   9.287 -0.2741 -1.1746  0.9745
 3495SOL     OW21943   0.470   2.931   9.384  0.5227  0.0659  0.1234
 3495SOL    HW121944   0.416   2.878   9.443 -0.7858  0.4546 -0.7123
 3495SOL    HW221945   0.544   2.951   9.441  0.4903  0.2263  0.1091
 3496SOL     OW21946   2.319   1.252  11.606  0.0612  0.4185  0.4727
 3496SOL    HW121947   2.268   1.174  11.583 -3.2587  3.2220 -1.6677
 3496SOL    HW221948   2.403   1.239  11.563  0.2985 -1.5744  1.5529
 3497SOL     OW21949   2.401   0.441   4.353 -0.3099 -0.1187 -0.5612
 3497SOL    HW121950   2.364   0.357   4.381 -0.7970  0.2301 -0.1751
 3497SOL    HW221951   2.401   0.420   4.260 -0.3776 -1.5743 -0.2312
 3498SOL     OW21952   1.768   0.184   0.622 -0.0967  0.0772  0.3357
 3498SOL    HW121953   1.827   0.109   0.619 -2.4548 -1.7233 -0.8396
 3498SOL    HW221954   1.754   0.197   0.528  1.0803 -1.3426 -0.0324
 3499SOL     OW21955   2.676   4.670   2.987  0.4068 -0.4086 -0.0909
 3499SOL    HW121956   2.695   0.038   3.022  2.3456 -1.3129  1.1210
 3499SOL    HW221957   2.711   4.613   3.055 -0.7153 -1.1923 -0.1685
 3500SOL     OW21958   1.537   4.308   3.573  0.7716 -0.5858  0.5334
 3500SOL    HW121959   1.475   4.253   3.622 -0.5800  0.2296 -0.2719
 3500SOL    HW221960   1.595   4.343   3.641 -0.0609 -0.3550  1.1250
 3501SOL     OW21961   0.258   0.880   3.868 -0.6379 -0.2847 -0.4542
 3501SOL    HW121962   0.342   0.846   3.837  0.4712  1.1014  1.0578
 3501SOL    HW221963   0.199   0.819   3.825  0.2226 -0.7561 -0.9690
 3502SOL     OW21964   0.225   1.388   2.689 -0.4802 -0.6254 -0.3739
 3502SOL    HW121965   0.285   1.419   2.621 -1.7986  0.6649 -0.9580
 3502SOL    HW221966   0.284   1.321   2.721 -0.6053  0.5436  2.3201
 3503SOL     OW21967   2.867   0.268  15.756  0.7778 -0.1677 -0.2162
 3503SOL    HW121968   2.825   0.333  15.700  0.8805 -1.6315 -2.0225
 3503SOL    HW221969   2.952   0.259  15.712  0.3726  1.2350 -1.2862
 3504SOL     OW21970   4.169   0.094   6.258 -0.1220 -0.3099 -0.2745
 3504SOL    HW121971   4.128   0.008   6.273 -2.4461  0.5257 -1.8514
 3504SOL    HW221972   4.159   0.123   6.349  2.6729  0.6949 -0.2795
 3505SOL     OW21973   2.637   1.465   2.230  0.2454 -0.2189 -0.3928
 3505SOL    HW121974   2.612   1.380   2.194  1.4173 -0.9181  0.4270
 3505SOL    HW221975   2.560   1.521   2.240 -0.0641 -0.7637  0.3254
 3506SOL     OW21976   0.712   1.144  13.969  0.4366  0.2324  0.0840
 3506SOL    HW121977   0.721   1.055  14.002 -2.9439  0.2603  1.1678
 3506SOL    HW221978   0.759   1.200  14.030 -1.0796 -0.1563  1.6115
 3507SOL     OW21979   3.768   3.208   4.524 -0.0817  0.0288 -0.3048
 3507SOL    HW121980   3.740   3.262   4.599  1.1484  1.3041 -0.7781
 3507SOL    HW221981   3.851   3.176   4.557  0.3053  2.5885  1.2650
 3508SOL     OW21982   1.048   2.085  14.124 -0.0819  0.4027  0.0681
 3508SOL    HW121983   1.078   1.999  14.154  0.4273  0.8313  0.7748
 3508SOL    HW221984   1.049   2.075  14.029 -0.0782 -1.7508  0.2998
 3509SOL     OW21985   4.410   1.526   1.709  0.0955  0.3332  0.2762
 3509SOL    HW121986   4.427   1.613   1.673  1.2049 -0.3386 -0.8077
 3509SOL    HW221987   4.497   1.488   1.695  0.4390  1.5156 -0.8053
 3510SOL     OW21988   2.845   3.583  11.456 -0.3934 -0.5390 -0.1105
 3510SOL    HW121989   2.906   3.511  11.471  1.5650  1.4472  1.5343
 3510SOL    HW221990   2.871   3.653  11.516 -1.0959 -0.6806  0.3623
 3511SOL     OW21991   4.374   1.375  15.604 -0.0450 -0.0644 -0.1610
 3511SOL    HW121992   4.315   1.343  15.536  0.7232  0.4844 -1.0740
 3511SOL    HW221993   4.385   1.288  15.643  1.1464 -0.3799 -1.2148
 3512SOL     OW21994   2.351   3.747   6.598  0.9066  0.3721  0.3690
 3512SOL    HW121995   2.296   3.825   6.598  1.4450  0.7621 -1.9137
 3512SOL    HW221996   2.359   3.739   6.693  1.3127 -0.5283  0.2579
 3513SOL     OW21997   0.149   2.169   2.245  0.1521 -0.2402  0.1134
 3513SOL    HW121998   0.161   2.222   2.324  2.7772 -1.0811  0.2942
 3513SOL    HW221999   0.070   2.205   2.205  0.0516 -0.6835 -0.0898
 3514SOL     OW22000   3.768   3.363   1.963  0.2039 -0.0177  0.3516
 3514SOL    HW122001   3.748   3.455   1.983 -3.1260 -0.8290  0.7110
 3514SOL    HW222002   3.711   3.321   2.028  0.6061 -0.0860  0.6628
 3515SOL     OW22003   3.712   2.723  13.628  0.4958 -0.3251 -0.0154
 3515SOL    HW122004   3.767   2.650  13.598 -1.3029 -0.4669 -2.8820
 3515SOL    HW222005   3.660   2.678  13.695  2.2281  1.0639  2.2618
 3516SOL     OW22006   2.329   2.490   3.474 -0.0664  0.2508  0.1673
 3516SOL    HW122007   2.419   2.466   3.452 -1.0454 -3.3280 -0.0260
 3516SOL    HW222008   2.288   2.404   3.482  0.2391  0.1717  0.7996
 3517SOL     OW22009   3.231   1.066   0.062 -0.4833 -0.0898 -0.3163
 3517SOL    HW122010   3.228   0.972   0.079  1.9514 -0.2127 -0.5692
 3517SOL    HW222011   3.185   1.076  17.659  0.9744  0.7407 -1.0137
 3518SOL     OW22012   1.062   3.686   2.737 -0.1509  0.4043  0.7534
 3518SOL    HW122013   1.141   3.738   2.753  1.4271 -1.1550 -1.8809
 3518SOL    HW222014   1.094   3.601   2.707 -2.0708 -0.0348  0.0187
 3519SOL     OW22015   0.496   4.409   0.776  0.4571  0.2824 -0.2265
 3519SOL    HW122016   0.451   4.326   0.759  0.8032 -0.6009  3.3207
 3519SOL    HW222017   0.522   4.436   0.688 -1.0785 -1.8180 -1.3284
 3520SOL     OW22018   0.558   4.536   3.078 -0.0129 -0.2292 -0.7649
 3520SOL    HW122019   0.508   4.574   3.150  2.4501  0.9469  0.3120
 3520SOL    HW222020   0.612   4.474   3.127 -1.3222  0.7367  1.9195
 3521SOL     OW22021   2.383   3.790   8.096  0.0134 -0.1712  0.1775
 3521SOL    HW122022   2.353   3.723   8.035  1.4345 -0.5676 -0.0984
 3521SOL    HW222023   2.445   3.835   8.038  0.0703 -1.6825 -0.9136
 3522SOL     OW22024   0.281   2.548   8.137 -0.4686 -0.6370 -0.6676
 3522SOL    HW122025   0.355   2.589   8.183 -0.1727  0.5013 -2.1353
 3522SOL    HW222026   0.303   2.455   8.139 -1.2968 -0.7762  1.2485
 3523SOL     OW22027   3.027   1.070   9.069 -0.2776 -0.2263  0.3957
 3523SOL    HW122028   2.949   1.041   9.117 -0.4300  0.2842  0.4529
 3523SOL    HW222029   3.042   1.151   9.118  1.6288 -0.1996 -0.2441
 3524SOL     OW22030   3.472   4.195   6.895 -0.3170  0.2233  0.8530
 3524SOL    HW122031   3.568   4.190   6.904 -0.5305 -0.6462  2.7156
 3524SOL    HW222032   3.468   4.283   6.857  0.4890  0.3477  1.0493
 3525SOL     OW22033   1.030   4.330   3.662  0.2597  0.5561 -0.2268
 3525SOL    HW122034   1.058   4.254   3.712 -1.3088 -1.1750 -1.9969
 3525SOL    HW222035   1.002   4.297   3.577 -2.8244  1.4042  0.4618
 3526SOL     OW22036   4.609   4.189   8.490 -0.1074  0.1784 -0.5135
 3526SOL    HW122037   4.698   4.222   8.479 -0.3443  1.1292  0.4972
 3526SOL    HW222038   4.553   4.266   8.502 -0.3841  0.2937 -2.5599
 3527SOL     OW22039   0.615   2.344   3.799  0.0486 -0.3540 -0.2394
 3527SOL    HW122040   0.602   2.363   3.892 -0.4454 -1.6952 -0.0305
 3527SOL    HW222041   0.587   2.253   3.792 -0.4619  0.0425 -3.6228
 3528SOL     OW22042   4.052   4.453   5.570 -0.6996 -0.5062  0.0058
 3528SOL    HW122043   4.027   4.360   5.566  1.1735 -1.0304  0.4754
 3528SOL    HW222044   4.079   4.455   5.661  1.3926  1.1400 -0.6503
 3529SOL     OW22045   0.722   3.032  12.201  0.1587 -0.5174  0.0236
 3529SOL    HW122046   0.808   2.994  12.183 -0.9358 -2.4788 -1.0400
 3529SOL    HW222047   0.692   2.967  12.265 -1.3240 -0.2615 -0.4207
 3530SOL     OW22048   2.864   0.602   5.136 -0.1586  0.4177 -0.1080
 3530SOL    HW122049   2.915   0.671   5.179  2.2342  0.4402 -2.9586
 3530SOL    HW222050   2.854   0.546   5.213  0.2219  1.1280  0.4648
 3531SOL     OW22051   2.773   3.959   8.229  0.5459 -0.0938 -1.2095
 3531SOL    HW122052   2.814   3.964   8.316 -1.9199  0.4663 -0.0718
 3531SOL    HW222053   2.687   3.995   8.249  0.8817  0.5403 -0.8828
 3532SOL     OW22054   3.248   2.171   9.552 -0.1616  0.2588  0.2385
 3532SOL    HW122055   3.265   2.243   9.613 -0.0939 -0.5891  1.2164
 3532SOL    HW222056   3.295   2.208   9.477  0.3526 -0.5265  0.1744
 3533SOL     OW22057   0.669   3.055   2.633  0.2464  0.3449 -0.9243
 3533SOL    HW122058   0.755   3.022   2.606 -0.1693 -1.0174 -0.5900
 3533SOL    HW222059   0.710   3.136   2.665  0.7430  0.1274 -1.0172
 3534SOL     OW22060   2.966   2.325   9.530  0.4015  0.7688 -0.4096
 3534SOL    HW122061   3.021   2.397   9.499 -1.8021  2.8583  0.5013
 3534SOL    HW222062   3.025   2.250   9.523 -0.6520 -0.1199  0.1448
 3535SOL     OW22063   0.058   0.358  11.570 -0.3680  0.7890  0.0188
 3535SOL    HW122064   0.044   0.365  11.665 -0.4585  2.1831 -0.1061
 3535SOL    HW222065   0.022   0.438  11.534  0.9642  1.1573 -0.5034
 3536SOL     OW22066   1.645   1.669  14.600 -0.2171 -0.1123 -0.5740
 3536SOL    HW122067   1.590   1.603  14.558 -2.3462  2.3202 -1.5914
 3536SOL    HW222068   1.614   1.670  14.690 -0.5908  1.1689 -0.7245
 3537SOL     OW22069   0.015   1.736   0.093  0.9401  0.0341 -0.4692
 3537SOL    HW122070   4.705   1.664   0.149 -1.5764  1.5352  0.1374
 3537SOL    HW222071   0.037   1.691   0.012  0.5930  0.7992 -0.9857
 3538SOL     OW22072   2.820   1.336  14.170 -0.0806 -0.1678  0.2862
 3538SOL    HW122073   2.769   1.256  14.180 -2.0005  0.8729 -1.1354
 3538SOL    HW222074   2.808   1.382  14.253  1.4813 -0.1374  0.4906
 3539SOL     OW22075   0.671   2.492   6.778  0.1539 -0.3015  0.2442
 3539SOL    HW122076   0.738   2.554   6.749  0.1044 -0.7728 -0.8907
 3539SOL    HW222077   0.713   2.435   6.843 -0.5763 -0.1295  0.8636
 3540SOL     OW22078   0.827   0.295   3.795  0.4722  0.5201 -0.0431
 3540SOL    HW122079   0.892   0.240   3.837 -0.7220  0.7085  2.0312
 3540SOL    HW222080   0.878   0.368   3.760  0.7418 -0.1022 -0.9376
 3541SOL     OW22081   4.504   1.778   0.721  0.0233 -0.4755  0.3888
 3541SOL    HW122082   4.469   1.768   0.809  1.0476  0.3434  0.8861
 3541SOL    HW222083   4.566   1.847   0.744 -1.6784  1.3453 -0.4833
 3542SOL     OW22084   2.044   1.216  13.188  0.3325  0.2184 -0.0308
 3542SOL    HW122085   2.123   1.221  13.134  0.1096 -0.6686 -0.4491
 3542SOL    HW222086   1.978   1.197  13.120 -0.8948  1.4764  0.8024
 3543SOL     OW22087   2.716   1.748   5.182  0.5562  0.8784  0.8561
 3543SOL    HW122088   2.640   1.693   5.201  1.0253  0.3368  1.1690
 3543SOL    HW222089   2.777   1.678   5.160 -0.6398  0.6440 -1.6727
 3544SOL     OW22090   2.246   1.596  15.750  0.1243  0.4035 -0.1994
 3544SOL    HW122091   2.243   1.556  15.837  1.4753 -0.1207 -0.4032
 3544SOL    HW222092   2.180   1.664  15.766 -0.0396 -0.0538  1.1135
 3545SOL     OW22093   4.224   1.877   1.756  0.3969  0.3041 -0.3865
 3545SOL    HW122094   4.262   1.837   1.835  1.0140 -0.3638 -1.0180
 3545SOL    HW222095   4.308   1.894   1.713  0.0395 -0.3842 -1.3586
 3546SOL     OW22096   2.304   3.323   5.968  0.3058 -0.1202 -0.6084
 3546SOL    HW122097   2.216   3.307   5.933 -0.7329  0.9104  1.5195
 3546SOL    HW222098   2.342   3.240   5.995  1.1664  0.1983 -0.8296
 3547SOL     OW22099   2.934   3.008   5.919 -0.0511  0.1490 -0.9355
 3547SOL    HW122100   2.851   3.031   5.960  0.1650  0.3880 -0.6315
 3547SOL    HW222101   2.918   2.923   5.879  1.8277 -1.0512  0.8315
 3548SOL     OW22102   0.558   1.538  11.699 -0.1754  0.1106  0.2934
 3548SOL    HW122103   0.570   1.508  11.609 -1.6515 -0.0215  0.1313
 3548SOL    HW222104   0.471   1.578  11.692  0.0133  0.3608 -0.6362
 3549SOL     OW22105   4.067   4.426  15.920 -0.3556  0.3711 -0.0946
 3549SOL    HW122106   4.048   4.439  16.013  2.8408  1.5236  0.4193
 3549SOL    HW222107   4.051   4.331  15.923  1.2230  0.0600 -1.4644
 3550SOL     OW22108   2.746   1.224   6.692 -0.1063 -0.2552  0.4053
 3550SOL    HW122109   2.792   1.300   6.727  1.2872 -0.3852 -1.1710
 3550SOL    HW222110   2.744   1.232   6.596  2.3940  1.4238  0.5024
 3551SOL     OW22111   3.952   1.779   3.972  0.2308  0.0667 -0.3917
 3551SOL    HW122112   3.943   1.691   4.007 -1.4154 -0.1819 -1.4767
 3551SOL    HW222113   3.886   1.783   3.903  2.6509  1.2356 -2.6814
 3552SOL     OW22114   4.251   1.628  15.529 -0.0765  0.4973  0.3432
 3552SOL    HW122115   4.336   1.671  15.535 -0.0216  0.6215 -1.4303
 3552SOL    HW222116   4.279   1.539  15.551  0.7774  0.3663 -1.3180
 3553SOL     OW22117   4.539   2.968  14.729 -0.4309 -0.0978 -0.0377
 3553SOL    HW122118   4.537   2.958  14.634  0.5193 -1.6675  0.1218
 3553SOL    HW222119   4.620   2.921  14.747 -0.6849 -0.7069 -0.4739
 3554SOL     OW22120   1.303   1.116   4.103  0.3888  0.1572 -0.3810
 3554SOL    HW122121   1.382   1.062   4.102  1.1700  1.2918 -3.2511
 3554SOL    HW222122   1.232   1.061   4.136  3.3063 -2.8866  0.7912
 3555SOL     OW22123   0.889   4.408  15.218  0.1955 -0.1985 -0.1833
 3555SOL    HW122124   0.976   4.416  15.256 -0.1433 -1.7627  0.9049
 3555SOL    HW222125   0.878   4.503  15.212  0.6184 -0.1866 -0.8934
 3556SOL     OW22126   1.428   2.241   7.148 -0.2201  0.8368  0.3148
 3556SOL    HW122127   1.340   2.269   7.121 -0.4121 -1.4374 -1.4108
 3556SOL    HW222128   1.416   2.154   7.186 -0.0169 -0.1264 -1.8442
 3557SOL     OW22129   1.147   0.588   8.432  0.6650 -0.0774  0.0758
 3557SOL    HW122130   1.148   0.493   8.432 -0.4823 -0.0884  0.0587
 3557SOL    HW222131   1.184   0.609   8.518  2.2625  0.5018 -0.7406
 3558SOL     OW22132   3.065   3.242   2.093  0.3464 -0.1596 -0.4153
 3558SOL    HW122133   2.982   3.224   2.048 -0.9505 -0.2284  1.9784
 3558SOL    HW222134   3.072   3.153   2.129  0.4278 -0.1460 -0.3996
 3559SOL     OW22135   1.839   3.505   9.443 -0.3241 -0.1316  0.7612
 3559SOL    HW122136   1.872   3.595   9.436 -0.5485 -0.2540 -1.9527
 3559SOL    HW222137   1.913   3.458   9.404  0.3818  2.5779 -1.2065
 3560SOL     OW22138   2.615   3.545   4.721  0.3427 -0.0443  0.3878
 3560SOL    HW122139   2.616   3.600   4.799  0.2391 -0.2170  0.5095
 3560SOL    HW222140   2.525   3.543   4.689  1.3837 -3.7278 -2.4421
 3561SOL     OW22141   1.038   2.711   7.123  0.5674  0.7208  0.1762
 3561SOL    HW122142   1.066   2.803   7.124 -2.0271  1.5006  2.6099
 3561SOL    HW222143   1.083   2.666   7.194 -2.6098  0.0909  1.7900
 3562SOL     OW22144   0.860   1.288   0.032  0.1323 -0.0565 -0.4643
 3562SOL    HW122145   0.891   1.296  17.622  1.2431  2.7232  0.1594
 3562SOL    HW222146   0.776   1.247   0.013  0.3921  0.0209 -1.7401
 3563SOL     OW22147   4.215   0.859   7.052  0.0349 -0.1503 -0.0406
 3563SOL    HW122148   4.170   0.846   6.968 -0.3902 -0.4515  0.2367
 3563SOL    HW222149   4.258   0.942   7.033  0.0941 -0.1928 -0.0887
 3564SOL     OW22150   0.726   3.612   4.071 -0.0083 -0.1350 -0.3670
 3564SOL    HW122151   0.761   3.558   4.142 -0.2282  2.0761  1.3862
 3564SOL    HW222152   0.667   3.673   4.114  2.6561  2.6570 -0.6483
 3565SOL     OW22153   2.405   2.730   1.327 -0.0152  0.0045  0.1378
 3565SOL    HW122154   2.407   2.666   1.398 -0.8159  0.2235  0.3587
 3565SOL    HW222155   2.488   2.773   1.346  0.3069  0.3763 -2.1041
 3566SOL     OW22156   1.442   0.149   4.891  0.4677  0.2834 -0.2846
 3566SOL    HW122157   1.363   0.104   4.922 -0.2409  1.6693 -0.0680
 3566SOL    HW222158   1.416   0.228   4.939  0.9878  0.5912 -0.5113
 3567SOL     OW22159   1.514   3.003   9.326 -0.0149  0.4712  0.2474
 3567SOL    HW122160   1.541   3.014   9.417  1.0299  2.4111 -0.3187
 3567SOL    HW222161   1.599   2.981   9.289 -1.2362 -0.6965 -1.9312
 3568SOL     OW22162   1.397   2.309   5.850 -0.3312  0.4345 -0.1815
 3568SOL    HW122163   1.325   2.246   5.846 -0.3002  0.4525 -1.0954
 3568SOL    HW222164   1.413   2.304   5.944  0.5312 -2.4532 -0.4969
 3569SOL     OW22165   2.861   1.875   1.714 -0.1545  0.0457 -0.3820
 3569SOL    HW122166   2.932   1.819   1.745 -0.4667  0.2028  0.6461
 3569SOL    HW222167   2.777   1.845   1.750  1.0855 -1.8626  0.9281
 3570SOL     OW22168   1.626   3.434   4.628 -0.1280  0.1114 -0.5973
 3570SOL    HW122169   1.656   3.345   4.646 -0.6461 -0.0863 -0.7081
 3570SOL    HW222170   1.545   3.434   4.678  0.5061 -1.4427  0.4359
 3571SOL     OW22171   2.283   4.438   5.313 -0.2840  0.0597  0.2557
 3571SOL    HW122172   2.276   4.342   5.306 -2.6166  0.1411  1.6324
 3571SOL    HW222173   2.337   4.444   5.392 -0.7295 -2.0246  0.7186
 3572SOL     OW22174   3.598   3.260   8.900  0.3718  0.2880 -0.4706
 3572SOL    HW122175   3.616   3.354   8.892  0.2350  0.2112 -1.8336
 3572SOL    HW222176   3.590   3.241   8.993 -1.7772  0.1148 -0.6867
 3573SOL     OW22177   1.745   3.041  11.441  0.6088 -0.9491  0.2351
 3573SOL    HW122178   1.805   3.079  11.505 -0.6492  0.0741  0.8147
 3573SOL    HW222179   1.758   2.947  11.454 -1.6009 -1.5129 -1.7428
 3574SOL     OW22180   2.323   0.787  11.936 -0.5161  0.1284  0.2569
 3574SOL    HW122181   2.392   0.850  11.959 -2.7162  2.5709  0.0964
 3574SOL    HW222182   2.314   0.806  11.843 -0.6894  0.6110  0.3714
 3575SOL     OW22183   3.171   2.201   6.871  0.3665 -0.0289  0.9368
 3575SOL    HW122184   3.220   2.226   6.792 -2.2499  1.4010 -0.2058
 3575SOL    HW222185   3.148   2.110   6.851  1.9055 -0.4469  1.0194
 3576SOL     OW22186   0.051   3.171   3.373  0.6569  0.1379 -0.3423
 3576SOL    HW122187   0.063   3.266   3.364  1.5949  0.2836  2.4589
 3576SOL    HW222188   0.026   3.172   3.466 -0.9297 -3.0444 -0.7681
 3577SOL     OW22189   3.055   1.165   3.559 -0.4982 -0.4187 -0.1644
 3577SOL    HW122190   3.020   1.076   3.557 -0.6417 -0.3822  0.6914
 3577SOL    HW222191   3.137   1.153   3.512 -1.0134  0.1230 -1.2105
 3578SOL     OW22192   4.484   1.781   0.417 -0.4327  0.1325  0.1108
 3578SOL    HW122193   4.572   1.772   0.381  0.8075  2.5857  2.5460
 3578SOL    HW222194   4.510   1.775   0.509 -2.8603  1.5019  0.9043
 3579SOL     OW22195   2.352   2.282   4.685  0.0227  0.2236 -0.6084
 3579SOL    HW122196   2.332   2.220   4.756  1.3319 -1.9585 -2.1128
 3579SOL    HW222197   2.296   2.246   4.617  0.4053 -1.8341  0.1431
 3580SOL     OW22198   1.477   0.719   4.232 -0.2117  0.1982 -0.3344
 3580SOL    HW122199   1.533   0.641   4.232 -0.6268 -0.1056 -2.6864
 3580SOL    HW222200   1.467   0.735   4.325  2.3727 -1.5815  0.2424
 3581SOL     OW22201   2.658   0.852  12.791 -0.4045  0.3207  0.0762
 3581SOL    HW122202   2.711   0.932  12.798 -0.1390  0.1891 -0.4281
 3581SOL    HW222203   2.707   0.800  12.727  1.2454  2.7201 -0.6488
 3582SOL     OW22204   2.791   3.807   3.559  0.2853  0.1257  0.2217
 3582SOL    HW122205   2.846   3.877   3.522  1.2056 -0.0469  1.2649
 3582SOL    HW222206   2.797   3.828   3.653  0.7730 -0.2186  0.2669
 3583SOL     OW22207   3.465   4.420   3.785 -0.3061 -0.1284  0.2708
 3583SOL    HW122208   3.539   4.359   3.778  1.6637  2.1897  0.9410
 3583SOL    HW222209   3.448   4.415   3.879  0.0350  1.3529  0.4120
 3584SOL     OW22210   3.871   3.683   1.146 -0.7544  0.1787  0.3581
 3584SOL    HW122211   3.955   3.677   1.101 -0.5608 -1.0051  0.8750
 3584SOL    HW222212   3.862   3.597   1.188  1.9504 -0.2012  0.1128
 3585SOL     OW22213   3.178   2.514   6.824  1.0843 -1.2477  0.1720
 3585SOL    HW122214   3.243   2.510   6.894 -0.1876 -1.7044  1.3408
 3585SOL    HW222215   3.230   2.539   6.748  1.0055 -0.2995  0.4200
 3586SOL     OW22216   0.832   4.501   7.369  0.1746 -0.5673  0.2253
 3586SOL    HW122217   0.898   4.566   7.348  0.4326 -0.0803  2.5142
 3586SOL    HW222218   0.817   4.505   7.463  1.6215 -2.1153  0.5355
 3587SOL     OW22219   3.283   2.769   2.584 -0.2143  0.6246  0.0845
 3587SOL    HW122220   3.366   2.721   2.582  0.6645  2.2268 -1.8467
 3587SOL    HW222221   3.291   2.827   2.660 -1.6004  1.3103 -0.2863
 3588SOL     OW22222   2.946   2.642  15.452  0.0444  0.0859  0.0285
 3588SOL    HW122223   2.967   2.652  15.545 -1.8059 -0.1520  0.4617
 3588SOL    HW222224   2.925   2.549  15.445  0.3187  0.0041  0.2934
 3589SOL     OW22225   2.343   3.988  15.437 -0.1913  0.0356 -0.0086
 3589SOL    HW122226   2.247   3.979  15.438 -0.2966  1.2187  1.9969
 3589SOL    HW222227   2.354   4.082  15.423 -1.7030  0.2192 -0.0348
 3590SOL     OW22228   1.196   1.883   7.661  0.4723 -0.0854  0.1556
 3590SOL    HW122229   1.155   1.925   7.736 -1.5110  0.9706 -1.5222
 3590SOL    HW222230   1.285   1.869   7.694  0.0445 -1.9424  0.5307
 3591SOL     OW22231   4.305   4.582   4.563  0.3579  0.0057 -0.3960
 3591SOL    HW122232   4.372   4.636   4.605  1.0344 -1.1347 -0.0058
 3591SOL    HW222233   4.326   4.594   4.471 -1.0992 -0.4718 -0.7943
 3592SOL     OW22234   1.044   4.682  13.506  0.0843  0.2404  0.3186
 3592SOL    HW122235   1.126   4.676  13.457 -1.0637  1.0540 -1.7075
 3592SOL    HW222236   0.988   4.624  13.455  0.8193 -0.6673  0.5520
 3593SOL     OW22237   4.287   1.744   6.270  0.2733 -0.2436  0.0502
 3593SOL    HW122238   4.250   1.672   6.219 -0.1823  1.3868 -1.9376
 3593SOL    HW222239   4.375   1.743   6.233 -0.2604  0.9029 -1.2416
 3594SOL     OW22240   4.377   3.633   6.555  0.1936 -0.1267  0.2181
 3594SOL    HW122241   4.444   3.697   6.579  0.6542 -0.6612  0.3617
 3594SOL    HW222242   4.413   3.547   6.578 -1.9182 -1.3374 -0.9445
 3595SOL     OW22243   4.368   0.702   8.612  0.7439 -0.1320  0.0471
 3595SOL    HW122244   4.300   0.655   8.564  0.8971  1.5541 -1.8118
 3595SOL    HW222245   4.407   0.628   8.658 -0.0754 -0.8871 -0.4763
 3596SOL     OW22246   3.813   1.595  14.728 -0.2094  0.3140 -0.6332
 3596SOL    HW122247   3.837   1.530  14.795 -3.1176 -2.0786 -1.9131
 3596SOL    HW222248   3.896   1.637  14.705  0.4026  0.7598  2.2676
 3597SOL     OW22249   1.204   2.367  13.820  0.1292  0.7522  0.3138
 3597SOL    HW122250   1.172   2.372  13.730 -2.3994  0.0745  1.1636
 3597SOL    HW222251   1.268   2.437  13.819  1.7913 -0.7743 -0.4666
 3598SOL     OW22252   0.021   1.230  12.023 -0.0704 -0.2005 -0.2083
 3598SOL    HW122253   4.689   1.310  12.018 -0.0874 -0.0674  2.4515
 3598SOL    HW222254   4.687   1.176  11.964 -0.5956  1.4524 -1.2385
 3599SOL     OW22255   2.441   1.440   7.310 -0.2469  0.1200 -0.3620
 3599SOL    HW122256   2.373   1.459   7.375 -1.2485 -1.1739 -1.0378
 3599SOL    HW222257   2.479   1.358   7.341 -0.9277  0.1624  0.5940
 3600SOL     OW22258   0.123   0.789   1.909  0.6233  0.6444 -0.0996
 3600SOL    HW122259   0.199   0.757   1.957 -0.9260 -1.9340  0.5661
 3600SOL    HW222260   0.171   0.837   1.840  1.3482  1.5409  1.0270
 3601SOL     OW22261   1.285   1.689   5.351 -0.7361 -0.0293  0.4043
 3601SOL    HW122262   1.351   1.620   5.365 -1.1396 -0.7551 -1.1548
 3601SOL    HW222263   1.326   1.759   5.301 -1.5315  1.0194  1.2181
 3602SOL     OW22264   3.218   2.045   2.942  0.1960  0.1223 -0.3889
 3602SOL    HW122265   3.197   2.006   2.857  1.6648 -0.0341 -0.6855
 3602SOL    HW222266   3.303   2.084   2.919  0.6427 -1.6811 -1.8207
 3603SOL     OW22267   1.353   1.206  17.492 -0.0576 -0.3806  0.7363
 3603SOL    HW122268   1.405   1.125  17.501  0.2568 -0.1576  0.9387
 3603SOL    HW222269   1.270   1.168  17.521 -0.2701  0.8366  1.7031
 3604SOL     OW22270   3.548   1.842   8.868 -0.3176  0.2484  0.2358
 3604SOL    HW122271   3.621   1.861   8.810 -0.2834  0.0684  0.2206
 3604SOL    HW222272   3.529   1.752   8.842  0.0207  0.1980  0.1581
 3605SOL     OW22273   3.233   2.730   1.147 -0.4001  0.0877  0.0766
 3605SOL    HW122274   3.145   2.724   1.182 -1.4791 -0.1911 -2.7121
 3605SOL    HW222275   3.265   2.806   1.197  0.9628 -1.7990  2.1139
 3606SOL     OW22276   1.966   0.366  14.408  0.1189 -0.8336  0.3038
 3606SOL    HW122277   1.961   0.285  14.458  3.6036  0.5819  3.0301
 3606SOL    HW222278   1.880   0.375  14.368 -0.4384  1.7633  2.0968
 3607SOL     OW22279   4.245   4.330   7.286  0.0581 -0.3912  0.1754
 3607SOL    HW122280   4.293   4.247   7.283 -1.7378 -1.4455  0.4048
 3607SOL    HW222281   4.326   4.381   7.295 -0.2370  0.3869 -1.5643
 3608SOL     OW22282   0.693   0.905   7.318  0.5012  0.2034 -0.0416
 3608SOL    HW122283   0.703   0.824   7.368 -1.3568 -1.9800 -3.2007
 3608SOL    HW222284   0.630   0.953   7.372 -0.5735  1.3842 -2.3452
 3609SOL     OW22285   0.297   4.236   6.103 -0.5154  0.7459  0.5499
 3609SOL    HW122286   0.320   4.319   6.062  0.8543 -0.7671 -1.7379
 3609SOL    HW222287   0.281   4.175   6.031  1.5858 -1.9291  2.3286
 3610SOL     OW22288   2.328   2.747   6.634  0.4168  0.7732  0.5031
 3610SOL    HW122289   2.333   2.840   6.611  2.3958  0.0013 -2.1454
 3610SOL    HW222290   2.314   2.707   6.548 -1.0923  1.2399  0.5359
 3611SOL     OW22291   2.736   2.541   6.930  0.1322 -0.6054 -0.3381
 3611SOL    HW122292   2.811   2.481   6.922 -1.0080 -1.9912 -0.7266
 3611SOL    HW222293   2.745   2.604   7.002 -0.5860  0.1878 -0.9488
 3612SOL     OW22294   2.102   3.197   1.375 -0.3975 -0.1226 -0.7184
 3612SOL    HW122295   2.139   3.116   1.412  3.5200  0.5917 -3.1811
 3612SOL    HW222296   2.066   3.160   1.295 -0.4093 -2.0365  0.1620
 3613SOL     OW22297   1.317   3.229  17.258  0.1129  0.2224 -0.4843
 3613SOL    HW122298   1.333   3.277  17.339 -0.7551  1.1092 -0.8409
 3613SOL    HW222299   1.317   3.137  17.284 -0.7483  0.4279  0.2616
 3614SOL     OW22300   2.205   4.087  13.954  0.0559  0.3270  0.3652
 3614SOL    HW122301   2.230   4.014  14.011 -0.1863 -0.2148 -0.2211
 3614SOL    HW222302   2.158   4.142  14.017 -1.0575  1.7130 -1.6947
 3615SOL     OW22303   3.181   0.919  17.361 -0.1381  0.5277 -0.0180
 3615SOL    HW122304   3.225   0.909  17.277  0.5997  1.5648  0.2352
 3615SOL    HW222305   3.153   0.833  17.391 -1.8217  1.2708  0.5481
 3616SOL     OW22306   3.465   0.831   4.721  0.0782  0.4011 -0.6131
 3616SOL    HW122307   3.438   0.914   4.761  0.9315  0.8172 -0.8875
 3616SOL    HW222308   3.388   0.815   4.668  0.2741  1.3553 -1.1922
 3617SOL     OW22309   1.718   0.051   8.313 -0.3480 -0.0161 -0.2072
 3617SOL    HW122310   1.681   0.137   8.292 -0.1596  0.8443  2.9364
 3617SOL    HW222311   1.747   0.033   8.224  1.8992 -0.4404  0.5855
 3618SOL     OW22312   1.061   0.413   5.814  0.6270  0.2094 -0.7784
 3618SOL    HW122313   1.091   0.380   5.899 -3.4179 -0.6903  0.3469
 3618SOL    HW222314   0.966   0.414   5.829  0.6340 -0.8802 -0.6648
 3619SOL     OW22315   2.281   1.477   2.894  0.0690  0.4342  0.3695
 3619SOL    HW122316   2.253   1.529   2.818 -0.7545  0.6680  0.8327
 3619SOL    HW222317   2.222   1.518   2.958 -1.1488  0.7264 -0.9461
 3620SOL     OW22318   2.410   2.239  14.013 -0.2288 -0.5162 -0.1769
 3620SOL    HW122319   2.359   2.319  14.000  0.1321 -0.4174 -1.0421
 3620SOL    HW222320   2.441   2.219  13.924 -0.7671  1.2627 -0.7608
 3621SOL     OW22321   3.956   3.722   9.030  0.3694  0.4187 -0.4094
 3621SOL    HW122322   3.938   3.637   9.071 -1.1006  0.9767  0.0865
 3621SOL    HW222323   3.973   3.695   8.940  0.3931  0.7104 -0.4916
 3622SOL     OW22324   2.442   1.262   6.767  0.4909  0.0424  0.0936
 3622SOL    HW122325   2.499   1.186   6.751  2.2884  1.1887  1.1257
 3622SOL    HW222326   2.470   1.292   6.853  0.3791 -0.7791  0.4221
 3623SOL     OW22327   4.357   2.800   7.671 -0.7460 -0.3813 -0.4075
 3623SOL    HW122328   4.386   2.880   7.627 -1.0478 -0.2808 -0.4224
 3623SOL    HW222329   4.264   2.820   7.661 -0.6661  1.1713  1.7762
 3624SOL     OW22330   3.019   0.348   8.290 -0.0847  0.1373  0.2005
 3624SOL    HW122331   2.999   0.263   8.328 -0.9308  0.1398 -0.2359
 3624SOL    HW222332   3.013   0.398   8.372 -0.0156  2.3173 -1.1147
 3625SOL     OW22333   1.726   3.264  15.304 -0.0117 -0.5903  0.2515
 3625SOL    HW122334   1.703   3.355  15.323 -1.2848 -0.3675 -2.4258
 3625SOL    HW222335   1.650   3.224  15.347  0.5727 -0.7032  1.1789
 3626SOL     OW22336   2.985   0.781   2.391 -0.0656  0.1061  0.2677
 3626SOL    HW122337   3.048   0.804   2.322 -1.5043  0.6671 -0.8608
 3626SOL    HW222338   2.984   0.686   2.383  2.7900 -0.1193  2.4707
 3627SOL     OW22339   1.689   4.689   3.259  0.0281 -0.2450  0.4636
 3627SOL    HW122340   1.747   0.044   3.277  1.5298 -1.5971  1.1329
 3627SOL    HW222341   1.690   4.698   3.164  0.3826  1.9797  0.6689
 3628SOL     OW22342   2.573   3.246   9.635  0.0053  0.5899  0.1914
 3628SOL    HW122343   2.652   3.193   9.631  1.1101  2.3713 -2.0951
 3628SOL    HW222344   2.578   3.267   9.541  1.3226 -0.9379 -0.0732
 3629SOL     OW22345   0.142   3.253   6.994 -0.3235  0.5554  0.2307
 3629SOL    HW122346   0.216   3.207   6.955 -0.0225  1.9981 -0.9242
 3629SOL    HW222347   0.186   3.328   7.032  0.7922 -0.5068  1.0005
 3630SOL     OW22348   2.670   0.697   1.599  0.1588  0.6001  0.4168
 3630SOL    HW122349   2.742   0.708   1.537 -0.4943  0.7400 -0.3154
 3630SOL    HW222350   2.595   0.661   1.553  0.7438 -0.0998  0.0162
 3631SOL     OW22351   2.043   3.229   1.847  0.4910  0.5060 -0.6305
 3631SOL    HW122352   2.020   3.204   1.758 -1.8750  0.8547 -0.1369
 3631SOL    HW222353   2.032   3.324   1.849  0.6069  0.5409 -2.3020
 3632SOL     OW22354   1.027   0.821   7.543 -0.0585 -0.8393  0.5900
 3632SOL    HW122355   0.986   0.877   7.608 -0.8698 -0.5881 -0.1488
 3632SOL    HW222356   0.948   0.811   7.491 -0.1767 -0.4927  0.7043
 3633SOL     OW22357   2.225   2.652   0.447  0.0181 -0.0686  0.1119
 3633SOL    HW122358   2.311   2.668   0.408  0.7375  0.6659  2.0132
 3633SOL    HW222359   2.222   2.557   0.463 -2.0289 -0.0455 -0.1631
 3634SOL     OW22360   4.059   2.332  12.493  0.0117  0.0668  0.2828
 3634SOL    HW122361   4.134   2.289  12.451  0.0567  0.0873  0.3410
 3634SOL    HW222362   3.987   2.271  12.477  0.2152 -0.6039  1.8996
 3635SOL     OW22363   4.229   1.476   1.178  0.3902  0.1369 -0.1377
 3635SOL    HW122364   4.315   1.512   1.199 -0.1356  0.2911  1.7222
 3635SOL    HW222365   4.174   1.527   1.237  0.2998  0.2921 -0.3600
 3636SOL     OW22366   0.608   0.829   2.530  0.2250 -0.5567  0.3595
 3636SOL    HW122367   0.597   0.768   2.603  0.7952 -1.1850 -0.0841
 3636SOL    HW222368   0.666   0.893   2.571  0.2444 -0.2507 -0.1466
 3637SOL     OW22369   2.431   0.208   6.290  0.1345 -0.6288  0.0291
 3637SOL    HW122370   2.524   0.214   6.270 -0.0307  0.6853 -0.3210
 3637SOL    HW222371   2.426   0.247   6.377 -0.9227 -0.1594 -0.2389
 3638SOL     OW22372   3.116   1.456   5.372  0.1931  0.3669  0.1477
 3638SOL    HW122373   3.184   1.396   5.402 -1.9106 -1.3343  1.5556
 3638SOL    HW222374   3.137   1.463   5.279  0.0604 -0.6552  0.0445
 3639SOL     OW22375   0.683   3.388   3.009 -0.4492 -0.0003 -0.3987
 3639SOL    HW122376   0.729   3.321   3.060 -0.4865  1.7630  1.9125
 3639SOL    HW222377   0.751   3.454   3.015 -0.4321 -0.0235 -0.3382
 3640SOL     OW22378   3.172   4.393   2.358 -0.1175  0.2242 -0.4036
 3640SOL    HW122379   3.148   4.412   2.267  0.7271 -1.5618 -1.0131
 3640SOL    HW222380   3.144   4.474   2.400  0.2024  0.0709  0.0999
 3641SOL     OW22381   1.308   3.869  11.248 -0.0971 -0.3515  0.0047
 3641SOL    HW122382   1.386   3.923  11.260  0.8659 -1.1931 -2.3518
 3641SOL    HW222383   1.265   3.872  11.334 -1.8578  0.9834 -0.9120
 3642SOL     OW22384   4.334   1.809   8.288  0.0637 -0.4132  0.4378
 3642SOL    HW122385   4.370   1.831   8.374  1.3886 -0.1864 -0.1763
 3642SOL    HW222386   4.247   1.775   8.310  0.3887 -0.7494  1.2072
 3643SOL     OW22387   3.977   4.423   7.898  0.1361  0.1573 -0.2490
 3643SOL    HW122388   3.884   4.401   7.893  0.3145 -0.8743  0.9247
 3643SOL    HW222389   3.994   4.416   7.992 -0.1811  1.5170 -0.0868
 3644SOL     OW22390   0.430   1.760   4.572 -0.0324 -0.6009 -0.1727
 3644SOL    HW122391   0.479   1.680   4.555  1.6052 -0.1455  2.3915
 3644SOL    HW222392   0.343   1.736   4.540 -0.1758  0.5563 -0.6707
 3645SOL     OW22393   4.179   3.174   1.844 -0.1356 -0.8158 -0.0200
 3645SOL    HW122394   4.266   3.199   1.813  0.2082  0.3102  1.8188
 3645SOL    HW222395   4.122   3.214   1.777 -0.8363 -1.2637  0.3169
 3646SOL     OW22396   1.726   3.984  15.351  0.0019 -0.6260  0.5404
 3646SOL    HW122397   1.660   4.010  15.414  0.4601 -1.0178  1.1760
 3646SOL    HW222398   1.670   3.986  15.273 -1.6919  0.2573  1.8041
 3647SOL     OW22399   4.657   2.538   4.797 -0.1261  0.3017  0.1567
 3647SOL    HW122400   0.012   2.553   4.855 -0.7586  2.4788  0.4316
 3647SOL    HW222401   4.580   2.547   4.852  0.0676 -0.0767  0.4851
 3648SOL     OW22402   1.471   1.037   2.564  0.4517  0.0209 -0.2761
 3648SOL    HW122403   1.520   0.962   2.529  1.2832  1.0731 -1.3625
 3648SOL    HW222404   1.519   1.065   2.642  2.1946  1.9613 -2.0467
 3649SOL     OW22405   1.386   4.524  16.217  0.1430  0.1673  0.3103
 3649SOL    HW122406   1.390   4.549  16.309  0.7030  0.1579  0.2887
 3649SOL    HW222407   1.477   4.522  16.187 -0.0599 -2.7907 -0.0814
 3650SOL     OW22408   3.487   2.833   3.702 -0.5902  0.3897  0.2335
 3650SOL    HW122409   3.562   2.840   3.761  1.0572  2.0551 -2.1081
 3650SOL    HW222410   3.488   2.922   3.666  0.2369  0.1134 -0.4182
 3651SOL     OW22411   1.759   2.194  12.613 -0.3364 -0.5051 -0.3541
 3651SOL    HW122412   1.697   2.186  12.541 -0.0148 -0.4018 -0.6473
 3651SOL    HW222413   1.759   2.107  12.653  1.1688  0.0113  0.7913
 3652SOL     OW22414   0.219   4.534   6.228 -0.0443 -0.0891  0.2840
 3652SOL    HW122415   0.196   4.589   6.154  0.2726 -0.0391  0.2219
 3652SOL    HW222416   0.188   4.445   6.208  0.5279 -0.3050  0.3644
 3653SOL     OW22417   4.557   0.143  13.625  0.2114  0.8787 -0.0405
 3653SOL    HW122418   4.636   0.100  13.659 -0.4618  1.5645  2.4364
 3653SOL    HW222419   4.581   0.234  13.608  0.1755  0.9142  0.0952
 3654SOL     OW22420   3.406   3.166   7.585  0.3255 -0.6815 -0.5457
 3654SOL    HW122421   3.406   3.237   7.649 -2.1163  1.1522 -2.5931
 3654SOL    HW222422   3.315   3.137   7.581  0.6040 -1.6579 -0.0202
 3655SOL     OW22423   2.428   4.573   4.676  0.8110 -0.3819  0.0299
 3655SOL    HW122424   2.422   4.536   4.588 -1.0688  1.2539 -0.5292
 3655SOL    HW222425   2.508   4.531   4.706  1.7169 -0.1949 -2.1694
 3656SOL     OW22426   0.184   1.942   0.154 -0.0876 -0.6452 -0.0251
 3656SOL    HW122427   0.169   1.964   0.246 -1.3984 -0.0294 -0.3871
 3656SOL    HW222428   0.117   1.874   0.160 -1.4809  0.7230  0.1656
 3657SOL     OW22429   3.593   3.322   2.942  0.1081 -0.5270 -0.1101
 3657SOL    HW122430   3.663   3.275   2.985  1.3565  0.7653 -0.7326
 3657SOL    HW222431   3.553   3.359   3.021 -0.5063 -1.4043 -0.0104
 3658SOL     OW22432   0.434   4.027  15.541  0.2706  0.1168  0.2059
 3658SOL    HW122433   0.457   4.094  15.477 -1.6601  0.3583 -0.2187
 3658SOL    HW222434   0.410   3.952  15.486  1.3751 -0.5950  0.6869
 3659SOL     OW22435   2.936   3.548   5.128  0.4456 -0.2507 -0.1498
 3659SOL    HW122436   3.012   3.606   5.121  0.3976  0.2947  3.9265
 3659SOL    HW222437   2.897   3.566   5.042  0.3200  0.6300  0.0910
 3660SOL     OW22438   2.785   3.000   7.887  0.7201  0.2465  0.0993
 3660SOL    HW122439   2.749   2.920   7.849 -1.8436  1.5676 -0.2286
 3660SOL    HW222440   2.826   3.036   7.808  0.9445  1.4846  0.7789
 3661SOL     OW22441   2.934   4.065   3.551 -0.3398  0.5054 -0.0085
 3661SOL    HW122442   2.932   4.147   3.501 -2.4453 -0.5113 -1.6482
 3661SOL    HW222443   2.849   4.084   3.592 -0.2054  0.2338  0.3905
 3662SOL     OW22444   3.853   2.604   7.576 -0.0741 -0.1340 -0.2355
 3662SOL    HW122445   3.872   2.554   7.656 -1.5727  1.7105  1.2732
 3662SOL    HW222446   3.759   2.588   7.572 -0.2255 -0.1371  3.1534
 3663SOL     OW22447   4.022   0.937   1.563 -0.4486 -0.1618  0.0106
 3663SOL    HW122448   4.041   1.023   1.600 -0.5298 -0.0279 -0.2615
 3663SOL    HW222449   4.051   0.953   1.474  2.9486 -2.0676  0.7815
 3664SOL     OW22450   3.927   0.779   0.739 -0.8603  0.2188  0.0350
 3664SOL    HW122451   3.954   0.865   0.706 -2.9119  0.6256 -0.5828
 3664SOL    HW222452   3.913   0.720   0.665  1.4085 -0.3727  0.0600
 3665SOL     OW22453   1.931   2.958   9.598 -0.0918  0.3256  0.0505
 3665SOL    HW122454   1.902   3.009   9.674 -0.3295 -0.1681  0.2906
 3665SOL    HW222455   1.928   2.870   9.637 -0.9509  0.8694  1.2464
 3666SOL     OW22456   4.032   3.574   8.289 -0.5675  0.6817 -0.2274
 3666SOL    HW122457   4.063   3.632   8.358 -1.4730 -0.0293  0.7701
 3666SOL    HW222458   3.957   3.538   8.335  0.2117 -2.9867 -1.7812
 3667SOL     OW22459   2.202   2.957   1.440 -0.0613 -0.4528  1.0245
 3667SOL    HW122460   2.249   2.899   1.381  2.1184  0.8758  1.4567
 3667SOL    HW222461   2.269   2.985   1.503  2.2648 -1.3536 -1.0684
 3668SOL     OW22462   1.293   1.374   8.800 -0.3822  0.0922  0.2707
 3668SOL    HW122463   1.299   1.319   8.722 -0.8828  2.0150 -1.1238
 3668SOL    HW222464   1.200   1.395   8.793 -0.5151 -0.6801 -0.3082
 3669SOL     OW22465   2.163   1.270  15.882 -0.4099 -0.0848 -0.4642
 3669SOL    HW122466   2.102   1.339  15.854  1.4756  2.2879  1.2763
 3669SOL    HW222467   2.144   1.198  15.821 -0.6940 -2.0108  1.9107
 3670SOL     OW22468   1.773   2.043  12.859  0.0187  0.2368 -0.4653
 3670SOL    HW122469   1.753   1.958  12.822  1.3608 -0.8153  1.2002
 3670SOL    HW222470   1.867   2.031  12.874  0.0823 -0.8029 -1.7429
 3671SOL     OW22471   3.479   4.096   5.591 -0.0040  0.2055  0.2380
 3671SOL    HW122472   3.444   4.027   5.535 -0.0980 -1.3623  2.2398
 3671SOL    HW222473   3.493   4.175   5.539 -0.2305 -0.0102 -0.1533
 3672SOL     OW22474   4.523   0.890   1.395 -0.4250  0.3378 -0.3544
 3672SOL    HW122475   4.507   0.983   1.381 -0.4653  0.5489  1.0961
 3672SOL    HW222476   4.618   0.892   1.398 -0.4062 -1.7799  0.3811
 3673SOL     OW22477   3.217   1.991   5.775  0.2560  0.1789  0.8485
 3673SOL    HW122478   3.262   2.061   5.728  0.5483 -1.0587 -0.7128
 3673SOL    HW222479   3.254   2.010   5.861 -0.2665  2.6070  0.5267
 3674SOL     OW22480   3.665   1.094   1.759  0.4789  0.2250  0.1093
 3674SOL    HW122481   3.580   1.069   1.795  1.1172  0.0207  1.4961
 3674SOL    HW222482   3.686   1.024   1.698 -0.8988  0.8497 -1.0583
 3675SOL     OW22483   0.598   0.862  12.486  0.5423  0.2566 -0.0726
 3675SOL    HW122484   0.611   0.955  12.505  1.7862 -0.3918  2.2435
 3675SOL    HW222485   0.617   0.861  12.392  0.7505  1.8780 -0.0575
 3676SOL     OW22486   2.237   0.684   7.292  0.4121 -0.0771 -0.4200
 3676SOL    HW122487   2.192   0.665   7.209  1.9441 -0.2173 -1.2146
 3676SOL    HW222488   2.265   0.596   7.316 -1.0436 -0.2505  0.6357
 3677SOL     OW22489   1.369   0.367   3.612 -0.5894 -0.2429  0.1376
 3677SOL    HW122490   1.350   0.402   3.699  0.2720  1.5059 -0.3743
 3677SOL    HW222491   1.298   0.394   3.554 -0.2314 -2.2921 -1.2969
 3678SOL     OW22492   3.131   1.410   4.658 -0.1767  0.8554  0.2862
 3678SOL    HW122493   3.206   1.410   4.598  0.7126 -2.1010  1.4313
 3678SOL    HW222494   3.067   1.382   4.594 -0.8187  1.5289  0.6293
 3679SOL     OW22495   4.426   4.437   2.933  0.4192  0.2114  0.0136
 3679SOL    HW122496   4.474   4.368   2.887 -1.9040 -0.7340 -1.0003
 3679SOL    HW222497   4.428   4.498   2.859  0.3309 -1.0324 -1.0206
 3680SOL     OW22498   1.226   4.629   9.786  0.5890 -0.2741 -0.3156
 3680SOL    HW122499   1.231   4.540   9.752  0.7866 -0.4358  0.1368
 3680SOL    HW222500   1.262   4.643   9.874  2.7647 -0.7369 -1.1283
 3681SOL     OW22501   3.599   1.531   3.208  0.2304  1.1342 -0.2191
 3681SOL    HW122502   3.584   1.522   3.114 -1.5951 -0.1308  0.1740
 3681SOL    HW222503   3.557   1.613   3.234 -0.7818  0.2220  1.0869
 3682SOL     OW22504   2.483   3.501  11.297  0.3795  0.5218 -0.5202
 3682SOL    HW122505   2.539   3.576  11.279 -1.0266  1.3428 -1.4042
 3682SOL    HW222506   2.403   3.540  11.332  0.1001  0.6686 -1.3316
 3683SOL     OW22507   4.647   0.372  13.876  0.1841  0.3404 -0.2729
 3683SOL    HW122508   4.583   0.414  13.933 -1.2617 -3.2281  0.7002
 3683SOL    HW222509   0.006   0.421  13.901  0.9329 -1.3072  0.6053
 3684SOL     OW22510   1.357   3.358   4.737  0.3607 -0.1950 -0.2245
 3684SOL    HW122511   1.292   3.387   4.801 -0.7820  1.3398 -2.1037
 3684SOL    HW222512   1.305   3.286   4.701  1.9378 -0.9690 -0.9263
 3685SOL     OW22513   1.430   0.397  16.149  0.3847 -0.5677  0.3174
 3685SOL    HW122514   1.493   0.396  16.076  1.4905 -2.7056  1.2884
 3685SOL    HW222515   1.487   0.372  16.222  0.7589 -0.4694  0.0595
 3686SOL     OW22516   3.068   1.285   8.082  0.1016  0.0761  0.0602
 3686SOL    HW122517   3.157   1.287   8.116 -0.0679 -1.6043  0.5687
 3686SOL    HW222518   3.020   1.258   8.160  0.4082  1.1495  0.6286
 3687SOL     OW22519   1.967   1.450  15.852 -0.0839 -0.1288 -0.0920
 3687SOL    HW122520   1.888   1.505  15.848  0.6370  0.6687 -2.9746
 3687SOL    HW222521   2.024   1.526  15.859  0.9980 -0.7489 -2.2055
 3688SOL     OW22522   3.597   4.624   5.026 -0.3454 -0.3720 -0.6930
 3688SOL    HW122523   3.535   4.660   5.089 -2.5760 -0.0341 -3.0798
 3688SOL    HW222524   3.644   4.703   4.999  0.7153  0.1878  2.8699
 3689SOL     OW22525   1.406   3.132  12.704 -0.0160 -0.2969  0.2116
 3689SOL    HW122526   1.484   3.185  12.720 -0.0399 -0.6853  1.6198
 3689SOL    HW222527   1.427   3.053  12.754 -1.4101 -2.2761 -2.3530
 3690SOL     OW22528   2.091   1.400  15.598 -0.3196 -0.6212  0.1259
 3690SOL    HW122529   2.050   1.480  15.563 -1.6039 -0.7862  1.2466
 3690SOL    HW222530   2.175   1.434  15.627 -0.0105 -1.9814  0.8148
 3691SOL     OW22531   0.023   2.500  12.447 -0.3588  0.4090 -0.3123
 3691SOL    HW122532   4.691   2.516  12.368  0.7477  0.5396 -0.9979
 3691SOL    HW222533   0.053   2.591  12.452 -1.8022  0.9459 -1.2678
 3692SOL     OW22534   1.492   0.914  11.254  0.8660  0.4704 -0.1132
 3692SOL    HW122535   1.491   1.002  11.291 -1.0159  0.5861 -0.4518
 3692SOL    HW222536   1.581   0.899  11.220  1.5583  1.2291  1.3661
 3693SOL     OW22537   4.408   1.667   6.901 -0.2647  0.6370 -0.8476
 3693SOL    HW122538   4.493   1.672   6.858  0.6850  1.5549  1.1483
 3693SOL    HW222539   4.424   1.635   6.990 -2.0366 -1.3242 -1.2262
 3694SOL     OW22540   2.425   3.041   2.454  0.1582  0.1433  0.4983
 3694SOL    HW122541   2.499   3.053   2.512  1.1897 -2.7632 -0.2019
 3694SOL    HW222542   2.361   2.990   2.504 -2.6933  2.1066 -1.0903
 3695SOL     OW22543   4.635   0.550   3.282  0.1218 -0.1003 -0.1469
 3695SOL    HW122544   4.626   0.632   3.234 -0.2947 -1.6149 -2.6201
 3695SOL    HW222545   4.623   0.485   3.213  0.3837 -1.9802  1.5782
 3696SOL     OW22546   3.591   0.927   2.561  0.0378 -0.8704 -0.0296
 3696SOL    HW122547   3.684   0.939   2.538  0.5851 -1.2673  2.0072
 3696SOL    HW222548   3.566   1.013   2.527  0.2353 -0.5192  0.7272
 3697SOL     OW22549   2.844   2.267  15.901 -0.4096 -0.1373 -0.3174
 3697SOL    HW122550   2.892   2.248  15.821 -0.2871  1.8124 -0.7204
 3697SOL    HW222551   2.845   2.363  15.897  0.1997 -0.0932  0.8263
 3698SOL     OW22552   4.039   4.255   6.105  0.3101  0.0411  0.2381
 3698SOL    HW122553   4.109   4.316   6.125 -0.3411  0.6899  0.5629
 3698SOL    HW222554   4.074   4.193   6.042 -3.8666 -1.2821 -0.8354
 3699SOL     OW22555   4.693   4.531  14.618  0.0123 -0.0152  0.5605
 3699SOL    HW122556   0.051   4.536  14.675 -0.6246  0.8704  1.3406
 3699SOL    HW222557   4.679   4.623  14.595  0.3747  0.0322  0.5305
 3700SOL     OW22558   0.908   0.544   3.629 -0.5591 -0.5080 -0.4553
 3700SOL    HW122559   0.825   0.570   3.588  0.4934 -0.0675 -2.3120
 3700SOL    HW222560   0.961   0.543   3.549 -0.6100  1.8910 -0.5181
 3701SOL     OW22561   2.609   0.266   3.550  0.6911  0.7199 -0.2621
 3701SOL    HW122562   2.546   0.213   3.600  1.7549 -0.6564 -0.3925
 3701SOL    HW222563   2.654   0.201   3.496 -1.0504 -0.1879 -0.6120
 3702SOL     OW22564   2.693   2.782   7.760  0.3440  0.1918  0.1069
 3702SOL    HW122565   2.718   2.690   7.771  0.6274  0.2723  0.1421
 3702SOL    HW222566   2.598   2.782   7.772  0.9351  1.0578  5.1344
 3703SOL     OW22567   3.692   2.310   2.384  0.0097 -0.3746  0.4143
 3703SOL    HW122568   3.615   2.266   2.419  0.3333 -0.4808  0.9939
 3703SOL    HW222569   3.738   2.329   2.466 -0.7528  0.4304  0.6485
 3704SOL     OW22570   2.949   2.257  15.655 -0.0361 -0.0031 -0.0627
 3704SOL    HW122571   3.007   2.182  15.671 -1.7852 -1.8427 -2.3910
 3704SOL    HW222572   2.974   2.267  15.563 -2.3329 -1.2093 -0.8181
 3705SOL     OW22573   0.446   0.968  14.223  0.4853 -0.3973 -0.3058
 3705SOL    HW122574   0.509   1.030  14.262  1.1751  0.1896 -2.3848
 3705SOL    HW222575   0.496   0.914  14.162 -0.6895 -3.2079  1.1922
 3706SOL     OW22576   4.578   3.338  16.822  0.3883  0.2259 -0.1468
 3706SOL    HW122577   4.564   3.253  16.781  2.1518 -0.0196 -0.2166
 3706SOL    HW222578   4.668   3.357  16.794 -0.4007  0.7414 -2.3582
 3707SOL     OW22579   2.244   0.849   6.130 -0.1526  0.1402  0.3645
 3707SOL    HW122580   2.219   0.858   6.038  0.6437 -0.4189  0.0970
 3707SOL    HW222581   2.249   0.942   6.154 -0.9804 -0.1564  1.6806
 3708SOL     OW22582   0.668   3.061  17.581  0.3203  0.4768 -0.1720
 3708SOL    HW122583   0.580   3.022  17.571  0.0180  0.6517  1.7289
 3708SOL    HW222584   0.637   3.144  17.618  1.3195 -0.1951  2.1263
 3709SOL     OW22585   4.562   3.881  14.442 -0.3592 -0.3136  0.3993
 3709SOL    HW122586   4.533   3.923  14.523 -0.8251 -0.3067  0.2295
 3709SOL    HW222587   4.477   3.879  14.399 -1.0619 -0.1298  1.7609
 3710SOL     OW22588   3.982   1.406   3.520  0.7865  0.4785 -0.3746
 3710SOL    HW122589   3.943   1.405   3.433 -1.5262  1.7850  0.6335
 3710SOL    HW222590   4.017   1.495   3.518  1.5482  0.2685  2.8379
 3711SOL     OW22591   4.644   3.468   0.087  0.3947  0.1287  0.2792
 3711SOL    HW122592   4.560   3.482   0.131 -0.1522 -0.9465 -0.4423
 3711SOL    HW222593   4.703   3.461   0.162 -0.9658  0.3877  1.3843
 3712SOL     OW22594   3.514   0.486   0.646  0.2014  0.2017  0.3978
 3712SOL    HW122595   3.440   0.443   0.690  0.3879 -1.9175 -1.3561
 3712SOL    HW222596   3.484   0.577   0.643 -1.4318 -0.3176  0.5490
 3713SOL     OW22597   2.486   4.174   2.603  0.6838  0.1700  0.0597
 3713SOL    HW122598   2.503   4.088   2.565 -1.0389 -0.2537  0.2179
 3713SOL    HW222599   2.484   4.239   2.534  0.5470  1.1963  1.0367
 3714SOL     OW22600   2.167   1.242   5.144  0.0644 -0.6477  0.0719
 3714SOL    HW122601   2.165   1.326   5.191 -0.1773 -0.3984 -0.3736
 3714SOL    HW222602   2.260   1.220   5.133 -0.0723 -2.1552  2.0613
 3715SOL     OW22603   4.709   3.845   7.382  0.0025  0.5714 -0.3445
 3715SOL    HW122604   0.018   3.754   7.379 -1.6172 -0.0164  1.5146
 3715SOL    HW222605   0.066   3.881   7.428  0.2373 -0.0178 -0.2781
 3716SOL     OW22606   2.853   2.072  11.390  0.6813 -0.3103  0.7404
 3716SOL    HW122607   2.792   2.145  11.381 -1.2093 -1.8689  0.8931
 3716SOL    HW222608   2.881   2.061  11.299  0.1899 -1.0732  0.6818
 3717SOL     OW22609   2.545   4.369   1.615 -0.1901 -0.1741  0.1015
 3717SOL    HW122610   2.555   4.276   1.637  0.6819  0.0465  0.6173
 3717SOL    HW222611   2.515   4.394   1.703  0.8962  1.3484  0.0405
 3718SOL     OW22612   3.124   1.193   6.181  0.4630  0.4026  0.1605
 3718SOL    HW122613   3.135   1.189   6.086 -1.1155 -0.3721  0.0118
 3718SOL    HW222614   3.209   1.179   6.224  2.8336  3.1109 -3.6326
 3719SOL     OW22615   4.487   4.573  12.454  0.2233  0.3373 -0.0149
 3719SOL    HW122616   4.543   4.542  12.525 -0.5454 -0.7332  0.1210
 3719SOL    HW222617   4.400   4.539  12.476  0.3319  1.2193  1.8102
 3720SOL     OW22618   4.096   0.282   8.620  0.0671  0.3050 -0.0856
 3720SOL    HW122619   4.111   0.355   8.560 -1.3593  0.6100 -0.0718
 3720SOL    HW222620   4.015   0.314   8.661 -1.6584 -2.7440 -1.1626
 3721SOL     OW22621   0.928   2.015  15.187 -0.4033 -0.2927  0.4326
 3721SOL    HW122622   0.997   2.073  15.154  1.2584 -0.5534  3.3977
 3721SOL    HW222623   0.859   2.081  15.186 -1.8550 -1.8164  1.8465
 3722SOL     OW22624   1.250   0.993   7.581  0.1840 -0.2804 -0.0956
 3722SOL    HW122625   1.178   0.932   7.561 -1.1094  0.9644  0.7550
 3722SOL    HW222626   1.298   0.954   7.653 -1.0454  1.9945  1.9533
 3723SOL     OW22627   2.728   1.322   1.903  0.2072  0.5551 -0.1640
 3723SOL    HW122628   2.679   1.280   1.974 -0.2218 -0.8347 -1.2841
 3723SOL    HW222629   2.769   1.247   1.862 -1.6343 -0.6834  0.2642
 3724SOL     OW22630   4.459   2.452  13.215  0.0771 -0.1346 -0.3320
 3724SOL    HW122631   4.463   2.367  13.173  1.0709  0.3661 -1.2439
 3724SOL    HW222632   4.443   2.419  13.303  1.0633  0.7893  0.1874
 3725SOL     OW22633   3.551   2.676   1.346  0.1561 -0.2795  0.1031
 3725SOL    HW122634   3.487   2.696   1.278 -0.6311  2.2082  1.5691
 3725SOL    HW222635   3.524   2.747   1.405  0.8418 -0.0698  0.1607
 3726SOL     OW22636   3.490   3.554   3.964  0.1686 -0.4540  0.1490
 3726SOL    HW122637   3.575   3.580   4.000 -0.3170 -1.3674  1.9837
 3726SOL    HW222638   3.464   3.483   4.023 -0.2637  0.2697  0.8364
 3727SOL     OW22639   3.815   2.652   2.818  0.1526  0.3310 -0.1112
 3727SOL    HW122640   3.871   2.689   2.750  0.7312  2.1371  1.3226
 3727SOL    HW222641   3.876   2.587   2.853  0.5585  0.1762 -1.1241
 3728SOL     OW22642   0.855   0.794   4.623 -0.4697  0.1159  0.0101
 3728SOL    HW122643   0.860   0.867   4.684 -0.1673  1.9247 -2.1974
 3728SOL    HW222644   0.880   0.834   4.540 -0.4573  1.1864  0.5371
 3729SOL     OW22645   0.808   1.879   2.424 -0.1882  0.5515 -0.3011
 3729SOL    HW122646   0.724   1.857   2.464 -0.3574  2.4481  0.3745
 3729SOL    HW222647   0.812   1.967   2.459  1.1465  0.1730  0.4869
 3730SOL     OW22648   4.509   0.243   2.019 -1.0245 -0.1109 -0.4019
 3730SOL    HW122649   4.474   0.302   1.952 -1.7678  1.1419  1.0953
 3730SOL    HW222650   4.596   0.282   2.019 -0.1208 -2.1443 -1.4990
 3731SOL     OW22651   1.233   0.362  11.774 -0.3158 -0.1936 -0.4656
 3731SOL    HW122652   1.188   0.422  11.833  4.0154  2.1691  0.4510
 3731SOL    HW222653   1.324   0.382  11.798 -0.3389 -1.5662  0.7604
 3732SOL     OW22654   2.919   0.654  12.258 -0.5667  0.0700  0.1221
 3732SOL    HW122655   2.869   0.583  12.217 -0.6802 -0.2315  0.7762
 3732SOL    HW222656   2.925   0.714  12.184  0.1312 -0.5683 -0.3391
 3733SOL     OW22657   4.049   1.580   4.486 -0.7118  0.4702 -0.4084
 3733SOL    HW122658   4.037   1.500   4.436 -0.3577  0.2435 -0.1257
 3733SOL    HW222659   4.010   1.550   4.568 -0.4966 -1.5866 -1.0798
 3734SOL     OW22660   3.681   0.073   9.243 -0.0216 -0.5173 -0.2417
 3734SOL    HW122661   3.720   0.039   9.163  0.6119  2.4831 -1.2150
 3734SOL    HW222662   3.632   0.146   9.204  0.2263  0.3728  1.1106
 3735SOL     OW22663   1.618   4.446   7.441  0.0895 -0.4942  0.1117
 3735SOL    HW122664   1.601   4.536   7.414  0.6944  0.0418  1.5459
 3735SOL    HW222665   1.619   4.404   7.354  1.4863  2.5288 -1.3340
 3736SOL     OW22666   4.038   3.407   5.749 -0.3998 -0.3465 -0.2564
 3736SOL    HW122667   4.055   3.462   5.826  2.0988  0.2739 -1.2514
 3736SOL    HW222668   4.074   3.325   5.782  0.6877  0.7439  1.2730
 3737SOL     OW22669   4.660   0.577   4.310  0.5663  0.2785 -0.3068
 3737SOL    HW122670   0.015   0.572   4.251  2.4475  1.3677  1.9479
 3737SOL    HW222671   4.677   0.491   4.347  2.9483  2.5070  3.7373
 3738SOL     OW22672   3.748   3.559   1.382  0.7704 -0.1149 -0.5151
 3738SOL    HW122673   3.699   3.579   1.462  0.3126  0.8111 -1.0328
 3738SOL    HW222674   3.804   3.634   1.363 -0.1546  0.3078 -1.5608
 3739SOL     OW22675   1.503   0.221   7.402  0.4685  0.3076 -0.1414
 3739SOL    HW122676   1.539   0.158   7.464 -2.5823 -1.4266 -0.1355
 3739SOL    HW222677   1.408   0.218   7.416  0.5516 -0.8067  0.1353
 3740SOL     OW22678   2.447   1.708   6.499 -0.7981 -0.0735  0.5448
 3740SOL    HW122679   2.367   1.714   6.447  0.0532  0.9094 -0.6594
 3740SOL    HW222680   2.467   1.615   6.504  0.7173  0.3154  1.7657
 3741SOL     OW22681   2.632   2.795   3.043 -0.5224 -0.0943 -0.6203
 3741SOL    HW122682   2.719   2.832   3.060 -0.0882 -1.3242 -0.1860
 3741SOL    HW222683   2.653   2.705   3.068  0.7884  0.3927  0.0710
 3742SOL     OW22684   1.749   2.312  13.086 -0.7451  0.4309  0.5476
 3742SOL    HW122685   1.744   2.277  13.174 -0.6679 -1.1985 -0.0964
 3742SOL    HW222686   1.698   2.391  13.105  1.0040  1.5583  0.4715
 3743SOL     OW22687   1.433   1.812  16.703  0.1237 -0.6164  0.4835
 3743SOL    HW122688   1.396   1.773  16.782  0.1079 -3.5940 -1.0068
 3743SOL    HW222689   1.414   1.904  16.720  1.9699 -0.1799  0.1887
 3744SOL     OW22690   2.063   1.351   3.262  0.3919  0.5552 -0.5001
 3744SOL    HW122691   2.017   1.416   3.208  0.5893 -0.8873 -2.4134
 3744SOL    HW222692   2.044   1.274   3.208 -1.4475  1.4487 -1.1399
 3745SOL     OW22693   4.481   0.016   3.094  0.5640  0.2331 -0.1355
 3745SOL    HW122694   4.538   0.078   3.048  0.2352  1.2388  0.8052
 3745SOL    HW222695   4.498   4.660   3.038 -3.8823 -1.9065  1.4475
 3746SOL     OW22696   2.789   1.592  14.010  0.4502 -0.5340 -0.0388
 3746SOL    HW122697   2.803   1.507  14.051  1.0737 -1.3500 -1.9419
 3746SOL    HW222698   2.696   1.596  14.032  1.1022 -0.1049  2.6352
 3747SOL     OW22699   2.789   1.241   9.056  0.5579  0.2277  0.6584
 3747SOL    HW122700   2.780   1.154   9.095  0.6469 -0.8708 -1.7831
 3747SOL    HW222701   2.706   1.283   9.078  0.6870 -0.2986  2.1979
 3748SOL     OW22702   0.138   1.641  10.341  0.0690  0.1543 -0.0783
 3748SOL    HW122703   0.116   1.733  10.353 -0.4658  0.5321 -4.0592
 3748SOL    HW222704   0.232   1.648  10.321  0.2377 -1.5690  0.0803
 3749SOL     OW22705   4.195   1.266   9.281  0.5249  0.8319  0.2718
 3749SOL    HW122706   4.103   1.254   9.302  0.8959 -1.2918  0.7176
 3749SOL    HW222707   4.226   1.332   9.343 -0.2937  0.8198  0.6909
 3750SOL     OW22708   1.254   2.499   1.718 -0.3579  0.3769  0.1590
 3750SOL    HW122709   1.275   2.565   1.652  0.3701 -0.0745 -0.0608
 3750SOL    HW222710   1.259   2.420   1.664 -0.0903 -0.6203  1.6341
 3751SOL     OW22711   1.699   0.284   7.775 -0.2995 -0.6025 -0.5141
 3751SOL    HW122712   1.747   0.210   7.737 -1.6354 -1.6933 -0.0500
 3751SOL    HW222713   1.759   0.356   7.755 -0.1770 -0.6959 -0.4869
 3752SOL     OW22714   3.218   0.864   3.217  0.3528 -0.1902  0.2703
 3752SOL    HW122715   3.286   0.872   3.284 -0.3620  0.3736  0.9262
 3752SOL    HW222716   3.266   0.887   3.138  2.3125  0.8446  1.7689
 3753SOL     OW22717   0.753   0.498  13.510 -0.4240  0.0882 -0.0122
 3753SOL    HW122718   0.797   0.532  13.432  0.1364  1.1841  0.7817
 3753SOL    HW222719   0.662   0.514  13.484  0.6831  4.1902 -1.4442
 3754SOL     OW22720   2.123   4.423   6.115  0.4304  0.9385  0.1819
 3754SOL    HW122721   2.122   4.510   6.157 -2.4099  0.9521  0.0587
 3754SOL    HW222722   2.199   4.438   6.058  0.6232 -1.9788 -0.3179
 3755SOL     OW22723   0.931   1.548   7.146 -0.4609  0.0434 -0.2973
 3755SOL    HW122724   0.883   1.519   7.069 -0.8796 -1.9487  0.7047
 3755SOL    HW222725   0.897   1.498   7.221 -0.8489  1.6517  0.6209
 3756SOL     OW22726   1.556   0.689   2.875  0.0519  0.0987  0.0863
 3756SOL    HW122727   1.570   0.747   2.950  0.0852  1.1101 -0.6983
 3756SOL    HW222728   1.465   0.708   2.853 -0.9895 -3.2138  1.6186
 3757SOL     OW22729   3.177   2.143   1.894 -0.2936  0.0990 -0.0121
 3757SOL    HW122730   3.158   2.125   1.986  1.3219  0.2702  0.3469
 3757SOL    HW222731   3.196   2.054   1.866 -0.1683  1.3638 -3.9864
 3758SOL     OW22732   3.434   4.647  16.520 -0.4399  0.4956  0.4786
 3758SOL    HW122733   3.440   4.592  16.442  1.0293 -0.6558  1.4084
 3758SOL    HW222734   3.354   4.620  16.564  0.6842 -2.2904  0.7902
 3759SOL     OW22735   1.829   0.560   3.013  0.1030 -0.1856  0.0087
 3759SOL    HW122736   1.894   0.565   3.083  0.6383 -1.9060 -0.3803
 3759SOL    HW222737   1.749   0.568   3.066  2.6747 -0.0313  3.8754
 3760SOL     OW22738   3.820   1.871   6.930 -0.5609 -0.5750 -0.0909
 3760SOL    HW122739   3.905   1.898   6.965 -1.2989  0.9511  0.5226
 3760SOL    HW222740   3.859   1.812   6.865  0.2739 -0.3638  0.2091
 3761SOL     OW22741   3.661   0.763   0.102 -0.0545 -0.0469 -0.7022
 3761SOL    HW122742   3.655   0.854   0.072 -0.5711  0.5841  1.3615
 3761SOL    HW222743   3.754   0.741   0.102  0.0964  0.5706 -1.0494
 3762SOL     OW22744   2.672   0.125   3.962 -0.0493 -0.1116  0.5022
 3762SOL    HW122745   2.688   0.046   4.013  0.3293 -2.2434 -2.9191
 3762SOL    HW222746   2.692   0.090   3.875  0.0767 -0.0815  0.5188
 3763SOL     OW22747   3.352   3.374   0.049 -0.1829  0.1043  0.8211
 3763SOL    HW122748   3.410   3.317  17.678  0.1080  1.7668 -0.6912
 3763SOL    HW222749   3.315   3.301   0.100  1.2168 -0.7678  0.5800
 3764SOL     OW22750   0.832   0.746   1.593  0.0487 -0.3433  0.3736
 3764SOL    HW122751   0.788   0.827   1.567 -0.2401 -0.7277 -0.3341
 3764SOL    HW222752   0.774   0.689   1.543  0.0803 -1.1381  1.2377
 3765SOL     OW22753   4.701   2.116   5.628  0.1656  0.8716 -0.4515
 3765SOL    HW122754   4.698   2.195   5.575  0.1297  0.5793 -0.8852
 3765SOL    HW222755   0.017   2.043   5.577 -0.9602  0.5006 -0.7106
 3766SOL     OW22756   2.444   2.244  14.290  0.6076 -0.1030 -0.2013
 3766SOL    HW122757   2.433   2.239  14.195  0.5964 -1.9963 -0.1042
 3766SOL    HW222758   2.503   2.318  14.302  1.1250 -0.8914  2.0799
 3767SOL     OW22759   0.593   4.089   9.716  0.7660 -0.2032  0.0274
 3767SOL    HW122760   0.553   4.002   9.710 -0.0036  0.0695  1.0329
 3767SOL    HW222761   0.618   4.099   9.624  0.2358  0.2988 -0.0667
 3768SOL     OW22762   2.357   4.665   4.005 -0.4885  0.2165 -0.0692
 3768SOL    HW122763   2.443   4.640   3.970  0.3857 -0.8452  2.8368
 3768SOL    HW222764   2.377   4.673   4.099 -0.2005 -2.1817  0.0714
 3769SOL     OW22765   1.253   2.262   1.534  0.1579  0.1486  0.1436
 3769SOL    HW122766   1.324   2.293   1.478  1.3325  1.0017  2.1027
 3769SOL    HW222767   1.188   2.284   1.467 -0.5968  3.0267  1.8322
 3770SOL     OW22768   2.736   0.865  11.573 -0.3399 -0.2066  0.1539
 3770SOL    HW122769   2.715   0.918  11.496  2.2126 -1.5493 -1.4632
 3770SOL    HW222770   2.831   0.865  11.561  0.2016  2.6634  4.2054
 3771SOL     OW22771   2.572   1.524   1.926 -0.0774  0.2656 -0.2490
 3771SOL    HW122772   2.636   1.454   1.919  1.2678  1.8138 -3.2022
 3771SOL    HW222773   2.489   1.475   1.931  0.6125 -1.1484 -3.0416
 3772SOL     OW22774   0.073   0.666   7.929 -0.2332 -0.0867  0.2785
 3772SOL    HW122775   0.048   0.576   7.946 -1.4285  0.2880  0.4984
 3772SOL    HW222776   4.710   0.715   7.922 -0.5977 -0.7231  0.0698
 3773SOL     OW22777   1.932   3.965   6.726  0.0444  0.1028  0.1783
 3773SOL    HW122778   1.892   3.896   6.780  0.1306 -0.0312  0.0738
 3773SOL    HW222779   1.941   4.043   6.781  3.0171 -0.8530  1.0631
 3774SOL     OW22780   3.697   0.721   4.598 -0.1407 -0.3777  0.2489
 3774SOL    HW122781   3.609   0.759   4.608  0.5938  1.5569 -0.6664
 3774SOL    HW222782   3.736   0.779   4.533  1.0250  0.3778  1.6138
 3775SOL     OW22783   1.868   0.476   7.187 -0.0606 -0.0463 -0.3815
 3775SOL    HW122784   1.923   0.506   7.115  1.7086  0.2982  1.0930
 3775SOL    HW222785   1.836   0.557   7.225  0.4199 -0.1319  0.2193
 3776SOL     OW22786   1.933   2.074   3.161  0.3726 -0.1801  0.0587
 3776SOL    HW122787   1.876   2.150   3.176  0.8910  0.7029 -2.3287
 3776SOL    HW222788   2.005   2.119   3.115 -0.3661  0.3754 -0.5490
 3777SOL     OW22789   0.562   2.042   5.494 -0.1462 -0.0120  0.1071
 3777SOL    HW122790   0.600   2.032   5.407  2.8455  1.5586  1.2393
 3777SOL    HW222791   0.580   1.953   5.524  0.1761 -0.9034 -2.6672
 3778SOL     OW22792   3.192   1.858   7.424  0.0884 -0.2861 -0.5961
 3778SOL    HW122793   3.119   1.913   7.396  0.4097 -0.0999 -1.0583
 3778SOL    HW222794   3.263   1.908   7.385  0.3709  0.6434  1.1137
 3779SOL     OW22795   4.471   2.199   5.936  0.0720  0.1174  0.4967
 3779SOL    HW122796   4.514   2.275   5.976  0.0989  1.1944 -1.5925
 3779SOL    HW222797   4.527   2.122   5.925  0.6781  0.5962  0.2441
 3780SOL     OW22798   3.626   1.616   4.306 -0.6766  0.0042  0.1461
 3780SOL    HW122799   3.674   1.670   4.369  0.1906  0.4576 -0.8860
 3780SOL    HW222800   3.683   1.626   4.229 -1.6022  3.6610 -0.0707
 3781SOL     OW22801   1.854   1.256   6.142  0.3856  0.3523  0.0762
 3781SOL    HW122802   1.789   1.185   6.144  0.9992 -0.2037  0.0147
 3781SOL    HW222803   1.819   1.291   6.060  3.2975 -0.0290 -1.2986
 3782SOL     OW22804   0.319   1.057   7.237  0.2832 -0.2792 -0.0601
 3782SOL    HW122805   0.407   1.074   7.204 -0.5522 -1.1425 -2.6936
 3782SOL    HW222806   0.323   0.964   7.218  0.2875 -0.6161  1.5758
 3783SOL     OW22807   2.216   0.979   6.674  0.3239 -0.1276  0.3760
 3783SOL    HW122808   2.186   1.028   6.597 -0.0758 -0.2730  0.4361
 3783SOL    HW222809   2.212   1.041   6.747  0.9992 -1.0725  1.2214
 3784SOL     OW22810   3.283   3.988   7.853 -0.1077 -0.0792 -0.0695
 3784SOL    HW122811   3.187   3.990   7.860  0.1547 -0.5867  3.7285
 3784SOL    HW222812   3.307   4.050   7.922  0.3059  2.4559 -2.5204
 3785SOL     OW22813   4.203   0.489   5.898 -0.0812 -0.5352  0.3374
 3785SOL    HW122814   4.238   0.534   5.975  0.9243 -0.1555 -0.3428
 3785SOL    HW222815   4.189   0.404   5.939 -1.8339 -0.5979 -0.3895
 3786SOL     OW22816   0.499   1.487   0.966 -0.1161  0.3462  0.0514
 3786SOL    HW122817   0.578   1.456   1.011 -0.9030  0.7472  1.7011
 3786SOL    HW222818   0.483   1.570   1.010  1.0665  0.5964  0.0234
 3787SOL     OW22819   0.949   2.350  16.246  0.3147 -0.6185  0.5320
 3787SOL    HW122820   0.918   2.307  16.167 -0.9807 -0.0021  0.6921
 3787SOL    HW222821   0.888   2.424  16.240 -0.3726 -1.0265  2.3490
 3788SOL     OW22822   0.125   0.250   5.574 -0.3678 -0.2313  0.0008
 3788SOL    HW122823   0.109   0.194   5.498  1.5993  0.5574 -0.9790
 3788SOL    HW222824   0.137   0.337   5.536 -0.7882  0.5303  1.6434
 3789SOL     OW22825   1.604   4.362   2.609 -0.3635 -0.1426  0.0953
 3789SOL    HW122826   1.700   4.360   2.614 -0.3175 -0.7454 -1.2478
 3789SOL    HW222827   1.585   4.312   2.530 -2.4813 -1.2541  1.3038
 3790SOL     OW22828   3.590   4.060   8.757  0.6506  0.2750 -0.3302
 3790SOL    HW122829   3.595   3.975   8.799  0.1856 -0.6031 -2.0650
 3790SOL    HW222830   3.661   4.050   8.694 -0.4477 -1.4125 -1.2832
 3791SOL     OW22831   2.622   0.732   3.475  0.4892 -0.2435  0.0760
 3791SOL    HW122832   2.529   0.741   3.456  0.3671 -0.7319  0.4316
 3791SOL    HW222833   2.616   0.637   3.460 -1.0534  0.0685 -1.3412
 3792SOL     OW22834   0.962   1.128   6.483  0.5163 -0.0296 -0.1162
 3792SOL    HW122835   0.949   1.138   6.388 -1.0306  2.2685  0.3394
 3792SOL    HW222836   1.057   1.141   6.482  0.2488  2.1793  2.2170
 3793SOL     OW22837   0.804   4.180   4.470 -0.0384  0.3443  0.3747
 3793SOL    HW122838   0.804   4.123   4.548 -0.4319 -1.5915 -1.0365
 3793SOL    HW222839   0.756   4.253   4.510 -0.6370  0.7540 -1.1051
 3794SOL     OW22840   3.459   0.819  10.250 -0.4136 -0.3874  0.0223
 3794SOL    HW122841   3.540   0.861  10.279 -1.1239  1.0559 -0.0578
 3794SOL    HW222842   3.449   0.840  10.157  0.6603 -0.1784 -0.0438
 3795SOL     OW22843   3.875   0.664   2.304 -0.0423 -0.3464 -0.1260
 3795SOL    HW122844   3.941   0.609   2.346  2.1053  1.4197 -1.1960
 3795SOL    HW222845   3.914   0.662   2.217 -2.6191 -1.3575 -1.2831
 3796SOL     OW22846   4.348   0.187   4.913  0.3498  0.6050  0.1127
 3796SOL    HW122847   4.364   0.219   5.002  2.4839 -1.8682  0.5921
 3796SOL    HW222848   4.431   0.206   4.870  0.5172  0.2010  0.2656
 3797SOL     OW22849   3.260   3.253   8.326 -0.3808 -0.1495  0.1393
 3797SOL    HW122850   3.236   3.344   8.310 -0.4613 -0.3633 -1.0044
 3797SOL    HW222851   3.214   3.216   8.250  1.2322 -0.5716 -0.6248
 3798SOL     OW22852   4.004   2.786  14.748  0.3678  1.0511  0.3751
 3798SOL    HW122853   3.935   2.786  14.681 -0.6765 -0.5817  1.4391
 3798SOL    HW222854   3.952   2.784  14.828  0.2801  1.6163  0.3262
 3799SOL     OW22855   4.459   1.560   6.009 -0.2980  0.0458 -1.0275
 3799SOL    HW122856   4.527   1.628   6.009  1.3390 -1.5807  0.4636
 3799SOL    HW222857   4.499   1.493   5.953  0.7977 -0.5173  0.4311
 3800SOL     OW22858   2.641   2.369   5.238  0.0674 -0.7459 -0.0627
 3800SOL    HW122859   2.609   2.388   5.149  3.6845 -0.2231 -1.2758
 3800SOL    HW222860   2.559   2.358   5.286  0.0944  1.7329  0.5767
 3801SOL     OW22861   4.486   3.539   8.674  0.3124 -0.6524 -0.1803
 3801SOL    HW122862   4.415   3.595   8.705  0.9302  1.1913 -2.0728
 3801SOL    HW222863   4.563   3.593   8.692  0.1054 -0.6242  0.6158
 3802SOL     OW22864   0.064   0.756   5.395 -0.2281 -0.2257  0.1176
 3802SOL    HW122865   0.005   0.829   5.376  0.4588  0.3411  0.1762
 3802SOL    HW222866   0.008   0.723   5.465 -0.7521  2.1272  0.7911
 3803SOL     OW22867   1.241   3.677  10.471  0.4205 -0.1622  0.5920
 3803SOL    HW122868   1.206   3.726  10.545 -0.5166  3.4619 -2.2645
 3803SOL    HW222869   1.200   3.724  10.399 -0.2131 -0.8721  0.4871
 3804SOL     OW22870   0.899   3.583   0.031  0.0771 -0.3684 -0.2558
 3804SOL    HW122871   0.809   3.590   0.064  1.0994 -1.2683  2.6739
 3804SOL    HW222872   0.956   3.596   0.107 -0.2532  2.1383 -0.4406
 3805SOL     OW22873   3.335   2.765   7.639  0.1099 -0.5853 -0.2868
 3805SOL    HW122874   3.346   2.712   7.717 -0.1261  0.3251  0.3688
 3805SOL    HW222875   3.389   2.843   7.657  0.9127 -1.4667  1.1327
 3806SOL     OW22876   2.799   0.953   4.987 -0.3328 -0.0135 -0.1587
 3806SOL    HW122877   2.777   0.974   4.896  0.0007  0.2023 -0.1902
 3806SOL    HW222878   2.732   0.888   5.007  1.2527 -1.3225  0.9023
 3807SOL     OW22879   3.235   2.166  14.608  0.1104 -0.6362  0.8847
 3807SOL    HW122880   3.246   2.099  14.541  2.6173 -0.6054  1.2589
 3807SOL    HW222881   3.322   2.206  14.606  0.2793 -0.9857  1.1790
 3808SOL     OW22882   3.049   3.050  14.064  0.3816  0.1914  0.0789
 3808SOL    HW122883   2.993   2.984  14.024 -1.6107  0.8427  1.8226
 3808SOL    HW222884   3.100   3.074  13.986 -1.4579  2.2867 -0.4731
 3809SOL     OW22885   3.528   0.009   8.633  0.2822 -0.5346  0.0077
 3809SOL    HW122886   3.526   0.103   8.617  0.6745 -0.2844  1.4945
 3809SOL    HW222887   3.435   4.707   8.641 -0.5039  2.7976 -0.5279
 3810SOL     OW22888   1.783   0.124   2.774  0.2353 -0.0074 -0.0122
 3810SOL    HW122889   1.795   0.086   2.686 -2.1663  0.6318 -0.6103
 3810SOL    HW222890   1.689   0.109   2.775 -0.2658  3.1954  0.8882
 3811SOL     OW22891   2.750   3.854   6.783  0.2967 -0.5652  0.8545
 3811SOL    HW122892   2.842   3.836   6.798  0.7196 -0.0111 -1.0706
 3811SOL    HW222893   2.717   3.763   6.784  0.8110 -0.7500  0.6861
 3812SOL     OW22894   4.258   3.034   2.338  0.7835 -0.0895  0.1157
 3812SOL    HW122895   4.194   3.104   2.330 -0.8088 -1.7956 -2.2977
 3812SOL    HW222896   4.302   3.025   2.253 -0.5782 -0.4976 -0.5433
 3813SOL     OW22897   1.176   2.518   8.177 -0.4947 -0.2044  0.3675
 3813SOL    HW122898   1.106   2.453   8.176 -1.1249  0.4467  2.0419
 3813SOL    HW222899   1.167   2.556   8.264  0.4539 -2.3646  1.4098
 3814SOL     OW22900   1.111   1.049  17.510  0.2306 -0.0046  0.1971
 3814SOL    HW122901   1.084   1.018  17.597 -1.2253 -0.7764 -0.5321
 3814SOL    HW222902   1.157   0.971  17.479  0.0501  0.2220 -0.6499
 3815SOL     OW22903   1.231   3.494   7.625 -0.4030  0.4043  0.0320
 3815SOL    HW122904   1.244   3.445   7.706  0.3227 -1.2122 -1.0677
 3815SOL    HW222905   1.160   3.446   7.583  1.3255 -2.1173 -0.0503
 3816SOL     OW22906   3.428   2.281   1.837 -0.1204 -0.3821  0.3532
 3816SOL    HW122907   3.436   2.361   1.786 -0.6388  1.6437  3.4407
 3816SOL    HW222908   3.333   2.267   1.846 -0.0660 -0.0620  1.3767
 3817SOL     OW22909   4.190   4.157  10.639  0.3447  0.4021 -0.5693
 3817SOL    HW122910   4.120   4.095  10.660  1.4273  0.2156  2.6363
 3817SOL    HW222911   4.194   4.144  10.545  0.7269  1.6024 -0.7149
 3818SOL     OW22912   1.289   3.252   6.697 -0.2280 -0.3658 -0.0976
 3818SOL    HW122913   1.373   3.208   6.702 -1.8807 -3.4134  0.8651
 3818SOL    HW222914   1.231   3.180   6.722 -1.8863  0.6052 -1.0844
 3819SOL     OW22915   2.204   2.107   6.404  0.6636 -0.0964 -0.1561
 3819SOL    HW122916   2.274   2.065   6.454 -0.0758  0.5765  1.4190
 3819SOL    HW222917   2.264   2.147   6.340  1.4987  1.1454  1.3963
 3820SOL     OW22918   1.674   1.888  12.584 -0.4198  0.3404  0.5948
 3820SOL    HW122919   1.684   1.856  12.673  0.8476 -0.9109  0.0014
 3820SOL    HW222920   1.627   1.810  12.554  0.5177 -0.4877  1.2627
 3821SOL     OW22921   1.551   2.732   4.756 -0.2309  0.4383 -0.7128
 3821SOL    HW122922   1.510   2.650   4.783  0.6660  0.2440  0.0561
 3821SOL    HW222923   1.489   2.748   4.685 -0.2289  0.9773 -0.5888
 3822SOL     OW22924   0.339   2.726   5.648  0.2974  0.6159  0.1311
 3822SOL    HW122925   0.334   2.688   5.736 -0.0189  0.4881  0.0598
 3822SOL    HW222926   0.245   2.734   5.628  0.6415  2.1896 -0.8862
 3823SOL     OW22927   3.593   3.649   5.700 -0.2811 -0.4484 -0.1649
 3823SOL    HW122928   3.656   3.702   5.749 -0.8022 -0.7391  0.8355
 3823SOL    HW222929   3.628   3.561   5.688 -0.8894 -0.4682 -1.7534
 3824SOL     OW22930   3.102   3.164   6.742  0.2333  0.6856  0.6520
 3824SOL    HW122931   3.150   3.120   6.672 -1.7229  2.0505 -1.5644
 3824SOL    HW222932   3.162   3.238   6.747  0.1961  0.7015  0.8640
 3825SOL     OW22933   4.064   1.043  11.577  0.3337 -0.1584  0.3489
 3825SOL    HW122934   4.014   1.014  11.501 -0.1453  0.5287  0.4010
 3825SOL    HW222935   4.141   1.085  11.538  0.3774 -1.4748 -0.9334
 3826SOL     OW22936   2.606   0.950  14.583  0.1572  0.4833 -0.0174
 3826SOL    HW122937   2.666   0.881  14.613  1.1304  0.9178 -0.9397
 3826SOL    HW222938   2.555   0.967  14.662 -1.1292 -0.4024 -0.6508
 3827SOL     OW22939   2.840   4.262   1.552 -0.4933 -0.4139  0.5164
 3827SOL    HW122940   2.868   4.296   1.467 -2.2575 -1.3820 -0.4583
 3827SOL    HW222941   2.797   4.334   1.598 -0.2393  1.5271 -2.2470
 3828SOL     OW22942   4.527   1.845  15.682  0.4847 -0.3473 -0.7063
 3828SOL    HW122943   4.565   1.922  15.639  0.9488 -0.5011 -0.5718
 3828SOL    HW222944   4.531   1.778  15.613 -0.6224  0.2184 -1.3183
 3829SOL     OW22945   0.020   2.498   4.075  0.2614 -0.0127 -0.2892
 3829SOL    HW122946   0.114   2.506   4.060  0.6711  0.9885  2.9110
 3829SOL    HW222947   0.002   2.549   4.154 -0.9837  3.4085 -2.7879
 3830SOL     OW22948   2.862   2.252   5.930 -0.7085  0.0733  0.5471
 3830SOL    HW122949   2.872   2.210   6.016  1.6580 -1.7007 -0.5775
 3830SOL    HW222950   2.938   2.310   5.937  0.4006 -1.3073  0.0068
 3831SOL     OW22951   2.435   3.005   7.678  0.2213 -0.0248 -0.4105
 3831SOL    HW122952   2.473   3.043   7.757 -1.6133  0.7301  0.1204
 3831SOL    HW222953   2.395   2.924   7.709  1.7622  0.5763  3.1478
 3832SOL     OW22954   1.935   4.414   3.484  0.5514  0.6617 -0.3076
 3832SOL    HW122955   1.958   4.478   3.417  1.1398 -0.6604 -1.3762
 3832SOL    HW222956   2.005   4.351   3.469 -0.0033 -0.7363  3.0222
 3833SOL     OW22957   1.816   1.604   6.675  0.4790  0.0337 -0.2581
 3833SOL    HW122958   1.862   1.657   6.740 -0.8175  0.0181  0.6793
 3833SOL    HW222959   1.731   1.649   6.680  0.3023 -0.2631 -0.5766
 3834SOL     OW22960   0.711   3.945   3.497  0.0282  0.0582 -0.1412
 3834SOL    HW122961   0.722   3.852   3.473 -0.0876 -0.3075  1.2602
 3834SOL    HW222962   0.780   3.981   3.441  1.1592 -1.5933  0.1985
 3835SOL     OW22963   2.552   2.040   1.631  0.2060 -0.0611 -0.4389
 3835SOL    HW122964   2.582   1.955   1.664  0.8005  0.4785  0.3951
 3835SOL    HW222965   2.528   2.083   1.713 -0.5090  1.5351 -1.4764
 3836SOL     OW22966   2.002   3.014  14.328 -0.3626  0.1402 -0.0973
 3836SOL    HW122967   1.925   3.012  14.386 -0.6543 -3.2179 -0.6130
 3836SOL    HW222968   1.970   2.965  14.252  0.8371  0.1378 -0.5990
 3837SOL     OW22969   2.487   0.839   8.561 -0.1057  0.0559 -0.6395
 3837SOL    HW122970   2.550   0.852   8.490  1.3373  0.4285  0.7040
 3837SOL    HW222971   2.513   0.751   8.588  3.0450  1.2632  0.3262
 3838SOL     OW22972   2.486   3.767  15.532 -0.4148  0.5920  0.2852
 3838SOL    HW122973   2.420   3.836  15.524 -0.1276  0.9625  1.1160
 3838SOL    HW222974   2.478   3.758  15.627  3.4029 -1.7021  0.3816
 3839SOL     OW22975   0.974   2.991   3.015 -0.2040 -0.3707  0.0185
 3839SOL    HW122976   1.016   2.956   2.936 -0.6135 -0.0863 -0.3266
 3839SOL    HW222977   0.987   2.909   3.063  0.3898  0.3411  1.0751
 3840SOL     OW22978   0.782   3.012  11.879 -0.1229  0.4013 -0.6086
 3840SOL    HW122979   0.849   2.968  11.930  2.2375  1.0754 -3.1214
 3840SOL    HW222980   0.741   3.052  11.956 -1.1588  2.8955 -2.4564
 3841SOL     OW22981   4.559   1.743   3.031  0.2305  0.2335 -0.1631
 3841SOL    HW122982   4.603   1.755   2.946  2.7954  1.6445  1.3548
 3841SOL    HW222983   4.594   1.657   3.055  2.0970  1.0607  0.1262
 3842SOL     OW22984   0.018   4.055   3.041 -0.1398 -0.0212 -0.0522
 3842SOL    HW122985   0.053   3.987   2.985  1.8686  0.8977  0.1030
 3842SOL    HW222986   0.093   4.084   3.093  1.4804 -3.1004 -0.7386
 3843SOL     OW22987   2.099   0.399   3.103  0.1135 -0.1742 -0.2386
 3843SOL    HW122988   2.092   0.490   3.132 -1.9112 -0.5743  0.5463
 3843SOL    HW222989   2.169   0.407   3.039  0.9284  0.1355  0.7071
 3844SOL     OW22990   3.839   0.914   5.866 -0.3176  0.8120  0.2740
 3844SOL    HW122991   3.866   1.004   5.881 -0.8320  1.1113 -0.6304
 3844SOL    HW222992   3.812   0.918   5.775 -0.3685  0.4170  0.2711
 3845SOL     OW22993   0.905   3.967   7.807  0.1076  0.3468  0.4995
 3845SOL    HW122994   0.949   3.884   7.825  0.8210  0.5659 -0.1950
 3845SOL    HW222995   0.987   4.015   7.792  0.6892 -0.4812  1.0553
 3846SOL     OW22996   3.985   1.993   3.535  0.5679  0.2792  0.3030
 3846SOL    HW122997   3.924   2.059   3.566  1.3010  0.7275  0.7934
 3846SOL    HW222998   3.927   1.945   3.476 -0.2933  0.1262  1.2776
 3847SOL     OW22999   4.541   3.188   3.230 -0.1147 -0.7761 -0.2372
 3847SOL    HW123000   4.623   3.178   3.279 -0.3934 -1.6086  0.0493
 3847SOL    HW223001   4.571   3.258   3.172 -0.8917 -1.8195 -1.8709
 3848SOL     OW23002   4.106   1.049   8.199 -0.1883  0.0015  0.0002
 3848SOL    HW123003   4.061   1.070   8.118 -0.8912 -1.2136  0.0857
 3848SOL    HW223004   4.195   1.070   8.171  0.7371  0.2863  3.0942
 3849SOL     OW23005   0.930   2.634   4.088  0.2230  0.2437 -0.1232
 3849SOL    HW123006   0.886   2.563   4.135 -1.1234  1.8208  1.0101
 3849SOL    HW223007   0.903   2.614   3.998 -1.6503 -0.6335  0.6252
 3850SOL     OW23008   4.427   4.281   2.125  0.4179 -0.3245  0.3353
 3850SOL    HW123009   4.349   4.255   2.077  1.0557  0.2494 -1.0143
 3850SOL    HW223010   4.416   4.231   2.206  0.0750 -0.2418  0.3387
 3851SOL     OW23011   2.807   2.262   4.292 -0.3263  0.2601 -0.6154
 3851SOL    HW123012   2.773   2.335   4.344  0.0257  0.7778 -1.1164
 3851SOL    HW223013   2.730   2.206   4.301  1.5950 -2.5099 -1.3297
 3852SOL     OW23014   1.203   1.842   9.132 -0.4786  0.6824  0.1399
 3852SOL    HW123015   1.258   1.848   9.210 -2.6999  1.2280  1.6603
 3852SOL    HW223016   1.121   1.806   9.166 -0.1576  0.3697  0.5851
 3853SOL     OW23017   3.050   2.483   5.252 -0.4043 -0.2299 -0.1019
 3853SOL    HW123018   2.991   2.524   5.316 -0.4502 -0.8356  0.2473
 3853SOL    HW223019   3.106   2.558   5.231  0.0667 -1.0937 -1.9340
 3854SOL     OW23020   0.807   4.307   6.324 -0.0245  0.6379  0.2625
 3854SOL    HW123021   0.816   4.349   6.238  1.9550  1.1158  0.6952
 3854SOL    HW223022   0.868   4.357   6.379  3.5129 -0.3848 -2.7569
 3855SOL     OW23023   1.023   3.685  10.929 -0.3995 -0.1399 -0.6350
 3855SOL    HW123024   1.059   3.696  11.017 -2.8678 -0.6529  0.4442
 3855SOL    HW223025   1.002   3.593  10.941 -0.9224  0.1007  0.2958
 3856SOL     OW23026   0.426   1.740   0.632  0.9465  0.2457  0.1519
 3856SOL    HW123027   0.378   1.667   0.672  1.1624 -0.4231 -0.8167
 3856SOL    HW223028   0.487   1.685   0.584  0.9482  0.8898 -0.5839
 3857SOL     OW23029   3.115   2.737   1.927 -0.1434  0.2409  0.0247
 3857SOL    HW123030   3.102   2.685   2.007  1.9137  0.3667  0.4665
 3857SOL    HW223031   3.211   2.739   1.921 -0.1164  1.9321  1.0844
 3858SOL     OW23032   4.302   4.002   7.656  0.0375 -0.0162 -0.2689
 3858SOL    HW123033   4.398   4.003   7.663 -0.0838 -0.2294  1.3814
 3858SOL    HW223034   4.275   3.930   7.712 -1.9973  0.9918  0.0657
 3859SOL     OW23035   1.676   1.296  17.267 -0.1908 -0.3200  0.1152
 3859SOL    HW123036   1.644   1.211  17.296 -0.3601 -0.7885 -1.4057
 3859SOL    HW223037   1.767   1.301  17.298 -0.0203  3.5542 -0.9852
 3860SOL     OW23038   2.392   4.506   0.369 -0.1919  0.4731  0.3293
 3860SOL    HW123039   2.355   4.594   0.370 -1.3941 -0.0400  1.1475
 3860SOL    HW223040   2.341   4.471   0.442 -0.8775  0.6868 -0.0536
 3861SOL     OW23041   4.528   3.766   3.935  0.4546  0.2186 -0.2941
 3861SOL    HW123042   4.496   3.755   3.846 -1.2452  0.9089  0.2340
 3861SOL    HW223043   4.570   3.852   3.933  1.2889 -0.1982 -0.7110
 3862SOL     OW23044   2.542   1.129   7.757 -0.0804  0.1218  0.4554
 3862SOL    HW123045   2.594   1.049   7.756 -3.8144 -2.3338  1.3671
 3862SOL    HW223046   2.574   1.168   7.839 -1.5892 -0.4655  1.3448
 3863SOL     OW23047   4.575   2.181   5.025  0.5386  0.3816  0.3344
 3863SOL    HW123048   4.486   2.214   5.016  0.5577 -0.0996 -1.8166
 3863SOL    HW223049   4.607   2.248   5.085  2.6089 -1.5700  1.3799
 3864SOL     OW23050   3.191   0.544   3.790  0.3456 -0.1528  0.0899
 3864SOL    HW123051   3.134   0.530   3.714  0.3716  0.0744  0.0307
 3864SOL    HW223052   3.275   0.561   3.747  1.6271  1.5568  3.3120
 3865SOL     OW23053   2.076   3.009   9.379  0.3656 -0.0461  0.3015
 3865SOL    HW123054   2.023   3.066   9.322  0.7782 -1.1106 -1.1293
 3865SOL    HW223055   2.016   2.987   9.451 -0.1012 -0.9869 -0.3804
 3866SOL     OW23056   3.712   3.565  17.431 -0.4734  0.2317  0.1784
 3866SOL    HW123057   3.631   3.576  17.382 -1.5002  1.1089  2.0679
 3866SOL    HW223058   3.715   3.470  17.442  0.1889  0.1862 -0.3643
 3867SOL     OW23059   3.844   0.574   4.171  0.0173 -0.1382 -0.7480
 3867SOL    HW123060   3.814   0.664   4.155  0.0065  0.0287  0.2269
 3867SOL    HW223061   3.929   0.596   4.210  0.8858 -2.2325 -1.4393
 3868SOL     OW23062   1.662   2.411   7.403 -0.8949  0.0163 -0.2450
 3868SOL    HW123063   1.756   2.425   7.390 -0.5764 -0.8262  1.0826
 3868SOL    HW223064   1.672   2.316   7.408  0.2621  0.0848 -1.2142
 3869SOL     OW23065   0.731   1.007  10.718 -0.0141  0.1294 -0.1241
 3869SOL    HW123066   0.741   0.985  10.811 -0.5308 -0.0724 -0.1154
 3869SOL    HW223067   0.644   0.967  10.708  0.0453 -0.3076  1.0762
 3870SOL     OW23068   1.423   2.615   6.485  0.5508  0.0614 -0.0357
 3870SOL    HW123069   1.371   2.582   6.559  1.8345  0.2104  0.9415
 3870SOL    HW223070   1.358   2.642   6.421  0.2508  0.6098  0.5083
 3871SOL     OW23071   4.102   2.963   0.462  0.3531 -0.0955  0.4049
 3871SOL    HW123072   4.125   3.030   0.398  2.3365 -0.6616  0.5387
 3871SOL    HW223073   4.100   3.022   0.537 -0.0430 -0.7728  0.9208
 3872SOL     OW23074   1.996   0.600   1.856 -0.6290 -0.0717 -0.2854
 3872SOL    HW123075   1.909   0.562   1.842 -0.6176 -0.5375  0.8972
 3872SOL    HW223076   1.981   0.678   1.803 -2.1772 -0.2245 -0.0817
 3873SOL     OW23077   0.322   0.609  15.409 -0.4123 -0.1389  0.1419
 3873SOL    HW123078   0.391   0.548  15.381 -0.6485  0.0480 -0.8352
 3873SOL    HW223079   0.368   0.693  15.401 -0.2103 -0.3360 -0.7420
 3874SOL     OW23080   1.557   0.188   5.499  0.3042  0.4854  0.3936
 3874SOL    HW123081   1.470   0.160   5.526  0.2225 -1.8883 -2.3229
 3874SOL    HW223082   1.537   0.276   5.468  0.3421  0.1518 -0.5599
 3875SOL     OW23083   0.044   1.630   7.697  0.0652 -0.3026  0.2033
 3875SOL    HW123084   0.131   1.596   7.677  0.3704  0.3838  0.3744
 3875SOL    HW223085   0.067   1.709   7.746  0.5133  0.2365 -0.8791
 3876SOL     OW23086   3.238   0.150   5.413 -0.5642  0.2851  0.4314
 3876SOL    HW123087   3.173   0.196   5.360 -0.0536  0.7379  0.1981
 3876SOL    HW223088   3.233   0.068   5.363 -3.4811  1.2382 -0.8574
 3877SOL     OW23089   0.146   1.521   2.926  0.1300  0.5465 -0.1833
 3877SOL    HW123090   0.164   1.480   2.841  3.2320  0.2998  0.5898
 3877SOL    HW223091   0.185   1.606   2.907 -1.5080  1.2268 -0.4420
 3878SOL     OW23092   4.102   0.246  11.125  0.4340 -0.2467  0.2125
 3878SOL    HW123093   4.081   0.267  11.034  0.2469  1.0410  0.5547
 3878SOL    HW223094   4.045   0.295  11.185  0.8355 -0.2228  0.5722
 3879SOL     OW23095   4.636   3.403   3.114  0.1125 -0.3103  0.4704
 3879SOL    HW123096   4.575   3.421   3.043  0.6547  4.4363  1.2375
 3879SOL    HW223097   4.653   3.491   3.147 -0.8529 -0.2539  0.8159
 3880SOL     OW23098   0.026   3.863  13.567  0.3003  0.0555 -0.2643
 3880SOL    HW123099   0.030   3.938  13.625 -1.4202 -0.6955  0.7949
 3880SOL    HW223100   0.115   3.831  13.550 -1.2529 -4.1843 -0.3721
 3881SOL     OW23101   1.037   2.783   7.547  0.0764  0.0668 -0.1932
 3881SOL    HW123102   1.102   2.830   7.598  1.2798 -3.4408  1.4913
 3881SOL    HW223103   1.058   2.815   7.459 -0.0727  2.8936  0.7737
 3882SOL     OW23104   2.420   3.920  15.158 -0.0500  0.4365 -0.6166
 3882SOL    HW123105   2.439   3.954  15.245  0.7766 -0.5754 -0.3981
 3882SOL    HW223106   2.353   3.857  15.182 -0.7337  2.2828  2.3874
 3883SOL     OW23107   3.778   2.129   3.724 -0.0468 -0.0281 -0.1373
 3883SOL    HW123108   3.754   2.193   3.658 -0.4790  0.7503  0.7765
 3883SOL    HW223109   3.704   2.129   3.785 -0.2021 -1.8819 -0.3157
 3884SOL     OW23110   4.486   0.078   5.625 -0.0936  0.1712 -0.0364
 3884SOL    HW123111   4.412   0.021   5.604  1.0085 -2.5211  3.4073
 3884SOL    HW223112   4.458   0.155   5.575  1.4526  0.3917 -0.5737
 3885SOL     OW23113   4.703   1.606  12.078  0.1451  0.0858  0.2734
 3885SOL    HW123114   4.693   1.695  12.112 -2.5451  0.6975 -2.0718
 3885SOL    HW223115   0.023   1.559  12.151  0.0277  2.1516  1.6581
 3886SOL     OW23116   0.918   2.166   8.672 -0.3331 -0.2634  0.4792
 3886SOL    HW123117   0.922   2.261   8.678 -1.4862 -0.2682  1.3697
 3886SOL    HW223118   0.823   2.159   8.677 -0.3219 -0.2111  0.7496
 3887SOL     OW23119   1.982   4.249   5.692  0.1746  0.6533 -0.2578
 3887SOL    HW123120   1.956   4.330   5.736 -3.5920 -0.6653 -0.0274
 3887SOL    HW223121   2.068   4.237   5.732  0.4021 -2.0443 -1.5255
 3888SOL     OW23122   2.408   1.301   3.624  0.2693  0.2434  0.6174
 3888SOL    HW123123   2.344   1.354   3.577 -0.9719 -1.1375  0.7829
 3888SOL    HW223124   2.354   1.240   3.674 -0.1404 -1.4079 -1.8756
 3889SOL     OW23125   0.339   3.328   5.525 -0.2202  0.3011  0.3713
 3889SOL    HW123126   0.399   3.402   5.529  0.8812 -0.4346 -2.2552
 3889SOL    HW223127   0.388   3.249   5.548  1.9947  0.6785 -2.9826
 3890SOL     OW23128   0.061   1.793   5.189  0.0723  0.8164 -0.1742
 3890SOL    HW123129   0.080   1.856   5.259 -0.7582  1.4082 -0.4673
 3890SOL    HW223130   0.008   1.845   5.128  0.4220  1.1443 -0.2001
 3891SOL     OW23131   3.802   2.362   5.739 -0.0353  0.6929  0.5494
 3891SOL    HW123132   3.877   2.381   5.795 -0.2207 -2.0807  1.7720
 3891SOL    HW223133   3.719   2.360   5.788 -1.6501  0.8339 -2.1604
 3892SOL     OW23134   3.453   2.933   6.429 -0.9446  0.1218 -0.4094
 3892SOL    HW123135   3.444   2.902   6.339 -0.5598  0.3577 -0.5274
 3892SOL    HW223136   3.538   2.894   6.451 -0.2857  1.5104 -0.4923
 3893SOL     OW23137   0.852   0.275   5.410  0.2568 -0.3743  0.4046
 3893SOL    HW123138   0.877   0.214   5.479  2.3124 -0.1636 -0.1476
 3893SOL    HW223139   0.789   0.220   5.363 -0.2161  0.4804  0.0499
 3894SOL     OW23140   2.977   3.720  15.433  0.2935 -0.0328  0.3789
 3894SOL    HW123141   3.008   3.710  15.523  0.4689  2.9148  0.6589
 3894SOL    HW223142   2.988   3.813  15.414  1.0033 -0.0168  0.8506
 3895SOL     OW23143   0.088   3.749  10.096  0.5543  0.5142  0.3092
 3895SOL    HW123144   0.111   3.745  10.003  1.2614 -0.9026  0.5501
 3895SOL    HW223145   0.074   3.659  10.123  0.1111  0.0613 -1.4722
 3896SOL     OW23146   2.111   0.458   5.600 -0.1501 -0.0727  0.2829
 3896SOL    HW123147   2.036   0.480   5.545 -0.3770 -2.2851 -0.2740
 3896SOL    HW223148   2.082   0.499   5.681  1.0665 -1.8925  1.6314
 3897SOL     OW23149   1.299   2.001   7.188 -0.5636 -0.3198 -0.8953
 3897SOL    HW123150   1.260   1.959   7.265 -2.3682  1.5619 -0.7842
 3897SOL    HW223151   1.322   1.922   7.140  2.6239 -0.2674  0.5364
 3898SOL     OW23152   2.884   3.076  12.319 -0.0514 -0.2941 -0.4400
 3898SOL    HW123153   2.828   3.061  12.243 -0.1791  0.4204 -0.4857
 3898SOL    HW223154   2.952   3.129  12.278 -0.7318  0.8283 -0.1063
 3899SOL     OW23155   1.456   3.378  13.624  0.2149  0.3695  0.3469
 3899SOL    HW123156   1.361   3.378  13.629  0.2520  2.3510  0.9776
 3899SOL    HW223157   1.472   3.463  13.582  2.6617 -0.1788  0.1699
 3900SOL     OW23158   0.911   2.831   2.077  0.1025  0.2193 -0.4997
 3900SOL    HW123159   0.875   2.756   2.030 -0.0741 -0.9243  1.4824
 3900SOL    HW223160   1.003   2.802   2.076 -0.2393 -0.9174  0.7208
 3901SOL     OW23161   1.260   0.137  12.057 -0.0844 -0.6609 -0.2284
 3901SOL    HW123162   1.224   0.113  12.143  0.4116 -0.4184  0.0478
 3901SOL    HW223163   1.266   0.231  12.077  0.2365 -0.1723 -2.6303
 3902SOL     OW23164   0.532   3.444   5.299  0.5402 -0.0308  0.3244
 3902SOL    HW123165   0.551   3.500   5.374 -0.3647  2.4351 -1.2810
 3902SOL    HW223166   0.595   3.372   5.303  1.5488  0.9013  1.4776
 3903SOL     OW23167   2.724   2.313   3.919  0.9743 -0.3481  0.2696
 3903SOL    HW123168   2.799   2.370   3.903 -0.1647  0.6665 -1.3616
 3903SOL    HW223169   2.656   2.368   3.882  0.2179 -2.1673 -1.0276
 3904SOL     OW23170   0.390   1.580   2.102 -0.1913  0.4649 -0.6879
 3904SOL    HW123171   0.383   1.488   2.126  0.7573  0.2614 -1.2200
 3904SOL    HW223172   0.381   1.562   2.008  0.6535 -0.5367 -0.5760
 3905SOL     OW23173   4.093   2.270   7.563  0.1110  0.4404 -0.0784
 3905SOL    HW123174   4.184   2.275   7.536  0.3172  0.8991  0.7022
 3905SOL    HW223175   4.059   2.326   7.493 -1.4468 -1.2259 -0.6446
 3906SOL     OW23176   3.362   4.321   4.033 -0.1174  0.3128 -0.2092
 3906SOL    HW123177   3.287   4.277   3.993 -0.9881 -0.3420  2.1016
 3906SOL    HW223178   3.386   4.253   4.097  0.5851  0.3840 -0.4042
 3907SOL     OW23179   4.073   0.526   6.360 -0.3026  0.4561  0.3898
 3907SOL    HW123180   4.159   0.569   6.367  1.1747 -2.3133 -0.9732
 3907SOL    HW223181   4.063   0.541   6.266  1.9900 -2.4409 -0.2785
 3908SOL     OW23182   4.030   3.043  13.735  0.1656 -0.1902  0.1905
 3908SOL    HW123183   4.013   3.033  13.641  1.6059 -1.4151  0.0407
 3908SOL    HW223184   4.020   2.953  13.766  1.1078 -0.7851 -1.2126
 3909SOL     OW23185   3.316   2.637  11.611  0.0772  0.3739 -0.0129
 3909SOL    HW123186   3.247   2.701  11.633  0.8229  1.0423  0.3997
 3909SOL    HW223187   3.324   2.658  11.518  0.3078  0.6528  0.0676
 3910SOL     OW23188   1.591   2.882   8.410  0.4475 -0.2995  0.5557
 3910SOL    HW123189   1.593   2.940   8.487 -1.9152  0.2093  0.2559
 3910SOL    HW223190   1.497   2.865   8.424 -0.0148  0.3547 -1.7415
 3911SOL     OW23191   1.861   4.071  10.975  0.4549 -0.0405  0.1110
 3911SOL    HW123192   1.847   3.979  10.956  2.2402  0.3512 -3.0008
 3911SOL    HW223193   1.851   4.064  11.070  1.7998  0.2433  0.2774
 3912SOL     OW23194   4.424   2.919   5.758  0.4002 -0.4887 -0.0713
 3912SOL    HW123195   4.340   2.881   5.782 -0.0636  1.3678  1.2590
 3912SOL    HW223196   4.463   2.855   5.699 -0.4831 -1.0280 -0.0788
 3913SOL     OW23197   2.336   0.017   5.340  0.3469  0.9374  0.6758
 3913SOL    HW123198   2.267   4.680   5.304  1.2786  0.1797  0.0684
 3913SOL    HW223199   2.295   0.075   5.404 -0.3100  2.3679 -1.0394
 3914SOL     OW23200   0.372   3.664   8.170  0.1370 -0.3398  0.0108
 3914SOL    HW123201   0.450   3.628   8.213  0.4006 -1.0408 -1.0635
 3914SOL    HW223202   0.409   3.682   8.084  2.1341 -0.1565  0.9007
 3915SOL     OW23203   1.520   0.556  15.567  0.6790  0.3592  0.1114
 3915SOL    HW123204   1.544   0.475  15.522  1.9587  0.3211  0.8655
 3915SOL    HW223205   1.602   0.590  15.603  1.0539 -0.3900 -0.0446
 3916SOL     OW23206   0.674   4.287   7.022  0.1616 -0.1472  0.2645
 3916SOL    HW123207   0.751   4.317   6.974 -1.4865  0.0368 -2.2843
 3916SOL    HW223208   0.655   4.372   7.062 -1.3237  1.1587 -3.1621
 3917SOL     OW23209   1.017   2.645   6.511  0.6068 -0.5403  0.3847
 3917SOL    HW123210   1.024   2.737   6.484 -1.6862  0.6754  3.9383
 3917SOL    HW223211   0.971   2.613   6.434 -1.7527  2.2856  0.6073
 3918SOL     OW23212   0.701   4.245  12.412  0.0832  0.2318 -0.1864
 3918SOL    HW123213   0.738   4.301  12.480 -0.3088 -0.4590  0.5922
 3918SOL    HW223214   0.632   4.301  12.377 -0.1835  1.8416  3.0161
 3919SOL     OW23215   1.971   4.468   4.181  0.0344  0.3252 -0.5048
 3919SOL    HW123216   1.903   4.529   4.152 -0.4579 -0.5706 -1.2364
 3919SOL    HW223217   2.030   4.472   4.106  0.0862  0.7417 -0.4410
 3920SOL     OW23218   3.157   0.210   8.907 -0.3830 -0.4148  0.5393
 3920SOL    HW123219   3.108   0.163   8.975 -0.4948 -2.3879 -0.8864
 3920SOL    HW223220   3.220   0.259   8.960  0.8180 -1.5734  0.1848
 3921SOL     OW23221   1.560   0.579   6.321 -0.1387  0.6958 -0.1461
 3921SOL    HW123222   1.651   0.563   6.294  0.3746  1.9502  0.8373
 3921SOL    HW223223   1.507   0.586   6.242 -0.0755  2.3098 -0.0415
 3922SOL     OW23224   4.609   4.198  17.159 -0.1233 -0.5289 -0.0439
 3922SOL    HW123225   4.575   4.252  17.088  1.3836  2.5305  1.5570
 3922SOL    HW223226   4.672   4.259  17.198 -0.4230  0.3198 -0.8645
 3923SOL     OW23227   1.302   4.588   2.322 -0.2247 -0.6743 -0.4483
 3923SOL    HW123228   1.377   4.575   2.380 -0.9754 -2.8625  0.0305
 3923SOL    HW223229   1.347   4.617   2.242  0.6229  2.2619  1.0749
 3924SOL     OW23230   3.566   4.644   5.974  0.4461  0.3782  0.2451
 3924SOL    HW123231   3.527   4.557   5.963  1.8716 -0.4170  1.4186
 3924SOL    HW223232   3.610   4.631   6.058  0.5525 -1.1700 -0.0484
 3925SOL     OW23233   0.473   3.707   3.509  0.3044  0.1511 -0.8826
 3925SOL    HW123234   0.436   3.645   3.447 -0.3191 -0.2721 -0.0758
 3925SOL    HW223235   0.566   3.696   3.486  0.7879 -2.9461  2.6389
 3926SOL     OW23236   4.137   2.765   2.996 -0.3441  0.1663 -0.1202
 3926SOL    HW123237   4.126   2.783   2.902  1.7942 -0.5718 -0.5097
 3926SOL    HW223238   4.197   2.691   2.989  2.1975  2.1262  0.9685
 3927SOL     OW23239   4.519   4.518  15.707  0.1827  0.1682 -0.2681
 3927SOL    HW123240   4.568   4.596  15.733  2.8490 -1.0439 -1.5695
 3927SOL    HW223241   4.433   4.542  15.740  1.0882  1.5179  1.1067
 3928SOL     OW23242   1.992   0.481   0.139 -0.3208  0.2447  0.4303
 3928SOL    HW123243   1.995   0.402   0.085  1.1720 -1.0100  2.3764
 3928SOL    HW223244   1.952   0.460   0.223 -2.4276 -1.8573 -1.1083
 3929SOL     OW23245   0.387   1.689  17.572 -0.1066  0.4005 -0.1407
 3929SOL    HW123246   0.331   1.766  17.560 -1.0782 -0.2532  0.1602
 3929SOL    HW223247   0.362   1.644  17.492 -2.6473  1.7231 -0.1063
 3930SOL     OW23248   4.031   2.855  12.803 -0.3017  0.1210 -0.2025
 3930SOL    HW123249   4.050   2.762  12.815 -2.4492 -0.2272  0.6400
 3930SOL    HW223250   3.936   2.842  12.791 -0.0350 -1.3885 -0.6902
 3931SOL     OW23251   3.378   4.553   0.014  0.2158  0.2005  0.2715
 3931SOL    HW123252   3.459   4.504   0.004 -0.4625 -0.7906 -0.3901
 3931SOL    HW223253   3.353   4.504   0.093 -3.0556  0.1965 -0.7588
 3932SOL     OW23254   1.786   3.958  11.993 -0.1910 -0.4610  0.3752
 3932SOL    HW123255   1.839   3.967  12.072  1.0733 -1.0380 -0.3997
 3932SOL    HW223256   1.695   3.976  12.017  0.5732  1.5880  1.7549
 3933SOL     OW23257   3.448   1.461   0.043  0.4269 -0.0410  0.2103
 3933SOL    HW123258   3.356   1.454   0.016  0.2095  0.6023  0.7924
 3933SOL    HW223259   3.437   1.472   0.138 -0.0033  0.1500  0.1388
 3934SOL     OW23260   3.939   1.204   1.404 -0.2947 -0.0157  0.2178
 3934SOL    HW123261   3.991   1.127   1.384  0.2101  1.0506 -2.4744
 3934SOL    HW223262   4.000   1.267   1.443  0.7977 -0.7505 -0.3264
 3935SOL     OW23263   3.411   1.253  10.632  0.7300 -0.4980  0.1508
 3935SOL    HW123264   3.341   1.282  10.690  1.8331 -0.5976  1.5361
 3935SOL    HW223265   3.427   1.329  10.576 -1.3544 -0.0633  0.1403
 3936SOL     OW23266   2.404   4.334   4.986 -0.1556 -0.0656  0.5286
 3936SOL    HW123267   2.362   4.275   4.923 -1.4367 -0.8566  2.1256
 3936SOL    HW223268   2.458   4.266   5.027  1.6454 -0.7413 -2.9368
 3937SOL     OW23269   3.604   1.354   4.374  0.2219 -0.2685 -0.1784
 3937SOL    HW123270   3.566   1.303   4.302 -1.6481  0.9874 -0.0844
 3937SOL    HW223271   3.611   1.440   4.333  2.9190  0.4069  1.6859
 3938SOL     OW23272   1.461   0.403  11.931  0.0610 -0.2723  0.0623
 3938SOL    HW123273   1.411   0.407  12.012 -0.8562  0.5246 -0.5389
 3938SOL    HW223274   1.463   0.495  11.905 -0.8718 -0.6501 -1.3661
 3939SOL     OW23275   0.426   3.922  15.846 -0.6455 -0.1224  0.1368
 3939SOL    HW123276   0.342   3.946  15.807 -0.1140 -0.1450 -1.0370
 3939SOL    HW223277   0.412   3.953  15.936  0.4201  3.5665 -0.9818
 3940SOL     OW23278   2.891   2.391   0.376  0.0710  0.2017  0.2616
 3940SOL    HW123279   2.876   2.486   0.376 -0.4983  0.1138 -0.2575
 3940SOL    HW223280   2.848   2.365   0.457 -0.4915  0.6247  0.1014
 3941SOL     OW23281   2.574   3.514  10.986 -0.2472  0.7146  0.3579
 3941SOL    HW123282   2.632   3.532  11.061 -0.0302  0.4815  0.2488
 3941SOL    HW223283   2.581   3.600  10.946  3.2556  1.3779  2.3504
 3942SOL     OW23284   0.595   0.492  16.582 -0.0202 -0.7627  0.0558
 3942SOL    HW123285   0.664   0.463  16.522  0.3653 -0.0662  0.1676
 3942SOL    HW223286   0.535   0.529  16.516  0.2145 -0.2683  0.1200
 3943SOL     OW23287   2.063   2.876   7.812 -0.2473  0.3089 -0.1604
 3943SOL    HW123288   2.106   2.922   7.884 -0.5481  0.1983  0.0910
 3943SOL    HW223289   1.974   2.871   7.847 -0.5871 -0.5579 -1.1544
 3944SOL     OW23290   2.086   4.421   7.676  0.2115  0.2639  0.3015
 3944SOL    HW123291   2.008   4.415   7.621  0.3893 -2.2933  0.3240
 3944SOL    HW223292   2.096   4.515   7.666  0.9401  0.2623  1.0241
 3945SOL     OW23293   2.650   4.369   3.659  0.3470  0.4994  0.1717
 3945SOL    HW123294   2.736   4.399   3.631 -0.1567  1.5858 -0.2079
 3945SOL    HW223295   2.665   4.275   3.668  1.3348  0.6325 -0.0758
 3946SOL     OW23296   2.994   3.864  14.868  0.1472  0.7939 -0.3385
 3946SOL    HW123297   2.945   3.946  14.869 -1.5175 -0.2084  1.3393
 3946SOL    HW223298   2.929   3.805  14.907 -1.4743  2.4633 -0.5590
 3947SOL     OW23299   0.446   4.690   5.929 -0.1126  0.1618  0.5573
 3947SOL    HW123300   0.446   0.023   5.849  1.7802 -0.8753 -0.1402
 3947SOL    HW223301   0.405   0.032   5.990  1.8266 -0.1984  2.2109
 3948SOL     OW23302   0.733   0.401   3.337 -0.9199  0.3213  0.2399
 3948SOL    HW123303   0.803   0.348   3.376 -0.5695  0.1886 -0.5862
 3948SOL    HW223304   0.773   0.435   3.257 -0.7368  1.9831  1.0254
 3949SOL     OW23305   0.588   2.786   6.758 -0.4853 -0.0654 -0.6656
 3949SOL    HW123306   0.607   2.866   6.709  1.3030  0.4514  0.8910
 3949SOL    HW223307   0.679   2.758   6.759 -0.8102 -1.1515 -1.2406
 3950SOL     OW23308   3.277   4.417   7.923 -0.3864  0.3695 -0.2183
 3950SOL    HW123309   3.294   4.323   7.927 -0.5160  0.2466 -2.5524
 3950SOL    HW223310   3.221   4.428   7.846 -0.6518  0.8052  0.0405
 3951SOL     OW23311   2.706   2.362   0.135  0.4101  0.0537 -0.0291
 3951SOL    HW123312   2.739   2.391   0.220 -0.8102 -0.5745  0.6716
 3951SOL    HW223313   2.626   2.414   0.131  1.0237  1.0096  0.3481
 3952SOL     OW23314   4.475   2.360  15.352  0.9667  0.6978 -0.0162
 3952SOL    HW123315   4.463   2.427  15.284 -0.2794 -1.4772 -1.9256
 3952SOL    HW223316   4.545   2.405  15.400 -0.2158  0.3571  2.0390
 3953SOL     OW23317   1.273   0.078  11.788  0.6272 -0.6897  0.3350
 3953SOL    HW123318   1.260   0.172  11.774 -1.8079 -1.1339 -0.5406
 3953SOL    HW223319   1.288   0.072  11.882  0.0471  0.9605  0.5308
 3954SOL     OW23320   0.271   4.031   7.150  0.1163  0.3388  0.1978
 3954SOL    HW123321   0.361   4.057   7.132 -0.8370  3.5359  0.1680
 3954SOL    HW223322   0.270   4.081   7.231 -0.9088  1.0479 -0.2627
 3955SOL     OW23323   4.092   1.171   6.742 -0.3077 -0.1910  0.3044
 3955SOL    HW123324   4.157   1.157   6.673  0.6544  0.6341  1.0615
 3955SOL    HW223325   4.051   1.252   6.711 -0.6349 -0.1133  0.9397
 3956SOL     OW23326   4.370   0.570   2.659 -0.1638  0.6515  0.1845
 3956SOL    HW123327   4.353   0.658   2.625 -1.4533 -0.5634 -2.3296
 3956SOL    HW223328   4.281   0.548   2.686  0.0394 -1.5675 -0.9741
 3957SOL     OW23329   1.141   3.914  13.252 -0.8259 -0.5212  0.0780
 3957SOL    HW123330   1.137   3.971  13.329 -1.6013 -1.4948  0.7627
 3957SOL    HW223331   1.223   3.865  13.254  0.5123  1.6957 -0.7594
 3958SOL     OW23332   0.330   3.842  14.444 -0.1060  0.0685  0.4141
 3958SOL    HW123333   0.248   3.853  14.396  1.3167  2.6488 -1.4557
 3958SOL    HW223334   0.349   3.931  14.474 -0.7529  0.5555 -0.5852
 3959SOL     OW23335   1.437   2.113   1.075  0.4435  0.6981  0.0261
 3959SOL    HW123336   1.483   2.152   1.001  1.1374 -1.1219 -0.5130
 3959SOL    HW223337   1.497   2.124   1.150 -0.5527  1.2851  0.7289
 3960SOL     OW23338   0.097   1.912  10.373  0.0142 -0.1530 -0.0667
 3960SOL    HW123339   0.107   1.989  10.315  0.6309 -1.3179 -1.5096
 3960SOL    HW223340   0.017   1.938  10.419  0.2844 -0.4580  0.5607
 3961SOL     OW23341   1.547   2.965  16.077  0.3661 -0.0792  0.1761
 3961SOL    HW123342   1.556   2.910  16.000  0.1050 -1.3759  1.0801
 3961SOL    HW223343   1.601   2.922  16.144  0.2708  0.0276  0.3226
 3962SOL     OW23344   2.563   0.346  13.622  0.2080  0.2118 -0.0163
 3962SOL    HW123345   2.639   0.369  13.677 -0.3856  1.8459  0.1356
 3962SOL    HW223346   2.559   0.428  13.573  0.3407 -0.0818 -0.5050
 3963SOL     OW23347   1.437   1.649   9.282 -0.0561 -0.4502  0.0432
 3963SOL    HW123348   1.504   1.647   9.351  0.9134 -0.9468 -0.9090
 3963SOL    HW223349   1.397   1.736   9.292 -0.3633 -0.8632  2.3103
 3964SOL     OW23350   1.605   3.666  13.861 -0.4198  0.3452  0.0509
 3964SOL    HW123351   1.555   3.732  13.812  0.5842  1.6732  0.8001
 3964SOL    HW223352   1.644   3.711  13.936  0.0153  1.1300 -0.6551
 3965SOL     OW23353   1.443   3.711   5.266  0.2075 -0.7879  0.1614
 3965SOL    HW123354   1.471   3.649   5.333  1.9001  0.1590  0.3359
 3965SOL    HW223355   1.458   3.655   5.190  2.5997  1.0445 -0.7094
 3966SOL     OW23356   2.956   2.218   9.201  0.9522 -0.0980 -0.4272
 3966SOL    HW123357   2.974   2.141   9.255 -0.5598 -0.5846 -0.6073
 3966SOL    HW223358   3.011   2.286   9.240  0.0855  1.9048 -2.6968
 3967SOL     OW23359   3.310   3.582   2.344  0.3207  0.3125 -0.5606
 3967SOL    HW123360   3.319   3.493   2.378 -0.2934  1.0132  1.4260
 3967SOL    HW223361   3.347   3.564   2.257  1.1518 -0.5374 -0.0292
 3968SOL     OW23362   0.671   1.198   3.002  0.0339  0.1552  0.0236
 3968SOL    HW123363   0.698   1.109   3.022  1.1546  0.9083  1.9092
 3968SOL    HW223364   0.620   1.184   2.923 -0.0130 -0.5178  0.1742
 3969SOL     OW23365   1.896   1.145   5.279 -0.1544 -0.0215 -0.3126
 3969SOL    HW123366   1.986   1.153   5.311  0.0810  3.3692 -1.7794
 3969SOL    HW223367   1.909   1.172   5.188 -2.6999 -0.6395 -0.8511
 3970SOL     OW23368   0.372   0.913  11.910 -0.1286  0.0022 -0.6640
 3970SOL    HW123369   0.277   0.913  11.918  0.3127 -3.4161  5.0787
 3970SOL    HW223370   0.392   0.991  11.963 -1.5483  0.7966 -1.3101
 3971SOL     OW23371   2.108   1.606  10.708  0.7249  0.2976 -0.6689
 3971SOL    HW123372   2.104   1.589  10.802  1.3475 -2.4751 -1.1664
 3971SOL    HW223373   2.202   1.609  10.688  0.8758 -2.1334 -0.2730
 3972SOL     OW23374   0.584   0.276   7.301 -0.3752 -0.3735 -0.5361
 3972SOL    HW123375   0.553   0.365   7.286  1.4457  0.1483 -1.1903
 3972SOL    HW223376   0.657   0.284   7.363 -2.4859  0.3637  1.8942
 3973SOL     OW23377   2.580   4.558   3.869  0.3150 -0.1710  0.2230
 3973SOL    HW123378   2.647   4.497   3.900  1.4373  0.2214 -1.4433
 3973SOL    HW223379   2.563   4.512   3.787 -1.7977  1.5734 -0.3318
 3974SOL     OW23380   4.483   4.516   2.346  0.2325 -0.4105  0.0826
 3974SOL    HW123381   4.486   4.551   2.257  2.1650  0.2379  0.3956
 3974SOL    HW223382   4.568   4.547   2.376  1.7072 -1.6794 -2.7690
 3975SOL     OW23383   3.473   2.560   2.545 -0.2908  0.5019 -0.5439
 3975SOL    HW123384   3.524   2.479   2.552  0.6555  1.1376  0.0061
 3975SOL    HW223385   3.390   2.532   2.508 -1.6416 -0.2526  3.0554
 3976SOL     OW23386   0.416   4.340   9.707 -0.2376 -0.1774 -0.2437
 3976SOL    HW123387   0.322   4.355   9.704 -0.3056 -0.3420  1.0557
 3976SOL    HW223388   0.433   4.246   9.711  1.9588  0.3015  2.3615
 3977SOL     OW23389   0.829   0.934  11.675 -0.5354  0.1210 -0.3781
 3977SOL    HW123390   0.919   0.949  11.648 -0.4215  0.1524  0.0176
 3977SOL    HW223391   0.783   0.899  11.598 -0.1133 -1.5951  0.1514
 3978SOL     OW23392   1.934   0.931   7.578 -0.1987 -0.6599  0.5593
 3978SOL    HW123393   1.982   0.865   7.529 -0.6369 -1.3996  1.1313
 3978SOL    HW223394   1.917   0.872   7.652 -0.8865  0.9673  1.7148
 3979SOL     OW23395   0.538   2.087  13.153 -0.0749  0.2875  0.0277
 3979SOL    HW123396   0.623   2.072  13.112  0.9057  1.6692  1.6107
 3979SOL    HW223397   0.515   2.005  13.196 -0.6236  1.0646  1.1914
 3980SOL     OW23398   2.605   2.766   2.780  0.1070 -0.2215 -0.3354
 3980SOL    HW123399   2.511   2.763   2.800 -0.2897  0.1574 -2.1984
 3980SOL    HW223400   2.642   2.768   2.868  0.4224 -0.3912 -0.4629
 3981SOL     OW23401   0.627   1.701   6.636  0.4152 -0.3912 -0.3118
 3981SOL    HW123402   0.607   1.625   6.581  1.7053 -1.2311  0.3713
 3981SOL    HW223403   0.709   1.740   6.607  0.1490  0.6934  0.3814
 3982SOL     OW23404   1.057   1.360   4.795  0.1935  0.3350 -1.0004
 3982SOL    HW123405   1.130   1.312   4.835 -0.2378  0.2362 -0.3255
 3982SOL    HW223406   0.998   1.345   4.869  0.1235  1.3693 -0.8462
 3983SOL     OW23407   1.728   3.679   6.135  0.2754 -0.0529 -0.7111
 3983SOL    HW123408   1.758   3.620   6.066  0.5131  1.7887 -2.1724
 3983SOL    HW223409   1.639   3.647   6.151 -0.0898  1.9062  1.1083
 3984SOL     OW23410   3.031   2.444   5.915  0.2381 -0.7189 -0.2824
 3984SOL    HW123411   3.061   2.463   6.003  0.3908  1.6086 -0.8358
 3984SOL    HW223412   3.082   2.514   5.875 -1.9595  1.2102  0.3074
 3985SOL     OW23413   3.731   0.919   3.699 -0.5195  0.2130  0.2036
 3985SOL    HW123414   3.696   0.866   3.770  0.4875 -1.6257 -0.6799
 3985SOL    HW223415   3.808   0.959   3.740  0.6455 -1.1077 -0.7118
 3986SOL     OW23416   0.533   0.680  10.921  0.1308 -0.0126  0.3357
 3986SOL    HW123417   0.577   0.692  11.005 -0.3468  1.1476  0.4190
 3986SOL    HW223418   0.464   0.745  10.936  1.5109  1.5454 -0.0917
 3987SOL     OW23419   0.681   1.982   8.445  0.0391 -0.3966 -0.2873
 3987SOL    HW123420   0.643   1.896   8.427  1.3192 -1.2023  0.8632
 3987SOL    HW223421   0.772   1.961   8.466  0.2162 -0.6275 -1.2849
 3988SOL     OW23422   0.834   1.796  16.723  0.0851 -0.5385  0.1343
 3988SOL    HW123423   0.861   1.888  16.724 -1.7411  0.0289 -2.2778
 3988SOL    HW223424   0.738   1.800  16.725  0.1375 -0.0165  2.2985
 3989SOL     OW23425   3.905   1.132   9.080 -0.3028 -0.0102 -0.3616
 3989SOL    HW123426   3.973   1.065   9.088 -1.0818 -0.6580  0.7068
 3989SOL    HW223427   3.850   1.098   9.009  2.5430  0.1805 -2.6719
 3990SOL     OW23428   0.065   2.612  11.154  0.0713  0.2266 -0.0942
 3990SOL    HW123429   0.149   2.659  11.157 -0.2105  0.5957  1.9746
 3990SOL    HW223430   0.063   2.590  11.061  1.0125 -2.2272  0.4811
 3991SOL     OW23431   4.061   3.356   5.459 -0.0724  0.1221 -0.1853
 3991SOL    HW123432   4.024   3.381   5.544 -0.7257 -0.7543 -0.2084
 3991SOL    HW223433   4.149   3.377   5.488  0.2724 -1.8208  0.2299
 3992SOL     OW23434   1.960   3.735   6.297 -0.7079  0.4465  0.0175
 3992SOL    HW123435   1.888   3.742   6.359  0.5424  0.7785  1.4348
 3992SOL    HW223436   1.911   3.701   6.222  1.8938 -1.7842 -0.6811
 3993SOL     OW23437   2.194   0.962   5.652  0.9889  0.1171  0.0673
 3993SOL    HW123438   2.282   0.938   5.622  1.0468  0.2535  0.1284
 3993SOL    HW223439   2.204   0.967   5.747  1.5204  1.0594 -0.0454
 3994SOL     OW23440   0.997   0.087   8.563 -0.3594 -0.6651  0.5006
 3994SOL    HW123441   0.970   0.132   8.643 -0.3808  0.7049 -0.2684
 3994SOL    HW223442   1.078   0.045   8.590 -0.8897 -1.2335  1.1918
 3995SOL     OW23443   0.653   3.121   3.984 -0.2877  0.0971 -0.0538
 3995SOL    HW123444   0.641   3.026   3.981 -1.5151  0.2299  0.7652
 3995SOL    HW223445   0.742   3.127   4.017 -0.4417  1.1689  0.1660
 3996SOL     OW23446   4.354   3.240  17.513 -0.0966 -0.0567  0.5328
 3996SOL    HW123447   4.413   3.315  17.500  1.1199 -0.6594  2.4966
 3996SOL    HW223448   4.304   3.252  17.433 -0.2925  2.3517  1.0203
 3997SOL     OW23449   0.510   1.464   1.624  0.0394 -0.2520 -0.0534
 3997SOL    HW123450   0.462   1.508   1.555  1.9330  1.3155 -0.3463
 3997SOL    HW223451   0.465   1.491   1.704 -2.1032  1.2482 -1.7959
 3998SOL     OW23452   2.768   1.687   2.031 -0.8505 -0.0673  0.1673
 3998SOL    HW123453   2.760   1.708   2.124  1.3761  3.6504 -0.4768
 3998SOL    HW223454   2.717   1.606   2.033 -2.8450  1.1570 -0.8471
 3999SOL     OW23455   4.473   4.226   5.005  0.8237  0.6728  0.0145
 3999SOL    HW123456   4.424   4.288   5.058 -0.6075 -0.6359  0.2174
 3999SOL    HW223457   4.512   4.176   5.077  0.2875  1.3054  0.7462
 4000SOL     OW23458   0.164   3.409   3.450  0.9122 -0.5539  0.1275
 4000SOL    HW123459   0.199   3.458   3.524 -1.0245  1.1824 -0.0904
 4000SOL    HW223460   0.148   3.485   3.393 -0.4390 -1.8731 -1.2590
 4001SOL     OW23461   2.833   2.429  11.068  0.0037  0.2735  0.3495
 4001SOL    HW123462   2.778   2.361  11.029  0.9303  1.5456 -3.2066
 4001SOL    HW223463   2.772   2.497  11.095 -0.3675 -0.3261  1.0374
 4002SOL     OW23464   0.026   4.319   4.444  0.5028 -0.1135 -0.5975
 4002SOL    HW123465   4.680   4.250   4.453  1.3564 -0.5088  2.5066
 4002SOL    HW223466   0.004   4.359   4.360 -2.9356 -1.8226 -0.4866
 4003SOL     OW23467   1.738   0.896  13.155  0.3457  0.0400  0.1633
 4003SOL    HW123468   1.670   0.891  13.222 -0.0401  1.6288 -0.0955
 4003SOL    HW223469   1.761   0.987  13.176 -1.2421  0.1100  1.5831
 4004SOL     OW23470   1.460   3.816  13.709 -0.1542 -0.1499  0.4136
 4004SOL    HW123471   1.397   3.887  13.719 -1.4889 -1.4119  1.0802
 4004SOL    HW223472   1.458   3.803  13.614 -1.8088 -2.2995  0.7299
 4005SOL     OW23473   1.054   1.491   8.737  0.2451  0.1038  0.2417
 4005SOL    HW123474   1.009   1.554   8.794 -1.2071 -0.3233 -0.4350
 4005SOL    HW223475   0.997   1.416   8.755  0.8212 -0.0686  1.2784
 4006SOL     OW23476   2.868   0.198   2.666 -0.0824 -0.0817 -0.2152
 4006SOL    HW123477   2.923   0.277   2.670 -0.3633  0.1584 -1.0734
 4006SOL    HW223478   2.812   0.228   2.594 -0.0318  1.5808  0.4477
 4007SOL     OW23479   1.859   1.147   8.735 -0.2733  0.5471  0.3187
 4007SOL    HW123480   1.844   1.234   8.772  1.0185  0.6618  0.5630
 4007SOL    HW223481   1.900   1.101   8.808  1.3886 -1.7311 -2.0311
 4008SOL     OW23482   0.862   0.944   6.646  0.2244  0.3687  0.5322
 4008SOL    HW123483   0.944   0.902   6.672  0.6181  1.0814  0.4201
 4008SOL    HW223484   0.899   1.010   6.589 -1.0475 -0.0337 -0.7520
 4009SOL     OW23485   2.256   4.147   3.240  0.2496  0.0326  0.1394
 4009SOL    HW123486   2.227   4.226   3.194  0.4506 -1.4916 -2.6654
 4009SOL    HW223487   2.213   4.083   3.182  0.1862 -0.1405  0.3811
 4010SOL     OW23488   1.424   2.390   5.183 -0.0035  0.0377 -0.4914
 4010SOL    HW123489   1.416   2.352   5.095 -0.8072  1.3266 -0.9725
 4010SOL    HW223490   1.348   2.446   5.197 -0.2377 -0.1927 -0.8591
 4011SOL     OW23491   1.318   0.109   7.686 -0.1420  0.3782  0.5586
 4011SOL    HW123492   1.311   0.152   7.601  1.7871 -1.3291 -0.4754
 4011SOL    HW223493   1.325   0.019   7.654  1.0052  0.7250 -0.1890
 4012SOL     OW23494   1.838   2.165   4.948 -0.6304 -0.0362 -0.3611
 4012SOL    HW123495   1.812   2.105   4.878 -1.5632 -2.6812  2.2427
 4012SOL    HW223496   1.918   2.120   4.978 -0.9400 -0.3171  0.0341
 4013SOL     OW23497   2.154   0.739   8.416  0.1056 -0.2643  0.2419
 4013SOL    HW123498   2.082   0.801   8.427  0.5530  0.3834 -0.4894
 4013SOL    HW223499   2.212   0.800   8.370 -0.4711 -0.9609 -1.3831
 4014SOL     OW23500   2.002   4.196   6.876  0.3467  0.0252 -0.1535
 4014SOL    HW123501   2.098   4.195   6.875  0.3107  1.8857 -3.0949
 4014SOL    HW223502   1.984   4.289   6.867  1.7580  0.4877  1.7789
 4015SOL     OW23503   1.783   4.054   3.203 -0.5840 -0.0597 -0.3746
 4015SOL    HW123504   1.769   4.128   3.262  0.7231 -1.0638  1.1821
 4015SOL    HW223505   1.699   4.031   3.163 -0.0274 -1.9040 -0.4872
 4016SOL     OW23506   4.242   1.205  14.027 -0.2996  0.3100 -0.3626
 4016SOL    HW123507   4.199   1.258  14.094 -4.0077 -1.6747 -1.1969
 4016SOL    HW223508   4.172   1.195  13.963 -1.2981 -1.2784  0.9822
 4017SOL     OW23509   3.122   1.191  15.287 -0.7303 -0.2309 -0.1722
 4017SOL    HW123510   3.107   1.255  15.357  0.1877  3.6006 -3.4618
 4017SOL    HW223511   3.066   1.229  15.220  0.6975  1.0383 -0.6266
 4018SOL     OW23512   2.276   3.780  17.389  0.1138 -0.3244 -0.3099
 4018SOL    HW123513   2.263   3.805  17.481 -1.4534 -1.1976 -0.2858
 4018SOL    HW223514   2.321   3.697  17.399  1.4367  0.2389 -1.6954
 4019SOL     OW23515   0.198   2.217   4.551 -0.6540  0.1476 -0.3189
 4019SOL    HW123516   0.186   2.180   4.638  0.1591  0.2534 -0.1620
 4019SOL    HW223517   0.211   2.311   4.562  0.0710  0.0563 -0.3782
 4020SOL     OW23518   4.362   4.671  11.650 -0.1210  0.6375  0.1534
 4020SOL    HW123519   4.349   0.026  11.710 -1.8470 -1.0672  1.8626
 4020SOL    HW223520   4.328   4.602  11.706  0.9631  0.9521  1.2053
 4021SOL     OW23521   2.951   3.676   2.950  0.2977  0.1058 -0.4019
 4021SOL    HW123522   2.988   3.746   2.896  1.7641 -2.0924 -2.2538
 4021SOL    HW223523   2.953   3.720   3.034 -0.5660 -1.4034  0.4179
 4022SOL     OW23524   2.894   1.949   4.160 -0.1297 -0.6082 -0.4420
 4022SOL    HW123525   2.960   1.990   4.216 -0.7460 -1.3874  0.8415
 4022SOL    HW223526   2.893   2.003   4.080  1.4405  2.5993  1.7156
 4023SOL     OW23527   3.182   2.987   3.547  0.2786 -0.1189 -0.1039
 4023SOL    HW123528   3.274   2.961   3.547 -0.4187 -2.5959  0.5290
 4023SOL    HW223529   3.165   2.977   3.453  2.9486 -1.8506 -0.4149
 4024SOL     OW23530   2.105   3.194   9.670  0.4654  0.2953 -0.2689
 4024SOL    HW123531   2.176   3.149   9.716 -1.6357 -1.6750  0.9731
 4024SOL    HW223532   2.069   3.122   9.619 -1.0705  0.7384  0.1826
 4025SOL     OW23533   2.378   3.624   9.014 -0.1622  0.1347  0.0997
 4025SOL    HW123534   2.395   3.579   8.931 -1.2235  1.5510 -0.8697
 4025SOL    HW223535   2.464   3.631   9.057 -1.1717  1.4400  1.8995
 4026SOL     OW23536   2.874   0.196   7.895  0.3806  0.3845 -0.0172
 4026SOL    HW123537   2.831   0.136   7.834  0.3706  1.1086 -0.7336
 4026SOL    HW223538   2.931   0.134   7.941  1.3172  1.3774  0.1609
 4027SOL     OW23539   1.967   3.138   4.599 -0.0013  0.0759  0.4117
 4027SOL    HW123540   2.035   3.079   4.630 -0.3593 -0.1667  0.7459
 4027SOL    HW223541   1.948   3.110   4.510 -0.0614 -3.4306  1.5309
 4028SOL     OW23542   3.785   0.724   9.956 -0.0073  0.1253  0.4284
 4028SOL    HW123543   3.834   0.649   9.921  1.5523  1.1786  0.3399
 4028SOL    HW223544   3.723   0.730   9.883 -0.2045 -0.4697  0.5478
 4029SOL     OW23545   1.892   1.999   6.809 -0.0223 -1.2364  0.6319
 4029SOL    HW123546   1.858   2.006   6.719 -1.3650 -0.5230  1.1857
 4029SOL    HW223547   1.969   2.055   6.800 -2.6219  1.9552 -1.6630
 4030SOL     OW23548   1.269   0.619   3.387  0.4118 -0.1632 -0.2688
 4030SOL    HW123549   1.323   0.620   3.309 -0.8406  0.0922 -1.1331
 4030SOL    HW223550   1.290   0.709   3.413  0.6151  0.1445 -1.5117
 4031SOL     OW23551   2.274   1.676   5.376  0.1669 -0.3468 -0.0257
 4031SOL    HW123552   2.289   1.690   5.469 -0.1590 -0.6984  0.0810
 4031SOL    HW223553   2.226   1.758   5.360  0.0487 -0.4222 -0.0603
 4032SOL     OW23554   2.081   3.378   4.523 -0.2412  0.1513 -0.0875
 4032SOL    HW123555   2.010   3.372   4.458 -0.2293  0.4811 -0.1316
 4032SOL    HW223556   2.057   3.293   4.561 -0.7272  0.7628  0.9942
 4033SOL     OW23557   4.236   0.392  15.048 -0.4447  0.2556 -0.7805
 4033SOL    HW123558   4.300   0.393  15.119 -2.1118  1.4678  0.7036
 4033SOL    HW223559   4.175   0.458  15.081  2.0382  1.7056  0.9478
 4034SOL     OW23560   2.993   3.352   3.129  0.1517  0.1138 -0.1331
 4034SOL    HW123561   2.964   3.338   3.039 -0.4539  1.0281 -0.0746
 4034SOL    HW223562   2.940   3.284   3.171 -0.6617 -0.6889 -2.4390
 4035SOL     OW23563   0.430   3.335   7.797 -0.4939  0.7895  0.1069
 4035SOL    HW123564   0.418   3.429   7.788 -1.6162  0.7333  1.0339
 4035SOL    HW223565   0.412   3.324   7.890  0.6574 -0.1364  0.2202
 4036SOL     OW23566   4.236   4.004  10.163  0.0835 -0.0240 -0.1275
 4036SOL    HW123567   4.288   3.991  10.084  0.6273  1.6367 -0.0391
 4036SOL    HW223568   4.214   4.091  10.130  1.4884  0.7454  0.9634
 4037SOL     OW23569   3.757   3.932  17.021  0.1267  0.0538  0.6747
 4037SOL    HW123570   3.662   3.943  17.030 -0.2576 -0.2840 -2.7292
 4037SOL    HW223571   3.776   3.979  16.940  0.0585 -2.1154 -0.6162
 4038SOL     OW23572   2.411   2.420  10.504 -0.1858  0.4456  0.3710
 4038SOL    HW123573   2.392   2.461  10.588 -1.8378  0.8526 -0.1868
 4038SOL    HW223574   2.466   2.494  10.476 -2.2451  1.3836 -1.2359
 4039SOL     OW23575   3.713   0.406  12.740  0.5032 -0.2309 -0.1760
 4039SOL    HW123576   3.726   0.321  12.697  0.9254 -0.2255 -0.0596
 4039SOL    HW223577   3.795   0.422  12.787  0.0429 -0.5111  0.7236
 4040SOL     OW23578   2.706   1.754   5.638  0.3084 -0.2090 -0.3359
 4040SOL    HW123579   2.789   1.796   5.658 -0.8666  1.1940  1.6119
 4040SOL    HW223580   2.668   1.758   5.726 -1.0508 -0.6122 -0.9012
 4041SOL     OW23581   3.258   1.681   7.617  0.2529 -0.0492 -0.3460
 4041SOL    HW123582   3.175   1.675   7.664  0.0722 -0.8528 -0.7747
 4041SOL    HW223583   3.240   1.759   7.564  2.4134  0.2740 -0.6285
 4042SOL     OW23584   2.823   3.667   2.589 -0.4218 -0.0867  0.5016
 4042SOL    HW123585   2.870   3.726   2.530  1.4034 -0.4578  1.6182
 4042SOL    HW223586   2.823   3.709   2.675 -0.6064 -0.1392  0.5293
 4043SOL     OW23587   0.302   0.587   3.981 -0.3661  0.0011  0.6232
 4043SOL    HW123588   0.379   0.644   3.973  0.1841 -1.1061 -1.7533
 4043SOL    HW223589   0.341   0.519   3.927 -2.8022 -0.2946 -0.7469
 4044SOL     OW23590   3.915   1.941  10.463  0.0964 -0.3180  0.3545
 4044SOL    HW123591   3.986   1.993  10.500  0.1951  0.1802 -0.5252
 4044SOL    HW223592   3.941   1.859  10.506  1.2894  0.1293  0.4742
 4045SOL     OW23593   4.509   0.475   7.638 -0.4200 -0.6046 -0.1722
 4045SOL    HW123594   4.508   0.555   7.692 -0.3668 -0.3872 -0.4920
 4045SOL    HW223595   4.422   0.439   7.651 -1.4376  2.2759  1.0434
 4046SOL     OW23596   0.930   3.911   4.460 -0.1808 -0.8067 -0.7539
 4046SOL    HW123597   0.985   3.973   4.508  2.6584 -1.4571 -3.1409
 4046SOL    HW223598   0.997   3.853   4.425  1.8448  0.9099  0.2549
 4047SOL     OW23599   4.285   0.823   2.635  0.3141 -0.2777 -0.0946
 4047SOL    HW123600   4.210   0.847   2.691 -0.7753  0.6042 -1.9315
 4047SOL    HW223601   4.257   0.851   2.548  1.4061  0.0752 -0.3309
 4048SOL     OW23602   2.731   1.899   3.736  0.2725  0.2033 -0.3020
 4048SOL    HW123603   2.722   1.825   3.797  0.2062  0.6286  0.2016
 4048SOL    HW223604   2.810   1.874   3.688  0.3911 -1.0330  0.5324
 4049SOL     OW23605   0.954   3.150   9.155 -0.5787  0.1259  0.2334
 4049SOL    HW123606   0.924   3.222   9.099 -0.9298 -0.8335 -0.8113
 4049SOL    HW223607   1.023   3.107   9.104 -1.4052 -2.6071  1.4299
 4050SOL     OW23608   0.423   0.922   4.741 -0.0495  0.0416  0.1951
 4050SOL    HW123609   0.350   0.878   4.697 -2.5702  2.8666  1.5841
 4050SOL    HW223610   0.435   0.996   4.682  1.1425 -0.8202 -0.6393
 4051SOL     OW23611   4.687   0.278  15.444 -0.0001 -0.2511  0.4749
 4051SOL    HW123612   4.644   0.196  15.422 -0.1208 -0.2485  0.7025
 4051SOL    HW223613   4.634   0.294  15.522 -1.0229 -1.5987  0.0475
 4052SOL     OW23614   2.739   2.039  16.532 -0.2937 -0.0263 -0.5007
 4052SOL    HW123615   2.663   2.023  16.589 -0.2125 -0.3943 -0.4952
 4052SOL    HW223616   2.711   2.113  16.478  1.0698  1.2028  0.4919
 4053SOL     OW23617   2.267   0.821   4.746 -0.0032 -0.4765 -0.6072
 4053SOL    HW123618   2.276   0.727   4.737 -0.2639 -0.5571 -0.0643
 4053SOL    HW223619   2.283   0.845   4.655 -0.4207  0.8079 -0.3464
 4054SOL     OW23620   2.876   2.224   5.597 -0.7970  0.4768  0.1291
 4054SOL    HW123621   2.819   2.290   5.556 -0.3454 -0.0093 -1.2629
 4054SOL    HW223622   2.885   2.259   5.686 -1.5537  0.6782  0.1273
 4055SOL     OW23623   0.655   0.151   7.769 -0.1792 -0.2698 -0.4229
 4055SOL    HW123624   0.607   0.232   7.753  2.2562  1.4666  0.8338
 4055SOL    HW223625   0.699   0.141   7.685  1.1906  0.9412  0.1264
 4056SOL     OW23626   2.623   3.472   7.470  1.0678  0.4033 -0.1260
 4056SOL    HW123627   2.536   3.481   7.510  0.4433  3.1323 -2.1406
 4056SOL    HW223628   2.669   3.545   7.513 -0.4768  1.2471  0.1073
 4057SOL     OW23629   4.686   2.567  11.810  1.1138  0.0412  0.6429
 4057SOL    HW123630   4.716   2.476  11.811  0.2720 -0.2440 -0.1405
 4057SOL    HW223631   4.702   2.596  11.720  0.8190 -2.3509 -0.1692
 4058SOL     OW23632   2.387   4.698   1.690  0.3639  0.6136  0.0905
 4058SOL    HW123633   2.336   0.059   1.677 -0.9695 -0.0069  1.5962
 4058SOL    HW223634   2.437   4.684   1.609 -0.0384 -0.0582 -0.0349
 4059SOL     OW23635   3.858   2.301  17.357 -0.0006 -0.2723  0.0544
 4059SOL    HW123636   3.796   2.305  17.430  0.5054  1.1841  0.4139
 4059SOL    HW223637   3.850   2.210  17.328 -0.5737 -0.5803  1.1824
 4060SOL     OW23638   3.076   1.951   6.874  0.2097  0.6792  0.1463
 4060SOL    HW123639   3.089   1.938   6.968 -1.8055  0.4502  0.3882
 4060SOL    HW223640   3.058   1.862   6.842 -1.9174  1.9981 -2.3428
 4061SOL     OW23641   2.894   0.892   2.617 -0.4768 -0.0386  0.9249
 4061SOL    HW123642   2.921   0.856   2.532 -1.0625 -2.1540  1.6384
 4061SOL    HW223643   2.805   0.866   2.640 -0.2478 -2.2086 -0.7097
 4062SOL     OW23644   1.439   4.372   2.821  0.4460 -0.1440 -0.2032
 4062SOL    HW123645   1.501   4.392   2.750 -1.1592  1.1751 -1.2393
 4062SOL    HW223646   1.388   4.297   2.793 -0.9615  0.6738  0.1917
 4063SOL     OW23647   1.364   2.345   6.888 -0.0218 -0.0192  0.5747
 4063SOL    HW123648   1.404   2.430   6.872  1.3878 -0.4618  1.7407
 4063SOL    HW223649   1.440   2.298   6.924  0.2557  0.0715  0.1057
 4064SOL     OW23650   2.683   4.641   1.989  0.4395  0.1287  0.5258
 4064SOL    HW123651   2.654   4.704   2.054 -1.8822  0.1990 -0.5576
 4064SOL    HW223652   2.604   4.587   1.990  0.5148  0.0265  0.7669
 4065SOL     OW23653   2.379   0.277   2.703  0.2080  0.2136  0.0502
 4065SOL    HW123654   2.302   0.320   2.667  0.5176  0.8392  0.1253
 4065SOL    HW223655   2.438   0.332   2.651  0.4783  1.7776  2.0265
 4066SOL     OW23656   4.010   1.035   0.690  0.1374  0.8276  0.3950
 4066SOL    HW123657   4.075   1.103   0.705  1.4922 -0.8460  2.1629
 4066SOL    HW223658   3.972   1.052   0.604  2.2911  1.3085 -0.4426
 4067SOL     OW23659   1.303   4.030   7.174 -0.0741  0.5110  0.4177
 4067SOL    HW123660   1.258   3.962   7.225  0.5277  0.9654  1.5503
 4067SOL    HW223661   1.232   4.062   7.118  1.1387  1.1320 -0.7596
 4068SOL     OW23662   1.270   0.272  14.585 -0.2183 -0.1251  0.0279
 4068SOL    HW123663   1.324   0.293  14.660  1.9466 -1.8556 -1.0605
 4068SOL    HW223664   1.262   0.355  14.537  0.4297  0.2064  0.4906
 4069SOL     OW23665   0.019   0.023   5.702  0.6029 -0.0686 -0.0672
 4069SOL    HW123666   4.643   0.021   5.687  0.4713  0.7769  0.6600
 4069SOL    HW223667   0.057   0.105   5.670  1.0816 -0.1323  0.3444
 4070SOL     OW23668   1.212   3.923   9.456 -0.1248 -0.1957  0.1194
 4070SOL    HW123669   1.130   3.893   9.419  0.5482 -0.7606 -0.9067
 4070SOL    HW223670   1.227   3.869   9.533  1.9773  0.7582  0.3883
 4071SOL     OW23671   0.859   2.772   8.707 -0.5233 -0.0532 -0.5373
 4071SOL    HW123672   0.767   2.757   8.687 -0.4219 -1.0368 -0.2758
 4071SOL    HW223673   0.857   2.750   8.800  0.4648  1.2017 -0.2095
 4072SOL     OW23674   2.963   0.520  15.162 -0.2742  0.0609  0.5769
 4072SOL    HW123675   2.943   0.591  15.223 -0.0206  0.4946  0.1630
 4072SOL    HW223676   2.959   0.451  15.228 -3.1425  0.0199  0.3726
 4073SOL     OW23677   0.305   0.602   5.252 -1.1288  0.2372  0.1089
 4073SOL    HW123678   0.224   0.604   5.201 -0.0787  1.4874 -1.5352
 4073SOL    HW223679   0.302   0.691   5.287  2.2292  0.2508  0.3269
 4074SOL     OW23680   0.353   3.106   5.977 -0.2722 -0.4014  0.0152
 4074SOL    HW123681   0.308   3.041   5.923  1.7476 -2.6225  0.9954
 4074SOL    HW223682   0.281   3.148   6.024  0.7785  2.4203 -0.9039
 4075SOL     OW23683   1.636   4.593   9.257  0.2448 -0.3682 -0.4532
 4075SOL    HW123684   1.650   4.512   9.209 -0.4899 -0.1244 -1.0811
 4075SOL    HW223685   1.564   4.565   9.315  0.9871 -3.1430 -0.8824
 4076SOL     OW23686   2.175   0.942  12.320  0.1142 -0.1058 -0.2124
 4076SOL    HW123687   2.246   0.908  12.373  0.5546 -1.1899 -1.5041
 4076SOL    HW223688   2.176   1.030  12.358 -0.6594  0.0795 -0.6011
 4077SOL     OW23689   2.541   0.287   8.374  0.5018  0.2242  0.0478
 4077SOL    HW123690   2.490   0.299   8.454  1.1294  2.3868  0.1205
 4077SOL    HW223691   2.526   0.197   8.347  0.9194  0.4885 -1.0565
 4078SOL     OW23692   2.834   3.003   6.566  0.3823 -0.2933 -0.0617
 4078SOL    HW123693   2.794   2.955   6.639  0.6731  1.0004  0.9683
 4078SOL    HW223694   2.914   2.951   6.571  1.2885  1.0986 -0.2164
 4079SOL     OW23695   2.616   3.573   3.549  0.1223  0.5789  0.3968
 4079SOL    HW123696   2.658   3.658   3.538  1.5419 -0.6436 -3.6546
 4079SOL    HW223697   2.554   3.597   3.618  0.0368 -0.7955  0.8109
 4080SOL     OW23698   0.200   1.698   2.659  0.1863 -0.4779 -0.6373
 4080SOL    HW123699   0.189   1.662   2.571  0.9668  1.4568 -1.5144
 4080SOL    HW223700   0.288   1.673   2.688  1.5172  0.5901 -3.8387
 4081SOL     OW23701   3.522   0.611   6.699  0.4076 -0.0876 -0.1442
 4081SOL    HW123702   3.463   0.686   6.707  0.8950  0.1358  1.3797
 4081SOL    HW223703   3.475   0.552   6.641 -0.0867  0.3355 -0.1722
 4082SOL     OW23704   3.535   4.517   9.805  0.3621 -0.6037  0.2396
 4082SOL    HW123705   3.593   4.459   9.854  1.6591  0.0512 -0.5253
 4082SOL    HW223706   3.582   4.599   9.793  2.2365 -1.5676  0.9735
 4083SOL     OW23707   0.302   4.679   8.167 -0.0421 -0.1721 -0.2621
 4083SOL    HW123708   0.348   0.004   8.239 -1.5272 -1.0281  1.1949
 4083SOL    HW223709   0.328   0.017   8.094 -0.2938 -0.0803 -0.2772
 4084SOL     OW23710   2.366   1.011  10.159  0.3175  0.6100  0.2119
 4084SOL    HW123711   2.424   1.086  10.145 -1.0454  1.1646 -2.3077
 4084SOL    HW223712   2.374   0.961  10.079  0.5109  0.3020  0.4246
 4085SOL     OW23713   2.219   4.365   2.675  0.3553  0.6098 -0.2806
 4085SOL    HW123714   2.224   4.324   2.762 -1.1840  0.3646 -0.3141
 4085SOL    HW223715   2.258   4.296   2.621 -0.1149  1.3373 -1.5214
 4086SOL     OW23716   1.708   1.434  16.840  0.5103 -0.1546  0.1508
 4086SOL    HW123717   1.642   1.463  16.778 -0.4641  0.5947  1.5581
 4086SOL    HW223718   1.674   1.345  16.852 -1.1301  0.4630  0.0710
 4087SOL     OW23719   0.719   3.109   7.891 -0.2400  0.7783  0.6129
 4087SOL    HW123720   0.749   3.046   7.957 -2.5782 -1.7631 -0.7616
 4087SOL    HW223721   0.625   3.092   7.882 -0.3873  1.9344 -0.1325
 4088SOL     OW23722   3.792   3.378   7.846  0.2194  0.2163 -0.3222
 4088SOL    HW123723   3.786   3.387   7.942  1.2693 -1.9631 -0.0707
 4088SOL    HW223724   3.872   3.327   7.838  0.5375  0.3225  1.9832
 4089SOL     OW23725   0.302   1.359   4.858  0.4936 -0.2269 -0.5065
 4089SOL    HW123726   0.359   1.294   4.818 -1.0415 -1.1950 -1.1359
 4089SOL    HW223727   0.224   1.304   4.857 -0.9772  1.8100  0.7637
 4090SOL     OW23728   1.483   3.922   9.407  0.2666  0.0733  0.2533
 4090SOL    HW123729   1.446   3.912   9.319  2.3095 -0.1285 -0.6027
 4090SOL    HW223730   1.407   3.959   9.452 -1.2007 -1.0647 -1.2780
 4091SOL     OW23731   2.836   4.164   3.881  0.4625 -0.3869  0.2352
 4091SOL    HW123732   2.821   4.128   3.969  0.8796 -0.1132  0.4175
 4091SOL    HW223733   2.861   4.088   3.828 -1.6133 -1.7594  1.2379
 4092SOL     OW23734   2.185   1.046  15.664 -0.2519 -0.3239 -0.7596
 4092SOL    HW123735   2.241   0.989  15.717  0.5736  1.5038  0.3494
 4092SOL    HW223736   2.119   0.991  15.622 -0.3174 -1.2605  0.5496
 4093SOL     OW23737   4.231   4.618   8.349 -0.4188  0.2397 -0.0080
 4093SOL    HW123738   4.185   4.563   8.285  0.3491 -0.6059  0.1774
 4093SOL    HW223739   4.160   4.627   8.413  0.9341 -2.3863  1.8280
 4094SOL     OW23740   3.239   1.442   0.809  0.1940  0.2213  0.3059
 4094SOL    HW123741   3.296   1.365   0.806 -0.6619 -0.4313  0.6998
 4094SOL    HW223742   3.200   1.427   0.895 -1.7476  4.1129  0.1199
 4095SOL     OW23743   3.134   1.388   0.554 -0.3134  0.2369  0.7024
 4095SOL    HW123744   3.052   1.435   0.575 -1.0123 -0.5334 -0.2951
 4095SOL    HW223745   3.170   1.401   0.642 -2.6225  1.2377  1.5217
 4096SOL     OW23746   0.908   3.817   6.320  0.1219  1.2721  0.0473
 4096SOL    HW123747   0.963   3.847   6.392  2.8362  0.1890 -1.5937
 4096SOL    HW223748   0.851   3.894   6.319  1.7608  2.4781 -1.2376
 4097SOL     OW23749   4.689   1.828   7.113  0.1868  0.1501 -0.0759
 4097SOL    HW123750   4.604   1.871   7.124  1.3987  2.6332 -0.3648
 4097SOL    HW223751   0.020   1.906   7.089 -1.9979  2.5900  3.2318
 4098SOL     OW23752   2.193   2.778   9.384 -0.5842  0.6949  0.5844
 4098SOL    HW123753   2.167   2.740   9.468 -0.0405  0.3909  0.6126
 4098SOL    HW223754   2.149   2.862   9.370 -1.0259  0.3564 -0.0911
 4099SOL     OW23755   3.938   0.723  16.525  0.3085 -0.3262 -0.0720
 4099SOL    HW123756   3.911   0.804  16.568  1.0275 -0.8493  1.3386
 4099SOL    HW223757   4.010   0.700  16.583  1.2227  3.1399  0.1445
 4100SOL     OW23758   2.792   2.378   3.609 -0.8531  0.0615 -0.5855
 4100SOL    HW123759   2.834   2.302   3.649  0.6277  1.3336  0.2668
 4100SOL    HW223760   2.712   2.386   3.661  0.4385  1.3922  1.1737
 4101SOL     OW23761   1.620   1.021  15.759 -0.3099  0.0051 -0.1491
 4101SOL    HW123762   1.553   1.068  15.810 -1.7016 -0.7425 -1.2749
 4101SOL    HW223763   1.615   0.938  15.805 -2.2750  0.0588 -0.2518
 4102SOL     OW23764   0.744   1.394   1.548 -0.1412 -0.2694 -0.0422
 4102SOL    HW123765   0.665   1.441   1.574 -0.5016  0.1903 -1.9837
 4102SOL    HW223766   0.769   1.445   1.471 -0.9151  0.4689  0.1960
 4103SOL     OW23767   1.184   2.852  14.370 -0.5155  0.0286  0.1693
 4103SOL    HW123768   1.243   2.868  14.297 -2.4195  0.2522 -1.3159
 4103SOL    HW223769   1.096   2.860  14.333 -1.4413 -0.0155  2.3143
 4104SOL     OW23770   3.925   1.184   5.858 -0.1241 -0.3541 -0.3846
 4104SOL    HW123771   3.978   1.139   5.793  1.1106  2.3052 -1.2167
 4104SOL    HW223772   3.967   1.269   5.849  0.3205 -0.6219 -0.8554
 4105SOL     OW23773   1.466   4.397   8.589 -0.0499  0.5679  0.3017
 4105SOL    HW123774   1.561   4.404   8.595 -0.0562  0.9924 -0.1568
 4105SOL    HW223775   1.452   4.429   8.501  1.1412 -0.5778 -0.3077
 4106SOL     OW23776   3.951   3.331   6.079 -0.3925 -0.0323 -0.4076
 4106SOL    HW123777   3.856   3.328   6.075 -0.5103 -1.7182  3.6084
 4106SOL    HW223778   3.975   3.242   6.053  1.0046  0.4498 -0.7998
 4107SOL     OW23779   4.555   4.519   6.366 -0.0275 -0.0302 -0.2315
 4107SOL    HW123780   4.502   4.543   6.442  0.8546 -0.4755  0.5242
 4107SOL    HW223781   4.575   4.606   6.332  1.4722 -0.0667  0.5204
 4108SOL     OW23782   4.353   0.953   8.446 -0.5080 -0.1182 -0.2156
 4108SOL    HW123783   4.288   0.894   8.408  2.4176 -2.3814 -1.7001
 4108SOL    HW223784   4.388   0.898   8.516 -0.7417 -0.7981 -0.6339
 4109SOL     OW23785   1.857   2.656   3.830 -0.3819 -0.0168 -0.3830
 4109SOL    HW123786   1.775   2.665   3.877  0.5359  1.4328  0.9336
 4109SOL    HW223787   1.871   2.561   3.834 -0.7619  0.0350  1.7401
 4110SOL     OW23788   3.673   2.321  11.656  0.3695 -0.1866  0.1738
 4110SOL    HW123789   3.624   2.301  11.736 -1.3180 -0.0325 -0.8200
 4110SOL    HW223790   3.609   2.325  11.586 -2.1715  0.8474  2.5503
 4111SOL     OW23791   3.423   4.299   4.735  0.4771  0.1683 -0.9170
 4111SOL    HW123792   3.447   4.380   4.782 -1.9972 -1.9784  4.0434
 4111SOL    HW223793   3.370   4.341   4.667  1.2155  1.1927 -0.8737
 4112SOL     OW23794   2.119   0.520  11.029  0.3797 -0.4677 -0.1527
 4112SOL    HW123795   2.072   0.439  11.050 -0.5192  0.0732 -0.0699
 4112SOL    HW223796   2.113   0.561  11.115 -0.1460  2.2821 -1.4787
 4113SOL     OW23797   4.089   3.016   9.376 -0.1929 -0.0893 -0.1940
 4113SOL    HW123798   4.170   3.047   9.337 -0.4008  1.8929  0.9166
 4113SOL    HW223799   4.110   2.945   9.437  0.8916  0.0770 -0.3885
 4114SOL     OW23800   3.128   4.620   7.712  0.2118 -0.0761  0.0339
 4114SOL    HW123801   3.051   4.562   7.719  1.3149 -1.5978 -0.4708
 4114SOL    HW223802   3.181   4.575   7.647 -3.0279 -1.2380 -1.8476
 4115SOL     OW23803   2.053   3.463   9.887 -0.3806 -0.0987 -0.5804
 4115SOL    HW123804   2.005   3.443   9.806  0.0722  1.1050 -1.1460
 4115SOL    HW223805   1.992   3.531   9.916  0.5082  1.2305 -1.8238
 4116SOL     OW23806   1.401   4.630   6.339 -0.1003  0.8775 -0.2897
 4116SOL    HW123807   1.407   4.535   6.343  1.1631  1.0722  2.6814
 4116SOL    HW223808   1.317   4.659   6.304  0.6361  1.8172 -1.2815
 4117SOL     OW23809   0.541   3.782   4.215  0.0812  0.5311  0.7907
 4117SOL    HW123810   0.605   3.833   4.265 -0.9056  0.2937  2.2846
 4117SOL    HW223811   0.560   3.824   4.130 -2.2928  2.4649  1.1985
 4118SOL     OW23812   2.000   1.754  17.598  0.7889 -0.2600  0.6806
 4118SOL    HW123813   1.948   1.705  17.535  0.3557  2.0096 -0.7426
 4118SOL    HW223814   2.010   1.834  17.545  0.8706 -0.6217  0.1492
 4119SOL     OW23815   0.567   3.198  12.358  0.4719 -0.6647 -0.1249
 4119SOL    HW123816   0.652   3.171  12.324  1.7958  2.6213  0.5340
 4119SOL    HW223817   0.522   3.182  12.275  0.2796  1.2101 -0.3853
 4120SOL     OW23818   3.805   1.153   6.089  0.3164 -0.3417  0.1775
 4120SOL    HW123819   3.853   1.172   6.009  0.8697 -0.5666  0.4528
 4120SOL    HW223820   3.882   1.132   6.142  0.1108  0.7423  0.9039
 4121SOL     OW23821   2.326   4.106   9.049  0.0886 -0.7000  0.3583
 4121SOL    HW123822   2.247   4.120   8.998 -0.1435 -0.1747  0.8657
 4121SOL    HW223823   2.369   4.030   9.008  2.3037  1.0325 -0.5116
 4122SOL     OW23824   1.111   2.863   4.507 -0.9630  0.1146 -0.7655
 4122SOL    HW123825   1.079   2.793   4.450 -0.1847 -0.3521 -0.6242
 4122SOL    HW223826   1.141   2.924   4.439  1.5157 -0.4614 -0.1556
 4123SOL     OW23827   0.150   1.405   3.631 -0.2910  0.6741 -0.3275
 4123SOL    HW123828   0.073   1.461   3.617 -2.1058 -1.5742  0.6575
 4123SOL    HW223829   0.162   1.415   3.726 -2.3196  4.4640 -0.4548
 4124SOL     OW23830   3.061   4.323   4.701 -0.0509 -0.0611 -0.2524
 4124SOL    HW123831   3.011   4.369   4.634  0.9444  1.6681  0.1973
 4124SOL    HW223832   3.120   4.389   4.736  2.4584 -2.0828 -0.6451
 4125SOL     OW23833   3.503   0.121   4.551  0.2317  0.3732 -0.9328
 4125SOL    HW123834   3.413   0.098   4.574  0.6327  0.9443  1.2475
 4125SOL    HW223835   3.530   0.165   4.632  2.3963 -2.6353 -0.0184
 4126SOL     OW23836   0.667   1.099   4.938 -0.5107 -0.0106  0.1312
 4126SOL    HW123837   0.664   1.037   5.011  1.9494 -0.3165 -0.0248
 4126SOL    HW223838   0.658   1.178   4.992  1.1056 -0.3286  0.8820
 4127SOL     OW23839   2.467   0.879  10.448 -0.5593  0.1942 -0.5815
 4127SOL    HW123840   2.394   0.940  10.442  0.5250  1.6773  1.2643
 4127SOL    HW223841   2.542   0.927  10.413 -0.2585 -2.0189 -2.9361
 4128SOL     OW23842   3.308   4.053   4.371 -0.9492  0.0936  0.2922
 4128SOL    HW123843   3.239   3.990   4.394 -0.8986 -0.3846 -0.8749
 4128SOL    HW223844   3.324   4.018   4.284  0.3773  2.9649 -0.5778
 4129SOL     OW23845   3.489   3.824   1.717 -0.4330  0.1434  0.4089
 4129SOL    HW123846   3.435   3.899   1.692  0.4687 -0.0464 -2.1118
 4129SOL    HW223847   3.478   3.830   1.812  0.5045  3.2239  0.3380
 4130SOL     OW23848   1.774   1.466   8.591  0.0056 -0.8049  0.2179
 4130SOL    HW123849   1.765   1.560   8.573 -2.3049 -1.3930 -1.6524
 4130SOL    HW223850   1.867   1.446   8.580 -0.1116 -0.8401 -0.7633
 4131SOL     OW23851   2.833   2.009   2.297 -0.3153 -0.3925 -0.7726
 4131SOL    HW123852   2.894   1.948   2.257 -0.6063 -1.8984  1.0467
 4131SOL    HW223853   2.818   1.979   2.387 -0.3728  2.8941  0.3206
 4132SOL     OW23854   4.100   3.109  11.900 -0.1837 -0.2315  0.1106
 4132SOL    HW123855   4.033   3.174  11.923 -0.2243  0.0344 -0.7522
 4132SOL    HW223856   4.032   3.044  11.881 -0.0125 -0.3687 -0.0285
 4133SOL     OW23857   1.918   3.291  15.117  0.2568  0.3287  0.0029
 4133SOL    HW123858   1.864   3.244  15.180 -0.2950  0.5141 -0.3335
 4133SOL    HW223859   1.879   3.378  15.118 -1.2677 -0.3743  1.7827
 4134SOL     OW23860   3.368   2.072   0.920 -0.0034 -0.1607 -0.2781
 4134SOL    HW123861   3.315   2.107   0.848 -0.4240  2.6433  1.3984
 4134SOL    HW223862   3.356   2.133   0.992 -2.4494 -0.0686 -0.7674
 4135SOL     OW23863   0.338   1.794   5.142  0.5634  0.2132  0.4301
 4135SOL    HW123864   0.365   1.805   5.233  2.5816  0.7526 -0.2302
 4135SOL    HW223865   0.246   1.819   5.153  0.2385 -2.1187  2.9757
 4136SOL     OW23866   2.438   2.972  16.733  0.0266 -0.1083  0.1443
 4136SOL    HW123867   2.494   3.003  16.804 -1.1736  1.4364  0.4131
 4136SOL    HW223868   2.507   2.948  16.671 -0.1615 -1.3358  0.4094
 4137SOL     OW23869   0.336   1.333   5.149 -0.7258  0.1839  0.1224
 4137SOL    HW123870   0.345   1.324   5.054 -1.1459  1.1590 -0.0038
 4137SOL    HW223871   0.242   1.334   5.165 -0.8795 -0.8845 -0.7036
 4138SOL     OW23872   2.152   2.054   9.015 -0.2060 -0.4451 -0.0315
 4138SOL    HW123873   2.059   2.036   9.005  0.0738 -1.0295 -1.6033
 4138SOL    HW223874   2.148   2.148   9.031 -1.0183 -0.5198  0.2038
 4139SOL     OW23875   3.703   1.998   4.605  0.1730 -0.1294  0.0739
 4139SOL    HW123876   3.620   2.046   4.599  0.9113  1.2067  0.7948
 4139SOL    HW223877   3.732   2.021   4.693  0.3466  3.0898 -0.8600
 4140SOL     OW23878   1.333   1.547   7.288  0.3135 -0.0374 -0.2167
 4140SOL    HW123879   1.374   1.525   7.204  0.0896 -3.1242  0.4769
 4140SOL    HW223880   1.337   1.458   7.325  0.6624  0.3440  0.6587
 4141SOL     OW23881   3.214   3.391   9.061 -0.1330 -0.1078 -0.4065
 4141SOL    HW123882   3.248   3.308   9.092  0.8354  0.3387 -0.2997
 4141SOL    HW223883   3.272   3.406   8.987  2.9907 -0.6145  1.9695
 4142SOL     OW23884   2.376   0.683   0.536  0.1475  0.9462  0.1721
 4142SOL    HW123885   2.365   0.665   0.629  1.8122  0.4133  0.2587
 4142SOL    HW223886   2.365   0.775   0.513  0.6610  1.0275  0.2681
 4143SOL     OW23887   4.614   4.040  11.444 -0.4669 -0.1023 -0.2559
 4143SOL    HW123888   4.645   3.950  11.435 -1.8652 -0.7825  1.6351
 4143SOL    HW223889   4.520   4.023  11.451  0.0063 -2.1795  0.9782
 4144SOL     OW23890   2.242   4.507   8.937 -0.0392  0.4552  0.0138
 4144SOL    HW123891   2.208   4.485   9.023  0.1126  0.4035  0.0602
 4144SOL    HW223892   2.314   4.446   8.924  0.5914  1.6497 -2.0584
 4145SOL     OW23893   2.213   1.679   8.112 -0.0286 -0.7745 -0.2186
 4145SOL    HW123894   2.283   1.624   8.078  1.6264  1.0525  0.2647
 4145SOL    HW223895   2.133   1.626   8.105 -1.4784  1.0396  2.9600
 4146SOL     OW23896   1.302   2.333   2.847 -0.7732  0.5388  0.6375
 4146SOL    HW123897   1.289   2.287   2.930 -0.0749  2.4875  1.8140
 4146SOL    HW223898   1.371   2.277   2.811 -2.2344 -1.0533  0.2962
 4147SOL     OW23899   0.218   0.889  14.685 -0.1120 -0.6270 -0.1499
 4147SOL    HW123900   0.241   0.933  14.767 -1.4383  0.8432 -0.5676
 4147SOL    HW223901   0.173   0.809  14.712  0.7157 -0.6735  1.0775
 4148SOL     OW23902   2.286   2.574   2.451 -0.1516 -0.7932 -0.3938
 4148SOL    HW123903   2.307   2.480   2.450 -1.3356 -1.0523 -0.6707
 4148SOL    HW223904   2.363   2.618   2.487 -1.2507 -0.4140  1.4909
 4149SOL     OW23905   2.346   3.373   3.819 -0.3284 -0.1211 -0.1406
 4149SOL    HW123906   2.393   3.455   3.806  1.1890 -0.8055  0.9105
 4149SOL    HW223907   2.368   3.319   3.744  3.2210 -1.7720  2.0797
 4150SOL     OW23908   2.700   3.392  10.767  0.1679  0.3081  0.1255
 4150SOL    HW123909   2.637   3.406  10.838 -1.8685 -1.1275 -1.4102
 4150SOL    HW223910   2.763   3.463  10.782  1.2747 -0.9859  1.6273
 4151SOL     OW23911   1.294   3.259  16.992  0.5929  0.1159  0.8309
 4151SOL    HW123912   1.291   3.246  17.087  2.0873 -1.9242  0.6028
 4151SOL    HW223913   1.329   3.348  16.999 -1.0902  0.8341 -0.1714
 4152SOL     OW23914   3.338   2.251   9.301 -0.1051 -0.7629 -0.4414
 4152SOL    HW123915   3.398   2.305   9.352 -2.6189  0.3394  1.3402
 4152SOL    HW223916   3.380   2.266   9.216 -3.7851 -1.7585 -2.4300
 4153SOL     OW23917   3.789   4.321   8.368 -0.1312  0.0095  0.1865
 4153SOL    HW123918   3.776   4.416   8.362  0.4768 -0.1076 -2.9053
 4153SOL    HW223919   3.789   4.299   8.461  2.2895 -0.9579 -0.0480
 4154SOL     OW23920   1.155   1.266  14.773  0.4166  0.1466 -0.4999
 4154SOL    HW123921   1.117   1.269  14.685  1.6008 -0.6456 -1.0336
 4154SOL    HW223922   1.082   1.251  14.833 -0.1166  0.8217 -0.9789
 4155SOL     OW23923   3.315   0.489   4.760  0.5263  0.1541  0.2081
 4155SOL    HW123924   3.302   0.486   4.665 -2.7130  0.3500  0.6452
 4155SOL    HW223925   3.227   0.489   4.798  0.1875 -3.4233 -0.6215
 4156SOL     OW23926   2.519   2.450   8.328  0.5626 -0.8034  0.2929
 4156SOL    HW123927   2.543   2.542   8.316 -1.5441 -0.5187 -1.9235
 4156SOL    HW223928   2.571   2.427   8.405  0.7459 -0.9984  0.1115
 4157SOL     OW23929   1.326   4.613  10.039 -0.1181  0.0084 -0.8268
 4157SOL    HW123930   1.402   4.567  10.004 -1.2338 -2.0589 -0.5242
 4157SOL    HW223931   1.269   4.542  10.068  0.4990 -0.6514 -1.2476
 4158SOL     OW23932   0.223   4.414   5.081  0.0425  0.0093 -0.8290
 4158SOL    HW123933   0.274   4.464   5.145 -1.5487  1.7995 -0.9752
 4158SOL    HW223934   0.234   4.322   5.105  0.8686 -0.2498 -2.1640
 4159SOL     OW23935   0.750   1.154   8.205  0.0383 -0.1077  0.0404
 4159SOL    HW123936   0.775   1.183   8.292  1.0560  1.6943 -0.8600
 4159SOL    HW223937   0.760   1.059   8.213 -0.6016 -0.1005  0.8817
 4160SOL     OW23938   2.401   1.401   5.643  0.2695 -0.1721  0.3991
 4160SOL    HW123939   2.388   1.475   5.702 -0.5878  0.9782 -1.2377
 4160SOL    HW223940   2.492   1.418   5.620  0.5032  1.1508  2.2671
 4161SOL     OW23941   3.003   4.687   9.747 -0.5492 -0.7585  0.5950
 4161SOL    HW123942   3.025   0.042   9.691  0.5457 -2.1337 -0.7952
 4161SOL    HW223943   3.045   4.713   9.829  1.2352 -0.8709 -0.2974
 4162SOL     OW23944   4.696   2.534   3.347  0.0178 -0.0165  0.0321
 4162SOL    HW123945   4.664   2.588   3.419 -1.2510  0.6795 -1.0744
 4162SOL    HW223946   4.703   2.452   3.395  1.2532 -0.0853 -0.2668
 4163SOL     OW23947   1.399   2.865   6.165 -0.7456  0.3270  0.5014
 4163SOL    HW123948   1.447   2.932   6.116 -0.8809 -0.4465 -0.6833
 4163SOL    HW223949   1.463   2.794   6.164  2.0319  2.8297 -0.2045
 4164SOL     OW23950   1.533   4.341   1.692 -0.3856  0.3599  0.5048
 4164SOL    HW123951   1.521   4.290   1.612  1.7722 -0.3348  0.6451
 4164SOL    HW223952   1.513   4.430   1.663  1.0954  0.4267 -0.3246
 4165SOL     OW23953   4.385   4.414  15.367 -0.4543  0.2785 -0.4028
 4165SOL    HW123954   4.315   4.463  15.324 -0.9008  0.3461  0.4022
 4165SOL    HW223955   4.386   4.339  15.307 -0.5573  0.4155 -0.5775
 4166SOL     OW23956   3.111   0.869  14.108  0.0492 -0.7687 -0.1367
 4166SOL    HW123957   3.092   0.776  14.123 -1.2352 -0.2336  1.5153
 4166SOL    HW223958   3.032   0.904  14.149  0.2883  0.5994 -0.8549
 4167SOL     OW23959   1.904   0.645  17.588  0.3451 -0.2848 -0.3318
 4167SOL    HW123960   1.854   0.641  17.669 -0.1858  0.7488 -0.6036
 4167SOL    HW223961   1.990   0.668  17.623 -0.2008  1.9080 -0.4074
 4168SOL     OW23962   4.185   1.134   1.665  0.1792  0.0496  0.0078
 4168SOL    HW123963   4.238   1.194   1.611 -1.3399  0.7559 -0.6832
 4168SOL    HW223964   4.237   1.054   1.673 -2.5520 -1.6346  0.5749
 4169SOL     OW23965   4.144   0.163   7.403  0.2457  0.4247  0.3168
 4169SOL    HW123966   4.087   0.104   7.453  1.3855 -0.7277  0.2609
 4169SOL    HW223967   4.234   0.129   7.402  0.3665  0.7921 -0.6850
 4170SOL     OW23968   0.782   3.806  14.055  0.5142 -0.4378 -0.2533
 4170SOL    HW123969   0.755   3.828  13.965 -0.0299 -2.0928 -0.5142
 4170SOL    HW223970   0.843   3.872  14.087 -0.2748  1.1761 -2.0770
 4171SOL     OW23971   3.147   3.954   2.515 -0.3665 -0.2231  0.3476
 4171SOL    HW123972   3.192   3.968   2.598  0.8895 -0.1237 -0.3659
 4171SOL    HW223973   3.169   3.863   2.496 -1.6795 -0.0196 -2.1638
 4172SOL     OW23974   4.688   1.331   2.665  0.1042  0.1175  0.0527
 4172SOL    HW123975   4.689   1.313   2.571 -3.8643 -0.6190  0.1326
 4172SOL    HW223976   0.060   1.318   2.691  0.0893  2.8560  1.4796
 4173SOL     OW23977   0.067   1.122  15.692  0.0740 -0.3560 -0.2089
 4173SOL    HW123978   0.089   1.180  15.618  0.1266 -2.4328 -1.8168
 4173SOL    HW223979   0.132   1.052  15.687 -0.2259 -0.6410 -0.0802
 4174SOL     OW23980   4.617   2.091   7.269  0.2716  0.6560  0.0890
 4174SOL    HW123981   4.693   2.049   7.230 -1.3235 -2.2781  0.1177
 4174SOL    HW223982   4.588   2.034   7.341  0.9821 -2.0062 -1.7114
 4175SOL     OW23983   1.110   0.347   6.070  0.0142 -0.4798  0.2704
 4175SOL    HW123984   1.186   0.313   6.117 -0.8688 -1.5635  0.9135
 4175SOL    HW223985   1.040   0.284   6.089 -0.2250 -1.1313 -2.7744
 4176SOL     OW23986   4.106   0.550  14.304  0.3776 -0.2662 -0.3568
 4176SOL    HW123987   4.109   0.477  14.367  2.2835 -0.0049 -0.1292
 4176SOL    HW223988   4.038   0.608  14.337  0.0528 -0.0570 -1.4108
 4177SOL     OW23989   2.921   4.089   2.470 -0.3396 -0.2039 -0.4634
 4177SOL    HW123990   3.007   4.060   2.500  0.3253  1.3399 -0.8601
 4177SOL    HW223991   2.874   4.008   2.453 -0.5638 -0.1464 -0.1080
 4178SOL     OW23992   1.459   4.538   9.445 -0.3452 -0.5390 -0.5592
 4178SOL    HW123993   1.496   4.560   9.531 -0.6862 -0.1819 -0.5027
 4178SOL    HW223994   1.367   4.524   9.468  0.1876 -1.2263  1.1780
 4179SOL     OW23995   3.740   2.067  10.008  0.2764  0.2775  0.0236
 4179SOL    HW123996   3.752   2.066  10.103  0.1281  0.1879  0.0414
 4179SOL    HW223997   3.721   1.974   9.999  0.1646  0.4919 -1.8250
 4180SOL     OW23998   2.107   0.381   6.318 -0.3184 -0.0330  0.3412
 4180SOL    HW123999   2.127   0.331   6.239 -0.0425 -0.5147  0.7166
 4180SOL    HW224000   2.116   0.468   6.280  0.5440  0.2986  1.2983
 4181SOL     OW24001   2.503   4.335  13.401 -0.4740 -0.1319  0.6521
 4181SOL    HW124002   2.542   4.253  13.430  0.9574  0.5026  0.5244
 4181SOL    HW224003   2.545   4.398  13.460 -0.2275  0.7740 -0.4780
 4182SOL     OW24004   4.106   4.407   1.435 -0.2086  0.4496 -0.0785
 4182SOL    HW124005   4.041   4.393   1.504  1.6379 -2.7426  1.0129
 4182SOL    HW224006   4.175   4.344   1.453 -1.2102 -0.9763 -1.2660
 4183SOL     OW24007   1.582   1.470   1.135  0.1292  0.3666  0.2871
 4183SOL    HW124008   1.524   1.479   1.211  1.6707  1.8730  1.2586
 4183SOL    HW224009   1.521   1.505   1.070  0.6849  1.6970  0.4844
 4184SOL     OW24010   0.558   2.942  10.321 -0.1383  0.0036  0.1703
 4184SOL    HW124011   0.610   3.022  10.316 -0.2556 -0.0250 -1.3565
 4184SOL    HW224012   0.470   2.971  10.343 -0.2295  1.1606 -1.7844
 4185SOL     OW24013   2.856   2.819   9.357  0.1351  0.2258 -0.1772
 4185SOL    HW124014   2.815   2.859   9.280  0.0523 -0.0973 -0.3001
 4185SOL    HW224015   2.950   2.834   9.345  0.5764 -1.2354  1.4802
 4186SOL     OW24016   0.524   0.658   2.740  0.8507 -0.1708  0.2614
 4186SOL    HW124017   0.471   0.668   2.819 -0.9744  1.3430 -1.1639
 4186SOL    HW224018   0.608   0.645   2.784  1.0279 -0.9300 -0.3083
 4187SOL     OW24019   2.683   4.139   1.789  0.5757 -0.6301  0.1774
 4187SOL    HW124020   2.716   4.155   1.701  0.7587 -1.4561  0.0960
 4187SOL    HW224021   2.682   4.222   1.837  0.8373 -0.1818 -0.6039
 4188SOL     OW24022   4.714   3.343  11.968  0.1221  0.5918 -0.2122
 4188SOL    HW124023   4.670   3.268  11.929 -2.5160  2.3054 -0.5156
 4188SOL    HW224024   4.686   3.339  12.059 -1.0228 -1.7623 -0.6646
 4189SOL     OW24025   1.770   0.331   4.104  0.0326 -0.3104  0.1011
 4189SOL    HW124026   1.771   0.309   4.011  2.6286 -1.6015  0.4223
 4189SOL    HW224027   1.862   0.316   4.126 -0.4228  0.1865  2.3734
 4190SOL     OW24028   0.413   4.548   5.256  0.5463  0.2612 -0.0717
 4190SOL    HW124029   0.415   4.589   5.342 -2.6065  0.8988 -0.3022
 4190SOL    HW224030   0.500   4.575   5.227  1.2665 -1.3477  0.5938
 4191SOL     OW24031   0.802   2.867   0.463  0.2444 -0.4794 -0.0019
 4191SOL    HW124032   0.819   2.813   0.386 -0.4280 -0.8902  0.1470
 4191SOL    HW224033   0.872   2.933   0.462  0.4274 -0.7016 -2.0884
 4192SOL     OW24034   0.652   0.080  16.298 -0.0687 -0.4173 -0.1730
 4192SOL    HW124035   0.584   0.015  16.278  0.1524 -1.0693  1.2020
 4192SOL    HW224036   0.600   0.151  16.260  2.6775  1.3488 -0.6085
 4193SOL     OW24037   3.683   1.689   6.215 -0.1727 -0.8852 -0.0484
 4193SOL    HW124038   3.715   1.611   6.169 -0.8713 -0.3291 -1.4730
 4193SOL    HW224039   3.679   1.648   6.301  2.4185  2.5405  1.7383
 4194SOL     OW24040   1.940   1.485   6.470 -0.2098 -0.0443 -0.6825
 4194SOL    HW124041   1.905   1.534   6.544 -1.3046 -0.9580 -0.5796
 4194SOL    HW224042   1.928   1.401   6.516 -1.9064  0.4497 -0.2393
 4195SOL     OW24043   1.109   3.764  13.538  0.5553 -0.3219 -0.0019
 4195SOL    HW124044   1.123   3.855  13.563 -0.8491  0.0723 -0.6316
 4195SOL    HW224045   1.139   3.727  13.621  0.0594 -0.3199  0.1831
 4196SOL     OW24046   1.318   4.459   5.888  0.0761  0.4357  0.2002
 4196SOL    HW124047   1.331   4.545   5.848 -1.7842  1.3085  1.4533
 4196SOL    HW224048   1.312   4.406   5.809 -0.7282 -0.3510  0.7854
 4197SOL     OW24049   1.932   1.068   5.652  0.0411  0.7807  0.3069
 4197SOL    HW124050   2.007   1.025   5.610 -1.9776 -0.2204 -2.3195
 4197SOL    HW224051   1.976   1.126   5.714 -0.2430 -0.2874  1.5126
 4198SOL     OW24052   3.015   2.676   1.328 -0.1970 -0.3284 -0.2344
 4198SOL    HW124053   3.068   2.622   1.386 -0.5134 -0.7357 -0.3248
 4198SOL    HW224054   2.963   2.729   1.388  1.4700  1.6212 -0.5065
 4199SOL     OW24055   0.736   1.172   2.317  0.4189 -0.0711  0.0413
 4199SOL    HW124056   0.785   1.102   2.273 -0.8793  0.3205 -2.0580
 4199SOL    HW224057   0.747   1.248   2.259 -0.2494 -0.1342 -0.1718
 4200SOL     OW24058   2.806   2.901   6.996  0.6500 -0.3401 -0.0326
 4200SOL    HW124059   2.897   2.893   7.024 -0.4004 -1.3119  2.9929
 4200SOL    HW224060   2.808   2.976   6.936  0.3071  0.3579  0.8252
 4201SOL     OW24061   2.672   2.225  15.591  0.1225 -0.0124 -0.7659
 4201SOL    HW124062   2.650   2.217  15.498 -1.1390 -0.4634 -0.4247
 4201SOL    HW224063   2.761   2.260  15.593  0.4534 -0.9464  1.5665
 4202SOL     OW24064   1.350   2.476   8.436  0.7355  0.4239  0.0372
 4202SOL    HW124065   1.277   2.439   8.486 -0.7621  2.1831 -0.8425
 4202SOL    HW224066   1.341   2.567   8.464  1.1068  0.0742  1.3022
 4203SOL     OW24067   0.402   4.141  11.914 -0.3894 -0.0012  0.2498
 4203SOL    HW124068   0.455   4.063  11.933  0.2397  0.3716  0.0013
 4203SOL    HW224069   0.414   4.190  11.996  1.5055 -0.9724  0.5679
 4204SOL     OW24070   2.716   0.234  10.901 -0.0845  0.2993  0.2327
 4204SOL    HW124071   2.667   0.277  10.831  0.8096  2.4908  0.9559
 4204SOL    HW224072   2.802   0.275  10.889 -0.0147 -0.1635 -0.8800
 4205SOL     OW24073   2.863   3.654   5.542 -0.5932  0.2050  0.2324
 4205SOL    HW124074   2.804   3.625   5.612 -2.4313 -0.4640 -1.5778
 4205SOL    HW224075   2.916   3.575   5.554  1.2836  1.4583  0.1071
 4206SOL     OW24076   2.150   4.476   3.973 -0.1817 -0.5743  0.3609
 4206SOL    HW124077   2.212   4.403   3.977  1.2468  0.6018 -0.4746
 4206SOL    HW224078   2.211   4.549   3.960  1.9747 -2.4803 -0.3109
 4207SOL     OW24079   3.842   3.771  10.740  0.4072 -0.5293 -0.3183
 4207SOL    HW124080   3.816   3.725  10.819  1.5385  2.3631  1.7402
 4207SOL    HW224081   3.904   3.832  10.781 -0.7561  1.8140 -2.0588
 4208SOL     OW24082   0.834   2.923   7.339 -0.2362 -0.2876 -0.2912
 4208SOL    HW124083   0.751   2.934   7.294 -0.5693  0.4592  0.5174
 4208SOL    HW224084   0.846   3.006   7.385  1.1181 -0.4054 -0.4083
 4209SOL     OW24085   3.117   1.527  10.592  0.0290  0.0112 -0.3262
 4209SOL    HW124086   3.155   1.538  10.505 -0.8170  0.2157 -0.6685
 4209SOL    HW224087   3.194   1.532  10.650 -1.1356 -0.1638  1.2341
 4210SOL     OW24088   3.890   1.054   0.180 -0.3281  0.7948  0.5859
 4210SOL    HW124089   3.929   1.013   0.103  0.6620  0.9667  0.9965
 4210SOL    HW224090   3.802   1.084   0.156  0.4660  2.9898  0.3444
 4211SOL     OW24091   0.482   0.890   8.177 -0.2642  0.6728 -0.2847
 4211SOL    HW124092   0.405   0.840   8.151  0.9343 -0.4409 -1.6578
 4211SOL    HW224093   0.485   0.858   8.267  0.9999  2.5918  0.3661
 4212SOL     OW24094   3.952   1.234   4.929 -0.4572 -0.0417  0.0125
 4212SOL    HW124095   3.981   1.143   4.940  3.4756  1.0794 -0.8606
 4212SOL    HW224096   4.039   1.271   4.914 -0.9040  0.5582 -1.1332
 4213SOL     OW24097   3.301   0.757   6.062  0.4674  0.2112  0.5981
 4213SOL    HW124098   3.308   0.841   6.017 -0.0720  1.0553  2.1198
 4213SOL    HW224099   3.339   0.703   5.992 -0.5363  0.5363 -0.1877
 4214SOL     OW24100   4.036   4.593   6.391  0.0361  0.4395  0.1861
 4214SOL    HW124101   4.012   4.502   6.405 -2.9589  1.0922 -0.6148
 4214SOL    HW224102   3.975   4.635   6.452  1.6343  0.1036  2.0137
 4215SOL     OW24103   3.863   4.109   7.381 -0.0733  0.1589  0.3891
 4215SOL    HW124104   3.896   4.065   7.460 -0.5937 -0.7738  0.0837
 4215SOL    HW224105   3.884   4.200   7.404  0.6549  0.7694 -2.6596
 4216SOL     OW24106   4.157   4.499   2.976 -0.4608 -0.0047 -0.5330
 4216SOL    HW124107   4.124   4.416   2.942 -1.4829 -0.4172  1.5271
 4216SOL    HW224108   4.251   4.483   2.965 -0.1591  1.4960 -0.2442
 4217SOL     OW24109   4.098   3.030   7.584  0.0033  0.3582  0.4394
 4217SOL    HW124110   4.168   3.006   7.523  0.4069  0.1993  0.9727
 4217SOL    HW224111   4.030   2.972   7.549  0.6319 -0.4231  0.5357
 4218SOL     OW24112   2.681   2.299  11.321  0.1962  0.2851 -0.0915
 4218SOL    HW124113   2.682   2.247  11.241 -0.5855  0.3935 -0.1754
 4218SOL    HW224114   2.725   2.377  11.289 -1.1768  0.3625 -1.8181
 4219SOL     OW24115   3.616   0.205   7.295 -0.5358 -0.3969  0.0554
 4219SOL    HW124116   3.706   0.173   7.289 -0.4795 -0.3505  0.6849
 4219SOL    HW224117   3.626   0.294   7.329 -1.9974  0.0929 -0.8239
 4220SOL     OW24118   4.305   2.065  12.567 -0.1341 -0.0933 -0.1065
 4220SOL    HW124119   4.270   2.085  12.480 -0.0934 -2.5473 -0.7053
 4220SOL    HW224120   4.294   1.970  12.562  1.1341 -0.2228 -0.6042
 4221SOL     OW24121   1.790   1.597  13.227 -0.1680  0.3646 -0.3680
 4221SOL    HW124122   1.852   1.669  13.233  0.2497 -0.1430  1.4653
 4221SOL    HW224123   1.825   1.528  13.284  1.1473  0.2885 -1.2810
 4222SOL     OW24124   0.701   3.079  11.646  0.6152  0.1365 -0.2612
 4222SOL    HW124125   0.661   3.158  11.682  0.2598 -0.1367 -0.0567
 4222SOL    HW224126   0.742   3.045  11.726  0.8184 -1.7988 -1.1761
 4223SOL     OW24127   0.735   1.331   3.981 -0.1604 -0.5036  0.5814
 4223SOL    HW124128   0.776   1.281   3.910 -1.3528 -0.8704  0.1474
 4223SOL    HW224129   0.700   1.409   3.938  1.3259  0.0359  0.3374
 4224SOL     OW24130   2.073   3.876  10.844 -0.2189 -0.0483  0.3955
 4224SOL    HW124131   2.147   3.914  10.797 -1.6301  0.5247 -1.3558
 4224SOL    HW224132   2.116   3.799  10.881 -0.2625  0.3822  1.3226
 4225SOL     OW24133   1.165   2.378   3.766 -0.0138  0.2775 -0.6552
 4225SOL    HW124134   1.196   2.290   3.746 -0.1561 -0.0677  0.6474
 4225SOL    HW224135   1.244   2.424   3.796 -0.4283  1.3934 -1.2524
 4226SOL     OW24136   4.616   2.692  11.329 -0.1731  0.1422 -0.2786
 4226SOL    HW124137   4.641   2.651  11.246 -0.7200  1.2416 -0.9928
 4226SOL    HW224138   4.592   2.612  11.374  0.0146 -0.0730 -0.5635
 4227SOL     OW24139   4.405   2.811   8.238 -0.1472 -0.0475 -0.4036
 4227SOL    HW124140   4.365   2.799   8.152 -0.5171  0.1313 -0.2592
 4227SOL    HW224141   4.478   2.750   8.238 -1.0501 -1.1361  2.6796
 4228SOL     OW24142   1.319   3.877   9.730  0.2334  0.3202  0.2547
 4228SOL    HW124143   1.387   3.938   9.758  0.9709 -1.0613  1.4742
 4228SOL    HW224144   1.309   3.812   9.799 -2.1818 -0.8751 -1.1920
 4229SOL     OW24145   4.619   0.518   1.412 -0.0238 -0.0113  0.4434
 4229SOL    HW124146   4.670   0.452   1.367  0.9619  1.2198 -0.2237
 4229SOL    HW224147   4.682   0.539   1.482  0.3371  0.5267 -0.0480
 4230SOL     OW24148   3.433   2.459   1.437 -0.6311  0.1121  0.2921
 4230SOL    HW124149   3.366   2.501   1.491 -0.7843 -0.9085  0.8934
 4230SOL    HW224150   3.484   2.537   1.414 -0.6804 -0.2987 -1.2344
 4231SOL     OW24151   1.975   2.874   7.527 -0.1987  0.3399  0.0649
 4231SOL    HW124152   2.004   2.790   7.491 -2.9017  0.2048 -1.7903
 4231SOL    HW224153   2.004   2.863   7.618  1.6842 -0.6934 -0.6515
 4232SOL     OW24154   3.586   1.508   7.053 -0.0205  0.3344  0.3897
 4232SOL    HW124155   3.534   1.501   7.133 -1.5719  0.1794 -0.6332
 4232SOL    HW224156   3.534   1.447   7.001  1.9320 -0.4738 -0.6218
 4233SOL     OW24157   2.667   2.591   1.381  0.3639 -0.2777 -0.4619
 4233SOL    HW124158   2.722   2.520   1.416 -2.1986 -0.7490  2.5681
 4233SOL    HW224159   2.593   2.574   1.439 -0.0749  1.1542 -0.6126
 4234SOL     OW24160   1.950   2.394   4.784 -0.2474 -0.4543  0.3985
 4234SOL    HW124161   1.904   2.333   4.842  1.0878  0.2967  2.2436
 4234SOL    HW224162   1.892   2.470   4.789 -1.6130 -1.4012 -1.1132
 4235SOL     OW24163   1.520   3.554  16.354 -0.2237  0.3108 -0.0713
 4235SOL    HW124164   1.546   3.583  16.442  2.0664 -1.2109 -0.2306
 4235SOL    HW224165   1.588   3.595  16.301 -0.3718 -1.6248 -1.7203
 4236SOL     OW24166   3.347   0.385   8.702 -0.4097  0.4037 -0.0750
 4236SOL    HW124167   3.318   0.294   8.701  0.5606  0.0889  0.6947
 4236SOL    HW224168   3.351   0.408   8.794  0.4748  1.3741 -0.3598
 4237SOL     OW24169   3.142   4.237   3.834 -0.1802 -0.4736  0.0370
 4237SOL    HW124170   3.156   4.147   3.864  5.0771 -1.0930 -4.1591
 4237SOL    HW224171   3.048   4.244   3.847  0.1000 -0.0538  1.8661
 4238SOL     OW24172   4.459   1.226  14.458  0.1453  0.8614 -0.3299
 4238SOL    HW124173   4.432   1.135  14.464  0.8606  0.8079  1.8236
 4238SOL    HW224174   4.536   1.222  14.514 -0.5083  0.3834  0.5214
 4239SOL     OW24175   1.264   0.182   5.521  0.1477  0.1087 -0.3523
 4239SOL    HW124176   1.244   0.193   5.428  3.9822  1.5775 -1.0207
 4239SOL    HW224177   1.218   0.263   5.540  0.3062  0.0943  0.0930
 4240SOL     OW24178   2.408   4.492   6.344 -0.2390  0.1341 -0.3048
 4240SOL    HW124179   2.477   4.477   6.280 -0.6566 -1.0172 -0.4709
 4240SOL    HW224180   2.442   4.447   6.422  0.0801 -0.5661 -0.8573
 4241SOL     OW24181   2.221   3.482   5.641  0.8605 -0.7453 -0.3325
 4241SOL    HW124182   2.172   3.422   5.584  0.1573 -0.4743 -0.0099
 4241SOL    HW224183   2.235   3.561   5.588  2.5300 -1.1064 -0.4370
 4242SOL     OW24184   2.898   1.473   5.137  0.5277 -0.4637  0.0369
 4242SOL    HW124185   2.991   1.496   5.127  0.0224  0.9804 -1.3203
 4242SOL    HW224186   2.897   1.379   5.120  3.3048 -0.6805  1.1014
 4243SOL     OW24187   1.752   3.640  16.244 -0.1199  0.2251 -0.1171
 4243SOL    HW124188   1.783   3.724  16.209  2.0752 -1.2305 -1.6895
 4243SOL    HW224189   1.795   3.634  16.329  1.0723 -0.8686 -0.7933
 4244SOL     OW24190   3.580   1.770  12.339 -0.2557 -0.2104  0.5987
 4244SOL    HW124191   3.575   1.693  12.395 -0.2909 -1.1846 -0.7584
 4244SOL    HW224192   3.669   1.768  12.302 -1.2928 -1.8211 -1.8269
 4245SOL     OW24193   4.293   2.913   7.405  0.1178  0.2299 -0.1196
 4245SOL    HW124194   4.314   2.824   7.376 -0.1252  0.2992 -0.5100
 4245SOL    HW224195   4.359   2.958   7.352  0.4931  1.2782  1.2494
 4246SOL     OW24196   0.596   0.530  14.743  0.3282  0.2979  0.0423
 4246SOL    HW124197   0.626   0.617  14.719  0.6243  0.2234  0.1511
 4246SOL    HW224198   0.674   0.480  14.721 -0.5035  0.0466 -2.4126
 4247SOL     OW24199   1.666   3.988  13.749  0.8887 -0.3950 -0.1156
 4247SOL    HW124200   1.604   3.923  13.714 -1.0200  0.9597  0.7806
 4247SOL    HW224201   1.742   3.936  13.723  0.2069 -1.2199 -0.4714
 4248SOL     OW24202   1.589   0.507   3.166 -0.6927  0.5834  0.1708
 4248SOL    HW124203   1.520   0.569   3.141 -2.2094 -1.1215  0.0904
 4248SOL    HW224204   1.558   0.476   3.252  0.5132  1.8688  1.0640
 4249SOL     OW24205   1.154   4.646   5.681 -0.3268 -0.6986  0.0218
 4249SOL    HW124206   1.093   0.001   5.688  1.7681  1.1514 -1.6100
 4249SOL    HW224207   1.101   4.589   5.737  0.1083 -0.6568  0.4777
 4250SOL     OW24208   3.148   4.395   8.687  0.6789 -0.4141 -0.1470
 4250SOL    HW124209   3.183   4.332   8.624 -0.5147 -0.4223 -0.7939
 4250SOL    HW224210   3.207   4.391   8.763 -1.7977  1.0457  1.8515
 4251SOL     OW24211   1.215   2.592   4.346  0.3869 -0.2702  0.1121
 4251SOL    HW124212   1.133   2.557   4.382  0.3922 -2.4711 -1.9433
 4251SOL    HW224213   1.258   2.508   4.332 -0.3388 -0.4951 -0.7750
 4252SOL     OW24214   1.899   0.005   7.376  0.4075  0.5587 -0.4787
 4252SOL    HW124215   1.818   4.710   7.328  0.8217  1.3983 -1.4204
 4252SOL    HW224216   1.931   4.634   7.384 -0.3416  0.2248 -1.3060
 4253SOL     OW24217   2.150   0.334  16.510 -0.6061  0.1600  0.3010
 4253SOL    HW124218   2.216   0.318  16.578 -0.8450 -2.6811 -0.1096
 4253SOL    HW224219   2.192   0.409  16.469 -0.7901 -0.7422 -1.5721
 4254SOL     OW24220   3.397   1.110   0.299  0.2624 -0.2574 -0.1399
 4254SOL    HW124221   3.357   1.193   0.326 -1.3837 -0.0075 -3.2876
 4254SOL    HW224222   3.345   1.094   0.220 -0.9250 -0.2422  0.6345
 4255SOL     OW24223   0.470   0.571   1.813  0.4499  0.0781 -0.5372
 4255SOL    HW124224   0.492   0.640   1.749 -1.1478  0.9273 -0.1882
 4255SOL    HW224225   0.529   0.504   1.778 -0.7185 -1.6831  0.9351
 4256SOL     OW24226   1.003   2.928   8.365 -0.0044  0.4702 -0.0739
 4256SOL    HW124227   1.049   2.920   8.282 -1.2943 -0.5798 -0.6890
 4256SOL    HW224228   0.927   2.871   8.352 -1.2533  1.7530  1.4638
 4257SOL     OW24229   1.509   3.128   1.766  0.5126 -0.3436 -0.1954
 4257SOL    HW124230   1.603   3.149   1.766  0.3017  0.5475  0.4782
 4257SOL    HW224231   1.500   3.114   1.671  0.1615 -1.1119 -0.0499
 4258SOL     OW24232   0.315   0.444  10.529 -0.5757 -0.1373  0.0279
 4258SOL    HW124233   0.222   0.460  10.543 -0.6601 -0.2677 -0.3841
 4258SOL    HW224234   0.349   0.440  10.618 -0.6826 -0.4951  0.0506
 4259SOL     OW24235   2.912   1.776  10.342 -0.5036  0.9580  0.0421
 4259SOL    HW124236   2.824   1.794  10.308 -0.4023  1.1595 -0.1086
 4259SOL    HW224237   2.943   1.708  10.283 -1.2177  0.0963  0.6528
 4260SOL     OW24238   3.102   4.196   5.070 -0.1700 -0.0418 -0.5458
 4260SOL    HW124239   3.167   4.265   5.057 -0.1031  0.4378  2.2329
 4260SOL    HW224240   3.094   4.207   5.165 -1.5352  0.0004 -0.6630
 4261SOL     OW24241   3.089   4.612   8.535  0.4227 -0.2208  0.2366
 4261SOL    HW124242   3.009   4.564   8.515  0.9571 -2.6657  4.0770
 4261SOL    HW224243   3.127   4.553   8.600 -0.5182  1.0427  1.9306
 4262SOL     OW24244   0.050   0.811   2.460 -0.1807  0.0834  0.2400
 4262SOL    HW124245   0.105   0.819   2.382 -2.5808  1.1722 -1.3366
 4262SOL    HW224246   0.046   0.718   2.480  0.8398 -0.1567 -0.6637
 4263SOL     OW24247   2.387   1.408   1.029 -0.3123  0.1052  0.3392
 4263SOL    HW124248   2.418   1.442   1.112  1.1186 -1.2109  0.3377
 4263SOL    HW224249   2.294   1.431   1.036 -0.0090  1.5520 -0.3496
 4264SOL     OW24250   4.657   3.331   0.741 -0.7226  0.2979 -0.5149
 4264SOL    HW124251   0.033   3.341   0.742 -0.7058  0.0188  1.3173
 4264SOL    HW224252   4.645   3.262   0.806 -0.3556 -0.2037 -0.9802
 4265SOL     OW24253   1.474   4.695   3.424  0.2871  0.6678  0.2129
 4265SOL    HW124254   1.564   4.662   3.428 -0.3162 -1.2030 -1.7938
 4265SOL    HW224255   1.474   0.016   3.337  2.4768 -0.4806 -0.3219
 4266SOL     OW24256   0.992   3.669   8.901  0.0147 -0.5139  0.3559
 4266SOL    HW124257   1.007   3.642   8.991 -1.3462 -1.7810  0.2044
 4266SOL    HW224258   1.079   3.698   8.874 -0.0974  0.1180  0.6897
 4267SOL     OW24259   0.867   0.321   6.760 -0.3115  0.3345  0.4513
 4267SOL    HW124260   0.863   0.388   6.829 -0.6657 -2.1339  2.8454
 4267SOL    HW224261   0.785   0.278   6.787  0.1368 -0.9014 -0.1620
 4268SOL     OW24262   4.176   1.844   3.693 -0.4115 -0.4170  0.0881
 4268SOL    HW124263   4.165   1.909   3.763  0.7119  0.5462 -0.6306
 4268SOL    HW224264   4.124   1.886   3.624  0.8459  3.3834  1.4809
 4269SOL     OW24265   2.299   3.820   5.812  0.4139 -0.0092  0.0968
 4269SOL    HW124266   2.345   3.821   5.896  1.9863  1.7292 -0.7895
 4269SOL    HW224267   2.308   3.730   5.783 -0.0784  0.6464 -2.0581
 4270SOL     OW24268   3.123   3.845   3.431 -0.2101  0.0881 -0.0545
 4270SOL    HW124269   3.129   3.941   3.433 -0.8367  0.1467 -1.0586
 4270SOL    HW224270   3.177   3.832   3.509 -0.9423  0.5834  0.5367
 4271SOL     OW24271   0.756   0.200   7.029  0.0439 -0.3078  0.3684
 4271SOL    HW124272   0.850   0.196   7.043 -0.1884 -0.4605  1.8605
 4271SOL    HW224273   0.743   0.285   7.070 -0.4793  0.1905 -0.8225
 4272SOL     OW24274   1.750   0.785  16.090  0.2389  0.1822 -0.1963
 4272SOL    HW124275   1.752   0.723  16.164  1.5873 -1.2285 -1.4049
 4272SOL    HW224276   1.843   0.801  16.073  0.8789 -2.8308  0.4204
 4273SOL     OW24277   3.761   4.122   2.231 -0.1821 -0.7537  0.5096
 4273SOL    HW124278   3.795   4.152   2.315  1.1269  0.9951 -0.6423
 4273SOL    HW224279   3.714   4.040   2.248  0.8639 -2.1439 -3.2855
 4274SOL     OW24280   3.156   2.679   5.992  0.9188 -0.0830  0.3497
 4274SOL    HW124281   3.201   2.718   5.917 -1.2718  0.9275 -0.4203
 4274SOL    HW224282   3.145   2.757   6.047  0.5948 -1.1690  1.8354
 4275SOL     OW24283   0.097   0.793   8.339  0.0371 -0.9477  0.3239
 4275SOL    HW124284   0.121   0.773   8.249  0.9091 -1.6428  0.7076
 4275SOL    HW224285   0.028   0.727   8.342  0.8710 -1.8713 -0.8650
 4276SOL     OW24286   3.503   4.465  10.357  0.0438  0.2668 -0.6083
 4276SOL    HW124287   3.458   4.408  10.419  0.3365  1.2514  0.5123
 4276SOL    HW224288   3.588   4.440  10.392 -1.5538 -2.5378  1.3041
 4277SOL     OW24289   4.182   1.562   3.917 -0.3395 -0.6575  0.3181
 4277SOL    HW124290   4.100   1.609   3.931 -0.5802  0.0876 -3.5689
 4277SOL    HW224291   4.233   1.624   3.970  1.2627 -1.4563 -0.3051
 4278SOL     OW24292   3.734   2.667   3.946 -0.8049 -0.0485  0.0222
 4278SOL    HW124293   3.799   2.686   4.014 -0.1414 -0.0855 -0.5922
 4278SOL    HW224294   3.725   2.747   3.895  1.5152  0.4195  0.3185
 4279SOL     OW24295   1.866   2.906   6.762  0.2113 -0.2780  0.1615
 4279SOL    HW124296   1.941   2.953   6.724 -0.2209  0.2432 -0.0418
 4279SOL    HW224297   1.883   2.919   6.856  1.0596  0.5105 -0.0958
 4280SOL     OW24298   1.207   4.348   9.104 -0.5108  0.4678 -0.0141
 4280SOL    HW124299   1.113   4.349   9.123 -0.7719 -1.3221 -1.1576
 4280SOL    HW224300   1.236   4.296   9.178 -0.6453  1.1125  0.4875
 4281SOL     OW24301   1.983   2.889   5.448  0.2312  0.0257 -0.0308
 4281SOL    HW124302   1.928   2.860   5.375 -0.8818 -0.4620  0.9998
 4281SOL    HW224303   2.065   2.918   5.408 -0.6259  0.4815 -1.4758
 4282SOL     OW24304   2.106   0.444  16.204 -0.3743  0.9327  0.1548
 4282SOL    HW124305   2.070   0.404  16.124  0.1068 -2.8528  1.8451
 4282SOL    HW224306   2.167   0.504  16.162  0.1383 -0.0557 -0.5421
 4283SOL     OW24307   2.182   3.070   7.510  0.6938  0.3281  0.0379
 4283SOL    HW124308   2.257   3.022   7.545  0.4647  1.5092  2.1605
 4283SOL    HW224309   2.108   3.011   7.510  0.6302  0.4040 -1.6339
 4284SOL     OW24310   0.257   3.890   6.300 -0.2492 -0.1387  0.1199
 4284SOL    HW124311   0.349   3.872   6.320  0.2546  0.3742 -1.7273
 4284SOL    HW224312   0.241   3.978   6.336 -3.1218 -0.4920 -0.2727
 4285SOL     OW24313   4.022   2.401   5.886 -0.2156  0.5421  0.6863
 4285SOL    HW124314   3.971   2.328   5.923 -2.4287  1.4362 -0.6171
 4285SOL    HW224315   4.093   2.405   5.949 -0.9940 -0.8021  1.6522
 4286SOL     OW24316   1.437   1.021   2.258 -0.9591  0.0725  0.0899
 4286SOL    HW124317   1.439   0.940   2.309  0.9726  0.5536  0.7716
 4286SOL    HW224318   1.517   1.067   2.284 -1.8583  1.2291  0.8520
 4287SOL     OW24319   0.624   3.259  12.755  0.0056  0.2091 -0.5131
 4287SOL    HW124320   0.616   3.166  12.777 -2.5121  1.3297  3.3298
 4287SOL    HW224321   0.714   3.278  12.779 -0.3122  3.6676 -2.0172
 4288SOL     OW24322   4.512   3.436   2.234  0.1101 -0.3911 -0.0850
 4288SOL    HW124323   4.422   3.412   2.212 -0.3519  0.1602  1.2050
 4288SOL    HW224324   4.496   3.477   2.319 -0.0194 -2.6808  1.0142
 4289SOL     OW24325   1.293   4.513   5.072  0.3692  0.1280 -0.0123
 4289SOL    HW124326   1.342   4.449   5.020  1.7689  1.1619  0.0234
 4289SOL    HW224327   1.255   4.464   5.145  0.1480  1.4121  0.7279
 4290SOL     OW24328   0.275   2.715   3.998 -1.3339  0.3479  0.5890
 4290SOL    HW124329   0.205   2.775   4.026 -2.7102 -0.2008 -1.6864
 4290SOL    HW224330   0.246   2.710   3.907  1.3828 -1.1436 -0.2039
 4291SOL     OW24331   0.698   3.288   3.695  0.2991 -0.0042  0.4218
 4291SOL    HW124332   0.790   3.260   3.699  0.5917  0.9496  0.3635
 4291SOL    HW224333   0.695   3.368   3.748 -2.1890  0.9380 -1.1211
 4292SOL     OW24334   4.326   0.920   5.321 -0.4169 -0.3443 -0.0493
 4292SOL    HW124335   4.237   0.941   5.349 -0.4676 -0.2281 -0.2986
 4292SOL    HW224336   4.325   0.825   5.326 -0.5904 -0.3569 -0.3526
 4293SOL     OW24337   1.714   0.030   8.633 -0.3060  0.0427  0.2797
 4293SOL    HW124338   1.656   0.089   8.585 -2.7577 -1.3016  1.5575
 4293SOL    HW224339   1.802   0.063   8.619  0.3162 -1.6086  0.3493
 4294SOL     OW24340   4.226   2.862  17.201 -0.2673 -0.5414  0.3686
 4294SOL    HW124341   4.190   2.818  17.124  2.0622  2.0948 -2.2059
 4294SOL    HW224342   4.159   2.839  17.265 -1.3760 -0.9093 -0.9143
 4295SOL     OW24343   2.991   4.461  12.870  0.2828  0.6220 -0.1634
 4295SOL    HW124344   2.991   4.372  12.835 -1.0915  0.8807 -0.8565
 4295SOL    HW224345   3.084   4.484  12.863  1.0778 -2.3789  0.7527
 4296SOL     OW24346   1.083   1.305  13.929  0.9707  0.9575 -0.4123
 4296SOL    HW124347   1.176   1.285  13.928  0.5089 -1.2140  0.8894
 4296SOL    HW224348   1.051   1.236  13.871 -2.0214  1.6508  0.3667
 4297SOL     OW24349   1.268   3.958   6.436 -0.0999  0.0152  0.0960
 4297SOL    HW124350   1.227   4.038   6.403 -1.2711 -0.1878  1.0231
 4297SOL    HW224351   1.233   3.958   6.525  0.6477  0.6224  0.3846
 4298SOL     OW24352   2.064   2.952   2.448  0.2345 -0.1869 -0.0215
 4298SOL    HW124353   2.015   2.878   2.485 -1.1575  0.0835 -1.3317
 4298SOL    HW224354   2.123   2.969   2.522  2.1062 -1.0496 -1.3229
 4299SOL     OW24355   4.313   0.307  10.754  0.5024 -0.0006  0.4118
 4299SOL    HW124356   4.318   0.275  10.664 -0.8877 -1.2784  0.7944
 4299SOL    HW224357   4.266   0.239  10.803  0.0558 -1.2144 -1.7195
 4300SOL     OW24358   0.401   4.143   7.945 -0.1938 -0.0667 -0.2633
 4300SOL    HW124359   0.398   4.208   7.874  0.5731 -0.4164 -0.6173
 4300SOL    HW224360   0.406   4.196   8.024 -0.4766  2.3702 -1.8680
 4301SOL     OW24361   3.362   3.613   1.024  0.0303  0.0934  0.0293
 4301SOL    HW124362   3.370   3.615   1.119  0.0898 -0.0172  0.0255
 4301SOL    HW224363   3.397   3.696   0.990  1.5452 -0.9313 -0.8719
 4302SOL     OW24364   1.674   0.616   6.865  0.0424  0.6731  0.6055
 4302SOL    HW124365   1.759   0.586   6.831 -0.7462 -0.7875 -0.1018
 4302SOL    HW224366   1.628   0.656   6.791  1.2656  0.9780 -0.0052
 4303SOL     OW24367   3.761   1.060   0.812  0.1256  0.8138 -0.6196
 4303SOL    HW124368   3.792   1.061   0.903  1.1638 -1.5128 -0.9427
 4303SOL    HW224369   3.850   1.051   0.779 -0.3966 -3.5693 -0.8261
 4304SOL     OW24370   3.207   4.045   5.693 -0.2091  0.4143  0.0614
 4304SOL    HW124371   3.244   3.958   5.709 -1.6356 -0.1459  0.3050
 4304SOL    HW224372   3.121   4.014   5.666 -0.8288  0.4361  2.0125
 4305SOL     OW24373   2.425   2.260   8.747  0.5766  0.7337 -0.3584
 4305SOL    HW124374   2.393   2.173   8.773 -0.1620  0.7888 -1.0802
 4305SOL    HW224375   2.471   2.298   8.822  0.0566  0.8078 -0.0793
 4306SOL     OW24376   2.914   0.526   6.761 -0.4890 -0.0611  0.0368
 4306SOL    HW124377   2.982   0.569   6.812 -2.5053  2.2322  0.8250
 4306SOL    HW224378   2.876   0.602   6.716  1.0398 -0.5147 -2.0251
 4307SOL     OW24379   3.691   3.572  12.412  0.2922  0.2542 -0.7401
 4307SOL    HW124380   3.697   3.612  12.498  2.1146 -3.4512  0.8436
 4307SOL    HW224381   3.700   3.647  12.354  0.7566  1.0895  0.4253
 4308SOL     OW24382   2.604   2.291   4.653 -0.3207 -0.6436 -0.2839
 4308SOL    HW124383   2.638   2.227   4.716  1.8221 -0.3595 -1.1270
 4308SOL    HW224384   2.512   2.296   4.677  0.1097  1.8693  0.8268
 4309SOL     OW24385   1.206   3.982  13.807 -0.1457  0.1872  0.6963
 4309SOL    HW124386   1.195   3.887  13.814  0.1686  0.1938  1.2903
 4309SOL    HW224387   1.116   4.012  13.789  0.0727  1.2019  1.2602
 4310SOL     OW24388   1.930   3.413   5.296 -0.0275  0.0599  0.6181
 4310SOL    HW124389   1.857   3.377   5.246 -0.0877 -1.2646  1.6411
 4310SOL    HW224390   1.888   3.484   5.344  3.0505  2.7200 -0.6052
 4311SOL     OW24391   2.022   1.456   6.206  0.0841 -0.3539 -0.2742
 4311SOL    HW124392   1.961   1.386   6.183 -0.6545  0.2715 -0.2310
 4311SOL    HW224393   1.973   1.494   6.279  0.5542 -1.3090  0.5511
 4312SOL     OW24394   4.300   2.470   1.762  0.6457 -0.0899 -0.2568
 4312SOL    HW124395   4.256   2.479   1.677 -0.9197  0.4852  0.6296
 4312SOL    HW224396   4.232   2.507   1.817 -0.4821 -2.0034 -0.3789
 4313SOL     OW24397   2.668   0.828   3.762 -0.2818 -0.2757  0.1295
 4313SOL    HW124398   2.604   0.783   3.817  1.0752 -1.1008  1.0239
 4313SOL    HW224399   2.656   0.791   3.674  0.2838 -0.4776  0.1395
 4314SOL     OW24400   0.524   1.187   1.621  0.4636  0.3010 -0.3105
 4314SOL    HW124401   0.428   1.191   1.618  0.3767 -0.1930  2.2565
 4314SOL    HW224402   0.552   1.276   1.599  0.8271  0.3351  0.3224
 4315SOL     OW24403   3.523   1.981   5.700 -0.2145  0.7278 -0.0233
 4315SOL    HW124404   3.445   1.929   5.718  0.6060 -0.3677  0.3293
 4315SOL    HW224405   3.482   2.062   5.669 -0.2398  1.8585  2.9857
 4316SOL     OW24406   3.340   3.411  15.771 -0.4749  0.4440 -0.0465
 4316SOL    HW124407   3.344   3.344  15.703  0.7512  2.0929 -1.5852
 4316SOL    HW224408   3.253   3.447  15.753 -1.2896 -1.2763  0.4155
 4317SOL     OW24409   4.131   3.386   7.300  0.7103 -0.1006  0.3242
 4317SOL    HW124410   4.106   3.456   7.360  1.2303 -0.9612  1.5349
 4317SOL    HW224411   4.086   3.308   7.332  0.3744  0.6715  1.7402
 4318SOL     OW24412   1.724   4.354   9.148 -0.2678  0.1809 -0.1647
 4318SOL    HW124413   1.706   4.264   9.176  1.1725  0.1757  0.7400
 4318SOL    HW224414   1.818   4.341   9.143 -0.3608 -0.4459 -0.3130
 4319SOL     OW24415   0.444   2.152   9.141  0.4372 -0.1900 -0.6482
 4319SOL    HW124416   0.465   2.155   9.047 -0.0556 -0.0498 -0.7512
 4319SOL    HW224417   0.376   2.084   9.135  1.2816 -1.2897  2.1303
 4320SOL     OW24418   1.694   2.715   6.396  0.6807 -0.3563  0.0264
 4320SOL    HW124419   1.742   2.666   6.329  1.7928 -0.9646  1.2575
 4320SOL    HW224420   1.613   2.667   6.380 -0.5293  0.9605  2.1452
 4321SOL     OW24421   1.223   3.210  10.586  0.1332 -0.1122 -0.9671
 4321SOL    HW124422   1.300   3.260  10.612 -0.1474  0.6029 -1.5061
 4321SOL    HW224423   1.232   3.194  10.492 -0.1048  1.5530 -1.2701
 4322SOL     OW24424   1.519   1.808   8.001 -0.5805 -0.1470 -0.5488
 4322SOL    HW124425   1.509   1.903   8.013  2.0169 -0.0780  0.9928
 4322SOL    HW224426   1.444   1.778   8.053 -0.4897 -3.5443 -2.4038
 4323SOL     OW24427   3.865   0.637   6.484  0.2976  0.0781 -0.0837
 4323SOL    HW124428   3.932   0.609   6.422  1.4529  2.6677 -0.0261
 4323SOL    HW224429   3.782   0.646   6.437 -0.5634  1.9012  1.7652
 4324SOL     OW24430   3.215   2.373  11.402  0.0272 -0.1473  0.3140
 4324SOL    HW124431   3.164   2.330  11.333  0.9173  1.3916 -1.3119
 4324SOL    HW224432   3.248   2.453  11.361  0.3841  0.0221  0.9355
 4325SOL     OW24433   1.123   1.106   5.239 -0.0374  1.1161  0.0630
 4325SOL    HW124434   1.210   1.066   5.247 -0.7669 -0.6335 -0.9204
 4325SOL    HW224435   1.112   1.103   5.144  1.8147 -1.7488 -0.0587
 4326SOL     OW24436   4.314   1.708   7.772 -0.0147  0.3650  0.0211
 4326SOL    HW124437   4.340   1.712   7.864  3.1282 -0.0421 -0.8239
 4326SOL    HW224438   4.243   1.644   7.772  0.5438 -0.2564 -0.2615
 4327SOL     OW24439   4.034   4.109  14.594  0.0127 -0.0924  0.0256
 4327SOL    HW124440   4.053   4.182  14.535 -0.0997 -0.0423  0.0521
 4327SOL    HW224441   4.123   4.086  14.621 -0.0531  0.6361  0.8654
 4328SOL     OW24442   1.641   0.433   2.524  0.6207  0.2806 -0.2964
 4328SOL    HW124443   1.697   0.361   2.553  0.7144  0.1038 -0.9134
 4328SOL    HW224444   1.635   0.417   2.430  0.9680 -2.1951  0.0962
 4329SOL     OW24445   0.809   3.191   0.395 -0.3086  0.2930 -0.2074
 4329SOL    HW124446   0.846   3.117   0.348  1.8870  1.0788  0.3094
 4329SOL    HW224447   0.747   3.225   0.330  1.1799  3.3003 -0.0570
 4330SOL     OW24448   4.627   2.544   5.587 -0.3355 -0.0938  0.3328
 4330SOL    HW124449   4.614   2.568   5.679 -1.0279 -0.7227  0.4081
 4330SOL    HW224450   4.559   2.597   5.545  0.9517  0.6856 -0.7525
 4331SOL     OW24451   3.546   2.429   5.089 -0.2258  0.2949 -0.4677
 4331SOL    HW124452   3.591   2.452   5.171 -0.6819  1.3881 -0.5276
 4331SOL    HW224453   3.594   2.351   5.062 -0.7048 -0.6200  1.3027
 4332SOL     OW24454   3.115   4.154   4.112 -0.3663  0.0284  0.0846
 4332SOL    HW124455   3.169   4.104   4.051  0.8024 -0.8059  1.8209
 4332SOL    HW224456   3.071   4.079   4.152  1.7247 -0.0985  2.0883
 4333SOL     OW24457   1.738   2.233  13.346  0.1256 -0.7051 -0.1329
 4333SOL    HW124458   1.760   2.211  13.437  0.3893  2.5272  0.5889
 4333SOL    HW224459   1.684   2.157  13.325 -0.7571 -0.2113  0.3265
 4334SOL     OW24460   1.668   3.045   7.224 -0.1559  0.3999  0.2742
 4334SOL    HW124461   1.638   3.109   7.289 -2.0152  1.7825 -1.9586
 4334SOL    HW224462   1.669   2.962   7.272 -3.2947  0.0058 -0.3527
 4335SOL     OW24463   0.644   4.516  13.530  0.7665  0.6049  0.2024
 4335SOL    HW124464   0.592   4.597  13.531  0.0161  0.1535 -1.6814
 4335SOL    HW224465   0.713   4.537  13.467  0.7853  0.3519  0.1385
 4336SOL     OW24466   3.947   3.941  10.211 -0.4804 -0.9099 -0.2809
 4336SOL    HW124467   4.030   3.928  10.166  0.0748  0.0344  0.4653
 4336SOL    HW224468   3.912   4.003  10.147  0.4143 -2.5836 -2.3790
 4337SOL     OW24469   4.650   3.197   4.329  0.4333 -0.1177  0.4745
 4337SOL    HW124470   0.014   3.174   4.286 -0.1571 -1.6545  0.1295
 4337SOL    HW224471   4.602   3.147   4.262 -0.1957 -0.5238  1.2290
 4338SOL     OW24472   4.127   0.485   4.299 -1.1311  0.0683  0.0024
 4338SOL    HW124473   4.205   0.438   4.270 -0.4835 -0.7220  2.9698
 4338SOL    HW224474   4.074   0.413   4.334 -0.4015 -0.5666 -0.1924
 4339SOL     OW24475   0.100   4.006   7.724 -0.3301 -0.3544  0.2955
 4339SOL    HW124476   0.112   4.100   7.739  2.7736 -0.4238 -1.6456
 4339SOL    HW224477   0.142   3.975   7.805  1.5791  0.7476 -0.2701
 4340SOL     OW24478   3.969   2.075   2.413 -0.5458 -0.4031 -0.1578
 4340SOL    HW124479   4.053   2.052   2.455 -1.1653 -1.0990  0.6946
 4340SOL    HW224480   3.991   2.117   2.329  0.7923 -0.5458  0.1109
 4341SOL     OW24481   1.021   1.526   2.873 -0.1558  0.1367 -0.3488
 4341SOL    HW124482   0.964   1.451   2.891 -1.5985  1.5099  0.7162
 4341SOL    HW224483   1.093   1.475   2.834 -0.8248 -0.4678 -0.7939
 4342SOL     OW24484   0.893   4.186   6.604 -0.2265 -0.0169 -0.5037
 4342SOL    HW124485   0.870   4.238   6.681  0.2288 -1.1676  0.4050
 4342SOL    HW224486   0.953   4.246   6.560 -0.2409  1.5126  1.5372
 4343SOL     OW24487   1.364   1.480   9.513 -0.0353  0.1534 -0.3733
 4343SOL    HW124488   1.427   1.520   9.573 -1.8294  0.5305  1.2218
 4343SOL    HW224489   1.360   1.545   9.443  0.2749 -0.8618 -1.3477
 4344SOL     OW24490   2.825   0.386   5.319 -0.0143 -0.5381 -0.3072
 4344SOL    HW124491   2.845   0.456   5.381 -4.4584  0.2271  0.2232
 4344SOL    HW224492   2.731   0.397   5.306 -0.2392 -3.6609 -1.2869
 4345SOL     OW24493   1.360   3.706   2.251  0.1177  0.2351  0.3912
 4345SOL    HW124494   1.345   3.796   2.278 -1.2162 -0.2554  1.3005
 4345SOL    HW224495   1.334   3.709   2.159  2.4193  0.7509 -0.2404
 4346SOL     OW24496   1.431   0.026   6.816 -0.2361  0.6213 -0.1254
 4346SOL    HW124497   1.510   0.079   6.826 -1.3424  2.6827 -2.3484
 4346SOL    HW224498   1.379   0.075   6.753  0.4417  1.8997  0.2987
 4347SOL     OW24499   1.482   3.404  16.660  0.0539  0.4624 -0.5114
 4347SOL    HW124500   1.545   3.461  16.706  0.5850 -1.8494  1.6288
 4347SOL    HW224501   1.516   3.406  16.571 -2.9089  1.5897 -1.6220
 4348SOL     OW24502   3.552   2.648   6.656 -0.2761  0.0059 -0.1903
 4348SOL    HW124503   3.509   2.565   6.637  0.7358  0.2474 -3.5264
 4348SOL    HW224504   3.636   2.632   6.614 -0.5387 -0.5866 -0.4878
 4349SOL     OW24505   1.472   0.602   8.489 -0.1442  0.3192 -0.0804
 4349SOL    HW124506   1.521   0.684   8.482  0.0453  0.2461  0.4389
 4349SOL    HW224507   1.422   0.619   8.568 -0.4993 -0.0851 -0.2172
 4350SOL     OW24508   4.587   2.432   2.314 -0.4083 -0.5159 -0.5476
 4350SOL    HW124509   4.545   2.475   2.239 -0.6383  0.1223 -0.0528
 4350SOL    HW224510   4.679   2.458   2.312 -1.0880  1.9987  0.2625
 4351SOL     OW24511   1.570   0.456   3.440  0.0055  0.0165 -0.4906
 4351SOL    HW124512   1.508   0.400   3.486 -1.3910  0.9209 -1.2790
 4351SOL    HW224513   1.592   0.515   3.512 -1.8818  0.7030 -0.4840
 4352SOL     OW24514   3.864   0.424   5.990 -0.2763 -0.8479 -0.2775
 4352SOL    HW124515   3.796   0.478   6.031  1.1153  0.4402  0.3393
 4352SOL    HW224516   3.907   0.506   5.965 -0.1480 -0.4512  1.2176
 4353SOL     OW24517   3.873   3.317   2.624 -0.8935 -0.3549 -0.4712
 4353SOL    HW124518   3.852   3.224   2.631 -0.6269 -0.1319  3.4107
 4353SOL    HW224519   3.816   3.351   2.693 -0.7618  0.6647 -0.8687
 4354SOL     OW24520   2.685   1.402   5.339 -0.5659 -0.4207  0.4910
 4354SOL    HW124521   2.759   1.411   5.278  1.3693 -2.1080  2.5587
 4354SOL    HW224522   2.643   1.485   5.318  0.1179 -0.0733  0.4846
 4355SOL     OW24523   3.121   0.026  10.007  0.5714 -0.2488  0.7048
 4355SOL    HW124524   3.197   4.690   9.988 -0.2784 -1.5423  1.0949
 4355SOL    HW224525   3.122   0.021  10.102  1.6439 -2.4281  0.5663
 4356SOL     OW24526   4.111   4.383   5.192  0.4998  0.0538  0.3313
 4356SOL    HW124527   4.023   4.398   5.158 -0.1994  0.3307  2.3116
 4356SOL    HW224528   4.119   4.288   5.199  1.0695  0.0585 -0.2161
 4357SOL     OW24529   1.147   3.077   2.507  0.0488 -0.5224  0.5117
 4357SOL    HW124530   1.169   3.129   2.430  0.6393 -1.6963 -0.1240
 4357SOL    HW224531   1.131   2.998   2.455 -0.0229 -0.2137  0.0644
 4358SOL     OW24532   4.584   0.144   5.347  0.2685 -0.2118 -0.0985
 4358SOL    HW124533   4.524   0.179   5.413  1.1470  1.0523  0.0323
 4358SOL    HW224534   4.611   0.224   5.302 -1.0508  0.1847 -0.1845
 4359SOL     OW24535   0.804   2.011   4.173 -0.2682  0.4228  0.2236
 4359SOL    HW124536   0.860   1.937   4.197 -0.1075 -0.0281 -1.5993
 4359SOL    HW224537   0.820   2.019   4.079 -0.9161 -1.7595 -0.0736
 4360SOL     OW24538   2.303   1.005   8.447 -0.0918 -0.3196 -0.7053
 4360SOL    HW124539   2.370   0.945   8.480 -1.1961 -0.5620  1.1628
 4360SOL    HW224540   2.246   0.987   8.523  1.7457 -1.3961  0.4378
 4361SOL     OW24541   3.755   0.579   9.585  0.0110  0.0718 -0.3898
 4361SOL    HW124542   3.718   0.554   9.500 -1.0178 -1.6718  0.5756
 4361SOL    HW224543   3.694   0.649   9.610 -0.0304  0.4521 -1.5522
 4362SOL     OW24544   0.923   2.714   5.100 -0.1619 -0.3557 -0.0268
 4362SOL    HW124545   0.853   2.750   5.045 -1.7359  0.3353  2.4284
 4362SOL    HW224546   0.898   2.625   5.124  0.2943 -0.8599 -1.3975
 4363SOL     OW24547   3.593   1.602   3.672  0.0627 -0.2586  0.4547
 4363SOL    HW124548   3.680   1.563   3.675 -0.3481 -1.3267 -1.6876
 4363SOL    HW224549   3.556   1.513   3.677  0.8555 -0.6060  0.1667
 4364SOL     OW24550   3.195   1.269  11.347 -0.3570 -0.7092  0.1362
 4364SOL    HW124551   3.106   1.236  11.360 -0.0040 -1.5174  0.4867
 4364SOL    HW224552   3.200   1.258  11.252  1.3496  0.6549  0.0543
 4365SOL     OW24553   0.928   2.115   3.664  0.2972  0.3865  0.2260
 4365SOL    HW124554   0.985   2.047   3.628  0.9933  0.4935  1.1398
 4365SOL    HW224555   0.952   2.194   3.615 -0.8258  1.4937  1.4728
 4366SOL     OW24556   3.213   1.349   9.686 -0.3219  0.2732 -0.2312
 4366SOL    HW124557   3.183   1.426   9.638 -1.9280  0.2430  0.7158
 4366SOL    HW224558   3.304   1.371   9.700 -0.6530  0.5644  1.3842
 4367SOL     OW24559   3.381   0.074   5.118 -0.4676 -0.2582  0.1053
 4367SOL    HW124560   3.457   0.079   5.176 -0.4635 -0.1089  0.0861
 4367SOL    HW224561   3.329   0.009   5.165  0.4976  0.3274  1.9836
 4368SOL     OW24562   2.925   3.267   0.482 -0.1367  0.4450  0.0505
 4368SOL    HW124563   2.964   3.331   0.542  0.7760  0.4995 -0.6079
 4368SOL    HW224564   2.832   3.262   0.504 -0.4632  1.0119 -1.2355
 4369SOL     OW24565   0.957   4.341   4.154  0.6281  0.0776  0.0511
 4369SOL    HW124566   0.872   4.327   4.195  0.3158 -0.7380 -0.8887
 4369SOL    HW224567   0.938   4.335   4.060 -1.5823 -0.3834  0.5436
 4370SOL     OW24568   1.389   3.309   3.310 -0.3267  0.3182 -0.3519
 4370SOL    HW124569   1.404   3.224   3.352  1.7768  1.2488  0.7730
 4370SOL    HW224570   1.461   3.314   3.248  0.9441 -2.6639  0.8772
 4371SOL     OW24571   3.303   4.511   9.976 -0.1748 -0.1008  0.3313
 4371SOL    HW124572   3.380   4.493   9.922  0.2361  0.5870  0.6999
 4371SOL    HW224573   3.240   4.441   9.956  2.0173 -2.4513  1.5902
 4372SOL     OW24574   1.312   0.873   7.799  0.0510  0.0286  0.1719
 4372SOL    HW124575   1.279   0.784   7.797 -0.3599  0.2840 -3.5003
 4372SOL    HW224576   1.399   0.858   7.836  0.2236  0.1681 -0.1791
 4373SOL     OW24577   2.031   2.626   7.440  0.3452  0.0141 -0.0974
 4373SOL    HW124578   2.104   2.638   7.380 -0.8007 -0.5183 -1.6022
 4373SOL    HW224579   1.983   2.558   7.393  0.1512 -1.8675  2.7897
 4374SOL     OW24580   0.326   2.495  11.933  0.1401 -0.0949 -0.2955
 4374SOL    HW124581   0.248   2.440  11.926 -0.3769  0.4836  0.8255
 4374SOL    HW224582   0.327   2.523  12.025  1.1807  0.0230 -0.3373
 4375SOL     OW24583   0.800   1.791   3.833  0.0489  0.5799  0.1480
 4375SOL    HW124584   0.834   1.870   3.874 -0.3489  0.8014  0.0569
 4375SOL    HW224585   0.886   1.752   3.819 -0.8220 -0.9937 -0.8213
 4376SOL     OW24586   3.906   0.696   6.019 -0.2752  0.3180 -0.0249
 4376SOL    HW124587   3.884   0.774   5.968 -0.3676 -0.5146 -1.2403
 4376SOL    HW224588   3.959   0.735   6.089  0.3093  0.1223 -0.3556
 4377SOL     OW24589   2.012   1.774  16.108 -0.5948  0.7176 -0.2476
 4377SOL    HW124590   1.922   1.743  16.117 -0.4637  0.1831 -0.7810
 4377SOL    HW224591   2.015   1.833  16.183  3.1827 -2.0991  1.8112
 4378SOL     OW24592   2.708   1.216   3.575 -0.1219  0.6742 -0.3423
 4378SOL    HW124593   2.745   1.289   3.626 -1.5648 -0.3363  2.1266
 4378SOL    HW224594   2.615   1.224   3.593 -0.5965 -0.5415 -2.3086
 4379SOL     OW24595   4.416   4.506   7.838 -0.2453  0.0023 -0.1790
 4379SOL    HW124596   4.338   4.559   7.855  0.7755  0.9647  1.5989
 4379SOL    HW224597   4.449   4.489   7.926  2.2191  0.0981 -1.0944
 4380SOL     OW24598   0.308   1.351  16.704  0.0755 -0.0204 -0.1784
 4380SOL    HW124599   0.272   1.381  16.621 -0.5578  0.0825  0.1357
 4380SOL    HW224600   0.392   1.397  16.709  0.8639 -1.6583  1.8186
 4381SOL     OW24601   4.323   0.617   8.205 -0.4488 -0.5101  0.1006
 4381SOL    HW124602   4.273   0.681   8.256 -1.2861 -0.5503 -0.6677
 4381SOL    HW224603   4.291   0.632   8.116 -1.1499 -0.3118  0.3902
 4382SOL     OW24604   3.719   2.876   5.322  0.0618 -0.8987 -0.5024
 4382SOL    HW124605   3.659   2.895   5.394 -0.2420  0.2113 -1.0386
 4382SOL    HW224606   3.759   2.963   5.318 -1.1729 -0.2618  0.8296
 4383SOL     OW24607   2.527   3.172  11.974  0.1945  0.3801 -1.0331
 4383SOL    HW124608   2.616   3.140  11.959  0.0697  0.1208 -1.2144
 4383SOL    HW224609   2.538   3.255  12.021  1.6605 -0.9365  0.9202
 4384SOL     OW24610   4.127   1.569   8.080  0.1935  0.7315  0.4084
 4384SOL    HW124611   4.218   1.594   8.062  0.6008 -1.2707 -0.2808
 4384SOL    HW224612   4.120   1.541   8.171  0.0144 -0.2800  0.0863
 4385SOL     OW24613   2.312   0.951   7.362  0.0981  0.2976  0.2956
 4385SOL    HW124614   2.391   0.936   7.412 -1.9769 -1.5100  3.0325
 4385SOL    HW224615   2.298   0.858   7.343 -0.6804  0.8857 -2.0402
 4386SOL     OW24616   4.505   0.022   4.653  0.0338 -0.3081 -0.3042
 4386SOL    HW124617   4.566   0.020   4.579  0.3591  0.5575 -0.0644
 4386SOL    HW224618   4.522   0.105   4.698  2.0338 -0.1437 -1.3714
 4387SOL     OW24619   1.102   3.264   0.257  0.6769 -0.3847 -0.1435
 4387SOL    HW124620   1.070   3.192   0.202 -0.5662 -0.9220  1.2541
 4387SOL    HW224621   1.066   3.248   0.344 -0.7347 -0.3754 -0.7164
 4388SOL     OW24622   1.128   4.718   6.232  0.0633 -0.2636 -0.5738
 4388SOL    HW124623   1.046   4.701   6.279  0.3777  2.8674  1.1045
 4388SOL    HW224624   1.120   4.654   6.161  0.5967 -0.8951 -0.0541
 4389SOL     OW24625   2.299   0.891  15.857  0.1487 -0.0496 -0.0201
 4389SOL    HW124626   2.276   0.878  15.949 -2.0163 -1.0626 -0.6984
 4389SOL    HW224627   2.394   0.896  15.862  0.3277 -1.6243 -1.8654
 4390SOL     OW24628   1.463   0.402   6.970 -0.8233  0.3884  0.0485
 4390SOL    HW124629   1.524   0.371   7.037 -0.6823 -0.3150 -0.3987
 4390SOL    HW224630   1.490   0.493   6.963 -1.7980  0.8116  1.9093
 4391SOL     OW24631   4.229   4.179   9.056  0.1015 -0.3965 -0.0437
 4391SOL    HW124632   4.227   4.272   9.077  0.1079 -0.6790  1.2562
 4391SOL    HW224633   4.182   4.146   9.133 -0.3524  2.3158  0.8275
 4392SOL     OW24634   0.734   1.916   7.941  0.2588 -0.0584  0.9884
 4392SOL    HW124635   0.702   1.860   8.012 -2.2829  0.1598  0.0307
 4392SOL    HW224636   0.753   1.853   7.872 -1.4180  1.6870 -1.0542
 4393SOL     OW24637   2.029   0.067  11.829 -0.1744  0.2976 -0.4964
 4393SOL    HW124638   2.061   0.090  11.916 -1.2404  1.4204 -0.4006
 4393SOL    HW224639   1.944   0.026  11.843  0.4813 -0.2834  1.7017
 4394SOL     OW24640   2.319   3.147   6.376  0.5403 -0.1718 -0.0565
 4394SOL    HW124641   2.284   3.215   6.433  2.1844 -0.0062  0.7644
 4394SOL    HW224642   2.278   3.066   6.406  2.4667 -0.4746  1.7771
 4395SOL     OW24643   2.533   1.732   4.413  0.0162  0.0609  0.2622
 4395SOL    HW124644   2.609   1.677   4.432 -0.9312 -1.5089 -0.4844
 4395SOL    HW224645   2.563   1.765   4.329 -1.4944 -1.7909 -1.0215
 4396SOL     OW24646   3.666   2.468  17.223 -0.3875  0.0188 -0.1574
 4396SOL    HW124647   3.703   2.552  17.193  0.0190  0.0540  0.4389
 4396SOL    HW224648   3.742   2.431  17.268  1.1828  0.9482 -1.9909
 4397SOL     OW24649   3.515   3.882   3.029  0.0510  0.2389 -0.0157
 4397SOL    HW124650   3.495   3.794   2.998 -1.5184  0.6902 -0.3162
 4397SOL    HW224651   3.544   3.867   3.119  0.4338 -2.3620 -0.5876
 4398SOL     OW24652   0.754   0.878   8.186  0.1601 -0.6704 -0.5418
 4398SOL    HW124653   0.816   0.807   8.203 -1.1115 -1.2128  1.7657
 4398SOL    HW224654   0.678   0.819   8.184 -0.6510  0.3169  2.1006
 4399SOL     OW24655   3.927   0.319   6.887 -0.5559 -0.3049 -0.9762
 4399SOL    HW124656   3.941   0.396   6.832 -0.4322 -0.0091 -0.5300
 4399SOL    HW224657   4.012   0.299   6.928 -0.3498 -0.3170 -1.4090
 4400SOL     OW24658   3.950   4.584   0.125  0.2124  0.4800 -0.5233
 4400SOL    HW124659   3.962   4.576   0.220 -0.4640  1.3107 -0.3698
 4400SOL    HW224660   4.035   4.611   0.091 -0.9934  2.4205 -1.9669
 4401SOL     OW24661   3.987   4.619   0.401  0.2253 -0.0188 -0.2483
 4401SOL    HW124662   3.916   4.653   0.456  0.5032  0.8031 -0.4082
 4401SOL    HW224663   4.062   4.666   0.436  0.3731 -0.3202 -0.1570
 4402SOL     OW24664   1.437   3.437   2.546 -0.2644  0.1128  0.0244
 4402SOL    HW124665   1.486   3.516   2.566  0.7234  0.2875 -3.0621
 4402SOL    HW224666   1.441   3.432   2.450 -0.7218 -0.3635  0.0265
 4403SOL     OW24667   2.339   2.240   3.698 -0.2328  0.2627 -0.2995
 4403SOL    HW124668   2.385   2.162   3.728  0.0234 -0.0524 -1.5124
 4403SOL    HW224669   2.355   2.242   3.603 -0.1626  0.9723 -0.2748
 4404SOL     OW24670   3.697   0.101   5.517  0.0828 -0.0886 -0.0245
 4404SOL    HW124671   3.674   0.081   5.608 -0.3835 -0.0552 -0.1310
 4404SOL    HW224672   3.786   0.066   5.518  0.3986  0.7388  0.3269
 4405SOL     OW24673   2.166   2.291  14.315  0.2404 -0.0768 -0.0749
 4405SOL    HW124674   2.189   2.313  14.405  0.7023 -0.4468 -0.1032
 4405SOL    HW224675   2.244   2.260  14.268  0.8571  0.2376  0.7390
 4406SOL     OW24676   1.368   2.518  16.892  0.2963  0.4441 -0.2357
 4406SOL    HW124677   1.331   2.444  16.941  0.3015  1.0420  0.6553
 4406SOL    HW224678   1.427   2.553  16.959 -0.0712 -0.4004  0.5387
 4407SOL     OW24679   3.626   4.404  16.385 -0.4989 -0.1555 -0.0869
 4407SOL    HW124680   3.696   4.349  16.348 -1.0379 -2.0039  1.6376
 4407SOL    HW224681   3.664   4.421  16.471 -1.9699 -1.3116  0.7815
 4408SOL     OW24682   3.349   0.550   6.462  0.1040  0.2855  0.3111
 4408SOL    HW124683   3.348   0.513   6.373 -3.0237  0.1680  0.4002
 4408SOL    HW224684   3.258   0.579   6.470  0.4729  1.4325  0.4452
 4409SOL     OW24685   3.541   4.057   4.085 -0.3259  0.2422 -0.1346
 4409SOL    HW124686   3.499   3.974   4.064 -1.4030  0.6916  0.2530
 4409SOL    HW224687   3.611   4.062   4.020 -1.7621  0.3790 -1.6440
 4410SOL     OW24688   3.728   1.348   0.266  0.0216 -0.5401  0.5031
 4410SOL    HW124689   3.733   1.396   0.184 -1.2642  0.5409  1.0527
 4410SOL    HW224690   3.685   1.416   0.319 -0.4597 -1.7551  1.6734
 4411SOL     OW24691   4.197   1.372   4.155  0.2171  0.2169 -0.3448
 4411SOL    HW124692   4.252   1.340   4.083 -1.8676 -0.9730 -1.3957
 4411SOL    HW224693   4.206   1.466   4.137 -0.9744  0.2565 -0.6890
 4412SOL     OW24694   3.404   2.641  17.657  0.3853  0.2439 -0.1408
 4412SOL    HW124695   3.433   2.658   0.066  0.7655  1.6350 -0.5391
 4412SOL    HW224696   3.316   2.606  17.670  0.4826 -0.6322 -1.7911
 4413SOL     OW24697   2.270   0.517  10.541  0.6255 -0.0051 -0.1952
 4413SOL    HW124698   2.313   0.432  10.552 -0.0895 -0.6895 -2.8102
 4413SOL    HW224699   2.276   0.541  10.634  0.1282 -1.4548  0.2129
 4414SOL     OW24700   0.362   3.230   6.781 -0.2898 -0.4388  0.3794
 4414SOL    HW124701   0.305   3.257   6.709  1.1628 -0.2712 -0.7065
 4414SOL    HW224702   0.355   3.139   6.753  0.1873 -0.3711  0.0515
 4415SOL     OW24703   1.868   3.122   2.340  0.5656 -0.3142 -0.7287
 4415SOL    HW124704   1.818   3.151   2.417  0.8571  1.3483 -1.1732
 4415SOL    HW224705   1.934   3.070   2.385  1.5431  1.4312 -0.1477
 4416SOL     OW24706   3.853   2.533   9.740 -0.0905 -0.1090  0.0320
 4416SOL    HW124707   3.868   2.475   9.665 -2.6964 -0.2716 -0.3535
 4416SOL    HW224708   3.875   2.473   9.812 -0.8700  0.2611  0.5698
 4417SOL     OW24709   2.151   2.276   3.880 -0.0466  0.3372  0.1278
 4417SOL    HW124710   2.189   2.320   3.956 -0.1352 -1.4185  1.1878
 4417SOL    HW224711   2.226   2.274   3.820  0.4547 -0.4764  0.7867
 4418SOL     OW24712   3.127   4.532   0.911 -0.4622  0.9074 -0.4052
 4418SOL    HW124713   3.105   4.454   0.961  2.3778  0.4252  0.0799
 4418SOL    HW224714   3.056   4.537   0.846  0.8894 -2.0358 -2.1343
 4419SOL     OW24715   3.237   0.500   0.750  0.1746 -0.3233 -0.4164
 4419SOL    HW124716   3.252   0.594   0.738  0.2281  0.0493  2.7422
 4419SOL    HW224717   3.158   0.499   0.805  2.6442 -0.1136  3.1160
 4420SOL     OW24718   0.301   3.325  15.041  0.3389 -0.3692  0.5567
 4420SOL    HW124719   0.266   3.236  15.030  1.5046 -0.7623 -0.0058
 4420SOL    HW224720   0.319   3.359  14.954  1.3145 -1.2833  0.3919
 4421SOL     OW24721   2.956   1.998   5.445 -0.4546 -0.1038 -0.2586
 4421SOL    HW124722   3.002   1.943   5.509  2.3652  2.5603  0.0339
 4421SOL    HW224723   2.918   2.071   5.493 -0.1963 -2.3260  3.2994
 4422SOL     OW24724   2.735   1.761   4.805 -0.3432 -0.0762  0.4768
 4422SOL    HW124725   2.820   1.721   4.826 -0.8563  0.6983  4.0513
 4422SOL    HW224726   2.694   1.699   4.866  1.4493 -1.3849  0.3767
 4423SOL     OW24727   2.958   3.322  11.209  0.1801  0.3530 -0.1046
 4423SOL    HW124728   2.971   3.318  11.114 -0.5276 -0.4088 -0.1694
 4423SOL    HW224729   2.871   3.364  11.212 -0.4393 -0.9918  0.7216
 4424SOL     OW24730   2.420   3.357   8.250  0.4386  0.4301  0.4432
 4424SOL    HW124731   2.350   3.421   8.244 -0.2843 -0.3468  0.5868
 4424SOL    HW224732   2.480   3.366   8.175  2.2812  0.5459  1.9297
 4425SOL     OW24733   0.590   3.685   5.807  0.2159  0.2460 -0.5728
 4425SOL    HW124734   0.565   3.777   5.816  1.3065  0.6549 -1.8463
 4425SOL    HW224735   0.679   3.689   5.773  0.9950 -0.3735  1.4447
 4426SOL     OW24736   0.213   0.683   6.818 -0.0054 -0.1045 -0.0675
 4426SOL    HW124737   0.287   0.643   6.771  1.1248  1.0385  0.7314
 4426SOL    HW224738   0.244   0.675   6.909  1.5297  1.8886 -0.3990
 4427SOL     OW24739   1.074   3.901   7.046 -0.0143 -0.6730 -0.2148
 4427SOL    HW124740   1.002   3.908   7.109  1.6049 -0.7634  1.6324
 4427SOL    HW224741   1.071   3.815   7.005 -1.7712 -0.2218 -1.0445
 4428SOL     OW24742   1.371   1.303   1.014  0.5040  0.8611 -0.0622
 4428SOL    HW124743   1.449   1.309   0.959  0.4882  0.2847 -0.1399
 4428SOL    HW224744   1.356   1.211   1.036 -1.3720  1.0407 -0.6234
 4429SOL     OW24745   0.556   0.102  14.027  0.1915  0.5618 -0.7244
 4429SOL    HW124746   0.596   0.017  14.044 -0.0166  0.8578  1.3015
 4429SOL    HW224747   0.635   0.151  14.049  0.0254  0.3716  0.2931
 4430SOL     OW24748   1.644   0.991  16.234 -0.3559 -0.3877 -0.0055
 4430SOL    HW124749   1.621   0.918  16.292 -0.0489 -1.0023 -0.6630
 4430SOL    HW224750   1.652   0.948  16.149  1.4030 -0.8819  0.4222
 4431SOL     OW24751   2.140   1.199   9.005  0.7745  0.1492  0.7363
 4431SOL    HW124752   2.217   1.230   9.052 -0.7966  2.4652  1.8010
 4431SOL    HW224753   2.076   1.269   9.020  0.0063 -0.6453  1.1519
 4432SOL     OW24754   4.602   3.360   4.744  0.3323  0.1455  0.1928
 4432SOL    HW124755   4.662   3.353   4.669 -0.1410 -0.8252 -0.0966
 4432SOL    HW224756   4.638   3.438   4.786 -1.1564  1.2064 -0.4964
 4433SOL     OW24757   1.017   4.412  12.506  0.4103 -0.0809  0.1307
 4433SOL    HW124758   1.105   4.448  12.515 -0.0297  0.8418  0.6956
 4433SOL    HW224759   0.978   4.431  12.591  0.6390 -0.3460  0.2950
 4434SOL     OW24760   3.718   4.388   5.003 -0.1017  0.3374  0.2974
 4434SOL    HW124761   3.674   4.470   5.027 -0.7378  0.4583 -1.3003
 4434SOL    HW224762   3.799   4.413   4.959 -0.7166  0.2187 -0.8957
 4435SOL     OW24763   1.298   4.155   2.736 -0.4441 -0.0120 -0.0475
 4435SOL    HW124764   1.270   4.072   2.774  0.7958 -0.4179 -0.0251
 4435SOL    HW224765   1.312   4.117   2.649 -0.8360 -0.2340 -0.0131
 4436SOL     OW24766   1.504   3.001  10.738 -0.5236 -0.6276 -0.0829
 4436SOL    HW124767   1.586   2.992  10.690 -1.4217  0.3034 -1.8174
 4436SOL    HW224768   1.495   3.092  10.765  0.8095 -0.5775  0.1869
 4437SOL     OW24769   2.895   3.562  17.517  0.0410  0.2385 -0.3242
 4437SOL    HW124770   2.830   3.574  17.587 -0.8438 -1.1245 -0.9090
 4437SOL    HW224771   2.961   3.514  17.567  0.1317 -0.8215 -1.4693
 4438SOL     OW24772   0.080   4.548  10.070  0.7843 -0.0356 -0.5058
 4438SOL    HW124773   0.161   4.507  10.101  0.5612  0.0645  0.2214
 4438SOL    HW224774   0.095   4.643  10.074 -2.4885  0.4181  0.9378
 4439SOL     OW24775   0.747   1.285   1.791  0.5743 -0.1587 -0.5259
 4439SOL    HW124776   0.798   1.317   1.717  1.2562 -0.8724 -0.3538
 4439SOL    HW224777   0.676   1.243   1.742  1.8253 -2.2009 -0.5649
 4440SOL     OW24778   3.860   2.848  14.971 -0.5482 -0.4359 -0.3386
 4440SOL    HW124779   3.783   2.856  14.916 -0.9185  1.0344  0.4030
 4440SOL    HW224780   3.826   2.828  15.058  0.4107 -1.1658 -0.1246
 4441SOL     OW24781   1.646   2.758   3.063  0.3185 -0.1113  0.0379
 4441SOL    HW124782   1.581   2.753   3.133  0.4517  0.3569  0.1918
 4441SOL    HW224783   1.721   2.775   3.121 -0.4724  1.1771  0.6694
 4442SOL     OW24784   1.977   0.081   2.348  0.3956  0.4166  0.1147
 4442SOL    HW124785   1.949   0.146   2.413  1.3753  1.2861 -0.3409
 4442SOL    HW224786   2.067   0.113   2.344  0.7738 -1.0167 -2.7063
 4443SOL     OW24787   1.731   2.840   7.420  0.1907 -0.1250 -0.0297
 4443SOL    HW124788   1.818   2.876   7.438  0.5335 -1.5135  1.1190
 4443SOL    HW224789   1.725   2.766   7.480 -1.5160  0.2700  0.2984
 4444SOL     OW24790   0.026   4.130  11.216  0.9380 -0.5884 -0.4050
 4444SOL    HW124791   4.673   4.169  11.168 -1.4613 -2.6385  1.5346
 4444SOL    HW224792   4.704   4.114  11.301 -1.5356  0.3617 -1.4311
 4445SOL     OW24793   3.116   0.669  17.456 -0.0952  0.4613 -0.0571
 4445SOL    HW124794   3.079   0.659  17.544  0.0193  0.7640  0.0257
 4445SOL    HW224795   3.097   0.579  17.432  0.4170  0.2694  0.2573
 4446SOL     OW24796   3.345   4.342  16.093 -0.0628 -0.4186  0.1536
 4446SOL    HW124797   3.430   4.360  16.052 -0.1831  1.6563  0.7905
 4446SOL    HW224798   3.274   4.362  16.032  0.1791  1.1801  0.3773
 4447SOL     OW24799   2.316   2.095   4.888  0.4578  0.3292  0.1953
 4447SOL    HW124800   2.255   2.112   4.960  0.7722 -1.1981  0.8294
 4447SOL    HW224801   2.401   2.117   4.926  1.8591 -1.7927 -1.7169
 4448SOL     OW24802   4.376   3.470   4.290  0.0230 -0.0710  0.7138
 4448SOL    HW124803   4.457   3.439   4.332  0.5095  1.2499  0.7470
 4448SOL    HW224804   4.405   3.545   4.239 -2.0571 -0.8149 -1.5603
 4449SOL     OW24805   3.070   2.549   9.337  0.1969 -0.1848  0.0113
 4449SOL    HW124806   3.110   2.628   9.374  1.5013 -1.9480  2.3988
 4449SOL    HW224807   3.138   2.517   9.277 -1.9364 -1.2376 -1.8121
 4450SOL     OW24808   4.555   1.819   6.194  0.0756 -0.1481  0.5471
 4450SOL    HW124809   4.638   1.813   6.147  1.7879 -0.4622  3.6407
 4450SOL    HW224810   4.587   1.879   6.261  0.7216  0.0280  0.0795
 4451SOL     OW24811   0.514   3.272   6.421 -0.7629 -0.0402  0.3130
 4451SOL    HW124812   0.607   3.292   6.432 -1.1922  1.0837  1.8794
 4451SOL    HW224813   0.505   3.307   6.333 -3.3499 -0.0211  0.5906
 4452SOL     OW24814   2.348   4.564   5.083  0.5306 -0.0395 -0.0345
 4452SOL    HW124815   2.326   4.533   5.171 -0.8140 -1.9287 -1.0479
 4452SOL    HW224816   2.370   4.479   5.045  2.6522  0.3179  0.3806
 4453SOL     OW24817   3.490   1.444   6.332  0.2604  0.3795 -0.2075
 4453SOL    HW124818   3.551   1.437   6.259 -0.1148  0.8215 -0.5609
 4453SOL    HW224819   3.466   1.351   6.340 -0.9633  0.6172 -1.0271
 4454SOL     OW24820   3.169   0.395   2.242 -0.0934 -0.0680  0.3704
 4454SOL    HW124821   3.159   0.406   2.147  0.9130 -0.6634  0.1973
 4454SOL    HW224822   3.227   0.319   2.249  0.9729  0.4552 -2.6964
 4455SOL     OW24823   3.691   3.726  13.021  0.1210  0.0332 -0.3391
 4455SOL    HW124824   3.766   3.696  12.970  0.8052 -0.2524  0.8504
 4455SOL    HW224825   3.725   3.703  13.107 -1.2188 -0.3871  0.0799
 4456SOL     OW24826   3.272   0.610   0.305 -0.0217  0.2331 -0.1899
 4456SOL    HW124827   3.305   0.667   0.374  0.3875 -1.4708  1.0151
 4456SOL    HW224828   3.239   0.678   0.246 -2.1575 -1.5552 -1.0904
 4457SOL     OW24829   2.996   1.802   2.187  0.2706 -0.2136 -0.2721
 4457SOL    HW124830   3.009   1.730   2.126  0.5720 -1.3648  1.1415
 4457SOL    HW224831   3.052   1.766   2.256  0.6863 -0.0811 -0.5385
 4458SOL     OW24832   2.650   4.474   6.203  0.1994 -0.1808  0.0020
 4458SOL    HW124833   2.702   4.473   6.122  1.5993 -0.9293  0.9061
 4458SOL    HW224834   2.689   4.547   6.250  1.6969 -0.1050 -1.3526
 4459SOL     OW24835   0.401   3.113   7.658  0.1780 -0.2210  0.5145
 4459SOL    HW124836   0.383   3.181   7.722 -0.1936  0.3514 -0.1909
 4459SOL    HW224837   0.348   3.142   7.583  1.2665  2.2328  0.7106
 4460SOL     OW24838   1.340   1.943  17.335 -0.0053  0.0334  0.1787
 4460SOL    HW124839   1.379   1.856  17.332  2.0215  1.0394 -2.6446
 4460SOL    HW224840   1.415   1.988  17.296  1.0364 -2.4388 -0.6365
 4461SOL     OW24841   0.189   1.167   5.361 -0.5332  0.0600 -0.0451
 4461SOL    HW124842   0.094   1.155   5.370 -0.4866  0.0804  0.4810
 4461SOL    HW224843   0.186   1.179   5.266  1.4122  0.8851  0.0076
 4462SOL     OW24844   0.895   0.820   8.770  0.3650 -0.1661 -0.2244
 4462SOL    HW124845   0.915   0.728   8.786  0.6792 -0.6406 -3.4228
 4462SOL    HW224846   0.800   0.819   8.772  0.3566  0.0618 -0.5179
 4463SOL     OW24847   4.459   4.711   4.083  0.1553 -0.1607  0.1815
 4463SOL    HW124848   4.485   0.082   4.105  0.4293 -0.4191  0.9111
 4463SOL    HW224849   4.454   4.664   4.166  1.0508 -2.0755 -0.8650
 4464SOL     OW24850   2.775   0.001  11.067  0.2375 -0.5536  0.1450
 4464SOL    HW124851   2.786   0.083  11.019 -1.4581 -1.3152 -1.5309
 4464SOL    HW224852   2.866   4.691  11.073  0.3102 -0.2747  0.3987
 4465SOL     OW24853   1.233   0.040  13.061  0.1092  0.2181 -0.5613
 4465SOL    HW124854   1.275   0.076  13.139  0.2868 -1.6515  0.1857
 4465SOL    HW224855   1.269   0.111  13.007 -0.8998  1.0144 -0.1845
 4466SOL     OW24856   4.113   4.273   8.248  0.6829 -0.3424 -0.6433
 4466SOL    HW124857   4.108   4.217   8.170  1.5176 -0.4492 -0.6153
 4466SOL    HW224858   4.038   4.233   8.293  1.4925  0.8680  1.7177
 4467SOL     OW24859   2.538   1.876   4.988  0.2658 -0.9562  0.4114
 4467SOL    HW124860   2.574   1.861   4.900 -2.7994  1.9926 -1.2911
 4467SOL    HW224861   2.607   1.840   5.044 -0.3531 -0.5556  1.4170
 4468SOL     OW24862   0.467   0.130   8.324  0.2979 -0.3924 -0.2467
 4468SOL    HW124863   0.519   0.200   8.283 -3.0820  1.0410 -2.0838
 4468SOL    HW224864   0.426   0.183   8.393  1.1782  0.1815 -0.1558
 4469SOL     OW24865   1.313   0.625   9.962  0.0305  0.6173  0.0360
 4469SOL    HW124866   1.286   0.574   9.886 -1.1306 -0.8041  1.4023
 4469SOL    HW224867   1.320   0.554  10.025 -0.4135 -1.7659 -2.5901
 4470SOL     OW24868   3.481   1.074   8.647 -0.5724 -0.1774  0.2292
 4470SOL    HW124869   3.576   1.072   8.637 -0.6171 -1.5697  0.0482
 4470SOL    HW224870   3.447   1.032   8.568 -1.4752 -0.0521  0.5563
 4471SOL     OW24871   1.295   1.613  15.168 -0.5409 -0.5742 -0.0888
 4471SOL    HW124872   1.237   1.575  15.234 -2.6858  0.7440 -1.2486
 4471SOL    HW224873   1.240   1.644  15.097 -0.6295  1.1913  0.7606
 4472SOL     OW24874   1.560   1.856   1.419  0.3498 -0.1816  0.2717
 4472SOL    HW124875   1.594   1.945   1.418  1.8117 -0.7621 -2.0151
 4472SOL    HW224876   1.644   1.812   1.434  0.9876  1.1665  0.6519
 4473SOL     OW24877   1.361   4.064   8.034  0.1690  0.4217 -0.0373
 4473SOL    HW124878   1.279   4.112   8.045  0.5722  1.0713  0.1317
 4473SOL    HW224879   1.423   4.137   8.026 -0.3926  0.8976 -0.0282
 4474SOL     OW24880   3.028   2.757   4.916 -0.0572  0.6397 -0.3032
 4474SOL    HW124881   3.015   2.845   4.953  0.1332 -0.2978  1.9703
 4474SOL    HW224882   3.100   2.778   4.856 -0.5510  1.2896 -0.6690
 4475SOL     OW24883   3.250   0.238  15.896  0.4601 -0.0196 -0.2469
 4475SOL    HW124884   3.248   0.158  15.950 -2.1890  0.6059  0.5903
 4475SOL    HW224885   3.277   0.294  15.969 -0.4332 -0.7885  0.6653
 4476SOL     OW24886   2.402   1.177   6.029 -0.4737  0.9425 -0.5050
 4476SOL    HW124887   2.321   1.195   6.077 -0.1455  2.3638 -0.4843
 4476SOL    HW224888   2.370   1.170   5.939  2.8512  1.7034 -1.7295
 4477SOL     OW24889   3.484   4.303   5.424  0.5548  0.0159 -0.3052
 4477SOL    HW124890   3.562   4.349   5.455 -0.2171  0.3667  1.1122
 4477SOL    HW224891   3.513   4.276   5.337 -2.0920 -1.9429 -0.5624
 4478SOL     OW24892   0.016   0.359   1.962 -0.1544  0.0099  0.6080
 4478SOL    HW124893   0.110   0.342   1.961  0.2102  2.2334 -1.6170
 4478SOL    HW224894   0.014   0.431   1.899 -2.7240 -0.3933  0.2291
 4479SOL     OW24895   3.993   3.568   6.245  0.1908  0.4671 -0.2542
 4479SOL    HW124896   3.981   3.474   6.236  1.4076  0.2553  0.4135
 4479SOL    HW224897   4.025   3.574   6.335  0.2890 -2.0902 -0.1212
 4480SOL     OW24898   2.564   3.505   8.533  0.0203 -0.2847  0.0508
 4480SOL    HW124899   2.531   3.567   8.467  0.2145 -1.8685 -1.5148
 4480SOL    HW224900   2.570   3.423   8.485 -0.2577 -0.0980 -0.2982
 4481SOL     OW24901   2.642   2.047   8.765 -0.5625  0.5511  0.7242
 4481SOL    HW124902   2.680   2.059   8.853  2.6063  1.8939 -0.8137
 4481SOL    HW224903   2.547   2.039   8.776 -0.4731  2.8746  3.2015
 4482SOL     OW24904   1.992   3.940  13.836  0.1941 -0.2148  0.0706
 4482SOL    HW124905   2.060   4.002  13.858 -2.2007  2.1583  0.7915
 4482SOL    HW224906   2.029   3.884  13.767 -0.7977  1.3169 -1.7227
 4483SOL     OW24907   0.637   4.141   9.449  0.0102 -0.0916 -0.1070
 4483SOL    HW124908   0.669   4.159   9.360  2.4707  0.9556  0.9853
 4483SOL    HW224909   0.551   4.180   9.439 -1.0216 -2.3156  0.0686
 4484SOL     OW24910   2.050   1.715   3.892 -0.5715  1.0496  0.4955
 4484SOL    HW124911   2.138   1.748   3.910 -0.3161  0.2896  0.6142
 4484SOL    HW224912   2.023   1.721   3.983  2.3118  2.1249  1.2825
 4485SOL     OW24913   3.264   2.322   3.178 -0.5098  0.9445 -0.0575
 4485SOL    HW124914   3.272   2.371   3.096  1.3134  2.5016  1.0638
 4485SOL    HW224915   3.348   2.345   3.218 -0.6745 -1.7624  1.8839
 4486SOL     OW24916   1.815   3.826  14.005  0.5463  0.3881  0.2284
 4486SOL    HW124917   1.847   3.876  13.930 -0.7473  1.7032  0.5454
 4486SOL    HW224918   1.894   3.809  14.056  1.1074  0.6633 -0.5462
 4487SOL     OW24919   4.527   3.020   5.354  0.0819  0.2162  0.5679
 4487SOL    HW124920   4.459   3.084   5.330  2.6437  1.5657 -3.1131
 4487SOL    HW224921   4.588   3.014   5.281 -1.2935  0.5533 -0.6280
 4488SOL     OW24922   4.318   4.649   0.802  0.2791 -0.0248  0.3623
 4488SOL    HW124923   4.285   4.584   0.740  1.9062 -0.1988 -0.3310
 4488SOL    HW224924   4.247   4.712   0.802  0.2391 -0.0758 -1.4868
 4489SOL     OW24925   4.164   2.701  16.984  0.2263  0.3252  0.0278
 4489SOL    HW124926   4.181   2.739  16.898  2.4487 -1.8073 -0.4891
 4489SOL    HW224927   4.072   2.676  16.985  0.3252 -0.0625 -0.4649
 4490SOL     OW24928   3.356   1.653   6.769 -0.3395  0.7597 -0.5870
 4490SOL    HW124929   3.396   1.719   6.825  1.5375 -0.0377 -0.9799
 4490SOL    HW224930   3.436   1.644   6.717 -0.0180  3.8832 -0.5968
 4491SOL     OW24931   0.589   0.022   8.565 -0.5821 -0.0077 -0.5792
 4491SOL    HW124932   0.615   0.034   8.473  0.9922  1.8548  0.1060
 4491SOL    HW224933   0.588   0.108   8.608 -2.9330 -0.3479  0.0381
 4492SOL     OW24934   2.591   4.475  12.675  0.3165  0.0065  0.0365
 4492SOL    HW124935   2.665   4.488  12.735  0.7124 -1.9964 -0.0178
 4492SOL    HW224936   2.529   4.453  12.745  1.5932  0.2635  1.2427
 4493SOL     OW24937   2.485   4.716  15.184 -0.0390 -0.1225  0.0557
 4493SOL    HW124938   2.426   0.033  15.119  0.2432 -1.5827 -1.0047
 4493SOL    HW224939   2.447   0.039  15.262 -1.7341  3.3741 -2.6676
 4494SOL     OW24940   4.496   3.183   7.236 -0.3156 -0.1810 -0.2585
 4494SOL    HW124941   4.466   3.273   7.245  0.2591  0.1113 -1.2767
 4494SOL    HW224942   4.522   3.183   7.144  0.2116 -5.1236 -0.1303
 4495SOL     OW24943   0.633   2.658   2.271 -0.4931 -0.0040  0.8431
 4495SOL    HW124944   0.559   2.644   2.330 -1.1452  0.7842  0.2167
 4495SOL    HW224945   0.605   2.590   2.210  0.9093  0.8551 -0.7622
 4496SOL     OW24946   1.693   4.144   1.954  0.0036  0.0002  0.3340
 4496SOL    HW124947   1.668   4.229   1.992 -0.1637 -0.7322  1.8853
 4496SOL    HW224948   1.609   4.116   1.917  0.5452 -1.3219  0.1173
 4497SOL     OW24949   2.643   3.345   1.681 -0.0779  0.0342 -0.3938
 4497SOL    HW124950   2.681   3.257   1.681 -1.9643 -0.7945  1.6676
 4497SOL    HW224951   2.566   3.335   1.626 -1.6803  0.8902  1.6928
 4498SOL     OW24952   3.062   1.697   6.778 -0.1172 -0.8364  0.2700
 4498SOL    HW124953   3.041   1.605   6.798  1.1046 -1.1330  0.1511
 4498SOL    HW224954   3.155   1.692   6.755  0.2188 -2.3650  2.0073
 4499SOL     OW24955   3.749   3.233  17.427  0.5020 -0.5921 -0.0479
 4499SOL    HW124956   3.737   3.264  17.338  0.7211  0.7698  0.4037
 4499SOL    HW224957   3.841   3.206  17.431  0.6673  0.5240  3.7932
 4500SOL     OW24958   2.136   1.473   5.951 -0.1857 -0.1881  0.7019
 4500SOL    HW124959   2.108   1.503   6.037  0.5510 -3.0124  1.9135
 4500SOL    HW224960   2.199   1.541   5.927 -1.3377 -0.0634 -1.9022
 4501SOL     OW24961   1.055   4.385   6.419  0.2118 -0.5064 -0.4280
 4501SOL    HW124962   1.090   4.408   6.332 -0.9297 -3.7030 -1.7639
 4501SOL    HW224963   1.138   4.350   6.452 -0.1863  2.4378  3.5823
 4502SOL     OW24964   3.140   0.789   9.223 -0.3130  0.3891 -0.0117
 4502SOL    HW124965   3.121   0.883   9.229  2.4592  0.8614  1.1198
 4502SOL    HW224966   3.093   0.760   9.301 -1.3594 -0.5837 -1.0048
 4503SOL     OW24967   0.067   1.048   7.657  0.3463  0.7469  0.2285
 4503SOL    HW124968   4.709   1.081   7.702 -0.1530 -0.2348  0.1093
 4503SOL    HW224969   0.024   0.981   7.603  0.6270  0.7840 -0.0399
 4504SOL     OW24970   3.697   0.839   0.400  0.4657  0.3674 -0.0505
 4504SOL    HW124971   3.715   0.933   0.398 -1.6173  0.7381 -1.5874
 4504SOL    HW224972   3.715   0.812   0.310 -0.5377  0.7451 -0.3617
 4505SOL     OW24973   2.172   3.540   5.014 -0.1837 -0.4585  0.1491
 4505SOL    HW124974   2.224   3.569   4.939 -2.3883 -0.0635 -1.2150
 4505SOL    HW224975   2.162   3.619   5.067 -0.3460  0.1716 -0.8199
 4506SOL     OW24976   4.116   0.091   4.533 -0.0634 -0.1634  0.6226
 4506SOL    HW124977   4.046   0.035   4.500  0.5169 -1.0465  0.9009
 4506SOL    HW224978   4.185   0.028   4.552  0.3204 -0.8592 -3.1222
 4507SOL     OW24979   1.422   3.595   7.474 -0.0081  0.2531  0.0550
 4507SOL    HW124980   1.495   3.573   7.531  0.6747  1.6167 -0.2959
 4507SOL    HW224981   1.346   3.553   7.515 -0.7694 -0.5659 -2.1500
 4508SOL     OW24982   0.607   3.899   6.059  0.8980 -0.6988 -0.4810
 4508SOL    HW124983   0.658   3.905   5.978  0.4844 -1.8736 -0.8227
 4508SOL    HW224984   0.646   3.971   6.109 -0.7886  1.7223 -2.6237
 4509SOL     OW24985   4.617   4.459  10.262 -0.1347  0.3388  0.2609
 4509SOL    HW124986   4.687   4.496  10.208 -0.9861 -0.4978 -1.4294
 4509SOL    HW224987   4.613   4.371  10.226 -2.2708  0.5516 -0.0093
 4510SOL     OW24988   0.827   2.785   0.201  0.2629 -0.4565 -0.0681
 4510SOL    HW124989   0.842   2.745   0.115  1.0157 -0.9106  0.2769
 4510SOL    HW224990   0.751   2.834   0.171 -0.2062 -0.4938  1.0757
 4511SOL     OW24991   4.248   2.209   2.728 -0.0009  0.5056 -0.1758
 4511SOL    HW124992   4.330   2.181   2.687 -0.4060 -0.1795 -0.5249
 4511SOL    HW224993   4.277   2.179   2.814 -0.1300 -0.1590 -0.3609
 4512SOL     OW24994   3.267   4.417   5.028  0.2139 -0.7097 -0.5971
 4512SOL    HW124995   3.214   4.477   4.974  1.5368  2.0783  1.2057
 4512SOL    HW224996   3.320   4.379   4.958  1.7163 -0.3875  0.3680
 4513SOL     OW24997   1.384   3.066   3.437 -0.2929  0.6924 -0.3197
 4513SOL    HW124998   1.471   3.053   3.475 -1.1594  0.5164  1.5601
 4513SOL    HW224999   1.338   2.992   3.475  0.3564  1.0270  1.0945
 4514SOL     OW25000   0.553   0.519  15.630  0.4293 -0.0214 -0.0134
 4514SOL    HW125001   0.558   0.458  15.703  0.3853 -1.5225 -1.2618
 4514SOL    HW225002   0.646   0.519  15.607  0.9712  0.6511  2.1698
 4515SOL     OW25003   0.782   0.713  14.679  0.2491  0.3099  0.3611
 4515SOL    HW125004   0.755   0.805  14.673 -0.6218  0.0592  0.4740
 4515SOL    HW225005   0.872   0.719  14.712  0.1897  1.8615  0.2264
 4516SOL     OW25006   1.748   0.726   3.885  0.0471 -0.5393 -0.1279
 4516SOL    HW125007   1.839   0.726   3.915 -0.1078  1.6415  0.3408
 4516SOL    HW225008   1.737   0.819   3.864 -1.2325 -1.0083 -1.4792
 4517SOL     OW25009   3.666   2.726   2.443  0.4689 -0.0674  0.5505
 4517SOL    HW125010   3.597   2.662   2.459  0.2188  0.2366  0.6853
 4517SOL    HW225011   3.739   2.672   2.412  2.3318  1.9614  1.3685
 4518SOL     OW25012   3.564   1.984   2.997  0.3278 -0.1776  0.0280
 4518SOL    HW125013   3.618   1.989   2.918  1.5374 -1.9001  0.7474
 4518SOL    HW225014   3.505   1.915   2.967  0.2573 -0.3565  0.5695
 4519SOL     OW25015   4.490   1.369   5.589 -0.3807 -0.3082  0.0395
 4519SOL    HW125016   4.546   1.446   5.599 -0.6646 -0.2186  0.9056
 4519SOL    HW225017   4.498   1.328   5.675  1.1638  0.8351  0.4453
 4520SOL     OW25018   4.063   2.118   0.714 -0.1191 -0.3019 -0.0929
 4520SOL    HW125019   4.023   2.124   0.801  1.4909 -3.2505  0.8267
 4520SOL    HW225020   3.993   2.144   0.654  1.1988 -0.1131 -1.5289
 4521SOL     OW25021   3.225   2.052   1.568  0.3592 -1.0272 -0.8317
 4521SOL    HW125022   3.217   2.013   1.655 -1.8837  1.8686  0.2447
 4521SOL    HW225023   3.190   1.981   1.514  0.7012 -0.0750 -2.2958
 4522SOL     OW25024   3.654   3.498   7.628 -0.5089 -0.5515 -0.5722
 4522SOL    HW125025   3.721   3.562   7.604  0.7643 -1.9731 -0.8061
 4522SOL    HW225026   3.681   3.448   7.705  1.1485  2.5099  0.7894
 4523SOL     OW25027   3.203   1.762   4.969 -0.1693 -0.3871  0.1214
 4523SOL    HW125028   3.277   1.819   4.988 -0.9853  0.8474 -0.3884
 4523SOL    HW225029   3.207   1.764   4.873  2.1678  0.7992  0.2367
 4524SOL     OW25030   4.248   0.310   1.456  0.0364  0.5196 -0.6911
 4524SOL    HW125031   4.329   0.270   1.489  0.3866  1.8495  0.0303
 4524SOL    HW225032   4.281   0.337   1.370  3.0389 -1.6165 -0.2081
 4525SOL     OW25033   3.497   3.656   3.699 -0.3263 -0.3396 -0.2580
 4525SOL    HW125034   3.505   3.603   3.778  0.7122  0.4705  0.1819
 4525SOL    HW225035   3.588   3.675   3.675 -0.5063  0.3831 -0.3805
 4526SOL     OW25036   1.332   1.813   7.424 -0.5781 -0.0188  0.0822
 4526SOL    HW125037   1.336   1.722   7.395 -0.5653 -0.4419  1.4274
 4526SOL    HW225038   1.280   1.822   7.504 -1.4927 -0.6297 -0.4514
 4527SOL     OW25039   4.507   4.128   8.195 -1.0236  0.3579 -0.3530
 4527SOL    HW125040   4.586   4.079   8.172 -0.3022  1.6739 -0.7291
 4527SOL    HW225041   4.521   4.144   8.288  1.6329 -3.2915 -0.1219
 4528SOL     OW25042   1.362   3.627   4.186  0.1866 -0.1370 -0.4143
 4528SOL    HW125043   1.339   3.713   4.221  0.1829 -0.2259 -0.1963
 4528SOL    HW225044   1.374   3.577   4.267  1.4494 -0.3108 -0.7237
 4529SOL     OW25045   0.921   2.382   1.954 -0.8102 -0.4333  0.0446
 4529SOL    HW125046   0.990   2.323   1.986 -0.5736  1.0393  2.2291
 4529SOL    HW225047   0.922   2.360   1.861 -1.5590  1.2105 -0.3457
 4530SOL     OW25048   4.122   0.428   7.513 -0.4657 -0.5423 -0.1795
 4530SOL    HW125049   4.050   0.376   7.548 -1.7061  0.2296 -1.5764
 4530SOL    HW225050   4.146   0.365   7.445  1.2945  0.9715 -0.9611
 4531SOL     OW25051   2.784   1.664   3.851 -0.2755 -0.2109  0.0217
 4531SOL    HW125052   2.699   1.622   3.868 -0.9594  1.1318 -0.0497
 4531SOL    HW225053   2.805   1.621   3.769 -2.2255  0.2507 -0.7104
 4532SOL     OW25054   1.345   2.400   2.222  0.1818  0.3461  0.4103
 4532SOL    HW125055   1.320   2.341   2.293  1.5522 -0.3578  0.3228
 4532SOL    HW225056   1.279   2.381   2.156  1.5725 -1.3719 -0.5029
 4533SOL     OW25057   0.480   3.403   6.153  0.3921 -0.4352  0.1239
 4533SOL    HW125058   0.513   3.491   6.136  1.0043 -0.9750 -1.5404
 4533SOL    HW225059   0.462   3.367   6.066  0.6496  0.5608 -0.3433
 4534SOL     OW25060   3.593   2.948  13.566 -0.6965  0.2101  0.8184
 4534SOL    HW125061   3.619   2.981  13.653 -0.3586 -1.9141  1.5194
 4534SOL    HW225062   3.619   2.857  13.579  1.7904  0.6412 -1.0371
 4535SOL     OW25063   3.644   0.302   6.971 -0.0590  0.1299  0.7473
 4535SOL    HW125064   3.638   0.397   6.968 -1.7807 -0.0556 -2.6704
 4535SOL    HW225065   3.737   0.288   6.990  0.7340  2.9060 -1.0691
 4536SOL     OW25066   4.582   0.547   5.959 -1.0063  0.2902 -0.1773
 4536SOL    HW125067   4.595   0.500   6.041 -0.9641  0.3434 -0.1530
 4536SOL    HW225068   4.533   0.621   5.993 -0.5242  1.0483 -1.1299
 4537SOL     OW25069   4.717   1.208  16.214  0.7381  0.5443  0.3958
 4537SOL    HW125070   0.045   1.248  16.141  1.2946 -2.8518 -1.1399
 4537SOL    HW225071   4.654   1.276  16.237  1.9499  0.8352  2.8475
 4538SOL     OW25072   0.153   1.176  13.786  0.2108  0.2516  0.4591
 4538SOL    HW125073   0.086   1.135  13.730  0.7454 -0.2223  0.1685
 4538SOL    HW225074   0.139   1.269  13.766  1.9492  0.5335  0.6086
 4539SOL     OW25075   4.214   3.159   5.743 -0.2897  0.3085 -0.1090
 4539SOL    HW125076   4.179   3.119   5.663 -0.2691 -1.2525  0.6725
 4539SOL    HW225077   4.226   3.087   5.804 -1.2583  1.7848  1.8298
 4540SOL     OW25078   0.505   4.125   5.173 -0.1179 -1.0422  0.4061
 4540SOL    HW125079   0.552   4.045   5.193  0.8448 -0.8336 -1.0407
 4540SOL    HW225080   0.452   4.135   5.252 -2.5626 -1.0847 -1.1846
 4541SOL     OW25081   1.723   4.718   8.042 -0.4544  0.2353  0.1092
 4541SOL    HW125082   1.652   4.710   7.978 -2.7707  0.7241  2.6210
 4541SOL    HW225083   1.735   0.092   8.027  0.9910 -0.0095 -0.2687
 4542SOL     OW25084   1.666   2.737   6.691 -0.1225 -0.2080  0.1152
 4542SOL    HW125085   1.746   2.779   6.721 -0.3675 -1.2223  2.2065
 4542SOL    HW225086   1.674   2.744   6.596 -0.3204 -2.1603 -0.0371
 4543SOL     OW25087   2.432   1.544   8.718 -0.3139  0.0066 -0.0394
 4543SOL    HW125088   2.436   1.484   8.792 -0.2709  1.6276  1.2718
 4543SOL    HW225089   2.442   1.624   8.770  2.3891  0.3393 -1.0915
 4544SOL     OW25090   2.472   2.140   5.960  0.3553  0.1268 -0.1247
 4544SOL    HW125091   2.516   2.171   5.880  1.4743 -0.1635  0.3768
 4544SOL    HW225092   2.398   2.199   5.975 -3.1191 -3.6420 -2.5910
 4545SOL     OW25093   4.370   1.262  13.764  0.7143 -0.1922 -0.3861
 4545SOL    HW125094   4.404   1.227  13.682 -1.3337  0.4127 -1.4871
 4545SOL    HW225095   4.276   1.260  13.748  0.0564 -2.3706  3.6565
 4546SOL     OW25096   0.433   1.927  10.431 -0.0939  0.7366  0.3616
 4546SOL    HW125097   0.489   2.004  10.419  0.0547  0.5873  0.0968
 4546SOL    HW225098   0.350   1.963  10.399 -0.2142 -1.6445 -1.9679
 4547SOL     OW25099   1.385   3.576  17.266 -0.5951  0.3226  0.1840
 4547SOL    HW125100   1.306   3.541  17.307 -0.5237 -3.4435 -2.8966
 4547SOL    HW225101   1.454   3.580  17.333  0.3702 -2.2285 -0.6614
 4548SOL     OW25102   2.428   2.190   9.498 -0.4936  0.0075 -0.3378
 4548SOL    HW125103   2.408   2.210   9.407  1.5214 -0.4089 -0.8748
 4548SOL    HW225104   2.522   2.211   9.498 -0.8597  1.6289  2.1663
 4549SOL     OW25105   0.775   3.302   7.681  0.0575 -0.5150 -0.0764
 4549SOL    HW125106   0.697   3.290   7.627 -1.0847 -0.9018  1.6373
 4549SOL    HW225107   0.781   3.224   7.736  1.2846 -1.0168 -0.9322
 4550SOL     OW25108   2.601   2.510   8.814 -0.2970 -0.0838  0.2185
 4550SOL    HW125109   2.525   2.505   8.757 -1.0744  0.0611  1.2441
 4550SOL    HW225110   2.576   2.555   8.895 -1.0544  0.4795 -0.3338
 4551SOL     OW25111   2.186   1.829  10.435  0.1023  0.7714 -0.1153
 4551SOL    HW125112   2.189   1.861  10.345 -1.7408 -0.2134 -0.5188
 4551SOL    HW225113   2.098   1.856  10.462 -0.7430 -0.3510 -1.7719
 4552SOL     OW25114   1.350   0.594  17.497  0.6615 -0.0130 -0.4586
 4552SOL    HW125115   1.278   0.541  17.463 -0.5828 -0.2254  2.5158
 4552SOL    HW225116   1.387   0.532  17.560 -1.9324 -3.3786 -2.2353
 4553SOL     OW25117   4.498   0.825   6.137 -0.0039  0.0474 -0.1438
 4553SOL    HW125118   4.572   0.767   6.157 -1.8720 -1.5515  2.1560
 4553SOL    HW225119   4.523   0.899   6.192 -1.5687 -0.5072  1.2923
 4554SOL     OW25120   0.085   1.847   3.936 -0.1754 -0.0162 -0.0640
 4554SOL    HW125121   0.134   1.925   3.962 -0.6880  0.2739  0.0385
 4554SOL    HW225122   0.080   1.856   3.841 -2.1342  1.9316  0.2470
 4555SOL     OW25123   0.609   3.204   0.222 -0.0518  0.0579  0.2362
 4555SOL    HW125124   0.532   3.239   0.267 -0.9563 -2.0024  0.3039
 4555SOL    HW225125   0.612   3.251   0.138  0.8466  1.1178  0.8629
 4556SOL     OW25126   1.968   3.522   0.174 -0.6130  0.5112  0.0513
 4556SOL    HW125127   2.053   3.516   0.219 -1.4800  3.1979  2.0624
 4556SOL    HW225128   1.910   3.544   0.247  0.5903  1.4437  0.7165
 4557SOL     OW25129   0.227   0.637  11.265  0.9240  0.1360  0.1400
 4557SOL    HW125130   0.145   0.598  11.235  0.2734  2.0840 -0.6090
 4557SOL    HW225131   0.280   0.560  11.245  2.4844  1.0751  0.7331
 4558SOL     OW25132   0.294   2.272   4.999  0.1410 -0.2291  0.6299
 4558SOL    HW125133   0.285   2.367   4.998  1.2234 -0.1215  1.5938
 4558SOL    HW225134   0.344   2.249   5.077 -0.8721 -0.2139  1.2832
 4559SOL     OW25135   2.255   0.450   5.271 -0.0399 -0.1189  0.3912
 4559SOL    HW125136   2.200   0.403   5.208 -0.6870  2.1367 -0.7238
 4559SOL    HW225137   2.205   0.530   5.282 -0.2233 -0.2534  0.5369
 4560SOL     OW25138   3.355   4.007  15.160 -0.1889  0.0289 -0.1842
 4560SOL    HW125139   3.288   3.939  15.156 -0.1606 -0.0934  1.2112
 4560SOL    HW225140   3.392   3.996  15.073 -0.6919 -0.8581 -0.2853
 4561SOL     OW25141   4.544   1.161   2.973 -0.3676  0.8928 -0.2369
 4561SOL    HW125142   4.568   1.071   2.953  0.6751  0.5973  2.2549
 4561SOL    HW225143   4.634   1.195   2.976 -1.0996  2.9418 -1.4420
 4562SOL     OW25144   3.647   1.732   9.135  0.1485 -0.3761 -0.1049
 4562SOL    HW125145   3.578   1.666   9.140  2.0426 -2.2225  1.9923
 4562SOL    HW225146   3.608   1.793   9.072  0.0774  0.0367  0.3436
 4563SOL     OW25147   1.998   1.205   2.761 -0.1137  0.3521  0.4438
 4563SOL    HW125148   1.908   1.187   2.787 -0.0782  2.3863  1.9507
 4563SOL    HW225149   2.008   1.147   2.685  1.5729  0.6310  0.4427
 4564SOL     OW25150   2.537   0.426   2.551 -0.5111  0.1182 -0.4076
 4564SOL    HW125151   2.626   0.402   2.525 -1.1637 -0.0570 -2.4649
 4564SOL    HW225152   2.495   0.409   2.467 -0.2639 -2.7124  0.0347
 4565SOL     OW25153   1.300   0.006   3.175 -0.8467  0.3921 -0.3573
 4565SOL    HW125154   1.322   4.665   3.104  0.7893 -1.2781  1.5348
 4565SOL    HW225155   1.253   0.068   3.120 -0.9126 -0.5120 -1.3270
 4566SOL     OW25156   4.652   3.295   8.258 -0.3270  0.1800 -0.5551
 4566SOL    HW125157   4.638   3.360   8.327  1.9323 -0.1067  0.1657
 4566SOL    HW225158   4.562   3.297   8.223  0.4313 -1.0695 -2.5874
 4567SOL     OW25159   3.371   3.365   3.655  0.1543  0.2795 -0.2531
 4567SOL    HW125160   3.293   3.418   3.669 -0.1672 -0.5402  1.0249
 4567SOL    HW225161   3.432   3.432   3.686 -0.8557  0.0696  2.1436
 4568SOL     OW25162   0.294   4.149   3.830  0.6373  0.0129 -0.3424
 4568SOL    HW125163   0.345   4.120   3.905  0.5619 -0.6788 -0.5585
 4568SOL    HW225164   0.319   4.242   3.831  0.5364  0.0402 -0.3013
 4569SOL     OW25165   1.135   2.102   8.371 -0.2559 -0.3099 -0.5731
 4569SOL    HW125166   1.078   2.179   8.370  0.9039  0.5995  1.6281
 4569SOL    HW225167   1.218   2.137   8.338 -0.4056  0.4874 -0.0971
 4570SOL     OW25168   1.651   1.513   2.309  0.2398 -0.2423 -0.2922
 4570SOL    HW125169   1.634   1.461   2.230  1.1675 -1.3760  0.2502
 4570SOL    HW225170   1.574   1.569   2.308  2.1186  2.4199  2.0263
 4571SOL     OW25171   3.246   3.111   3.079  0.4395  0.5652  0.3970
 4571SOL    HW125172   3.336   3.134   3.102  0.3917  0.9539  0.1818
 4571SOL    HW225173   3.199   3.194   3.076 -0.0230  0.2000 -2.9915
 4572SOL     OW25174   0.430   0.122   4.143 -0.4455  0.3651  0.6274
 4572SOL    HW125175   0.507   0.075   4.177  0.4721 -1.1771 -3.5052
 4572SOL    HW225176   0.474   0.166   4.070  1.0247  0.1963  1.3961
 4573SOL     OW25177   2.972   4.528  17.148 -0.4227 -0.1722  0.1914
 4573SOL    HW125178   2.908   4.596  17.165  0.2626  0.0513  1.8405
 4573SOL    HW225179   3.047   4.580  17.175  0.9918 -1.4696 -1.1789
 4574SOL     OW25180   4.614   2.205   0.712 -0.3487 -0.0659 -0.0630
 4574SOL    HW125181   4.522   2.229   0.725 -0.2262  1.8647 -2.8405
 4574SOL    HW225182   4.638   2.215   0.620  1.7792  0.2933  0.5246
 4575SOL     OW25183   3.173   3.884  10.084  0.1447  0.2239 -0.4896
 4575SOL    HW125184   3.195   3.893  10.176  2.5891  1.4416 -1.2022
 4575SOL    HW225185   3.077   3.888  10.086  0.0558 -1.6692 -1.0197
 4576SOL     OW25186   0.225   3.107   7.978 -0.2021  0.3402  0.5373
 4576SOL    HW125187   0.265   3.187   8.011  1.2339  0.1980 -0.8291
 4576SOL    HW225188   0.157   3.149   7.926  0.4228  0.6787 -0.0170
 4577SOL     OW25189   3.773   4.051  11.456  0.4620  0.0332 -0.5105
 4577SOL    HW125190   3.782   4.051  11.360  1.0745 -2.0609 -0.4669
 4577SOL    HW225191   3.679   4.045  11.468  0.1417 -0.7857 -3.3117
 4578SOL     OW25192   1.925   1.149   3.147 -0.5110  0.2916 -0.1080
 4578SOL    HW125193   1.841   1.170   3.187 -0.3699  0.3890  0.1371
 4578SOL    HW225194   1.908   1.148   3.053 -1.5760 -1.3622  0.1188
 4579SOL     OW25195   4.020   4.004   2.194 -0.1952 -0.3928  0.0034
 4579SOL    HW125196   3.957   4.070   2.223  1.6139  1.8117 -1.0114
 4579SOL    HW225197   3.971   3.960   2.124 -0.6139  1.1858 -0.6956
 4580SOL     OW25198   0.808   2.460   5.211  0.2570 -0.3233 -0.1002
 4580SOL    HW125199   0.724   2.504   5.194  0.8842  0.4609 -1.2077
 4580SOL    HW225200   0.803   2.436   5.304  0.7522 -0.4389 -0.1016
 4581SOL     OW25201   1.277   3.593  16.262 -0.6101  0.1496 -0.1595
 4581SOL    HW125202   1.372   3.602  16.268 -0.7650  0.7281  1.4977
 4581SOL    HW225203   1.251   3.684  16.246 -1.5182  0.0712  0.8684
 4582SOL     OW25204   2.796   0.132   5.915  0.1137 -0.2869 -0.3759
 4582SOL    HW125205   2.843   0.211   5.941 -0.7679 -0.6335  2.2732
 4582SOL    HW225206   2.714   0.147   5.963  0.0249  0.6351 -0.8256
 4583SOL     OW25207   3.393   0.084   5.638 -0.1216  0.5964 -0.3537
 4583SOL    HW125208   3.480   0.075   5.598 -0.2785  0.9526 -0.7761
 4583SOL    HW225209   3.343   0.104   5.559  0.0149  2.3854  0.0101
 4584SOL     OW25210   0.529   3.334   3.497  0.7252 -0.1623 -0.3825
 4584SOL    HW125211   0.465   3.376   3.554  2.0008 -0.3776  1.1999
 4584SOL    HW225212   0.604   3.301   3.548  0.9386 -1.4178 -1.4959
 4585SOL     OW25213   0.611   0.270  13.384  0.2372  0.3503  0.3371
 4585SOL    HW125214   0.553   0.272  13.460 -0.4462 -0.7241 -0.1596
 4585SOL    HW225215   0.683   0.231  13.433 -1.3988 -2.7329  0.2691
 4586SOL     OW25216   3.034   2.072   0.844 -0.1349  0.2978 -0.1158
 4586SOL    HW125217   3.022   1.983   0.877  0.0298  0.4928  0.4803
 4586SOL    HW225218   2.970   2.115   0.901  1.0470  3.6956 -1.4013
 4587SOL     OW25219   1.021   4.271   1.951  0.1759 -0.0195  0.1026
 4587SOL    HW125220   1.081   4.317   2.011  2.3689  0.9181 -2.7843
 4587SOL    HW225221   1.010   4.187   1.995  2.2024 -1.6275 -2.5215
 4588SOL     OW25222   0.991   0.487   3.976 -0.0302  0.1412 -0.3877
 4588SOL    HW125223   0.997   0.580   3.956 -2.7056  0.1586 -1.2375
 4588SOL    HW225224   0.896   0.490   3.990  0.0148  2.0693 -0.4388
 4589SOL     OW25225   3.794   2.514   0.144 -0.5946 -0.2299  0.1204
 4589SOL    HW125226   3.857   2.471   0.202  0.0600 -1.5118 -1.5699
 4589SOL    HW225227   3.729   2.534   0.212  2.5454  1.3477  2.6035
 4590SOL     OW25228   1.539   3.870   6.391  0.2397  0.0189 -0.5632
 4590SOL    HW125229   1.447   3.883   6.415 -0.0928  0.2528 -1.9220
 4590SOL    HW225230   1.527   3.780   6.360  0.5485 -0.4617  0.7272
 4591SOL     OW25231   3.688   3.373   6.017 -0.7045  0.2072  0.6059
 4591SOL    HW125232   3.650   3.459   6.032  1.0381  1.1032 -0.1251
 4591SOL    HW225233   3.727   3.392   5.932  1.8955  1.0678  1.9910
 4592SOL     OW25234   3.024   1.378   1.894  0.1902 -0.6957  0.6669
 4592SOL    HW125235   3.107   1.354   1.851  0.0808 -1.5488  0.9298
 4592SOL    HW225236   2.977   1.295   1.894  0.9017 -1.0956 -0.7568
 4593SOL     OW25237   0.785   4.541   9.985 -0.0843  0.8299  0.0741
 4593SOL    HW125238   0.731   4.482   9.931  2.8583  0.2828 -2.3063
 4593SOL    HW225239   0.775   4.492  10.067  0.3303 -0.7758 -0.8316
 4594SOL     OW25240   2.838   4.477  13.405 -0.4044  0.0572 -0.3556
 4594SOL    HW125241   2.807   4.536  13.336  0.0127 -1.7527 -2.0710
 4594SOL    HW225242   2.928   4.473  13.373 -0.5556 -2.5751 -0.4423
 4595SOL     OW25243   1.743   2.383   7.757 -0.0013  0.4063 -0.3081
 4595SOL    HW125244   1.809   2.399   7.825 -1.9428 -0.8078  1.8675
 4595SOL    HW225245   1.700   2.303   7.786  1.3183 -0.3329 -0.3958
 4596SOL     OW25246   4.234   2.345   6.374 -0.0366  0.3236  0.5141
 4596SOL    HW125247   4.192   2.366   6.458 -0.1920 -1.4147  0.8873
 4596SOL    HW225248   4.285   2.271   6.407 -0.2217 -0.1497 -0.2799
 4597SOL     OW25249   1.231   1.953   0.648  0.0004 -0.0218  0.3087
 4597SOL    HW125250   1.314   1.969   0.604  0.5999  0.0697  1.4631
 4597SOL    HW225251   1.174   1.916   0.581 -1.0886  1.3436  0.4817
 4598SOL     OW25252   1.704   3.216   7.968 -0.0155  0.0003 -0.1313
 4598SOL    HW125253   1.786   3.265   7.964 -0.2846  0.5092  0.8565
 4598SOL    HW225254   1.668   3.240   8.053 -1.2106 -1.5937 -0.1861
 4599SOL     OW25255   4.079   1.522   4.749 -0.0662 -0.3773 -0.1969
 4599SOL    HW125256   3.985   1.541   4.748 -0.0005 -0.0725 -1.7735
 4599SOL    HW225257   4.099   1.540   4.841 -0.8249  1.2717 -0.3535
 4600SOL     OW25258   4.358   2.304   0.722  0.1514 -0.3994  0.6375
 4600SOL    HW125259   4.312   2.320   0.640 -0.2694 -2.9086  0.3686
 4600SOL    HW225260   4.298   2.329   0.792  0.4320  0.4152  0.5827
 4601SOL     OW25261   0.101   1.176   4.888 -0.3394 -0.2275  0.1620
 4601SOL    HW125262   0.099   1.180   4.984 -0.1694 -3.2769  0.3043
 4601SOL    HW225263   0.147   1.093   4.880  2.2920  1.1707  0.9121
 4602SOL     OW25264   1.633   1.863  17.557  0.4433 -0.0523  0.5770
 4602SOL    HW125265   1.665   1.887  17.470  1.9222 -1.6464  0.6885
 4602SOL    HW225266   1.677   1.779  17.567  0.8620  0.1452  0.3745
 4603SOL     OW25267   4.291   1.999  10.196  0.3117  0.0088 -0.2918
 4603SOL    HW125268   4.205   1.987  10.155  1.1694  0.0584 -2.0838
 4603SOL    HW225269   4.320   2.064  10.131  3.1809 -0.3454  0.6329
 4604SOL     OW25270   0.618   1.562  11.947 -0.5954  0.4999  0.3353
 4604SOL    HW125271   0.705   1.602  11.939 -0.3197 -0.2859 -0.6112
 4604SOL    HW225272   0.585   1.573  11.858 -0.5321 -0.4604  0.1863
 4605SOL     OW25273   1.818   1.481   1.281  0.7787  0.4734  0.0243
 4605SOL    HW125274   1.734   1.494   1.236 -0.7167 -1.3937  2.2490
 4605SOL    HW225275   1.874   1.463   1.206 -0.6514  2.0104 -1.4138
 4606SOL     OW25276   2.363   3.782   3.599  0.3476 -0.1588 -0.5972
 4606SOL    HW125277   2.405   3.795   3.514  0.4388 -0.1523 -0.5512
 4606SOL    HW225278   2.364   3.872   3.633  0.9093  0.7822 -3.0545
 4607SOL     OW25279   4.217   2.168   4.925  0.1347 -1.1055 -0.5227
 4607SOL    HW125280   4.169   2.249   4.940 -0.4600 -1.1991 -2.0139
 4607SOL    HW225281   4.214   2.160   4.830  0.1101  1.9839 -0.7569
 4608SOL     OW25282   2.433   2.777   0.298 -0.2388  0.4424 -0.0913
 4608SOL    HW125283   2.440   2.872   0.307  1.3024  0.1429  1.7801
 4608SOL    HW225284   2.486   2.761   0.220  0.4242  0.0069  0.4494
 4609SOL     OW25285   1.244   3.592   8.702 -0.4864  0.5350  0.4649
 4609SOL    HW125286   1.217   3.502   8.684  2.3034 -0.3711  0.8917
 4609SOL    HW225287   1.225   3.635   8.618  0.5818 -1.6255 -0.8794
 4610SOL     OW25288   0.320   1.063   7.550  0.8729  0.0999  0.0347
 4610SOL    HW125289   0.252   1.035   7.611 -1.1939 -0.5183 -2.5270
 4610SOL    HW225290   0.293   1.009   7.475  0.1601  1.4529 -0.6946
 4611SOL     OW25291   1.275   2.400   7.749 -0.0909  0.1549  0.0815
 4611SOL    HW125292   1.230   2.444   7.677 -2.4028 -0.4551  1.1385
 4611SOL    HW225293   1.343   2.466   7.761 -0.4213  0.6326 -0.6663
 4612SOL     OW25294   4.427   0.315   5.502 -0.6759 -0.0333 -0.3102
 4612SOL    HW125295   4.364   0.377   5.465  0.3824  1.1130 -0.1745
 4612SOL    HW225296   4.428   0.334   5.596 -0.5942  0.4842 -0.4119
 4613SOL     OW25297   1.509   4.174   1.472 -0.5836  0.4163  0.2688
 4613SOL    HW125298   1.511   4.208   1.383 -0.5209  0.2647  0.2138
 4613SOL    HW225299   1.499   4.084   1.443  0.4745 -0.2055  1.7987
 4614SOL     OW25300   3.238   1.916   4.287  0.0305  0.0360  0.0544
 4614SOL    HW125301   3.173   1.982   4.311 -1.6051 -0.6073 -2.6736
 4614SOL    HW225302   3.294   1.961   4.224 -0.1540  1.6596  1.0379
 4615SOL     OW25303   3.005   3.024   5.486  0.6096  0.3710 -0.0025
 4615SOL    HW125304   3.091   3.064   5.499  0.9098 -0.1145 -0.4536
 4615SOL    HW225305   3.019   2.941   5.531 -0.6285  1.1795  1.8557
 4616SOL     OW25306   1.144   3.018   6.157 -0.2527  0.8124  0.4528
 4616SOL    HW125307   1.077   2.979   6.100 -0.4800 -1.4992  2.3016
 4616SOL    HW225308   1.211   2.952   6.138 -2.5265 -0.7375 -2.2271
 4617SOL     OW25309   3.445   1.583  14.651  0.1836  0.5331 -0.0596
 4617SOL    HW125310   3.447   1.638  14.729 -0.3005  2.1424 -1.1860
 4617SOL    HW225311   3.455   1.644  14.579 -1.0190  1.8470  0.8814
 4618SOL     OW25312   1.214   1.730   4.113 -0.9832 -0.1359 -0.5976
 4618SOL    HW125313   1.135   1.762   4.069 -1.0226  1.1676  0.3989
 4618SOL    HW225314   1.268   1.681   4.052  2.5836  0.4488  2.0749
 4619SOL     OW25315   2.686   3.737   7.307 -0.4820 -0.1771 -0.3888
 4619SOL    HW125316   2.738   3.782   7.241 -0.4872  0.3466 -0.0395
 4619SOL    HW225317   2.684   3.647   7.275 -2.0154 -0.7169  1.2417
 4620SOL     OW25318   1.151   1.970  17.581  0.6487 -0.5123 -0.4325
 4620SOL    HW125319   1.207   1.970  17.503  1.7105  2.3039  0.3146
 4620SOL    HW225320   1.229   1.961  17.636 -0.5077 -0.0247  1.2924
 4621SOL     OW25321   4.591   2.956  17.443 -0.6550  0.0903 -0.1871
 4621SOL    HW125322   4.527   2.995  17.503  2.0623  1.0519  2.0778
 4621SOL    HW225323   4.546   2.967  17.359 -1.5716  0.4290  0.3434
 4622SOL     OW25324   2.870   1.771   2.593 -0.1587 -0.3822 -0.4402
 4622SOL    HW125325   2.834   1.709   2.656 -0.4177 -1.9422 -2.1158
 4622SOL    HW225326   2.806   1.840   2.607  0.0248 -0.4605  0.8166
 4623SOL     OW25327   3.491   3.692   9.106  0.3013  0.0670  0.0206
 4623SOL    HW125328   3.479   3.759   9.174 -0.2866 -0.2903  0.2698
 4623SOL    HW225329   3.401   3.682   9.076  0.8186 -1.8045 -0.8787
 4624SOL     OW25330   3.123   2.653   7.819  0.0001  0.0373 -0.3452
 4624SOL    HW125331   3.177   2.574   7.821  0.2847  0.3376  3.1400
 4624SOL    HW225332   3.141   2.683   7.908  1.1341 -0.7242 -0.3078
 4625SOL     OW25333   0.728   2.387   4.575 -0.3097 -0.4270 -0.0479
 4625SOL    HW125334   0.720   2.337   4.494 -0.6011 -0.9362  0.2975
 4625SOL    HW225335   0.636   2.403   4.595  0.0920  2.0819 -0.1506
 4626SOL     OW25336   1.018   4.630  13.166  0.4815  0.7847 -0.4424
 4626SOL    HW125337   0.953   4.684  13.120  1.0394 -0.7433 -3.0449
 4626SOL    HW225338   1.096   4.672  13.129 -0.8567  0.8249 -3.2434
 4627SOL     OW25339   2.334   4.046   4.552  0.0115  0.5326  0.7577
 4627SOL    HW125340   2.275   4.050   4.476 -0.6997  2.2357  1.3984
 4627SOL    HW225341   2.388   3.968   4.539  0.4657  1.0210 -0.3007
 4628SOL     OW25342   0.464   1.404  12.134  0.0147  0.2945  0.0722
 4628SOL    HW125343   0.514   1.414  12.216  0.2413 -0.5950  0.0360
 4628SOL    HW225344   0.512   1.456  12.069  0.0057 -1.5580 -1.3964
 4629SOL     OW25345   2.014   2.936   8.888 -0.0574  0.1758 -0.4069
 4629SOL    HW125346   2.026   2.917   8.795  1.7596 -3.1050  0.5019
 4629SOL    HW225347   1.945   3.002   8.878  0.3151  0.8875  1.7521
 4630SOL     OW25348   2.297   2.515   4.540 -0.1881 -0.0334  0.3184
 4630SOL    HW125349   2.206   2.544   4.539 -0.3649 -0.5489  1.3537
 4630SOL    HW225350   2.313   2.450   4.608  1.4428 -1.1019 -1.0744
 4631SOL     OW25351   1.222   0.533  10.780 -0.6086  0.4787 -0.0193
 4631SOL    HW125352   1.241   0.445  10.749 -0.9644 -0.0566  1.2853
 4631SOL    HW225353   1.278   0.583  10.720  0.0156  0.8081  0.8284
 4632SOL     OW25354   1.237   4.349  17.068  0.1326  0.1433  0.4492
 4632SOL    HW125355   1.195   4.325  16.985  0.2782 -2.3959  1.1254
 4632SOL    HW225356   1.266   4.268  17.109 -0.2789 -0.8549 -1.2478
 4633SOL     OW25357   0.868   3.521   5.127  0.6994  0.0199  0.0512
 4633SOL    HW125358   0.779   3.502   5.099  1.4407  1.5661 -3.3654
 4633SOL    HW225359   0.882   3.597   5.070 -2.0887 -0.3253 -1.0850
 4634SOL     OW25360   0.717   2.036  12.114 -0.3671  0.0011 -0.0436
 4634SOL    HW125361   0.641   2.002  12.162 -0.0184 -0.0733  0.4479
 4634SOL    HW225362   0.792   2.027  12.171 -0.1758 -0.0961 -0.3098
 4635SOL     OW25363   3.890   2.598   4.808 -0.1510 -0.1348  0.4001
 4635SOL    HW125364   3.799   2.603   4.838  0.0798 -2.4337  1.4842
 4635SOL    HW225365   3.920   2.689   4.799  0.1530 -0.2109  0.6750
 4636SOL     OW25366   2.900   4.284   8.722  0.0177  0.5118  0.0062
 4636SOL    HW125367   2.921   4.281   8.815 -1.9945  1.5887  0.4906
 4636SOL    HW225368   2.987   4.310   8.694  0.6254 -0.0793  1.3825
 4637SOL     OW25369   2.968   2.907   5.246 -0.7810  0.0332  0.2709
 4637SOL    HW125370   2.943   2.828   5.294  1.1961 -0.7534 -0.0266
 4637SOL    HW225371   2.989   2.969   5.316  2.1206 -1.9104  1.1150
 4638SOL     OW25372   0.206   2.375   1.428  0.0183 -0.3558  0.3006
 4638SOL    HW125373   0.158   2.301   1.462 -0.0988 -0.5877 -0.3713
 4638SOL    HW225374   0.136   2.440   1.421  1.2592  1.0251  0.5370
 4639SOL     OW25375   3.462   2.204   7.853 -0.0275  0.4488  0.1522
 4639SOL    HW125376   3.436   2.259   7.927 -1.7348  1.2118 -1.0199
 4639SOL    HW225377   3.421   2.123   7.884 -1.9639  2.2216  2.2705
 4640SOL     OW25378   0.506   1.127   8.489 -0.4181 -0.1700  0.3364
 4640SOL    HW125379   0.492   1.032   8.483 -1.9455  0.1653 -1.3418
 4640SOL    HW225380   0.429   1.159   8.443  0.3137  1.3321  0.1500
 4641SOL     OW25381   4.339   0.303   8.798  0.0469  0.0649  0.2612
 4641SOL    HW125382   4.250   0.323   8.829  0.5931  0.8260  1.3620
 4641SOL    HW225383   4.316   0.220   8.757  1.0012 -0.5959  1.0627
 4642SOL     OW25384   1.361   4.255   7.332 -0.2602  0.4539  0.0268
 4642SOL    HW125385   1.421   4.303   7.275 -0.4712  2.4268  1.4580
 4642SOL    HW225386   1.348   4.179   7.275 -0.8691  1.1843 -0.7994
 4643SOL     OW25387   3.179   4.154  11.418 -0.9742  0.1431 -0.4164
 4643SOL    HW125388   3.132   4.237  11.425  0.3701  0.8874 -0.1819
 4643SOL    HW225389   3.242   4.177  11.349 -1.4622 -1.7038 -1.4842
 4644SOL     OW25390   0.040   4.474  17.213 -0.2414  0.4848 -0.1280
 4644SOL    HW125391   0.071   4.449  17.126 -0.3480 -1.2099  0.3226
 4644SOL    HW225392   0.113   4.527  17.245 -0.2878  2.2323 -2.9011
 4645SOL     OW25393   4.487   2.996   4.510 -0.1162 -0.4838  0.4849
 4645SOL    HW125394   4.504   2.919   4.455  0.3477 -0.9671  1.2951
 4645SOL    HW225395   4.577   3.030   4.509 -1.1581  2.1995  0.4249
 4646SOL     OW25396   2.198   2.315   9.101  1.0517 -0.3610 -0.3847
 4646SOL    HW125397   2.187   2.316   9.006 -0.2310 -0.0325 -0.2278
 4646SOL    HW225398   2.151   2.393   9.132 -0.7898 -1.4579 -0.4386
 4647SOL     OW25399   0.518   2.406   4.054 -0.0151 -0.3886  0.5257
 4647SOL    HW125400   0.564   2.487   4.033 -1.2628  0.3921  0.8158
 4647SOL    HW225401   0.554   2.390   4.141 -0.2978 -0.3983  0.6401
 4648SOL     OW25402   2.806   4.445   3.973 -0.3394  0.3612  0.1232
 4648SOL    HW125403   2.803   4.351   3.959 -1.4349  0.7393 -2.2266
 4648SOL    HW225404   2.874   4.453   4.040 -0.5385 -1.2363  0.5141
 4649SOL     OW25405   1.601   3.618  15.608  0.3220  0.6547  0.1004
 4649SOL    HW125406   1.627   3.568  15.531 -0.7901  0.9459 -0.4720
 4649SOL    HW225407   1.560   3.544  15.653 -0.3477  0.9673  0.0084
 4650SOL     OW25408   2.680   3.242  11.047 -0.1547  0.3457  0.4477
 4650SOL    HW125409   2.630   3.324  11.044  1.1120  1.0830 -0.5669
 4650SOL    HW225410   2.695   3.226  11.141  0.0637 -0.0129  0.3519
 4651SOL     OW25411   0.111   1.837   7.365 -0.1873  0.0132 -0.2598
 4651SOL    HW125412   0.049   1.769   7.338 -1.7082 -0.0905  3.5992
 4651SOL    HW225413   0.054   1.895   7.416  0.1569  0.5570 -0.4894
 4652SOL     OW25414   1.140   4.647   7.418  0.0996  0.8575  0.0988
 4652SOL    HW125415   1.116   4.641   7.325  0.8392 -1.9167  0.0693
 4652SOL    HW225416   1.170   4.557   7.434 -0.9513  1.2399  4.0786
 4653SOL     OW25417   2.490   4.698  12.923 -0.4930 -0.4483 -0.2668
 4653SOL    HW125418   2.584   4.708  12.910 -0.2726 -0.1718  1.4977
 4653SOL    HW225419   2.488   4.605  12.900  1.8876  0.1019 -2.6594
 4654SOL     OW25420   0.582   4.266   6.533 -0.2755 -0.5223  0.0070
 4654SOL    HW125421   0.536   4.182   6.540  3.3027 -2.3213  1.3213
 4654SOL    HW225422   0.607   4.270   6.440  0.6720 -1.4524  0.2249
 4655SOL     OW25423   1.481   2.326   3.507  0.7180  0.3798 -0.2216
 4655SOL    HW125424   1.390   2.306   3.484  0.0106  0.9465  2.1706
 4655SOL    HW225425   1.508   2.378   3.431 -1.6518  1.3045 -0.4368
 4656SOL     OW25426   1.711   3.931  10.114  0.5406 -0.2189  0.1614
 4656SOL    HW125427   1.674   3.843  10.116 -1.4334  0.5905 -0.8758
 4656SOL    HW225428   1.755   3.935  10.198 -1.1304 -2.0991  1.1302
 4657SOL     OW25429   2.081   4.571  12.646 -0.8456 -0.2209  0.1066
 4657SOL    HW125430   2.115   4.498  12.698  3.7825  1.2425 -0.8603
 4657SOL    HW225431   2.002   4.593  12.694  0.4930  0.6601  1.9046
 4658SOL     OW25432   3.908   4.203  10.323  0.0242  0.2088 -0.1826
 4658SOL    HW125433   4.003   4.208  10.325 -0.0072  0.8392 -0.4061
 4658SOL    HW225434   3.879   4.211  10.232 -3.0135 -0.8303  0.6823
 4659SOL     OW25435   4.560   0.989  15.060  0.0082  0.5750  0.0391
 4659SOL    HW125436   4.527   0.901  15.044  0.7885 -0.0092  1.5812
 4659SOL    HW225437   4.477   1.036  15.058 -0.0274  0.5586  0.9612
 4660SOL     OW25438   3.305   2.371   0.070  0.1793  0.0307 -0.0681
 4660SOL    HW125439   3.237   2.323   0.117 -0.3551  0.6908 -0.1739
 4660SOL    HW225440   3.335   2.428   0.141  0.9058 -2.4341  1.6429
 4661SOL     OW25441   0.138   1.221   1.915  0.3866 -0.5238 -0.7174
 4661SOL    HW125442   0.228   1.199   1.889  0.9296  0.4756  0.3212
 4661SOL    HW225443   0.121   1.273   1.837 -0.7086 -0.6934 -0.5811
 4662SOL     OW25444   0.940   1.187   6.225  0.2369  0.2514 -0.5604
 4662SOL    HW125445   0.954   1.282   6.231  1.6085  0.1209 -1.7874
 4662SOL    HW225446   0.859   1.179   6.174  0.1210 -1.2087 -0.1375
 4663SOL     OW25447   4.268   0.701   6.070 -0.0645 -0.4043 -0.1823
 4663SOL    HW125448   4.214   0.754   6.129 -2.3006 -0.5759 -2.0912
 4663SOL    HW225449   4.352   0.746   6.082  0.1081 -1.3435  2.1648
 4664SOL     OW25450   2.907   2.505   3.906 -0.1817  0.4276  0.1369
 4664SOL    HW125451   2.880   2.595   3.889 -0.5652  0.2389 -0.2296
 4664SOL    HW225452   3.002   2.521   3.903 -0.2253  0.7771  0.5158
 4665SOL     OW25453   3.606   1.627  10.271  0.1473  0.0859  0.2426
 4665SOL    HW125454   3.552   1.706  10.265 -0.0429  0.0499  1.6804
 4665SOL    HW225455   3.678   1.655  10.327 -0.5310  0.4865  0.9083
 4666SOL     OW25456   1.455   1.140   3.220  0.3229  0.4651  0.1550
 4666SOL    HW125457   1.522   1.208   3.215  0.5059  0.1854 -1.2573
 4666SOL    HW225458   1.405   1.162   3.299  2.6560 -1.4711  2.1756
 4667SOL     OW25459   1.627   0.473   5.033  0.7236  0.0915 -0.1178
 4667SOL    HW125460   1.540   0.440   5.010  0.7091 -1.5713  2.2704
 4667SOL    HW225461   1.676   0.391   5.024  0.3407 -0.0302 -1.1013
 4668SOL     OW25462   0.923   0.082  10.012 -0.2871  0.0471 -0.2953
 4668SOL    HW125463   0.935   0.089   9.917  1.7169 -0.4743 -0.0768
 4668SOL    HW225464   0.856   0.015  10.020  1.1786 -1.1230  2.3263
 4669SOL     OW25465   3.042   2.991   9.000 -0.6566 -0.1036  0.2432
 4669SOL    HW125466   3.072   2.900   9.000 -0.9082 -0.1830 -0.5391
 4669SOL    HW225467   2.976   2.971   9.067 -0.3264 -0.0424  0.5908
 4670SOL     OW25468   0.249   1.981  17.580 -0.5894  0.2648 -0.1244
 4670SOL    HW125469   0.196   1.961  17.657  1.5407 -1.6642  0.8346
 4670SOL    HW225470   0.312   2.036  17.626 -1.1459  1.3886 -0.7123
 4671SOL     OW25471   1.135   4.122   3.862  0.5283 -0.3583  0.3386
 4671SOL    HW125472   1.055   4.091   3.906 -0.4193  0.4491 -0.8395
 4671SOL    HW225473   1.186   4.130   3.943  0.0918 -3.2665  0.9366
 4672SOL     OW25474   1.356   4.475   6.702 -0.2043  0.2814  0.1219
 4672SOL    HW125475   1.331   4.564   6.678 -0.3827  0.3832  0.6786
 4672SOL    HW225476   1.323   4.477   6.792  0.1852  0.2098  0.2653
 4673SOL     OW25477   1.843   1.645   2.846 -0.1742  0.2441  0.4236
 4673SOL    HW125478   1.817   1.564   2.802 -1.2140  0.3402  0.8459
 4673SOL    HW225479   1.824   1.709   2.778 -2.4736 -0.0530  0.7650
 4674SOL     OW25480   2.938   1.113   1.846 -0.8481  0.0988  0.8494
 4674SOL    HW125481   2.886   1.032   1.846 -1.2035  0.3249  1.5062
 4674SOL    HW225482   3.022   1.072   1.866 -0.9000  1.1128  3.1613
 4675SOL     OW25483   1.265   3.959  10.974  0.1844  0.4122 -0.0946
 4675SOL    HW125484   1.255   3.929  11.065 -0.7885  0.0383 -0.3190
 4675SOL    HW225485   1.337   3.901  10.950  1.6164  1.3529  1.8834
 4676SOL     OW25486   2.141   0.306  12.299  0.1007 -0.0264 -0.4131
 4676SOL    HW125487   2.122   0.395  12.330  2.1305  0.4588 -0.5655
 4676SOL    HW225488   2.228   0.287  12.335  0.3720 -0.7747 -1.4386
 4677SOL     OW25489   1.161   3.262   1.994  0.0716  0.1938 -0.2414
 4677SOL    HW125490   1.141   3.354   1.979 -2.1020 -0.5231 -1.7721
 4677SOL    HW225491   1.082   3.212   1.971 -1.0654  1.2712  1.2848
 4678SOL     OW25492   2.939   2.260   8.927  0.0346 -0.6219 -0.8219
 4678SOL    HW125493   2.845   2.245   8.918 -0.3205  0.4842  0.9366
 4678SOL    HW225494   2.943   2.261   9.023 -0.9133  2.1836 -0.8025
 4679SOL     OW25495   1.469   1.139   8.266 -0.7511 -0.0057 -0.0455
 4679SOL    HW125496   1.520   1.170   8.341  0.5945 -0.7087 -0.6504
 4679SOL    HW225497   1.529   1.067   8.243 -1.1665 -1.1299  2.3704
 4680SOL     OW25498   4.407   3.518   0.741  0.3551  0.4829  0.1184
 4680SOL    HW125499   4.426   3.589   0.802 -0.0827  0.2053  0.5714
 4680SOL    HW225500   4.482   3.460   0.753 -0.4932 -0.5608  0.2947
 4681SOL     OW25501   2.500   1.236  10.551  0.1136  0.6381  0.0758
 4681SOL    HW125502   2.472   1.277  10.633 -0.8228  0.3370 -0.0932
 4681SOL    HW225503   2.590   1.228  10.584  0.4597  3.1136 -0.2698
 4682SOL     OW25504   0.547   0.665   4.205 -0.2297  0.1388  0.8429
 4682SOL    HW125505   0.579   0.667   4.295  1.7586  1.4712  0.1078
 4682SOL    HW225506   0.495   0.746   4.203  0.0771  0.3249  0.0781
 4683SOL     OW25507   4.159   0.874   2.405 -0.3884 -0.3551  0.2751
 4683SOL    HW125508   4.195   0.962   2.402  0.4876 -0.6449  2.2626
 4683SOL    HW225509   4.191   0.850   2.317  1.2104 -0.7174  0.9480
 4684SOL     OW25510   2.707   0.545   5.656 -0.2544 -0.3285  0.0546
 4684SOL    HW125511   2.715   0.450   5.665  1.0793 -0.3979 -2.0108
 4684SOL    HW225512   2.613   0.562   5.657 -0.4661 -1.5520  1.8989
 4685SOL     OW25513   4.314   4.448  10.029  0.0174 -0.5057  0.4092
 4685SOL    HW125514   4.397   4.481   9.994 -0.6375  2.4440  1.6619
 4685SOL    HW225515   4.251   4.499   9.979 -1.1499 -2.1296  0.2150
 4686SOL     OW25516   0.213   3.291   0.748  0.1273 -0.0553  0.8836
 4686SOL    HW125517   0.218   3.202   0.783 -2.1379 -1.0947 -1.4748
 4686SOL    HW225518   0.302   3.325   0.760 -0.2655  1.3504 -0.2701
 4687SOL     OW25519   1.698   0.970   8.224 -0.1211 -0.2528 -0.3264
 4687SOL    HW125520   1.702   0.962   8.129  0.9115  0.5577 -0.3554
 4687SOL    HW225521   1.761   1.042   8.231  0.4172 -0.5209 -2.3975
 4688SOL     OW25522   4.120   2.795   2.414  0.0169 -0.4741 -0.2073
 4688SOL    HW125523   4.148   2.880   2.380  1.7840 -1.2726 -0.7468
 4688SOL    HW225524   4.161   2.749   2.341 -0.4928 -2.9386  1.0366
 4689SOL     OW25525   2.045   2.896   4.350 -0.0885 -0.0843  0.4290
 4689SOL    HW125526   1.966   2.949   4.337  0.7313  1.2730  0.9961
 4689SOL    HW225527   2.019   2.854   4.432  1.5807  1.3473  1.6840
 4690SOL     OW25528   1.331   4.632   4.178 -0.2939 -0.3081  0.1952
 4690SOL    HW125529   1.385   4.706   4.206 -0.0686 -0.9171  1.3818
 4690SOL    HW225530   1.354   4.630   4.085 -0.0663  1.0616  0.2317
 4691SOL     OW25531   0.858   1.769   4.547 -0.4512 -0.2551 -0.0760
 4691SOL    HW125532   0.878   1.732   4.633 -0.4853  3.3212  1.4558
 4691SOL    HW225533   0.772   1.738   4.517 -0.9488  0.6423  0.4525
 4692SOL     OW25534   2.558   2.962   3.528  0.5795 -0.1196 -0.3430
 4692SOL    HW125535   2.646   3.000   3.522  0.3006  0.6606  0.4702
 4692SOL    HW225536   2.531   2.960   3.436 -4.8881 -3.3923  1.2880
 4693SOL     OW25537   0.594   0.503   0.256  0.5756 -0.0377 -0.7429
 4693SOL    HW125538   0.536   0.443   0.209  0.5379 -0.0051 -0.7376
 4693SOL    HW225539   0.590   0.580   0.199 -1.3421  1.3588  1.2892
 4694SOL     OW25540   3.873   3.320  13.726 -0.0292 -0.0184  0.4436
 4694SOL    HW125541   3.782   3.350  13.733 -0.5056 -1.4974  0.6194
 4694SOL    HW225542   3.871   3.311  13.630 -0.4636  0.7324  0.3817
 4695SOL     OW25543   3.137   3.170   7.612  0.0043 -0.3827 -0.9648
 4695SOL    HW125544   3.092   3.153   7.529  2.5046 -1.5520 -2.0685
 4695SOL    HW225545   3.106   3.095   7.663  0.7019 -2.1394 -3.1359
 4696SOL     OW25546   4.289   1.102   3.727 -0.8180  0.3926  0.0292
 4696SOL    HW125547   4.236   1.181   3.738  1.3355  1.5930  1.8267
 4696SOL    HW225548   4.315   1.112   3.635  0.0171  2.2968  0.4809
 4697SOL     OW25549   1.766   2.604   2.713 -0.4481 -1.1646  0.2474
 4697SOL    HW125550   1.703   2.614   2.641 -0.0058  0.6072  0.0905
 4697SOL    HW225551   1.835   2.662   2.680 -1.4206 -0.5936 -0.7918
 4698SOL     OW25552   2.172   4.424  13.994 -0.7636 -0.3182  0.2930
 4698SOL    HW125553   2.207   4.488  14.056 -1.5612  0.9299 -0.5490
 4698SOL    HW225554   2.249   4.387  13.950 -0.6210 -0.4184  0.6307
 4699SOL     OW25555   2.655   1.936   2.559 -0.3463  0.3657 -0.0285
 4699SOL    HW125556   2.615   1.892   2.634  2.4953 -0.6523  0.8660
 4699SOL    HW225557   2.587   1.928   2.492  1.1412 -2.1504 -1.2303
 4700SOL     OW25558   2.876   0.906   6.023  0.1361 -0.2706 -0.1281
 4700SOL    HW125559   2.900   0.956   5.945 -0.2595  0.3497  0.1504
 4700SOL    HW225560   2.793   0.948   6.043  0.0627  0.6089 -2.2584
 4701SOL     OW25561   2.794   3.579  15.281  0.6282 -0.4092  0.5407
 4701SOL    HW125562   2.709   3.623  15.280  0.2228 -1.2225  0.0068
 4701SOL    HW225563   2.844   3.624  15.349  0.3815  0.4786  0.1401
 4702SOL     OW25564   2.164   3.065  10.429  0.1443 -0.1144  0.0993
 4702SOL    HW125565   2.221   3.026  10.363  0.5124 -0.6878  0.7475
 4702SOL    HW225566   2.160   3.156  10.402 -0.2172  0.1202  0.9257
 4703SOL     OW25567   0.908   2.087   6.325  0.1281  1.0277  0.0147
 4703SOL    HW125568   0.844   2.051   6.387  2.4979 -0.6975  1.4521
 4703SOL    HW225569   0.853   2.109   6.249  0.0945  0.8891 -0.0013
 4704SOL     OW25570   0.597   1.306  14.971 -0.2866  0.4521 -0.5503
 4704SOL    HW125571   0.597   1.299  14.876  0.4588 -1.5134 -0.3972
 4704SOL    HW225572   0.505   1.288  14.990  0.9782 -3.0085  2.3304
 4705SOL     OW25573   1.886   3.560   0.434 -0.3072  0.3331 -0.2108
 4705SOL    HW125574   1.806   3.509   0.445  1.3558 -2.4670 -1.2812
 4705SOL    HW225575   1.910   3.557   0.527  3.0738  0.4964 -1.0759
 4706SOL     OW25576   3.218   1.228  11.085  0.1699  0.3250 -0.1585
 4706SOL    HW125577   3.179   1.150  11.046 -2.9730  0.4099  2.8490
 4706SOL    HW225578   3.148   1.288  11.058 -0.4292 -0.4555 -0.3471
 4707SOL     OW25579   3.299   1.029  11.447 -0.2295  0.2818  0.0254
 4707SOL    HW125580   3.252   1.102  11.406 -0.2266 -0.7012 -1.7194
 4707SOL    HW225581   3.368   1.001  11.387 -0.0142  0.6101  0.1139
 4708SOL     OW25582   1.460   3.920   5.998  0.1337  0.3081  0.2195
 4708SOL    HW125583   1.378   3.911   6.047  0.1368  1.0550  0.3600
 4708SOL    HW225584   1.451   4.002   5.949 -2.2660 -1.1053 -1.6872
 4709SOL     OW25585   0.366   3.473   4.687 -0.1608 -0.5047 -0.2181
 4709SOL    HW125586   0.435   3.531   4.654 -1.7975  1.4608 -0.1950
 4709SOL    HW225587   0.295   3.536   4.691 -0.8277 -1.1828 -1.3186
 4710SOL     OW25588   0.452   0.092   9.367  0.3386 -0.0527  0.0260
 4710SOL    HW125589   0.396   0.141   9.427  0.4823  2.0129 -1.5136
 4710SOL    HW225590   0.539   0.111   9.402 -0.0273  1.8510 -0.0868
 4711SOL     OW25591   4.504   4.195   8.772 -0.2122  0.0924 -0.6028
 4711SOL    HW125592   4.453   4.255   8.717 -1.4981 -1.1366 -0.7322
 4711SOL    HW225593   4.519   4.249   8.850 -2.0857 -1.7235  1.0254
 4712SOL     OW25594   4.200   0.465  11.537 -0.0975 -0.2828  0.3725
 4712SOL    HW125595   4.131   0.415  11.580  1.0946 -1.4433  0.9086
 4712SOL    HW225596   4.274   0.410  11.562 -0.6107 -1.1312  0.0328
 4713SOL     OW25597   0.289   2.471  11.571 -0.5470  0.3580  0.0787
 4713SOL    HW125598   0.195   2.480  11.555 -0.3625  1.2340 -0.5592
 4713SOL    HW225599   0.297   2.382  11.535 -2.1703 -0.0386  0.7051
 4714SOL     OW25600   4.411   0.467  10.954  0.2505  0.1594  0.0616
 4714SOL    HW125601   4.420   0.398  11.019  1.4030  0.4936  0.2635
 4714SOL    HW225602   4.369   0.426  10.878  1.8996 -0.9375 -0.2519
 4715SOL     OW25603   2.328   3.406  16.687 -0.3659  0.1997  0.0572
 4715SOL    HW125604   2.358   3.477  16.630 -0.3767  1.0417  1.1023
 4715SOL    HW225605   2.407   3.353  16.697 -1.2259 -1.2893 -0.8719
 4716SOL     OW25606   2.498   1.628  13.402  0.2802 -0.0078 -0.4356
 4716SOL    HW125607   2.443   1.556  13.373  1.1385 -0.3975 -1.1061
 4716SOL    HW225608   2.513   1.595  13.490 -1.2660 -2.3007 -1.0332
 4717SOL     OW25609   4.556   2.166   6.715  0.0311  0.0543  0.0280
 4717SOL    HW125610   4.598   2.084   6.741 -0.2703  0.1041  0.6785
 4717SOL    HW225611   4.576   2.213   6.796  1.3975  1.0882 -0.9147
 4718SOL     OW25612   0.670   3.898   2.098 -0.4645 -0.2032 -0.0142
 4718SOL    HW125613   0.694   3.852   2.179  3.0187 -0.8287 -1.3884
 4718SOL    HW225614   0.598   3.954   2.127  0.5294  0.3831  1.3300
 4719SOL     OW25615   3.587   2.452   8.869  0.6122 -0.4231  0.5487
 4719SOL    HW125616   3.618   2.526   8.921  1.9125 -0.7572  0.2495
 4719SOL    HW225617   3.662   2.392   8.874  1.4690  0.4406 -1.6100
 4720SOL     OW25618   0.904   2.166   5.837  0.5910  0.1112 -0.4933
 4720SOL    HW125619   0.946   2.192   5.919 -0.5767  1.6305 -0.3669
 4720SOL    HW225620   0.825   2.220   5.831  1.2753  1.4162  1.9770
 4721SOL     OW25621   2.917   0.096   0.360 -0.0505  0.3554  0.1795
 4721SOL    HW125622   2.930   0.004   0.337  0.0150  0.0607  1.3852
 4721SOL    HW225623   2.993   0.135   0.317 -0.6958 -0.7485 -1.9267
 4722SOL     OW25624   2.195   3.001  14.040  0.3797 -0.1963 -0.1885
 4722SOL    HW125625   2.203   2.920  14.091 -1.8721  0.2662  0.8870
 4722SOL    HW225626   2.099   3.007  14.042  0.3630 -0.6367  0.4072
 4723SOL     OW25627   4.093   2.955   1.995  0.4404 -0.4255 -0.4069
 4723SOL    HW125628   4.143   3.023   1.949 -0.0886  1.5307  1.9192
 4723SOL    HW225629   4.041   2.923   1.922  1.7551 -0.7332 -1.2214
 4724SOL     OW25630   3.761   3.340   3.347  0.4604 -0.3513 -0.1952
 4724SOL    HW125631   3.696   3.402   3.314  0.1324  0.5973  2.2503
 4724SOL    HW225632   3.836   3.374   3.297 -0.7390  3.3158  0.4985
 4725SOL     OW25633   0.465   0.898  10.651 -0.2427  0.5972  0.1187
 4725SOL    HW125634   0.420   0.906  10.736 -1.0468  0.8735 -0.3306
 4725SOL    HW225635   0.443   0.974  10.597  1.5982  1.4104  0.5155
 4726SOL     OW25636   0.444   2.547   2.701  0.3752  0.0283 -0.6481
 4726SOL    HW125637   0.357   2.510   2.718 -0.6339  2.0438 -1.3872
 4726SOL    HW225638   0.504   2.473   2.700 -1.5606 -1.4770 -3.4576
 4727SOL     OW25639   3.712   4.034   6.614  0.9249 -0.2251 -0.2514
 4727SOL    HW125640   3.678   4.123   6.627 -1.3956 -1.1249 -0.2020
 4727SOL    HW225641   3.733   4.035   6.521  2.8119  1.6506  0.1717
 4728SOL     OW25642   1.877   0.907   6.314 -0.8986 -0.8312  0.2793
 4728SOL    HW125643   1.894   0.892   6.407  1.2109  0.9149  0.1885
 4728SOL    HW225644   1.967   0.920   6.284 -1.5784 -2.0568 -2.3206
 4729SOL     OW25645   0.033   3.177  15.979  0.3091  0.0941 -0.4328
 4729SOL    HW125646   0.013   3.166  16.072  0.0415 -2.2378 -0.7633
 4729SOL    HW225647   0.127   3.175  15.960  0.0987 -0.9445 -1.3759
 4730SOL     OW25648   3.202   2.697   4.274  0.3207 -0.4918  0.2700
 4730SOL    HW125649   3.178   2.694   4.366 -0.1072  0.0425  0.1779
 4730SOL    HW225650   3.258   2.773   4.260 -0.3365 -0.3733 -1.7965
 4731SOL     OW25651   4.349   0.856   2.909  0.1925  0.2047  0.0688
 4731SOL    HW125652   4.285   0.899   2.966  0.6865 -1.1448  1.6590
 4731SOL    HW225653   4.312   0.768   2.919 -1.5424  1.0539  1.3135
 4732SOL     OW25654   2.151   3.051  16.287 -0.1915  0.2235  0.0849
 4732SOL    HW125655   2.058   3.040  16.305 -0.5097  1.2738 -0.8815
 4732SOL    HW225656   2.189   3.055  16.374  2.4621  0.4305 -1.0877
 4733SOL     OW25657   2.587   3.748   1.070  0.4328 -0.0621  0.6543
 4733SOL    HW125658   2.570   3.668   1.120 -1.3036 -0.8364 -1.1619
 4733SOL    HW225659   2.596   3.713   0.981 -2.8785  0.2114  0.2059
 4734SOL     OW25660   3.989   3.494   2.878 -0.7522  0.2370  0.0701
 4734SOL    HW125661   4.001   3.402   2.903 -1.0066  0.0003 -0.6761
 4734SOL    HW225662   4.020   3.498   2.787 -0.9106 -0.8550 -0.0375
 4735SOL     OW25663   0.792   4.655  13.777  0.1507 -0.4154  0.1121
 4735SOL    HW125664   0.869   4.601  13.795 -0.5526 -0.8594  1.7405
 4735SOL    HW225665   0.742   4.646  13.858 -2.1488  2.3019 -1.0042
 4736SOL     OW25666   1.201   2.863   1.698  0.4486 -0.0184  0.4480
 4736SOL    HW125667   1.169   2.952   1.708 -1.3794 -0.4662 -1.4082
 4736SOL    HW225668   1.121   2.810   1.688  0.4881 -0.4989  2.6006
 4737SOL     OW25669   4.485   2.913   6.744  0.4103 -0.1071 -0.1025
 4737SOL    HW125670   4.461   2.834   6.792 -0.8935  0.7868  0.7021
 4737SOL    HW225671   4.550   2.945   6.806  1.0188  0.3100 -0.9638
 4738SOL     OW25672   1.453   4.108   1.841 -0.3686  0.6475  0.3462
 4738SOL    HW125673   1.365   4.099   1.877 -0.2648  0.6072  0.5933
 4738SOL    HW225674   1.445   4.158   1.760 -0.7225 -1.6474 -1.0294
 4739SOL     OW25675   4.049   3.291   2.049 -0.0073  0.5769 -0.2899
 4739SOL    HW125676   4.074   3.246   1.968  3.6167  0.4174  0.9037
 4739SOL    HW225677   3.954   3.286   2.039 -0.1580  2.0412  0.5309
 4740SOL     OW25678   4.611   3.207   6.973 -0.4883  0.2905 -0.2074
 4740SOL    HW125679   4.588   3.255   6.893 -2.3170 -0.0773  0.0924
 4740SOL    HW225680   4.707   3.213   6.969 -0.3618 -2.0877 -1.1124
 4741SOL     OW25681   3.543   2.198   4.450  0.0988 -0.2823 -0.8443
 4741SOL    HW125682   3.469   2.147   4.485  1.2077 -1.0329  0.4252
 4741SOL    HW225683   3.495   2.277   4.424 -1.7841 -0.3004  2.4813
 4742SOL     OW25684   2.380   1.580   3.977  0.3492  0.3252 -0.2092
 4742SOL    HW125685   2.346   1.654   3.927 -1.3918 -0.4542 -0.1846
 4742SOL    HW225686   2.302   1.535   4.009 -0.1498  1.9759  0.9197
 4743SOL     OW25687   4.702   2.388  10.143 -0.2973  0.0058 -0.2920
 4743SOL    HW125688   4.624   2.429  10.105  0.9832  2.3860 -0.3845
 4743SOL    HW225689   4.680   2.389  10.236  1.2646 -0.8811  0.0827
 4744SOL     OW25690   2.120   1.185  10.215 -0.3625 -0.4966  0.1209
 4744SOL    HW125691   2.095   1.097  10.185 -0.3155  0.7153 -3.3309
 4744SOL    HW225692   2.092   1.240  10.143  2.0161  1.3914  0.6618
 4745SOL     OW25693   0.195   3.792   4.149 -1.1159  0.6335 -0.3918
 4745SOL    HW125694   0.227   3.873   4.188 -0.3424  0.6787 -1.1251
 4745SOL    HW225695   0.181   3.744   4.230 -3.2455 -2.1312 -2.3863
 4746SOL     OW25696   4.102   0.906   4.534 -0.3103 -0.3636 -0.2880
 4746SOL    HW125697   4.155   0.931   4.458  0.0685 -0.8446 -0.1880
 4746SOL    HW225698   4.016   0.937   4.507 -0.2845 -1.8490 -2.0912
 4747SOL     OW25699   0.347   1.100  12.322 -0.0509  0.3933 -0.2618
 4747SOL    HW125700   0.255   1.093  12.297 -0.2201 -1.4278  0.8673
 4747SOL    HW225701   0.389   1.105  12.236  0.3858  0.3393 -0.0551
 4748SOL     OW25702   2.605   1.819   4.163 -1.1334  0.7673  0.0961
 4748SOL    HW125703   2.652   1.895   4.197 -0.6420  1.7084 -2.7055
 4748SOL    HW225704   2.602   1.840   4.070 -0.2031 -1.3421 -0.4200
 4749SOL     OW25705   3.972   2.472  13.731 -0.3795  0.6107  0.1363
 4749SOL    HW125706   3.914   2.476  13.655 -0.1490 -1.2193 -0.1371
 4749SOL    HW225707   4.046   2.418  13.703 -0.9428  0.4058 -0.9348
 4750SOL     OW25708   2.804   1.276   8.551  0.0325 -0.0673  0.0460
 4750SOL    HW125709   2.838   1.277   8.641 -0.5670  0.9261  0.2590
 4750SOL    HW225710   2.715   1.299   8.575 -0.0428 -0.5491  0.2323
 4751SOL     OW25711   3.599   1.055  10.852 -0.0628  0.2185 -0.2296
 4751SOL    HW125712   3.646   1.093  10.926  0.4062  0.4007 -0.6254
 4751SOL    HW225713   3.568   1.140  10.820 -4.0465 -0.8162  0.7983
 4752SOL     OW25714   1.006   2.758  15.059 -0.4886  0.0415 -0.0612
 4752SOL    HW125715   1.007   2.666  15.035  0.8772  0.0594 -0.0802
 4752SOL    HW225716   0.987   2.796  14.973 -0.9783  0.9393  0.4453
 4753SOL     OW25717   2.659   4.100   3.594 -0.4025  0.5186 -0.4801
 4753SOL    HW125718   2.621   4.116   3.508 -0.9284  1.1984 -0.1213
 4753SOL    HW225719   2.583   4.091   3.652 -0.3268 -0.8134 -0.6055
 4754SOL     OW25720   0.409   1.605  16.078  0.3509  0.4464  0.0003
 4754SOL    HW125721   0.463   1.526  16.082 -3.2149 -1.9836  0.3943
 4754SOL    HW225722   0.481   1.667  16.085 -0.0207  1.0321 -1.5731
 4755SOL     OW25723   2.949   2.289   8.450  0.1773  0.2048 -0.4511
 4755SOL    HW125724   2.965   2.314   8.541 -2.0239 -0.7659  0.1879
 4755SOL    HW225725   3.013   2.341   8.401  1.0145 -0.3052  0.0892
 4756SOL     OW25726   3.729   0.480   4.703 -0.5678  0.5803  0.2046
 4756SOL    HW125727   3.645   0.487   4.749 -0.8237  0.1949 -0.2026
 4756SOL    HW225728   3.726   0.573   4.681  1.0103 -0.2175 -3.4075
 4757SOL     OW25729   3.755   0.825   6.964 -0.7331 -0.0201  0.5024
 4757SOL    HW125730   3.836   0.793   7.004 -0.1930 -0.8857 -1.3153
 4757SOL    HW225731   3.774   0.839   6.871 -1.8299 -0.3507  0.2248
 4758SOL     OW25732   3.691   4.370  15.465  0.3243  0.5376 -0.4636
 4758SOL    HW125733   3.625   4.438  15.453  0.2411  0.4281 -0.6277
 4758SOL    HW225734   3.643   4.297  15.426 -1.8819  1.9673 -0.4063
 4759SOL     OW25735   2.391   0.757   4.169  0.3504  0.0450  0.1640
 4759SOL    HW125736   2.342   0.787   4.245  1.0747 -0.6907  0.9191
 4759SOL    HW225737   2.483   0.766   4.194  1.1765 -0.1360 -2.7529
 4760SOL     OW25738   4.561   0.159  13.208  0.2156  0.1026 -0.6264
 4760SOL    HW125739   4.627   0.099  13.174 -0.3705 -2.3881  2.7256
 4760SOL    HW225740   4.503   0.162  13.132  1.1163  2.5776 -1.2345
 4761SOL     OW25741   0.074   0.310   7.271 -0.4241  0.3198  0.3530
 4761SOL    HW125742   0.109   0.314   7.360 -0.6840 -2.0466  0.5366
 4761SOL    HW225743   0.141   0.362   7.225  0.0009 -0.1860  0.4117
 4762SOL     OW25744   0.649   0.435   1.657  0.6107 -0.1360 -0.0932
 4762SOL    HW125745   0.740   0.432   1.687  0.5587  1.6068  0.2519
 4762SOL    HW225746   0.659   0.485   1.576  0.0719 -1.9477 -1.2801
 4763SOL     OW25747   2.925   4.435   3.500 -0.2214 -0.3823 -0.3508
 4763SOL    HW125748   2.956   4.488   3.574  1.1697 -0.3073 -0.9867
 4763SOL    HW225749   2.916   4.500   3.430  0.3975 -2.2311 -2.1530
 4764SOL     OW25750   3.767   3.806   5.897  0.1651 -0.2446 -0.1481
 4764SOL    HW125751   3.760   3.901   5.898 -1.2141 -0.3537  1.3831
 4764SOL    HW225752   3.862   3.800   5.913  0.1754 -0.6476 -0.3608
 4765SOL     OW25753   2.511   4.568   5.526  0.0873  0.1390 -0.1964
 4765SOL    HW125754   2.527   4.623   5.602 -1.4641  1.8136 -1.0764
 4765SOL    HW225755   2.504   4.636   5.459  1.0310 -0.1055 -0.5419
 4766SOL     OW25756   2.322   3.375   2.696 -0.1044 -0.3229  0.6874
 4766SOL    HW125757   2.317   3.441   2.627 -1.0403  0.5443  1.5816
 4766SOL    HW225758   2.412   3.392   2.721  0.7442 -0.0854 -2.5072
 4767SOL     OW25759   3.595   4.254   7.438 -0.2365  0.0261  0.0034
 4767SOL    HW125760   3.632   4.329   7.392  0.2199 -0.7142 -0.8569
 4767SOL    HW225761   3.644   4.180   7.401  0.8658  0.8743 -0.2398
 4768SOL     OW25762   0.230   2.709   6.462  0.0368  0.3765  0.0251
 4768SOL    HW125763   0.165   2.745   6.523  0.2170 -0.0878  0.4894
 4768SOL    HW225764   0.292   2.670   6.525 -0.2862  1.9802  1.3398
 4769SOL     OW25765   3.384   0.008   7.861 -0.1953  0.3915  0.2104
 4769SOL    HW125766   3.367   0.084   7.806  1.9272  0.7023 -0.0219
 4769SOL    HW225767   3.322   4.666   7.822 -1.8952  1.6028  1.0099
 4770SOL     OW25768   4.200   3.508   6.876 -0.0095  0.4674 -0.0303
 4770SOL    HW125769   4.269   3.541   6.934  0.9751 -0.4237 -0.6999
 4770SOL    HW225770   4.177   3.585   6.825 -1.4595  0.9041  1.2848
 4771SOL     OW25771   1.567   4.086   4.453 -0.3660  0.3813  0.0002
 4771SOL    HW125772   1.608   4.173   4.452  3.6500 -1.5054  1.8137
 4771SOL    HW225773   1.621   4.055   4.526  0.5186  2.0010  0.0427
 4772SOL     OW25774   1.919   3.758   9.364  0.5932  0.6701 -0.2780
 4772SOL    HW125775   1.861   3.833   9.376  0.6173  1.1823 -3.4310
 4772SOL    HW225776   1.977   3.801   9.301  0.0148  0.3787 -1.0073
 4773SOL     OW25777   4.346   0.377   2.421 -0.0980  0.3485  0.1871
 4773SOL    HW125778   4.361   0.405   2.331  0.6231  1.4757  0.6529
 4773SOL    HW225779   4.369   0.454   2.474  2.4945 -1.3394  1.5202
 4774SOL     OW25780   2.281   3.415   2.085  0.3142  0.3056  0.0346
 4774SOL    HW125781   2.291   3.350   2.154  2.3014  0.9239  0.3249
 4774SOL    HW225782   2.288   3.353   2.012 -2.0216 -0.3094  0.3203
 4775SOL     OW25783   1.434   2.014  15.590 -0.5310  0.7748  0.5088
 4775SOL    HW125784   1.500   1.978  15.530  0.6156  0.0612  2.2139
 4775SOL    HW225785   1.367   2.028  15.522  3.0468  2.3367 -2.6674
 4776SOL     OW25786   1.947   1.002   8.948  0.6532  0.0636  0.0988
 4776SOL    HW125787   2.013   1.071   8.949  0.9387 -0.2282  1.1458
 4776SOL    HW225788   2.004   0.942   8.995 -1.2007 -2.4403 -0.8504
 4777SOL     OW25789   0.972   4.255  14.997 -0.0554  0.6040  0.3648
 4777SOL    HW125790   1.030   4.196  15.045 -1.1003 -1.2043 -0.6064
 4777SOL    HW225791   0.940   4.308  15.070  2.1073 -0.5260  2.1392
 4778SOL     OW25792   2.488   1.346   8.925 -0.0786  0.0693 -0.1800
 4778SOL    HW125793   2.533   1.389   8.997  1.5337 -1.9154  0.0305
 4778SOL    HW225794   2.423   1.311   8.985 -2.5574  2.1883 -1.6804
 4779SOL     OW25795   3.668   4.696  17.642 -0.7415 -0.0289 -0.6714
 4779SOL    HW125796   3.604   0.031   0.007 -0.8265  1.9117 -3.1057
 4779SOL    HW225797   3.640   4.704  17.551  0.4724  2.3751 -0.8465
 4780SOL     OW25798   3.525   0.074   0.342  0.0415  0.0459  0.4727
 4780SOL    HW125799   3.548   0.153   0.390 -1.7831  1.2414 -0.6353
 4780SOL    HW225800   3.496   0.015   0.413 -0.0342  0.4907  0.8101
 4781SOL     OW25801   1.070   1.919   5.139 -0.1179 -0.2599  0.3391
 4781SOL    HW125802   1.012   1.984   5.099 -0.8082 -0.3115  1.2502
 4781SOL    HW225803   1.023   1.903   5.221  0.3184 -1.7762  0.2970
 4782SOL     OW25804   3.189   2.910   4.762 -0.4656 -0.6024  0.2371
 4782SOL    HW125805   3.153   2.967   4.695  1.0827  0.1479  0.0524
 4782SOL    HW225806   3.277   2.946   4.767 -0.5809 -0.2599 -0.2599
 4783SOL     OW25807   3.360   1.173   6.342  0.3422  0.1612 -0.7271
 4783SOL    HW125808   3.421   1.121   6.288  0.5397  0.0776 -0.4239
 4783SOL    HW225809   3.374   1.134   6.428 -3.7428 -2.4144 -1.2409
 4784SOL     OW25810   2.621   2.837   5.672 -0.3457 -0.1870  0.4042
 4784SOL    HW125811   2.536   2.816   5.711  0.4383 -1.9122  1.1703
 4784SOL    HW225812   2.626   2.929   5.698 -1.1201  0.3100 -1.1921
 4785SOL     OW25813   3.440   0.732  15.045 -0.6524  0.0699 -0.0219
 4785SOL    HW125814   3.375   0.667  15.072 -0.5558 -0.5974 -1.3540
 4785SOL    HW225815   3.512   0.684  15.004  0.0353 -0.3815  1.6976
 4786SOL     OW25816   3.928   2.967  12.113 -0.5995 -0.0285 -0.4609
 4786SOL    HW125817   3.851   2.920  12.145 -1.1184  1.6112  0.7436
 4786SOL    HW225818   3.947   2.921  12.031 -2.7676  0.3666 -1.1698
 4787SOL     OW25819   1.587   2.280  15.632  0.5289 -0.3733 -0.2578
 4787SOL    HW125820   1.574   2.269  15.538  2.8818  1.0476 -0.7553
 4787SOL    HW225821   1.567   2.190  15.659  0.2479  0.0658  0.9915
 4788SOL     OW25822   4.419   4.659  16.233 -0.5835  0.3048  0.4640
 4788SOL    HW125823   4.349   4.689  16.175  0.7556  4.2443  0.8768
 4788SOL    HW225824   4.492   4.698  16.185 -0.0353  0.0792  1.1177
 4789SOL     OW25825   3.990   2.814  17.347  0.0826  0.0795 -0.3183
 4789SOL    HW125826   4.006   2.764  17.427 -1.6609 -0.3756 -0.2450
 4789SOL    HW225827   3.916   2.767  17.309  1.1835 -1.6776 -0.2585
 4790SOL     OW25828   2.993   0.806  12.021 -0.5754 -0.0373 -0.1429
 4790SOL    HW125829   3.007   0.793  11.927  0.9561  1.4377 -0.1178
 4790SOL    HW225830   2.905   0.768  12.028  0.2527 -1.7486  1.1506
 4791SOL     OW25831   0.777   1.197   4.557 -0.2443  0.1936  0.0852
 4791SOL    HW125832   0.852   1.197   4.497 -0.7064 -0.9786 -0.4808
 4791SOL    HW225833   0.701   1.189   4.500 -0.4781  0.7464  0.3099
 4792SOL     OW25834   0.634   0.059   8.961  0.4221  0.2903  0.0441
 4792SOL    HW125835   0.608   0.149   8.983  1.3383  0.4420  0.5019
 4792SOL    HW225836   0.571   0.010   9.013  2.3782 -1.4784  0.7261
 4793SOL     OW25837   2.565   1.748   9.426 -1.0674 -0.3009 -0.1977
 4793SOL    HW125838   2.645   1.767   9.476 -2.0473  0.8895  0.9155
 4793SOL    HW225839   2.593   1.742   9.335  3.2629 -1.2642  1.1850
 4794SOL     OW25840   0.507   2.278   6.110  0.6876  0.1791 -0.0064
 4794SOL    HW125841   0.486   2.279   6.017  0.4232  0.9917  0.0619
 4794SOL    HW225842   0.422   2.241   6.134 -0.0854  2.8892  1.4771
 4795SOL     OW25843   3.982   4.405  11.573  1.0222  0.3406 -0.9077
 4795SOL    HW125844   4.062   4.434  11.616  1.3413 -0.4712 -0.9351
 4795SOL    HW225845   3.979   4.318  11.614 -0.2910 -0.3807 -2.5186
 4796SOL     OW25846   4.308   3.722   8.771  0.2382  0.7376  0.0008
 4796SOL    HW125847   4.334   3.810   8.799 -2.4942  1.7751 -0.7829
 4796SOL    HW225848   4.213   3.727   8.776  0.1218 -0.3687 -0.9758
 4797SOL     OW25849   2.613   1.744   8.053 -0.0975 -0.4320 -0.6011
 4797SOL    HW125850   2.591   1.679   7.986 -1.7858  0.4437 -0.8920
 4797SOL    HW225851   2.533   1.796   8.061 -1.6519 -2.7456 -1.1095
 4798SOL     OW25852   3.059   0.401   2.730 -0.0654 -0.2744  0.4428
 4798SOL    HW125853   3.021   0.488   2.716 -0.1853 -0.3605  0.2349
 4798SOL    HW225854   3.126   0.396   2.661 -0.4216  0.9901  0.0073
 4799SOL     OW25855   0.335   4.034   8.498 -0.0501  0.1297 -0.2916
 4799SOL    HW125856   0.362   3.943   8.505  0.7139  0.4085  0.3979
 4799SOL    HW225857   0.386   4.064   8.422  1.7997 -0.5493  0.6765
 4800SOL     OW25858   0.311   0.859   5.344 -0.2861 -0.2514  0.0521
 4800SOL    HW125859   0.229   0.833   5.386 -0.3228 -2.2454 -1.2049
 4800SOL    HW225860   0.309   0.954   5.350  1.3217 -0.1736 -0.7425
 4801SOL     OW25861   4.534   0.740  13.389 -0.5280  0.0238 -0.4564
 4801SOL    HW125862   4.531   0.665  13.329  2.8149  0.0715 -0.6348
 4801SOL    HW225863   4.612   0.721  13.441 -0.3923 -0.4785 -0.8341
 4802SOL     OW25864   3.820   2.336   2.636  0.0903 -0.4330  0.3829
 4802SOL    HW125865   3.830   2.356   2.729  2.7751 -2.2149  0.4794
 4802SOL    HW225866   3.864   2.251   2.632  0.6943 -0.1854  1.7125
 4803SOL     OW25867   1.627   1.542  13.526 -0.0691 -0.0711 -0.2110
 4803SOL    HW125868   1.579   1.575  13.450  1.3263 -0.0322 -1.0750
 4803SOL    HW225869   1.697   1.490  13.485 -0.0218 -0.6498  0.6231
 4804SOL     OW25870   1.055   1.810   5.894  0.5644 -0.7419  0.0089
 4804SOL    HW125871   1.112   1.872   5.940  1.0998 -0.2468 -1.3083
 4804SOL    HW225872   1.007   1.868   5.835 -0.5380 -1.6030  0.0577
 4805SOL     OW25873   0.873   1.271   7.983  0.3316  0.1085  0.9709
 4805SOL    HW125874   0.846   1.245   8.071  2.6148 -2.1161  1.0312
 4805SOL    HW225875   0.951   1.215   7.976  0.4915  0.4021  0.3392
 4806SOL     OW25876   0.585   4.596   8.131  0.1665 -0.1114  0.3005
 4806SOL    HW125877   0.593   4.592   8.036  0.3616 -2.5397  0.4072
 4806SOL    HW225878   0.491   4.587   8.144  0.1102 -2.8263 -1.7733
 4807SOL     OW25879   2.593   4.648  12.481  0.1083  0.3148 -0.0801
 4807SOL    HW125880   2.621   4.718  12.540  0.5524 -0.7974  1.0121
 4807SOL    HW225881   2.592   4.579  12.547  1.0551  1.1082  0.7567
 4808SOL     OW25882   2.410   4.074   2.840  0.5129 -0.1539  0.0705
 4808SOL    HW125883   2.423   4.102   2.749 -1.4734  0.3650 -0.0496
 4808SOL    HW225884   2.346   4.137   2.872 -0.7314 -1.1804 -0.3964
 4809SOL     OW25885   3.252   1.219  12.173  0.5060  0.0312 -0.4230
 4809SOL    HW125886   3.299   1.148  12.216  2.1135  0.0233 -2.1961
 4809SOL    HW225887   3.274   1.197  12.082 -0.2573  0.2084 -0.6584
 4810SOL     OW25888   0.595   0.726   3.841 -0.2695 -0.1421 -0.3153
 4810SOL    HW125889   0.608   0.814   3.876 -0.0124 -0.2836 -0.0618
 4810SOL    HW225890   0.623   0.658   3.903 -1.9843  0.0047  0.6416
 4811SOL     OW25891   1.883   2.382   3.875  0.0999 -0.3327 -0.3170
 4811SOL    HW125892   1.968   2.337   3.869 -1.1740 -3.0286  1.9268
 4811SOL    HW225893   1.825   2.314   3.841 -1.1471  0.4917  0.1808
 4812SOL     OW25894   3.009   0.437   9.425  0.4079 -0.5610  0.5974
 4812SOL    HW125895   2.969   0.396   9.501  1.9970 -3.1843  0.0058
 4812SOL    HW225896   3.075   0.486   9.474 -0.2829 -1.6116  2.5630
 4813SOL     OW25897   2.039   2.859   3.861 -0.1275 -0.3771  0.4149
 4813SOL    HW125898   2.123   2.837   3.820 -0.0478  0.3540  0.1997
 4813SOL    HW225899   1.981   2.790   3.828  0.3603  0.0785 -1.4243
 4814SOL     OW25900   0.590   0.834   6.276 -0.3481 -0.6002  0.3866
 4814SOL    HW125901   0.684   0.821   6.271 -0.0669  1.2372  1.1087
 4814SOL    HW225902   0.580   0.867   6.365 -0.0537 -0.0245  0.2010
 4815SOL     OW25903   4.669   1.727   4.842  0.0805 -0.2143 -0.3612
 4815SOL    HW125904   0.028   1.703   4.892 -0.5662 -0.5665  0.4703
 4815SOL    HW225905   4.645   1.805   4.892 -0.9076  0.5011 -1.9420
 4816SOL     OW25906   1.239   2.128   3.344  0.2990 -0.3330 -0.2535
 4816SOL    HW125907   1.164   2.072   3.326  0.4650 -1.1292  1.5778
 4816SOL    HW225908   1.212   2.145   3.434 -0.2821 -0.6224 -0.3770
 4817SOL     OW25909   2.510   3.912  11.083 -0.4838  0.0125  0.7188
 4817SOL    HW125910   2.430   3.897  11.133 -0.8631 -2.1315 -0.5422
 4817SOL    HW225911   2.535   3.996  11.120  0.4713 -0.6761  1.6194
 4818SOL     OW25912   4.351   4.679   8.911 -0.0935  1.0116  0.6214
 4818SOL    HW125913   4.260   4.698   8.886 -0.5181 -0.8169  0.7705
 4818SOL    HW225914   4.385   4.656   8.825 -2.0200 -0.0845  0.1438
 4819SOL     OW25915   3.982   0.496   6.683  0.2420 -0.0515 -0.5456
 4819SOL    HW125916   3.919   0.525   6.616  0.5068  0.7392 -0.4545
 4819SOL    HW225917   4.051   0.458   6.629  1.4040 -0.4745  1.2405
 4820SOL     OW25918   1.872   0.026   0.873 -0.6494  0.0058  0.3446
 4820SOL    HW125919   1.957   0.068   0.858 -0.0289 -1.5729 -0.5303
 4820SOL    HW225920   1.846   0.080   0.948 -1.8951  1.1892 -0.9425
 4821SOL     OW25921   0.139   0.733   3.027 -0.1098 -0.7629 -0.3592
 4821SOL    HW125922   0.188   0.666   3.074  1.4442  0.4294 -0.2688
 4821SOL    HW225923   0.095   0.671   2.968 -1.0690 -1.3231  0.9386
 4822SOL     OW25924   3.237   0.987   5.669  0.3975  0.2651  0.0326
 4822SOL    HW125925   3.233   1.035   5.586 -2.6404 -0.8713 -0.4725
 4822SOL    HW225926   3.253   1.061   5.727 -0.2339  0.4986 -0.0872
 4823SOL     OW25927   0.431   3.999   2.198 -0.2453 -0.1709 -0.0893
 4823SOL    HW125928   0.412   3.976   2.289  0.8806 -2.3626 -0.4140
 4823SOL    HW225929   0.365   3.947   2.152 -0.5897 -3.2938  3.9642
 4824SOL     OW25930   1.299   2.309  17.067 -0.1592  0.0720  0.6119
 4824SOL    HW125931   1.293   2.217  17.040  0.1078  0.2206  0.0590
 4824SOL    HW225932   1.231   2.307  17.135  0.0364  2.7005  0.8556
 4825SOL     OW25933   1.328   4.232  13.339 -0.5316 -0.7361  0.0811
 4825SOL    HW125934   1.282   4.303  13.295  0.1714 -1.7504 -2.3525
 4825SOL    HW225935   1.367   4.185  13.265 -0.3343 -4.3409  2.4730
 4826SOL     OW25936   4.549   2.527   4.553  0.3803 -0.2954  0.2171
 4826SOL    HW125937   4.504   2.451   4.590  1.6177 -1.0068  0.2606
 4826SOL    HW225938   4.604   2.544   4.630  1.4867 -1.7443 -0.2662
 4827SOL     OW25939   2.545   1.378  15.365  0.3297 -0.3096 -0.2390
 4827SOL    HW125940   2.489   1.423  15.428 -1.1259 -0.9228 -1.1056
 4827SOL    HW225941   2.487   1.315  15.321 -4.1458  2.3747  1.8236
 4828SOL     OW25942   3.165   3.941   1.821  0.4251 -0.2824 -0.3699
 4828SOL    HW125943   3.071   3.953   1.812  0.3104  0.6070  1.9285
 4828SOL    HW225944   3.156   3.869   1.884  0.2366 -0.8906 -1.0994
 4829SOL     OW25945   3.012   0.421  16.949 -0.0967  0.1005  0.1151
 4829SOL    HW125946   2.952   0.442  17.021  0.4285  1.4367  0.1692
 4829SOL    HW225947   3.101   0.421  16.986  1.4446 -0.8497 -3.6611
 4830SOL     OW25948   1.387   0.179   2.403 -0.0443  0.2818  0.2489
 4830SOL    HW125949   1.309   0.198   2.351  1.1042  1.5700 -0.9957
 4830SOL    HW225950   1.420   0.095   2.372  0.8020  1.0959 -1.0618
 4831SOL     OW25951   1.319   4.563   8.398  0.4523 -0.7635 -0.3202
 4831SOL    HW125952   1.245   4.504   8.388 -1.6767  1.9713 -0.5272
 4831SOL    HW225953   1.346   4.568   8.307  0.6821  3.9725  0.0044
 4832SOL     OW25954   4.711   4.692  11.176  0.4946  0.4316 -0.1998
 4832SOL    HW125955   0.006   0.050  11.230  2.2848 -1.4300  2.0260
 4832SOL    HW225956   0.079   4.689  11.137  0.3245 -0.5182 -0.5000
 4833SOL     OW25957   2.304   3.489   6.227  0.6825 -0.0293 -0.1113
 4833SOL    HW125958   2.345   3.445   6.152  2.6543  0.3395  0.7311
 4833SOL    HW225959   2.362   3.464   6.299  0.4813 -0.1738 -0.0018
 4834SOL     OW25960   0.120   2.668   1.705 -0.2705  0.1266 -0.0934
 4834SOL    HW125961   0.070   2.677   1.786 -0.7287 -0.1275 -0.3448
 4834SOL    HW225962   0.067   2.614   1.647 -0.9403  0.4028  0.2636
 4835SOL     OW25963   3.841   3.193  14.812 -0.0844 -0.4979  0.1860
 4835SOL    HW125964   3.777   3.124  14.831  0.9728 -1.4117  0.3861
 4835SOL    HW225965   3.918   3.136  14.807  2.3099  2.6559  1.1499
 4836SOL     OW25966   4.120   1.302  11.872 -0.0714 -0.2615  0.1824
 4836SOL    HW125967   4.176   1.226  11.852  0.4174  0.3458 -0.7592
 4836SOL    HW225968   4.194   1.357  11.897 -0.9382 -0.3344  2.8256
 4837SOL     OW25969   2.160   1.791   7.045 -0.1030  0.4002 -0.4020
 4837SOL    HW125970   2.099   1.764   7.113  0.0156  1.7449  0.2469
 4837SOL    HW225971   2.240   1.774   7.095  2.0642  0.1158 -3.9891
 4838SOL     OW25972   0.064   1.904   6.049  0.2715  0.2719 -0.1896
 4838SOL    HW125973   0.052   1.974   5.985 -2.0457 -0.2465 -0.2994
 4838SOL    HW225974   0.160   1.906   6.048  0.2769  3.4320  2.6322
 4839SOL     OW25975   1.873   2.718  16.787 -0.0172  0.7574  0.0712
 4839SOL    HW125976   1.841   2.650  16.847 -0.1422 -0.7578 -1.7121
 4839SOL    HW225977   1.871   2.800  16.835 -1.0791  0.5150  0.4459
 4840SOL     OW25978   1.227   2.702   6.897  0.6466  0.7680 -0.1151
 4840SOL    HW125979   1.145   2.660   6.922  0.4561  0.6895 -0.8742
 4840SOL    HW225980   1.256   2.727   6.985  2.4495 -1.3840 -0.1005
 4841SOL     OW25981   1.256   3.183   3.091  0.5559  0.2106  0.1351
 4841SOL    HW125982   1.295   3.222   3.013  1.3122 -2.8144 -0.9985
 4841SOL    HW225983   1.286   3.245   3.158 -1.4922  0.3167  0.9380
 4842SOL     OW25984   0.885   0.534   8.504 -0.7077  0.1969 -0.3126
 4842SOL    HW125985   0.881   0.520   8.599 -1.4010  0.1252 -0.3570
 4842SOL    HW225986   0.974   0.567   8.487 -0.2416 -2.2694 -2.6629
 4843SOL     OW25987   3.804   4.248   8.108 -0.1992  0.9172 -0.2946
 4843SOL    HW125988   3.784   4.271   8.199 -0.2052  1.8277 -0.5264
 4843SOL    HW225989   3.848   4.163   8.118 -0.3207  0.7693 -1.0129
 4844SOL     OW25990   3.196   0.747   1.060  0.1771 -0.0382  0.1075
 4844SOL    HW125991   3.151   0.664   1.042 -0.2598  0.1031  0.5504
 4844SOL    HW225992   3.283   0.735   1.097  1.0596 -2.0245 -2.5857
 4845SOL     OW25993   3.280   1.808  15.569 -0.3087 -0.0189  0.7769
 4845SOL    HW125994   3.213   1.761  15.618  0.8364 -1.3220  1.0763
 4845SOL    HW225995   3.309   1.770  15.487  1.2442  1.9136  0.4076
 4846SOL     OW25996   3.422   3.487   2.099 -0.1441  0.1198 -0.5771
 4846SOL    HW125997   3.384   3.448   2.021  2.1644 -1.5638 -0.8690
 4846SOL    HW225998   3.517   3.488   2.089 -0.1632 -0.1294 -0.7977
 4847SOL     OW25999   3.402   4.092   8.984  0.1645 -0.0072 -0.6170
 4847SOL    HW126000   3.463   4.116   8.914 -0.3115  2.7617 -0.0649
 4847SOL    HW226001   3.459   4.114   9.058  0.8277 -0.1671 -1.0698
 4848SOL     OW26002   4.585   1.320   5.846 -0.1434 -0.3922 -0.1363
 4848SOL    HW126003   4.540   1.256   5.901 -0.6373 -0.8324 -1.0567
 4848SOL    HW226004   4.668   1.315   5.892 -1.0180 -0.3911  1.4580
 4849SOL     OW26005   1.828   1.469   4.672  0.4706 -0.0913 -0.0834
 4849SOL    HW126006   1.823   1.432   4.760  1.4006 -1.0505 -0.4359
 4849SOL    HW226007   1.898   1.414   4.637 -2.0486 -2.7925 -0.8757
 4850SOL     OW26008   3.171   2.634   3.989  0.0852  0.6136  0.6633
 4850SOL    HW126009   3.265   2.646   3.982  0.1368  0.3142  0.8147
 4850SOL    HW226010   3.164   2.595   4.077  1.0420  0.6656  0.7560
 4851SOL     OW26011   3.333   2.898   3.898 -0.4036 -0.2466 -0.2448
 4851SOL    HW126012   3.386   2.874   3.822  0.1490  0.6380 -0.1326
 4851SOL    HW226013   3.330   2.812   3.941 -0.0344  1.4201  3.1601
 4852SOL     OW26014   0.953   0.013   7.563  0.2712  0.3129 -0.5297
 4852SOL    HW126015   0.989   0.013   7.652 -0.2596  0.4366 -0.3165
 4852SOL    HW226016   1.024   4.688   7.516 -0.5786 -0.4900 -1.0617
 4853SOL     OW26017   3.752   3.666  17.075  0.2365  0.6435  0.4724
 4853SOL    HW126018   3.748   3.761  17.062  1.6421  0.6758  0.3745
 4853SOL    HW226019   3.659   3.643  17.065  0.1444  0.8534  0.8418
 4854SOL     OW26020   0.794   3.790   6.622  0.0571  0.5645 -0.1259
 4854SOL    HW126021   0.845   3.711   6.604  1.6058  1.2761  1.2120
 4854SOL    HW226022   0.707   3.750   6.616  0.9618 -1.3845 -0.3483
 4855SOL     OW26023   0.265   2.188   6.725  0.0958  0.5191 -0.2875
 4855SOL    HW126024   0.328   2.116   6.734 -0.9599 -0.3328  0.2351
 4855SOL    HW226025   0.313   2.257   6.771 -0.8058  0.8310  0.1827
 4856SOL     OW26026   2.943   0.443   6.431  0.2543  0.0425 -0.0411
 4856SOL    HW126027   2.971   0.426   6.521  1.7307  1.6741 -0.1817
 4856SOL    HW226028   2.997   0.520   6.411  2.4197 -1.3918  0.3100
 4857SOL     OW26029   0.597   1.211  13.721  0.0931  0.4653  0.3679
 4857SOL    HW126030   0.598   1.301  13.752  0.1547  0.1817  1.1728
 4857SOL    HW226031   0.634   1.161  13.793 -0.3430 -0.1501  0.1700
 4858SOL     OW26032   2.804   0.507  11.522  0.7404 -0.1085 -0.2171
 4858SOL    HW126033   2.730   0.543  11.569  0.0069 -0.4677 -1.0920
 4858SOL    HW226034   2.856   0.584  11.498 -0.4711  1.1500  1.2021
 4859SOL     OW26035   2.468   3.237  13.277 -0.1663  0.1432 -0.5412
 4859SOL    HW126036   2.518   3.301  13.328  0.7603 -0.7027 -0.3740
 4859SOL    HW226037   2.541   3.184  13.246 -1.0447 -1.6367  0.4586
 4860SOL     OW26038   1.558   0.132   0.807  0.0121  0.0103 -0.3594
 4860SOL    HW126039   1.639   0.150   0.761  0.3116 -0.6480 -0.0884
 4860SOL    HW226040   1.500   0.138   0.731 -0.0731  1.2130 -0.1992
 4861SOL     OW26041   4.037   3.943   3.566  0.2498 -0.0166 -0.0641
 4861SOL    HW126042   4.091   3.864   3.574 -0.2300 -0.7412 -3.9547
 4861SOL    HW226043   3.970   3.905   3.509  0.9676 -1.1264 -0.1759
 4862SOL     OW26044   1.229   0.391   4.296 -0.2603 -0.6630 -0.4361
 4862SOL    HW126045   1.289   0.355   4.231  2.5444 -1.2681  2.5309
 4862SOL    HW226046   1.178   0.312   4.317 -0.2761 -0.4354  0.3853
 4863SOL     OW26047   2.489   2.059   3.203 -0.3218  0.0230  0.1408
 4863SOL    HW126048   2.574   2.099   3.188 -0.1710 -0.3797 -0.0500
 4863SOL    HW226049   2.453   2.041   3.117  1.5035  0.3317 -0.6735
 4864SOL     OW26050   1.705   4.629   7.216 -0.4818  0.0206 -0.0570
 4864SOL    HW126051   1.711   4.694   7.145  1.4606 -0.9365 -0.7544
 4864SOL    HW226052   1.766   4.568   7.175 -1.0574 -2.1510  2.3174
 4865SOL     OW26053   2.315   2.310   7.727 -0.0639 -0.3799  0.0390
 4865SOL    HW126054   2.295   2.378   7.662 -2.8667 -0.1107  1.1793
 4865SOL    HW226055   2.407   2.288   7.713  0.4131  2.2485 -1.1192
 4866SOL     OW26056   3.127   1.722   0.713  0.1934 -0.3913 -0.2023
 4866SOL    HW126057   3.060   1.708   0.780 -0.2102  0.2191 -0.4717
 4866SOL    HW226058   3.192   1.670   0.760  3.0866  1.9112 -1.6729
 4867SOL     OW26059   0.634   4.179   7.476 -0.0474 -0.0484  0.2240
 4867SOL    HW126060   0.678   4.264   7.481  0.2192 -0.0513 -2.3662
 4867SOL    HW226061   0.705   4.118   7.495 -0.9584 -0.7299  1.4164
 4868SOL     OW26062   0.635   1.470   6.483 -0.2589  0.1037  0.4948
 4868SOL    HW126063   0.676   1.399   6.532  3.9176  0.2012 -2.8929
 4868SOL    HW226064   0.547   1.441   6.457 -0.3192  0.9770 -0.2952
 4869SOL     OW26065   1.129   0.777   3.609 -0.0374 -0.5424 -0.6428
 4869SOL    HW126066   1.161   0.694   3.575  2.9099  0.6670 -0.8433
 4869SOL    HW226067   1.210   0.792   3.657  1.3900 -2.4921 -2.4225
 4870SOL     OW26068   4.119   1.394   1.480 -0.0685  0.4721  0.1044
 4870SOL    HW126069   4.103   1.447   1.402  0.3718 -1.4457 -1.2861
 4870SOL    HW226070   4.213   1.377   1.485 -0.2347 -1.5986 -3.9334
 4871SOL     OW26071   4.013   1.354   8.615 -0.4244  0.1415  0.5588
 4871SOL    HW126072   4.042   1.291   8.549 -0.6289 -0.4822  1.0573
 4871SOL    HW226073   4.093   1.363   8.667 -1.1546  0.2965  1.6438
 4872SOL     OW26074   3.775   4.667   7.785  0.1031  0.0338  0.1715
 4872SOL    HW126075   3.772   4.589   7.839 -0.1212  0.2406  0.4604
 4872SOL    HW226076   3.866   4.695   7.796  0.8889 -1.2276 -3.2392
 4873SOL     OW26077   2.695   2.620  14.933  0.1010  0.2300 -0.2567
 4873SOL    HW126078   2.700   2.679  14.858  0.6138  3.2897  2.1673
 4873SOL    HW226079   2.685   2.683  15.005 -0.4422 -0.1621  0.0134
 4874SOL     OW26080   3.359   1.782  17.151 -0.0457 -1.1683  0.1062
 4874SOL    HW126081   3.371   1.870  17.186  0.3375 -0.6055 -1.4423
 4874SOL    HW226082   3.341   1.816  17.064 -0.7886 -1.3422  0.1939
 4875SOL     OW26083   3.260   0.731   2.839 -0.5987  0.1589  0.1481
 4875SOL    HW126084   3.329   0.721   2.775 -0.7261  1.4798 -0.1843
 4875SOL    HW226085   3.307   0.783   2.904  1.3449  0.1374 -1.2645
 4876SOL     OW26086   4.557   0.823   4.917  0.5341  0.4166  0.4591
 4876SOL    HW126087   4.545   0.883   4.842  0.1223 -0.0756  0.1289
 4876SOL    HW226088   4.651   0.816   4.902  0.0506 -1.9134 -1.4916
 4877SOL     OW26089   1.737   3.508  12.250  0.8801 -0.3364  0.2583
 4877SOL    HW126090   1.785   3.455  12.186 -2.3094 -1.6492 -1.0302
 4877SOL    HW226091   1.797   3.504  12.324  0.6101 -1.7637  0.3985
 4878SOL     OW26092   3.773   1.726  15.361  0.3419 -0.4648  0.3218
 4878SOL    HW126093   3.855   1.680  15.380  0.1895 -1.1967 -0.8167
 4878SOL    HW226094   3.801   1.813  15.332 -0.0812  0.0022  1.3218
 4879SOL     OW26095   2.405   2.796  14.957  0.1874 -0.1184 -0.0789
 4879SOL    HW126096   2.327   2.797  14.902 -0.5120  1.2355  0.9317
 4879SOL    HW226097   2.473   2.779  14.892  0.5116 -2.0405  0.7708
 4880SOL     OW26098   1.076   2.530   7.547 -0.1605 -0.2161 -0.2009
 4880SOL    HW126099   1.045   2.620   7.539 -1.1363 -0.7181 -1.9644
 4880SOL    HW226100   1.089   2.521   7.453  2.3226 -1.5853  0.2761
 4881SOL     OW26101   1.606   2.658   8.647  0.0709  0.1968 -0.3291
 4881SOL    HW126102   1.618   2.699   8.733  2.9593  0.0464 -0.6626
 4881SOL    HW226103   1.521   2.685   8.614 -0.1721 -0.2919 -0.0937
 4882SOL     OW26104   1.166   4.471  14.151 -0.3466  0.2772  0.4437
 4882SOL    HW126105   1.185   4.435  14.238  1.3518  0.3691  0.1201
 4882SOL    HW226106   1.179   4.564  14.172 -1.0032  1.0435 -2.6717
 4883SOL     OW26107   3.932   1.081   2.894  0.1077 -0.7085 -0.0265
 4883SOL    HW126108   3.992   1.155   2.893 -0.5582 -0.1619  0.3342
 4883SOL    HW226109   3.871   1.103   2.965  0.9773  3.1546 -0.5012
 4884SOL     OW26110   3.988   0.281   6.479 -0.2750  0.3833 -0.0652
 4884SOL    HW126111   4.030   0.355   6.435  0.8298  0.2031  0.6980
 4884SOL    HW226112   3.938   0.233   6.413  1.4165  0.0582 -1.0992
 4885SOL     OW26113   4.312   4.326   3.628  0.3192  0.6241  0.2015
 4885SOL    HW126114   4.258   4.284   3.561  0.2839  0.1313  0.5369
 4885SOL    HW226115   4.284   4.271   3.701  0.5680  2.2730  1.5504
 4886SOL     OW26116   1.688   0.715   2.528  0.0754  0.2435  0.0636
 4886SOL    HW126117   1.745   0.645   2.494 -0.7087  0.8812 -2.5665
 4886SOL    HW226118   1.660   0.675   2.611  1.8066 -0.7943  0.1563
 4887SOL     OW26119   0.984   0.606   7.805 -0.0392  0.3249 -0.0532
 4887SOL    HW126120   1.079   0.611   7.804  0.1063 -1.4400  3.3887
 4887SOL    HW226121   0.944   0.689   7.831  0.1788 -0.3850  2.5545
 4888SOL     OW26122   3.345   3.839   5.761 -1.0376 -0.1093  0.1245
 4888SOL    HW126123   3.398   3.820   5.683 -0.1735 -0.7746  0.8781
 4888SOL    HW226124   3.360   3.760   5.812  0.8358 -0.9619 -1.7022
 4889SOL     OW26125   3.654   3.454   6.840  0.6128  0.1139  0.4064
 4889SOL    HW126126   3.583   3.409   6.886 -2.4552  1.7566 -2.7357
 4889SOL    HW226127   3.723   3.388   6.838  1.2308  0.8121 -1.4343
 4890SOL     OW26128   0.499   1.077   9.545 -0.3100  1.0711  0.1510
 4890SOL    HW126129   0.420   1.073   9.492 -0.7359  0.2561  0.8401
 4890SOL    HW226130   0.573   1.085   9.484 -1.9235 -1.1018 -2.0618
 4891SOL     OW26131   3.341   0.639   7.816 -0.4847  0.4065 -0.2796
 4891SOL    HW126132   3.315   0.566   7.872  1.0484 -0.2676 -0.4300
 4891SOL    HW226133   3.377   0.601   7.736  1.1937  1.2450  0.0785
 4892SOL     OW26134   0.405   0.650  14.933  0.3688  0.5539  0.0121
 4892SOL    HW126135   0.364   0.683  15.013 -2.3108 -0.1792 -1.0630
 4892SOL    HW226136   0.473   0.715  14.914  0.9449 -0.9952 -3.2179
 4893SOL     OW26137   4.159   3.822   8.346  0.0418  0.4268 -0.3197
 4893SOL    HW126138   4.197   3.854   8.428 -0.8770 -0.0732  0.3031
 4893SOL    HW226139   4.231   3.836   8.285 -0.7359  3.4241 -0.5131
 4894SOL     OW26140   3.638   4.340  17.367  0.1951  0.1055  0.1498
 4894SOL    HW126141   3.664   4.258  17.324 -1.4074  1.1020 -2.7356
 4894SOL    HW226142   3.724   4.359  17.406 -1.1919  1.0041  2.7489
 4895SOL     OW26143   0.558   3.980  17.469  0.3449 -0.1091  0.3555
 4895SOL    HW126144   0.499   3.981  17.393  0.1924 -3.5893  0.4300
 4895SOL    HW226145   0.629   4.030  17.429  0.5942 -0.0526  0.8666
 4896SOL     OW26146   2.786   4.144   6.649 -0.2678  0.5280  0.0843
 4896SOL    HW126147   2.871   4.114   6.619 -0.9114 -0.8830 -0.2906
 4896SOL    HW226148   2.756   4.077   6.710  1.1964  0.2043  0.4516
 4897SOL     OW26149   4.076   2.396  10.410  0.3069 -0.0072  0.3954
 4897SOL    HW126150   3.999   2.369  10.361 -0.6128  2.2432  0.5978
 4897SOL    HW226151   4.141   2.417  10.343 -0.2378 -0.4916 -0.2856
 4898SOL     OW26152   3.966   0.355   0.833 -0.0906 -0.0444 -0.5230
 4898SOL    HW126153   4.053   0.336   0.869  0.3761 -1.2506 -2.2791
 4898SOL    HW226154   3.989   0.447   0.826 -1.3629  0.3272  0.1407
 4899SOL     OW26155   0.086   4.499   4.665 -0.0818  0.3473  0.3453
 4899SOL    HW126156   0.039   4.440   4.607 -0.0851  2.2322 -1.5748
 4899SOL    HW226157   0.053   4.466   4.749 -0.1328 -1.1922 -0.2871
 4900SOL     OW26158   2.561   0.577   8.413  0.4325  0.3652  0.5095
 4900SOL    HW126159   2.567   0.482   8.415  2.6466  0.4659 -2.8578
 4900SOL    HW226160   2.652   0.601   8.433 -0.0920  1.5484  1.5038
 4901SOL     OW26161   1.414   4.365   4.879  0.1881 -0.0877  0.4393
 4901SOL    HW126162   1.358   4.419   4.824  0.1065 -1.2621 -0.6121
 4901SOL    HW226163   1.483   4.334   4.821  1.2964  0.3093  1.5294
 4902SOL     OW26164   0.771   4.509   4.603  1.3684 -0.7467  0.0132
 4902SOL    HW126165   0.708   4.439   4.584  1.1931 -0.3260 -0.9697
 4902SOL    HW226166   0.708   4.571   4.641  0.4804 -1.9259  0.4506
 4903SOL     OW26167   4.582   0.111  10.854  0.0621  0.5996  0.2478
 4903SOL    HW126168   4.547   0.048  10.918 -1.5100  1.2355  0.0092
 4903SOL    HW226169   4.501   0.154  10.827  0.1768  0.8152  0.2462
 4904SOL     OW26170   0.475   4.074   3.550 -0.5768 -0.2627 -0.1223
 4904SOL    HW126171   0.554   4.020   3.559  0.9879  2.1125  0.4160
 4904SOL    HW226172   0.510   4.162   3.565 -1.5858  0.1166 -0.0546
 4905SOL     OW26173   0.653   2.799   8.038  0.2966  0.1283 -0.0181
 4905SOL    HW126174   0.642   2.754   7.955 -1.9404 -1.6216  1.2209
 4905SOL    HW226175   0.583   2.865   8.037  0.2378  0.0805  0.6634
 4906SOL     OW26176   4.495   4.100   3.870 -0.0659 -0.0786  0.9171
 4906SOL    HW126177   4.581   4.066   3.897  0.1896  0.6514  1.0204
 4906SOL    HW226178   4.513   4.194   3.861 -1.3892  0.2551  1.7539
 4907SOL     OW26179   3.775   2.213   8.038 -0.1414 -0.0715 -0.2765
 4907SOL    HW126180   3.837   2.142   8.023 -1.6177 -1.0545 -1.7538
 4907SOL    HW226181   3.748   2.233   7.949 -0.1473  1.1919  0.0205
 4908SOL     OW26182   0.099   3.953  14.326 -0.0152  0.4233  0.3742
 4908SOL    HW126183   0.050   3.908  14.257 -1.0605  0.7415  0.8931
 4908SOL    HW226184   0.030   3.978  14.388  0.2043  0.0888  0.7449
 4909SOL     OW26185   1.076   0.352   6.609 -0.0490  0.7926 -0.5331
 4909SOL    HW126186   1.118   0.381   6.690 -0.9829 -0.1943  0.3196
 4909SOL    HW226187   0.992   0.323   6.645  2.4085 -4.2268  1.2271
 4910SOL     OW26188   0.562   0.787   5.313 -0.3171 -0.3411 -0.1846
 4910SOL    HW126189   0.472   0.819   5.304 -0.7351 -1.8917 -1.4995
 4910SOL    HW226190   0.612   0.866   5.289 -0.4433  0.2967  1.6380
 4911SOL     OW26191   1.238   4.000   5.856 -0.1523 -0.2064  0.2270
 4911SOL    HW126192   1.294   3.931   5.820  0.1270  0.2899 -0.2829
 4911SOL    HW226193   1.301   4.069   5.838 -0.0752  0.1356  1.8331
 4912SOL     OW26194   3.302   0.789   4.482 -0.6081  0.8948 -0.3648
 4912SOL    HW126195   3.288   0.697   4.458 -0.5990  0.7656  0.1388
 4912SOL    HW226196   3.226   0.830   4.440 -1.5820  0.0522  0.5932
 4913SOL     OW26197   0.694   3.593  13.248 -0.6010 -0.2769  0.2715
 4913SOL    HW126198   0.776   3.642  13.243  0.6216 -2.4546 -0.7758
 4913SOL    HW226199   0.653   3.657  13.306  3.6952  0.3526  2.5771
 4914SOL     OW26200   4.563   3.906   7.649  0.1438 -0.3348  0.2868
 4914SOL    HW126201   4.652   3.943   7.648  0.4063 -0.9855 -0.8811
 4914SOL    HW226202   4.578   3.821   7.690 -0.8289  0.2170  1.7761
 4915SOL     OW26203   0.056   0.352   8.620  0.2656 -0.0010 -0.3113
 4915SOL    HW126204   0.064   0.420   8.686  2.7696 -2.2863  1.7634
 4915SOL    HW226205   4.703   0.305   8.661 -0.1214  1.6566  0.9033
 4916SOL     OW26206   1.048   2.211   2.766  0.1098 -0.0646  0.1245
 4916SOL    HW126207   0.982   2.277   2.746 -0.0024  0.0324  0.8185
 4916SOL    HW226208   1.124   2.265   2.788 -1.1405  1.6520  0.1678
 4917SOL     OW26209   4.589   3.662   8.208 -0.1459 -0.4752 -0.2945
 4917SOL    HW126210   4.578   3.608   8.286 -0.8991  0.8657  0.5413
 4917SOL    HW226211   4.654   3.724   8.243 -0.7856 -0.5737  1.0631
 4918SOL     OW26212   0.410   2.028   3.626  0.3016  0.4049  0.4075
 4918SOL    HW126213   0.500   2.016   3.594  0.5147  1.2175  0.6996
 4918SOL    HW226214   0.414   2.078   3.708 -0.9527 -1.9402  1.8715
 4919SOL     OW26215   2.997   3.381   7.734  0.3629  0.5422 -0.0192
 4919SOL    HW126216   2.919   3.336   7.766  0.0628  0.6380 -0.6177
 4919SOL    HW226217   3.040   3.313   7.683 -1.4985 -0.9800  0.4502
 4920SOL     OW26218   3.088   0.684   6.427  0.0679  0.0646 -0.1365
 4920SOL    HW126219   3.059   0.707   6.339 -0.2126 -1.1747 -0.3644
 4920SOL    HW226220   3.125   0.770   6.446  0.3025  0.2528 -1.4045
 4921SOL     OW26221   0.748   1.816   7.099  0.3683 -0.1045  0.4301
 4921SOL    HW126222   0.684   1.783   7.036  0.6145  0.4163 -0.0856
 4921SOL    HW226223   0.748   1.748   7.167  1.8684 -1.3055 -0.7604
 4922SOL     OW26224   2.823   3.143   3.230  0.0381  0.7348  0.2212
 4922SOL    HW126225   2.743   3.104   3.194  1.1855 -1.1188 -0.3086
 4922SOL    HW226226   2.823   3.104   3.317  0.8383  0.8718  0.2803
 4923SOL     OW26227   2.567   4.074   8.358 -0.3977  0.1949 -0.0012
 4923SOL    HW126228   2.605   4.100   8.442  0.1619  1.7647 -0.7397
 4923SOL    HW226229   2.492   4.021   8.385  0.4598  0.0187  2.0661
 4924SOL     OW26230   2.527   3.759   5.530  0.2965 -0.2594 -0.3202
 4924SOL    HW126231   2.542   3.840   5.481 -1.1930 -1.0299 -2.0111
 4924SOL    HW226232   2.600   3.704   5.502  2.5373  2.3261  0.4128
 4925SOL     OW26233   0.234   0.784   6.510  0.0202  0.2638  0.4510
 4925SOL    HW126234   0.253   0.726   6.436 -0.7084 -0.7207  1.0324
 4925SOL    HW226235   0.320   0.799   6.547 -0.3594  1.1958  0.9659
 4926SOL     OW26236   0.206   0.329   8.149  0.3558  0.7083  0.4087
 4926SOL    HW126237   0.279   0.300   8.204  1.0116 -0.9284 -1.3085
 4926SOL    HW226238   0.224   0.414   8.109 -2.0679  1.8898  1.8239
 4927SOL     OW26239   2.631   0.247  16.574 -0.4346  0.1911  0.0495
 4927SOL    HW126240   2.652   0.333  16.539 -4.2426  2.1609  2.6140
 4927SOL    HW226241   2.537   0.250  16.591 -0.1666  0.5012  1.4369
 4928SOL     OW26242   0.305   1.075   2.394 -0.4269 -0.4961 -0.2565
 4928SOL    HW126243   0.251   1.087   2.473 -0.0760  1.5774 -0.3153
 4928SOL    HW226244   0.236   1.093   2.330 -0.6645 -0.3490  0.0384
 4929SOL     OW26245   2.955   0.267   6.792  0.5680  0.0740 -1.0620
 4929SOL    HW126246   2.918   0.353   6.776 -0.8167 -1.1440 -4.3028
 4929SOL    HW226247   3.021   0.289   6.858 -0.9889  1.2268  0.1165
 4930SOL     OW26248   3.403   3.506   7.370  0.6161  0.4268 -0.0274
 4930SOL    HW126249   3.480   3.502   7.426  0.3249 -1.1607  0.2637
 4930SOL    HW226250   3.381   3.599   7.360 -0.8779  0.2111  1.2239
 4931SOL     OW26251   3.528   3.799   8.847 -0.1966  0.1606  0.3661
 4931SOL    HW126252   3.483   3.779   8.764 -0.3089  2.2651 -0.0883
 4931SOL    HW226253   3.453   3.826   8.901 -1.1872  1.5059 -1.6733
 4932SOL     OW26254   3.171   0.021   0.249  0.2202 -0.0824 -0.3023
 4932SOL    HW126255   3.254   4.714   0.288  0.3305 -0.1231 -0.5643
 4932SOL    HW226256   3.197   0.021   0.157  1.2469  0.3325 -0.0166
 4933SOL     OW26257   2.211   2.977   5.336  0.0116  0.1713  0.5073
 4933SOL    HW126258   2.234   3.070   5.338  0.1279  0.1365  0.8748
 4933SOL    HW226259   2.272   2.945   5.403  1.1605  0.7421 -0.2656
 4934SOL     OW26260   2.337   4.531  11.466 -0.1288 -0.0061  0.2217
 4934SOL    HW126261   2.368   4.456  11.517 -0.5898 -1.9410 -2.3140
 4934SOL    HW226262   2.405   4.537  11.398 -4.1992 -0.4968 -3.8731
 4935SOL     OW26263   2.919   3.169  11.454 -0.2657 -0.4323 -0.1793
 4935SOL    HW126264   2.998   3.213  11.486 -0.8008 -0.5766  1.3888
 4935SOL    HW226265   2.878   3.234  11.398  1.6282  1.7220  0.9401
 4936SOL     OW26266   2.591   2.994   7.123 -0.1056  0.0112  0.0496
 4936SOL    HW126267   2.634   2.918   7.083 -0.2270  0.7283 -1.4717
 4936SOL    HW226268   2.571   3.051   7.048  3.6321  1.2330 -0.0176
 4937SOL     OW26269   4.074   3.105   5.270  0.2093 -0.4563  0.5331
 4937SOL    HW126270   4.010   3.144   5.210  2.1547 -0.0298 -1.2611
 4937SOL    HW226271   4.098   3.025   5.224  1.3029  0.1964 -0.0295
 4938SOL     OW26272   3.404   4.578   4.821 -0.0280  0.6119  0.2066
 4938SOL    HW126273   3.484   4.569   4.873 -1.9013  1.0065  3.1396
 4938SOL    HW226274   3.390   4.672   4.826  1.3490  0.7145  2.0072
 4939SOL     OW26275   2.999   0.866   9.628  0.2525 -0.0797  0.1040
 4939SOL    HW126276   3.044   0.951   9.628 -3.1660  1.7140 -1.0706
 4939SOL    HW226277   3.070   0.802   9.638  0.7453  0.5439  0.5611
 4940SOL     OW26278   2.999   1.747   5.307 -0.0607 -0.8526  0.1395
 4940SOL    HW126279   3.081   1.730   5.260  0.6301  0.1714  0.9654
 4940SOL    HW226280   3.015   1.686   5.379  1.4377  0.1873  0.6927
 4941SOL     OW26281   0.643   4.661   6.138 -0.4685 -0.5251 -0.1634
 4941SOL    HW126282   0.604   4.639   6.053 -2.7619 -0.9056  0.9724
 4941SOL    HW226283   0.590   4.610   6.199 -0.3841  0.1777  0.4973
 4942SOL     OW26284   4.524   0.086  14.253  0.3573  0.2727  0.0452
 4942SOL    HW126285   4.591   0.135  14.206  1.7799  0.3380  2.1313
 4942SOL    HW226286   4.510   0.010  14.196  1.9736  1.1840 -1.5314
 4943SOL     OW26287   2.377   1.468  12.911  0.3487  0.2723  0.4633
 4943SOL    HW126288   2.311   1.495  12.848  0.4504  0.9970  0.6678
 4943SOL    HW226289   2.453   1.446  12.857 -0.1258 -1.3205  0.4256
 4944SOL     OW26290   4.593   4.097   7.292 -0.2120 -0.4393 -0.2219
 4944SOL    HW126291   4.617   4.127   7.380  0.0768 -1.1712 -0.0544
 4944SOL    HW226292   4.636   4.012   7.299  0.7252 -0.1091 -1.8180
 4945SOL     OW26293   2.172   1.016   2.083  0.3144  0.0168  0.5391
 4945SOL    HW126294   2.240   0.993   2.020 -0.4855  1.2710 -0.7884
 4945SOL    HW226295   2.128   0.932   2.095  1.0693 -0.4852 -0.2677
 4946SOL     OW26296   3.962   1.615  14.440  0.3815  0.0645  0.7119
 4946SOL    HW126297   4.029   1.548  14.438  0.2649 -0.0633  1.0086
 4946SOL    HW226298   3.991   1.670  14.514  0.2905  0.7801  0.2194
 4947SOL     OW26299   1.254   1.174   7.830 -0.0614  0.3065  0.2645
 4947SOL    HW126300   1.321   1.127   7.780  0.0423  0.5429  0.1789
 4947SOL    HW226301   1.313   1.210   7.896  1.2643  0.2383 -0.8838
 4948SOL     OW26302   2.048   4.378   8.667  0.3906  0.0002 -0.8487
 4948SOL    HW126303   1.956   4.401   8.651 -0.0565 -0.6707  0.7806
 4948SOL    HW226304   2.056   4.380   8.762 -0.4094  0.5385 -0.7991
 4949SOL     OW26305   4.456   0.389   6.422  0.2646 -0.8427 -0.0136
 4949SOL    HW126306   4.405   0.318   6.460 -2.4526  0.2856 -1.5430
 4949SOL    HW226307   4.523   0.413   6.486 -2.3683  0.6097  2.1930
 4950SOL     OW26308   1.615   3.414   8.311  0.0301 -0.1491  0.0805
 4950SOL    HW126309   1.699   3.403   8.355 -0.8403 -0.2844  1.6977
 4950SOL    HW226310   1.627   3.508   8.297 -0.1611 -0.2736 -0.9080
 4951SOL     OW26311   2.828   3.245  15.318  0.4310  0.0242 -0.0274
 4951SOL    HW126312   2.824   3.157  15.356  1.1665 -0.0863 -0.2034
 4951SOL    HW226313   2.777   3.237  15.238 -1.2997  1.1453  0.9774
 4952SOL     OW26314   3.543   4.301   7.697  0.2471  0.1105 -0.7530
 4952SOL    HW126315   3.566   4.287   7.605 -0.4645 -0.0833 -0.9068
 4952SOL    HW226316   3.580   4.215   7.720 -0.3194 -0.1588 -0.8511
 4953SOL     OW26317   4.050   0.855   3.486 -0.0793  0.3422  0.0211
 4953SOL    HW126318   4.043   0.949   3.468  1.1275  0.6780  1.2720
 4953SOL    HW226319   3.963   0.819   3.471  0.1678 -0.3350  0.2242
 4954SOL     OW26320   1.377   1.056   6.258 -0.1347 -0.2359 -0.7338
 4954SOL    HW126321   1.379   1.027   6.349 -1.8437 -1.0037 -0.9468
 4954SOL    HW226322   1.471   1.073   6.251  0.0808 -0.7805  0.8803
 4955SOL     OW26323   2.327   2.561  10.699  0.2647  0.0907 -0.0576
 4955SOL    HW126324   2.270   2.588  10.772  0.2647  1.7445 -0.6716
 4955SOL    HW226325   2.349   2.636  10.644 -2.0502  2.5236  2.3218
 4956SOL     OW26326   0.739   1.503   2.508 -0.2498  0.2071  0.3518
 4956SOL    HW126327   0.753   1.486   2.415  0.6628 -1.0805  0.7225
 4956SOL    HW226328   0.786   1.434   2.555  0.7141  0.7855  0.2396
 4957SOL     OW26329   1.794   1.750   8.044 -0.5527  0.3264 -0.3040
 4957SOL    HW126330   1.701   1.731   8.051 -0.4285 -0.7617 -1.7137
 4957SOL    HW226331   1.815   1.699   7.966 -0.8033 -0.8960  0.4184
 4958SOL     OW26332   0.222   3.198  12.549 -0.1749 -0.0136  0.1585
 4958SOL    HW126333   0.202   3.246  12.630  2.8031 -0.3488  1.1231
 4958SOL    HW226334   0.248   3.264  12.485 -0.5883 -1.5577 -1.6057
 4959SOL     OW26335   0.213   0.632  11.976 -0.0550  0.1283 -0.2222
 4959SOL    HW126336   0.261   0.714  11.972 -2.1373  1.3759  0.5640
 4959SOL    HW226337   0.138   0.670  12.022  0.5969 -0.3112  1.2089
 4960SOL     OW26338   2.834   4.093   5.148  0.0701 -0.6723  0.3153
 4960SOL    HW126339   2.862   4.031   5.215  0.9436  1.2204  1.6995
 4960SOL    HW226340   2.916   4.101   5.100 -0.6729  1.7780 -0.5529
 4961SOL     OW26341   4.417   3.259   3.469  0.2362  0.3271 -0.1579
 4961SOL    HW126342   4.494   3.242   3.523  0.3261 -1.3673 -0.8140
 4961SOL    HW226343   4.438   3.221   3.384  1.1134 -0.0513  0.2309
 4962SOL     OW26344   0.009   2.795   6.612  0.0732 -0.2828  0.3731
 4962SOL    HW126345   4.641   2.830   6.592  0.6723  1.5394  0.9556
 4962SOL    HW226346   0.030   2.863   6.676  2.3059 -0.0732 -0.6078
 4963SOL     OW26347   3.418   0.006   4.273 -0.5096  0.2975  0.2646
 4963SOL    HW126348   3.455   0.088   4.239  0.9778 -0.2466  0.5838
 4963SOL    HW226349   3.422   0.031   4.365  0.0259 -0.3014  0.3999
 4964SOL     OW26350   4.171   3.923  16.640  0.4674  0.1245  0.4175
 4964SOL    HW126351   4.214   3.995  16.594  1.3979  1.5005  3.4270
 4964SOL    HW226352   4.229   3.908  16.715  0.4951 -0.0316  0.3645
 4965SOL     OW26353   2.729   4.014   5.957 -0.4177  0.0035 -0.6857
 4965SOL    HW126354   2.731   4.102   5.919 -0.8949  0.0078 -0.7046
 4965SOL    HW226355   2.688   4.018   6.043  2.2826  0.7515  0.5749
 4966SOL     OW26356   0.863   1.760   3.279  0.3565 -0.1071 -0.1968
 4966SOL    HW126357   0.889   1.675   3.244 -2.3553 -0.4948 -1.2226
 4966SOL    HW226358   0.849   1.736   3.370 -0.8266 -0.4575 -0.4742
 4967SOL     OW26359   1.055   1.897   7.296  0.4282 -0.3470  0.4039
 4967SOL    HW126360   0.974   1.856   7.327  0.1891  0.6274  1.0431
 4967SOL    HW226361   1.096   1.823   7.251  1.1133  0.1032  0.2905
 4968SOL     OW26362   2.191   1.025   2.382  0.3788  0.0816 -0.3155
 4968SOL    HW126363   2.169   0.941   2.342 -4.3100  1.1194  0.0504
 4968SOL    HW226364   2.159   1.075   2.307  0.1498  1.2258  0.5551
 4969SOL     OW26365   3.039   1.665   7.819 -0.1627 -0.0851 -0.0187
 4969SOL    HW126366   2.970   1.692   7.759  0.8253 -0.9941 -1.5514
 4969SOL    HW226367   3.038   1.569   7.827 -2.9000  0.2159  3.2872
 4970SOL     OW26368   0.087   2.498   2.137 -0.1861 -0.3927  0.2705
 4970SOL    HW126369   0.167   2.469   2.094  0.2985  0.6613  0.4440
 4970SOL    HW226370   0.115   2.581   2.177  0.5934 -1.4375  1.9061
 4971SOL     OW26371   0.553   3.135   5.064 -0.3831 -0.3125  0.2169
 4971SOL    HW126372   0.598   3.199   5.008 -0.2692  0.1072  0.7789
 4971SOL    HW226373   0.599   3.166   5.142  0.1007  2.3864 -1.1164
 4972SOL     OW26374   3.795   0.084   2.237  0.5716  0.3864  0.5779
 4972SOL    HW126375   3.746   0.143   2.179 -1.0630  0.5236  2.0841
 4972SOL    HW226376   3.839   0.154   2.284 -0.6076  2.1691 -0.9808
 4973SOL     OW26377   1.528   4.383   1.958  1.0856  0.3622 -0.6533
 4973SOL    HW126378   1.495   4.346   1.876 -0.0799  1.4674 -0.6759
 4973SOL    HW226379   1.606   4.427   1.924  2.3206 -2.0024 -0.9085
 4974SOL     OW26380   2.351   4.693   4.297  0.7136 -0.3611  0.1916
 4974SOL    HW126381   2.273   4.710   4.350 -1.0811 -1.1411 -2.1649
 4974SOL    HW226382   2.421   0.009   4.352  0.5685 -0.5662  0.5103
 4975SOL     OW26383   1.397   1.944  13.967  0.4802 -0.5452 -0.2398
 4975SOL    HW126384   1.432   1.916  14.052  1.0029 -0.3833 -0.4023
 4975SOL    HW226385   1.353   2.024  13.997 -0.5465 -0.8598 -0.9220
 4976SOL     OW26386   3.004   4.408   4.151 -0.1328 -0.6233  0.3051
 4976SOL    HW126387   3.080   4.466   4.158  1.0396 -1.8936 -1.6742
 4976SOL    HW226388   3.051   4.326   4.132 -2.0016 -1.4952 -0.5134
 4977SOL     OW26389   1.705   1.314   7.194 -0.4946  0.1092 -0.2650
 4977SOL    HW126390   1.667   1.369   7.126 -0.3035 -0.7308 -1.0696
 4977SOL    HW226391   1.680   1.225   7.166  0.9471  0.1499 -1.7273
 4978SOL     OW26392   0.784   1.499   2.242  0.6424 -0.2315  0.3189
 4978SOL    HW126393   0.874   1.531   2.236  0.9967 -1.0836  1.1296
 4978SOL    HW226394   0.762   1.490   2.150 -2.1409  0.8243  0.8647
 4979SOL     OW26395   4.268   1.438   8.749  0.3186 -0.1205  0.0210
 4979SOL    HW126396   4.255   1.392   8.832 -2.1095 -1.0430 -0.8662
 4979SOL    HW226397   4.310   1.517   8.783  1.0876 -1.2442  1.6879
 4980SOL     OW26398   4.392   1.450   3.547 -0.0057 -0.2994 -0.3862
 4980SOL    HW126399   4.321   1.423   3.606  0.1439 -1.6495 -0.8264
 4980SOL    HW226400   4.384   1.377   3.485 -2.0398 -1.2774  0.9960
 4981SOL     OW26401   0.725   4.050  12.141 -0.3181  0.1465  0.6558
 4981SOL    HW126402   0.698   4.141  12.153 -1.4061  0.0353 -0.9874
 4981SOL    HW226403   0.694   4.012  12.223 -2.4791  1.3061  0.3729
 4982SOL     OW26404   0.980   2.544   6.931 -0.1889 -0.1177  0.0514
 4982SOL    HW126405   0.993   2.456   6.968  2.2315 -0.6933 -2.1752
 4982SOL    HW226406   0.938   2.587   7.005  0.5240 -0.7251  0.8135
 4983SOL     OW26407   0.630   1.008   1.886  0.4539 -0.5889 -0.3229
 4983SOL    HW126408   0.648   0.917   1.910 -1.1074 -0.5066  1.1314
 4983SOL    HW226409   0.710   1.043   1.926 -0.4581  1.2781 -0.1777
 4984SOL     OW26410   2.599   1.095   3.851 -0.2373  0.1333  0.4164
 4984SOL    HW126411   2.645   1.021   3.890 -0.9188  1.0933  3.0081
 4984SOL    HW226412   2.660   1.154   3.807 -2.7859  1.8529 -0.8518
 4985SOL     OW26413   3.326   3.346   9.480 -0.5422  0.7459 -0.0011
 4985SOL    HW126414   3.268   3.312   9.548 -0.0827  1.4658  0.7585
 4985SOL    HW226415   3.264   3.349   9.407 -1.4724 -0.6052  0.7305
 4986SOL     OW26416   1.057   2.860   5.336  0.2359  0.0424  0.2782
 4986SOL    HW126417   0.998   2.840   5.263  1.2581 -1.9720  0.0026
 4986SOL    HW226418   0.995   2.885   5.405  0.6336  0.6924  0.3994
 4987SOL     OW26419   1.243   3.613   5.970 -0.3344 -0.0635  0.1681
 4987SOL    HW126420   1.196   3.674   6.028 -0.0208 -0.3179  0.6919
 4987SOL    HW226421   1.183   3.540   5.959 -1.1630  0.4319  1.3589
 4988SOL     OW26422   3.102   1.253   4.893  0.4013  0.6389 -0.3405
 4988SOL    HW126423   3.116   1.306   4.814  0.9957 -0.9097 -1.2670
 4988SOL    HW226424   3.040   1.191   4.857 -1.8932  1.8519  1.5338
 4989SOL     OW26425   2.319   3.394   1.351 -0.0434 -0.2272 -0.1798
 4989SOL    HW126426   2.337   3.354   1.436  0.1728  0.9433  0.3336
 4989SOL    HW226427   2.237   3.349   1.331 -0.6937  1.5853 -1.6649
 4990SOL     OW26428   1.301   0.548  12.754  0.4380 -0.2599  0.0665
 4990SOL    HW126429   1.362   0.606  12.709 -1.4497  1.7364  0.0614
 4990SOL    HW226430   1.247   0.523  12.679  0.8231  1.5589 -0.8350
 4991SOL     OW26431   1.934   2.358   7.368  0.9614 -0.1880  0.4099
 4991SOL    HW126432   1.979   2.298   7.427 -2.2437 -2.7190  0.3001
 4991SOL    HW226433   1.985   2.349   7.288  2.3504  0.7001  1.1948
 4992SOL     OW26434   2.380   1.505  15.539 -0.1019  0.0785  0.0914
 4992SOL    HW126435   2.332   1.571  15.490 -1.7226  1.1820  3.2001
 4992SOL    HW226436   2.360   1.522  15.631 -0.7163  0.1687 -0.0579
 4993SOL     OW26437   1.879   2.786   0.648  0.5869  0.3588  0.1497
 4993SOL    HW126438   1.931   2.814   0.573 -0.7048 -2.1125 -1.6369
 4993SOL    HW226439   1.916   2.702   0.674 -1.1616 -0.5525 -0.3523
 4994SOL     OW26440   3.909   3.051   1.549 -0.4999  0.3587  0.1945
 4994SOL    HW126441   3.834   3.089   1.594 -0.2688  1.8703 -0.6808
 4994SOL    HW226442   3.874   2.963   1.537  1.2153 -0.1870 -0.9427
 4995SOL     OW26443   1.477   3.367  11.776  0.3492 -0.1844 -0.5352
 4995SOL    HW126444   1.489   3.273  11.791 -1.4625 -0.1625  1.1131
 4995SOL    HW226445   1.520   3.387  11.859  0.8983 -2.7813 -0.1855
 4996SOL     OW26446   2.689   2.817  14.754 -0.0551  0.2501 -0.2604
 4996SOL    HW126447   2.769   2.870  14.756 -0.8614  1.6732 -3.9900
 4996SOL    HW226448   2.629   2.885  14.721 -0.3696 -0.9099 -2.0749
 4997SOL     OW26449   1.482   0.233  11.485 -0.4590 -0.0851 -0.6923
 4997SOL    HW126450   1.473   0.144  11.450  0.8065 -0.0440 -1.1095
 4997SOL    HW226451   1.453   0.271  11.402 -2.2712 -1.1246 -0.5451
 4998SOL     OW26452   0.382   2.340   1.672  0.0711  0.0075 -0.6472
 4998SOL    HW126453   0.318   2.345   1.600 -1.1034  0.6790  0.4456
 4998SOL    HW226454   0.320   2.305   1.735  0.8737  0.3819  0.3456
 4999SOL     OW26455   4.591   4.236  14.939  1.1277  0.4216 -0.0706
 4999SOL    HW126456   4.671   4.277  14.905  1.8964  0.6204  1.9917
 4999SOL    HW226457   4.581   4.287  15.019 -1.0094 -1.6624  0.9910
 5000SOL     OW26458   0.109   4.633   1.516  0.0395  0.3729 -0.7620
 5000SOL    HW126459   0.105   4.602   1.426 -1.4589  1.5784 -1.1254
 5000SOL    HW226460   0.126   0.006   1.500  1.3462  0.2077 -0.2985
 5001SOL     OW26461   0.392   0.750   5.851 -0.1367  0.0256  0.6784
 5001SOL    HW126462   0.380   0.829   5.798  2.1688 -0.6732 -0.8528
 5001SOL    HW226463   0.301   0.720   5.858 -0.0047 -0.9650 -2.0911
 5002SOL     OW26464   1.670   1.951  15.814 -0.0864  0.3167 -0.1989
 5002SOL    HW126465   1.719   1.950  15.896 -0.2416  2.7326 -0.0733
 5002SOL    HW226466   1.589   1.996  15.839 -0.2208 -0.1924  0.2962
 5003SOL     OW26467   3.899   0.503  12.895 -0.6326 -0.6896 -0.1876
 5003SOL    HW126468   3.885   0.597  12.909 -1.1005 -0.7802 -0.0384
 5003SOL    HW226469   3.946   0.487  12.977 -1.0633  1.5005  0.4847
 5004SOL     OW26470   2.781   3.249  14.092  0.1341  0.1957  0.4196
 5004SOL    HW126471   2.850   3.193  14.057 -1.2053 -1.1030 -0.1442
 5004SOL    HW226472   2.809   3.339  14.076  0.7183 -0.0920 -0.1733
 5005SOL     OW26473   2.376   3.258   3.556  0.0578  0.1365 -0.5716
 5005SOL    HW126474   2.311   3.202   3.514  0.5456 -1.4502  0.7747
 5005SOL    HW226475   2.408   3.295   3.473  0.6886 -2.4412 -1.5041
 5006SOL     OW26476   1.735   1.513  17.081  0.5386  0.7016  0.0563
 5006SOL    HW126477   1.681   1.442  17.116  2.3304 -1.2373 -1.1155
 5006SOL    HW226478   1.732   1.499  16.986  0.7691 -0.1306  0.1665
 5007SOL     OW26479   1.184   3.172   4.607  0.1496 -0.1535 -0.5096
 5007SOL    HW126480   1.253   3.143   4.546 -0.1272  1.1695 -1.4532
 5007SOL    HW226481   1.113   3.197   4.548  0.7803  1.6586 -0.4741
 5008SOL     OW26482   1.080   2.303   6.416  0.3885 -0.3034 -0.0020
 5008SOL    HW126483   1.094   2.294   6.510  1.9098  0.8918 -0.1060
 5008SOL    HW226484   1.005   2.245   6.405  1.2450 -1.2473 -0.9537
 5009SOL     OW26485   0.999   0.743   3.896 -0.1635 -0.2132 -0.0146
 5009SOL    HW126486   0.919   0.729   3.846 -0.0941  0.5494 -0.3375
 5009SOL    HW226487   1.062   0.745   3.824  0.5246  0.0798  0.5905
 5010SOL     OW26488   3.465   1.765   1.833  0.6747 -0.1344 -0.1061
 5010SOL    HW126489   3.515   1.843   1.807  0.5084  0.0807  0.2210
 5010SOL    HW226490   3.506   1.756   1.919  0.2321  1.7851  0.3018
 5011SOL     OW26491   0.783   0.775   8.477  0.5886 -0.6049  0.3647
 5011SOL    HW126492   0.791   0.681   8.496  0.9237 -0.6685 -0.1065
 5011SOL    HW226493   0.875   0.799   8.468 -0.1041  1.4571 -1.1789
 5012SOL     OW26494   3.258   2.153   3.678  0.1096 -0.0276  0.3548
 5012SOL    HW126495   3.298   2.186   3.598  1.4342  0.8550  1.3697
 5012SOL    HW226496   3.297   2.215   3.740 -0.8291  0.5213  0.4106
 5013SOL     OW26497   3.550   4.136   0.069  0.7239 -0.2596 -0.0576
 5013SOL    HW126498   3.469   4.109   0.027  0.6785  0.4685 -0.4337
 5013SOL    HW226499   3.574   4.044   0.082 -0.0082 -0.2733  1.1938
 5014SOL     OW26500   3.724   2.457  16.778  0.5046 -0.4154 -0.1791
 5014SOL    HW126501   3.685   2.424  16.697 -2.4841  2.7868 -0.0481
 5014SOL    HW226502   3.657   2.477  16.844  0.2821 -0.4593 -0.3884
 5015SOL     OW26503   0.302   1.105  12.616  0.0842 -0.4155  0.0188
 5015SOL    HW126504   0.394   1.132  12.618 -0.2019  0.4792  1.1820
 5015SOL    HW226505   0.295   1.107  12.520 -4.4125  1.6020  0.3925
 5016SOL     OW26506   2.638   3.242  11.335  0.0539 -0.0627 -0.6656
 5016SOL    HW126507   2.622   3.227  11.428  1.3162  2.7709  0.0229
 5016SOL    HW226508   2.588   3.324  11.329  1.5912  1.0071  1.2250
 5017SOL     OW26509   2.603   3.935   7.469 -0.0348  0.5634  0.4141
 5017SOL    HW126510   2.649   3.979   7.398  1.6315 -0.6054  0.7589
 5017SOL    HW226511   2.602   3.854   7.418  0.9315  1.3037 -0.7790
 5018SOL     OW26512   3.147   3.694   5.087  0.4864  0.3056  0.1036
 5018SOL    HW126513   3.183   3.728   5.004  2.6790 -2.9921 -0.2883
 5018SOL    HW226514   3.208   3.738   5.146  0.8607  1.8517 -1.4029
 5019SOL     OW26515   1.712   1.350   5.911 -0.0010 -0.1945 -0.4258
 5019SOL    HW126516   1.758   1.410   5.852  0.9882  0.2122  0.7701
 5019SOL    HW226517   1.674   1.289   5.847 -0.4057 -0.1587 -0.2161
 5020SOL     OW26518   2.428   1.880   4.673  0.0667  0.3956  0.0348
 5020SOL    HW126519   2.395   1.966   4.649 -2.1001  0.2849  2.5998
 5020SOL    HW226520   2.472   1.844   4.596 -1.0446 -0.7321 -0.0764
 5021SOL     OW26521   3.704   3.514   5.277  0.6700  0.1821  0.9758
 5021SOL    HW126522   3.784   3.479   5.237 -1.1670  0.2459 -2.7634
 5021SOL    HW226523   3.633   3.472   5.229  0.8697  2.6312 -1.5252
 5022SOL     OW26524   2.956   3.878   5.934 -0.4007 -0.0191 -0.5678
 5022SOL    HW126525   2.956   3.874   5.838  1.3299  1.5467 -0.6174
 5022SOL    HW226526   2.876   3.929   5.949 -0.3653 -0.3384  0.7244
 5023SOL     OW26527   0.535   3.513   3.268  0.0831 -0.3924  0.3546
 5023SOL    HW126528   0.563   3.460   3.343 -1.3279  0.7342  1.6644
 5023SOL    HW226529   0.479   3.445   3.229 -0.8081  0.4752  0.1453
 5024SOL     OW26530   2.927   2.081   3.927 -0.0725  0.0275  0.0410
 5024SOL    HW126531   2.871   2.128   3.865 -0.0185  1.9506  1.4421
 5024SOL    HW226532   2.973   2.151   3.974  0.2205  0.7107 -1.2540
 5025SOL     OW26533   1.746   1.443  15.196  0.6867 -0.3592 -0.3430
 5025SOL    HW126534   1.838   1.428  15.174  0.4160  0.0317 -1.7565
 5025SOL    HW226535   1.703   1.424  15.112 -3.6920  3.2675  1.1128
 5026SOL     OW26536   3.339   4.344   3.119 -0.3106  0.3106  1.1171
 5026SOL    HW126537   3.288   4.370   3.042  0.3571 -0.5823  0.3744
 5026SOL    HW226538   3.403   4.281   3.086 -2.4066  0.3831 -3.2276
 5027SOL     OW26539   3.672   2.067  12.660  0.3359 -0.1399 -0.5549
 5027SOL    HW126540   3.638   2.147  12.621  0.4704  1.0944  1.8226
 5027SOL    HW226541   3.595   2.009  12.659  0.2227 -0.0291  1.4245
 5028SOL     OW26542   3.215   2.544   9.096  0.3195 -0.3390 -0.6051
 5028SOL    HW126543   3.214   2.504   9.009 -0.0838 -3.4990  0.8588
 5028SOL    HW226544   3.291   2.603   9.096 -0.0228  0.0957 -0.8603
 5029SOL     OW26545   2.918   3.601   8.722  0.1037  0.2774  0.8289
 5029SOL    HW126546   2.936   3.522   8.773 -0.6480 -1.3205 -1.4064
 5029SOL    HW226547   2.826   3.597   8.696  1.0713  1.6326 -2.8287
 5030SOL     OW26548   4.329   0.169   8.104 -0.2736 -0.1932  0.2793
 5030SOL    HW126549   4.344   0.164   8.198  0.3208 -4.4631 -0.0540
 5030SOL    HW226550   4.260   0.236   8.103 -0.4762 -0.4045  0.1870
 5031SOL     OW26551   2.921   1.689   9.078  0.3304 -0.3680  0.3323
 5031SOL    HW126552   2.871   1.672   8.999  0.0928  2.6923 -0.1628
 5031SOL    HW226553   2.985   1.751   9.042  0.9137 -0.8034  0.5985
 5032SOL     OW26554   3.209   1.543   5.124 -0.0148  0.2336  0.7217
 5032SOL    HW126555   3.209   1.600   5.048  1.3898 -0.6210  0.0737
 5032SOL    HW226556   3.304   1.544   5.141  0.0732 -0.6378  0.2885
 5033SOL     OW26557   4.472   2.483   6.271 -0.3824 -0.1700 -0.4647
 5033SOL    HW126558   4.509   2.563   6.308  4.3572 -1.9535 -1.3802
 5033SOL    HW226559   4.383   2.490   6.306 -0.3300  2.5214 -0.8825
 5034SOL     OW26560   1.008   0.943   0.052  0.4505 -0.3522  0.5877
 5034SOL    HW126561   1.053   0.859   0.067  1.0865 -0.1441 -0.1497
 5034SOL    HW226562   0.947   0.946   0.126  1.6284 -1.0831  1.6000
 5035SOL     OW26563   2.153   0.237   7.726  0.2063 -0.0398 -0.6792
 5035SOL    HW126564   2.187   0.321   7.695 -0.7698  0.9502  0.9379
 5035SOL    HW226565   2.147   0.249   7.821 -2.2856  1.3159 -0.9995
 5036SOL     OW26566   4.221   1.837  11.335  0.6840 -0.2651 -0.0593
 5036SOL    HW126567   4.216   1.797  11.421 -2.4199 -0.7888 -0.4902
 5036SOL    HW226568   4.243   1.928  11.353 -2.4457  0.3469  0.6356
 5037SOL     OW26569   2.124   2.135  14.025  0.1434  0.3015 -0.1330
 5037SOL    HW126570   2.122   2.115  14.119 -0.5401  2.0546  0.2262
 5037SOL    HW226571   2.219   2.142  14.011  0.4845 -1.2212  1.3817
 5038SOL     OW26572   4.075   3.526  17.223 -0.0534 -0.0248  0.2422
 5038SOL    HW126573   4.147   3.475  17.185  2.4383  2.4448  1.6693
 5038SOL    HW226574   4.043   3.560  17.139 -3.4456  0.7423  1.8774
 5039SOL     OW26575   2.340   0.178  15.359  0.0857  0.7429  0.2505
 5039SOL    HW126576   2.283   0.103  15.377 -0.6415  0.8534 -1.5710
 5039SOL    HW226577   2.292   0.189  15.277 -0.0295 -0.7307  0.1111
 5040SOL     OW26578   0.666   1.115  12.348  0.2000 -0.6786  0.2285
 5040SOL    HW126579   0.597   1.147  12.406 -0.5747 -4.5703  1.4804
 5040SOL    HW226580   0.683   1.191  12.293 -0.4903 -0.7497 -0.0820
 5041SOL     OW26581   0.458   1.132  12.063 -0.5422 -0.4944 -0.5633
 5041SOL    HW126582   0.547   1.140  12.028 -0.5100  0.4607 -0.2724
 5041SOL    HW226583   0.439   1.221  12.093  3.0639  1.0298 -2.8629
 5042SOL     OW26584   2.505   2.964  14.631  0.0213 -0.3446 -0.1781
 5042SOL    HW126585   2.488   3.058  14.636 -1.5563 -0.7142  1.6158
 5042SOL    HW226586   2.451   2.941  14.555 -2.3278  1.1450  1.0224
 5043SOL     OW26587   1.713   0.226   5.138  0.1247 -0.4547 -0.6424
 5043SOL    HW126588   1.778   0.246   5.207 -2.9536  0.5788  1.9677
 5043SOL    HW226589   1.719   0.131   5.132  1.0981 -0.4960  0.7877
 5044SOL     OW26590   0.255   1.660   2.377 -0.0109 -0.3470  0.1063
 5044SOL    HW126591   0.303   1.632   2.299  0.6368  0.1131  0.3408
 5044SOL    HW226592   0.210   1.733   2.336  0.3598  0.0755  0.4566
 5045SOL     OW26593   1.746   0.859   4.705  0.2071 -0.0509 -0.9102
 5045SOL    HW126594   1.722   0.923   4.772  1.5720 -0.2454 -0.2482
 5045SOL    HW226595   1.697   0.785   4.742 -1.7571  0.9835 -1.3994
 5046SOL     OW26596   1.847   3.414   2.476 -0.6914  0.2065  0.1455
 5046SOL    HW126597   1.772   3.426   2.417  0.0136  0.4878 -0.6895
 5046SOL    HW226598   1.920   3.406   2.415  0.2678  1.7244  1.0979
 5047SOL     OW26599   2.516   4.328   4.491  0.5583 -0.2184  0.1617
 5047SOL    HW126600   2.512   4.308   4.584  4.1566 -0.1861  0.3186
 5047SOL    HW226601   2.589   4.389   4.484  0.1963  0.3038  0.9827
 5048SOL     OW26602   4.158   3.381   3.533  0.2588  0.7332  0.1002
 5048SOL    HW126603   4.123   3.297   3.563  0.1780  1.6343  2.4496
 5048SOL    HW226604   4.250   3.357   3.521  0.4949  2.8724 -2.2839
 5049SOL     OW26605   2.842   1.554  15.040 -0.1128  0.2012  0.3113
 5049SOL    HW126606   2.828   1.549  14.945 -1.7917  0.1078  0.5667
 5049SOL    HW226607   2.761   1.599  15.065 -0.4024  0.2865 -0.7562
 5050SOL     OW26608   2.435   2.575   5.954 -0.0320 -0.6888  0.1705
 5050SOL    HW126609   2.370   2.534   5.897 -0.6771  1.4250 -0.6026
 5050SOL    HW226610   2.512   2.545   5.906 -0.3410  0.6641 -1.1501
 5051SOL     OW26611   1.367   3.388   9.202  0.1832  0.0385  0.3886
 5051SOL    HW126612   1.312   3.459   9.234 -0.5761 -0.7944  0.9540
 5051SOL    HW226613   1.452   3.432   9.197  0.3133 -0.2335  0.1940
 5052SOL     OW26614   2.424   2.223   6.263 -0.0558 -0.2607 -0.1905
 5052SOL    HW126615   2.424   2.163   6.189 -1.1514 -0.5988  0.0850
 5052SOL    HW226616   2.441   2.312   6.231 -0.8576  0.6782  1.9607
 5053SOL     OW26617   1.828   1.969   4.790  0.0966  0.1931 -0.3936
 5053SOL    HW126618   1.877   1.889   4.771 -0.6781 -0.7643  1.6304
 5053SOL    HW226619   1.738   1.935   4.795  1.1731 -2.4236  0.7955
 5054SOL     OW26620   1.586   1.478   7.656 -0.1413 -0.2467  0.1409
 5054SOL    HW126621   1.632   1.532   7.592  0.6476 -0.0575  0.8639
 5054SOL    HW226622   1.536   1.409   7.611 -0.0040 -0.0959 -0.2342
 5055SOL     OW26623   3.539   3.989   7.265 -0.0074  0.0705 -0.0729
 5055SOL    HW126624   3.470   4.041   7.222 -0.4975 -1.6783 -1.3785
 5055SOL    HW226625   3.592   3.960   7.191  1.5524 -0.0799  1.1205
 5056SOL     OW26626   3.052   0.486   8.550  0.3718  0.4774 -0.3436
 5056SOL    HW126627   3.138   0.511   8.585 -0.0681  0.6618  0.6023
 5056SOL    HW226628   3.020   0.426   8.617  0.3741 -1.5475 -2.1446
 5057SOL     OW26629   0.219   3.962   9.336  0.1811  0.0633  0.5531
 5057SOL    HW126630   0.155   3.894   9.314  0.8177 -0.4582  0.2902
 5057SOL    HW226631   0.188   4.035   9.282  1.8811 -0.6126 -1.3644
 5058SOL     OW26632   0.554   3.020   5.431  0.1406  0.1091 -0.0942
 5058SOL    HW126633   0.506   2.964   5.369 -1.9324  1.3878  0.3428
 5058SOL    HW226634   0.500   3.006   5.509 -2.3816  1.7664 -1.5267
 5059SOL     OW26635   3.766   2.266   9.013  0.2524 -0.1476  0.2537
 5059SOL    HW126636   3.820   2.226   8.945 -0.9754 -1.8144  0.2365
 5059SOL    HW226637   3.824   2.332   9.049  0.0485 -1.6369  3.4148
 5060SOL     OW26638   2.419   1.845   7.852  0.0996 -0.9913 -0.6197
 5060SOL    HW126639   2.407   1.920   7.793 -2.1993 -0.8407  0.0173
 5060SOL    HW226640   2.337   1.797   7.840 -0.0253 -1.3658  1.7096
 5061SOL     OW26641   1.128   0.568  11.949 -0.4275  0.0307  0.0260
 5061SOL    HW126642   1.053   0.616  11.914  0.4242  0.9600 -0.5396
 5061SOL    HW226643   1.154   0.629  12.018  1.1206  0.6781 -1.1283
 5062SOL     OW26644   3.949   3.253   5.025 -0.6977 -0.1640 -0.0431
 5062SOL    HW126645   3.960   3.326   5.085 -2.1167  1.0465 -1.2766
 5062SOL    HW226646   3.854   3.259   5.022 -0.6785  0.0141 -0.2492
 5063SOL     OW26647   0.369   0.153   8.753 -0.3010 -0.0900  0.3078
 5063SOL    HW126648   0.311   0.211   8.803 -2.2372 -1.6112 -0.1579
 5063SOL    HW226649   0.354   0.068   8.795  0.7448 -0.2367  0.3922
 5064SOL     OW26650   1.693   3.384   3.636 -0.5021  0.0338  0.2975
 5064SOL    HW126651   1.641   3.446   3.585 -4.2369 -2.2980  1.2919
 5064SOL    HW226652   1.728   3.449   3.697  0.4277 -0.0643 -0.1332
 5065SOL     OW26653   1.324   2.688   1.526 -0.1978 -0.1037  0.0957
 5065SOL    HW126654   1.322   2.766   1.582 -0.3568 -0.9735  1.2852
 5065SOL    HW226655   1.418   2.681   1.508 -0.2703 -0.9584  0.0804
 5066SOL     OW26656   4.187   2.959   9.055  0.3758 -0.8077 -0.1765
 5066SOL    HW126657   4.259   2.918   9.102  2.3331  1.4494 -1.2296
 5066SOL    HW226658   4.183   3.044   9.100 -0.4261 -1.2078  0.5178
 5067SOL     OW26659   0.644   1.986   2.874  0.5929 -0.4661 -0.2045
 5067SOL    HW126660   0.708   2.005   2.805 -0.4655  2.6604 -0.3541
 5067SOL    HW226661   0.641   2.067   2.924  0.5135 -2.2346  2.6529
 5068SOL     OW26662   1.721   4.714  11.638 -0.0558  0.3494 -0.3093
 5068SOL    HW126663   1.726   4.674  11.552  1.6789 -0.1667  0.0256
 5068SOL    HW226664   1.765   4.650  11.696 -2.9172 -1.3175  0.0197
 5069SOL     OW26665   2.430   4.443   9.187 -0.0352  0.0835 -0.3220
 5069SOL    HW126666   2.435   4.410   9.277 -2.8756  0.5811  0.0439
 5069SOL    HW226667   2.334   4.450   9.181 -0.1233  0.1198  1.0216
 5070SOL     OW26668   0.844   2.630   7.320 -0.2795 -0.1092 -0.2848
 5070SOL    HW126669   0.836   2.711   7.370 -0.2764 -0.0435 -0.3924
 5070SOL    HW226670   0.873   2.676   7.242  0.3550  1.0913  0.6637
 5071SOL     OW26671   1.881   0.070   3.885 -0.0816 -0.3905 -0.0987
 5071SOL    HW126672   1.918   4.707   3.853 -0.9951 -1.6769  2.1537
 5071SOL    HW226673   1.824   0.095   3.813  1.8262  1.8474 -0.8294
 5072SOL     OW26674   4.534   2.782   3.124 -0.0895  0.2242 -0.2475
 5072SOL    HW126675   4.565   2.742   3.043  0.2036 -0.7650  0.3554
 5072SOL    HW226676   4.618   2.773   3.167  1.0416  0.3252 -2.4363
 5073SOL     OW26677   2.695   1.625   3.296 -0.2715  0.4039  0.2516
 5073SOL    HW126678   2.611   1.587   3.269  0.8235  0.1240 -2.8053
 5073SOL    HW226679   2.759   1.564   3.259  0.2585  1.5531 -0.7199
 5074SOL     OW26680   4.289   2.521   3.266  0.7915 -0.0181  0.0003
 5074SOL    HW126681   4.298   2.527   3.171 -0.9455 -1.6232 -0.2607
 5074SOL    HW226682   4.355   2.454   3.288  1.0803 -0.1853 -1.3571
 5075SOL     OW26683   2.167   0.237   0.282  0.4834  0.6394 -0.5130
 5075SOL    HW126684   2.129   0.255   0.196 -0.7243 -0.2803 -0.1819
 5075SOL    HW226685   2.225   0.311   0.298  0.6457 -0.0708  2.3340
 5076SOL     OW26686   1.558   0.011   1.063  0.5377  0.5634  0.0586
 5076SOL    HW126687   1.525   0.067   0.993 -0.7095  1.1653  1.1405
 5076SOL    HW226688   1.642   0.055   1.074 -0.0177  2.0698 -1.7077
 5077SOL     OW26689   2.041   0.498  13.213 -0.3410  0.3935  0.4914
 5077SOL    HW126690   2.042   0.421  13.157 -2.0968 -0.0591  1.0992
 5077SOL    HW226691   2.126   0.535  13.188 -0.9177  0.0661 -1.9146
 5078SOL     OW26692   0.590   4.349  13.305  0.3225 -0.4281 -0.3982
 5078SOL    HW126693   0.655   4.279  13.311 -0.7123 -1.2718  1.0028
 5078SOL    HW226694   0.588   4.395  13.389 -0.8243 -1.5717  0.2153
 5079SOL     OW26695   1.501   3.354   3.826 -0.2449 -0.2004  0.2985
 5079SOL    HW126696   1.558   3.360   3.750 -0.9323  0.9523 -0.1393
 5079SOL    HW226697   1.526   3.431   3.877 -0.4815  0.8177 -1.0918
 5080SOL     OW26698   0.459   0.420  11.297 -0.0926  0.1742  0.6260
 5080SOL    HW126699   0.504   0.477  11.359 -0.4378  1.4015 -0.2245
 5080SOL    HW226700   0.424   0.363  11.365  1.3763 -2.1035 -0.5260
 5081SOL     OW26701   1.916   1.991   0.342 -0.7788 -0.5910 -0.4134
 5081SOL    HW126702   2.000   1.973   0.300 -0.2332  0.9191  0.0488
 5081SOL    HW226703   1.853   1.970   0.273 -0.0395 -2.0274 -0.6433
 5082SOL     OW26704   4.201   4.132   3.453 -0.1111  0.1945  0.9800
 5082SOL    HW126705   4.134   4.068   3.478  0.7573 -1.4125 -0.7459
 5082SOL    HW226706   4.278   4.076   3.438 -1.3625 -1.2268 -0.1561
 5083SOL     OW26707   2.389   0.219   7.588 -0.6875 -0.2458  0.1586
 5083SOL    HW126708   2.385   0.158   7.662 -2.1652  0.5935  0.7745
 5083SOL    HW226709   2.306   0.194   7.549 -0.6368  0.7674 -0.6093
 5084SOL     OW26710   0.455   3.405  12.058 -0.3676  0.7612 -0.1227
 5084SOL    HW126711   0.431   3.322  12.018 -1.6507  0.6518  0.8790
 5084SOL    HW226712   0.382   3.416  12.119 -0.0352  2.1855  0.0211
 5085SOL     OW26713   1.127   2.894   2.778 -1.1398 -0.2630  0.1742
 5085SOL    HW126714   1.054   2.860   2.725  0.7204 -1.8808 -1.3490
 5085SOL    HW226715   1.167   2.816   2.815  0.7368  0.7676  0.3388
 5086SOL     OW26716   1.811   3.689   0.840 -0.2645  0.3830  0.3784
 5086SOL    HW126717   1.869   3.726   0.907 -0.6583  1.2266  0.2499
 5086SOL    HW226718   1.767   3.767   0.806 -1.6658 -0.0335  1.2714
 5087SOL     OW26719   0.659   1.202   5.673  0.6584  0.4379 -0.5179
 5087SOL    HW126720   0.705   1.285   5.666  2.2445 -0.5715 -2.0710
 5087SOL    HW226721   0.589   1.203   5.608 -0.3926 -0.4022  0.6011
 5088SOL     OW26722   3.765   0.317   4.057  0.3133  0.6599  0.1220
 5088SOL    HW126723   3.678   0.349   4.079 -0.1017  1.0979 -2.1440
 5088SOL    HW226724   3.820   0.381   4.102  0.5438  1.3376 -1.1411
 5089SOL     OW26725   1.336   3.676  14.650 -0.3743 -0.7295  0.9164
 5089SOL    HW126726   1.353   3.633  14.566 -1.1527 -0.0838  0.4285
 5089SOL    HW226727   1.417   3.726  14.662 -0.6341  0.1782 -1.0772
 5090SOL     OW26728   2.938   1.193   5.105  0.0221 -0.1777  0.3824
 5090SOL    HW126729   3.016   1.183   5.051 -1.3864  0.9544 -1.8772
 5090SOL    HW226730   2.903   1.104   5.094  0.4131  0.1697 -3.5603
 5091SOL     OW26731   3.981   3.445   1.448  0.3642  0.2620 -0.4860
 5091SOL    HW126732   4.017   3.458   1.360  0.5117  1.1403 -0.2956
 5091SOL    HW226733   3.887   3.456   1.437  0.8249  1.8777 -2.7537
 5092SOL     OW26734   0.188   1.736   6.427 -0.0214  0.0444 -0.5742
 5092SOL    HW126735   0.117   1.789   6.463 -0.9015 -0.1929 -1.9555
 5092SOL    HW226736   0.152   1.701   6.345 -1.1191 -0.5547  0.1653
 5093SOL     OW26737   1.051   4.169   6.980  0.3198  1.0133  0.7244
 5093SOL    HW126738   1.037   4.078   6.951 -0.0379  1.0499  0.7803
 5093SOL    HW226739   1.018   4.229   6.914  0.6738 -0.2315 -0.5948
 5094SOL     OW26740   1.049   4.658   6.574  0.8416  0.0519  0.4247
 5094SOL    HW126741   1.019   4.633   6.661 -1.8926  0.7811 -0.3265
 5094SOL    HW226742   1.008   4.591   6.518  1.6643 -0.5678  0.5516
 5095SOL     OW26743   2.792   3.878  12.347  0.3971  0.2096 -0.1272
 5095SOL    HW126744   2.819   3.840  12.263  3.8932  0.2999  0.9391
 5095SOL    HW226745   2.812   3.971  12.331  1.2260  0.2471  1.1720
 5096SOL     OW26746   2.350   1.831   9.563 -0.3032  0.6286 -0.4780
 5096SOL    HW126747   2.394   1.787   9.636 -0.1722 -0.3246 -1.1383
 5096SOL    HW226748   2.420   1.831   9.498  2.2501 -0.1055  2.2708
 5097SOL     OW26749   4.673   0.709   6.713  0.5823 -0.5100 -0.4158
 5097SOL    HW126750   0.047   0.718   6.734  1.2089 -3.7079 -1.8577
 5097SOL    HW226751   4.632   0.753   6.788 -1.4015 -1.0684 -1.1835
 5098SOL     OW26752   1.981   0.362  15.966 -0.3801  0.3891 -0.3768
 5098SOL    HW126753   1.964   0.433  15.905 -0.4727  1.8448  1.3441
 5098SOL    HW226754   1.935   0.292  15.919  2.4357 -1.7301  0.0093
 5099SOL     OW26755   2.817   2.383  16.557 -0.0791 -0.3660 -0.0586
 5099SOL    HW126756   2.795   2.328  16.482  1.9603  1.3264 -1.9341
 5099SOL    HW226757   2.733   2.396  16.602 -0.1024 -0.6798 -0.0129
 5100SOL     OW26758   1.123   2.950   9.070  0.4357 -0.0944 -0.2581
 5100SOL    HW126759   1.156   2.860   9.065 -0.1346 -0.1664 -2.8005
 5100SOL    HW226760   1.198   3.010   9.078 -1.3997  2.0346  1.0507
 5101SOL     OW26761   3.958   2.963  10.929  0.3947 -0.0652  0.3921
 5101SOL    HW126762   3.945   2.954  11.023  1.9243  1.3694  0.7500
 5101SOL    HW226763   3.974   2.878  10.887 -3.6073  0.1635 -1.6554
 5102SOL     OW26764   1.057   4.603   3.958  0.0764  0.0012  0.2436
 5102SOL    HW126765   1.076   4.564   3.873  1.4620  0.4071  0.3739
 5102SOL    HW226766   1.127   4.667   3.968 -0.5660  0.9113 -1.0007
 5103SOL     OW26767   0.480   0.256   1.558 -0.0359  0.3017 -0.1756
 5103SOL    HW126768   0.395   0.298   1.571 -0.2616  0.1011 -0.9913
 5103SOL    HW226769   0.536   0.306   1.619  1.7406 -1.6084 -0.2536
 5104SOL     OW26770   2.353   0.713   3.440 -0.0238  0.3930  0.3652
 5104SOL    HW126771   2.273   0.677   3.400  0.3039  0.8366 -0.6994
 5104SOL    HW226772   2.325   0.740   3.527  0.5528 -1.0572  1.0107
 5105SOL     OW26773   0.211   0.179   2.332 -0.1198 -0.1439  0.1012
 5105SOL    HW126774   0.201   0.084   2.339 -1.6379  0.0853  1.0589
 5105SOL    HW226775   0.274   0.183   2.260 -0.7043 -0.9094 -0.4544
 5106SOL     OW26776   2.636   4.623  10.294  0.9952  0.6398 -0.3946
 5106SOL    HW126777   2.709   4.654  10.240 -0.0213  2.5280 -0.6509
 5106SOL    HW226778   2.556   4.654  10.253 -2.3096 -3.0359  3.2107
 5107SOL     OW26779   4.646   0.665  15.128 -0.5082  0.0103  0.0442
 5107SOL    HW126780   4.694   0.612  15.192 -0.8072  1.3277  1.3539
 5107SOL    HW226781   4.688   0.632  15.048 -0.1897  2.7711 -0.9302
 5108SOL     OW26782   1.538   0.735   8.794 -0.3937  0.0917  0.0500
 5108SOL    HW126783   1.488   0.816   8.810 -1.3818 -0.3980 -0.5949
 5108SOL    HW226784   1.623   0.770   8.821 -2.3439  2.0945  3.6118
 5109SOL     OW26785   2.633   4.635   9.003 -0.0557 -0.8025 -0.5215
 5109SOL    HW126786   2.684   4.606   9.079 -1.9872  1.2646  1.5726
 5109SOL    HW226787   2.552   4.589   9.024 -0.2303 -0.2689 -0.0210
 5110SOL     OW26788   2.089   1.739   7.392 -0.1846  0.4463 -0.3184
 5110SOL    HW126789   2.166   1.735   7.449 -0.1047 -0.0340 -0.4636
 5110SOL    HW226790   2.019   1.768   7.450  0.4957  1.4360  0.0085
 5111SOL     OW26791   0.062   2.011  14.806  0.0417 -0.0640  0.1506
 5111SOL    HW126792   0.149   2.049  14.795  0.6636 -1.0433  1.7664
 5111SOL    HW226793   0.023   2.083  14.856  1.3426  1.0688 -0.4603
 5112SOL     OW26794   4.568   2.645   2.850  0.3271 -0.3627  0.4433
 5112SOL    HW126795   4.598   2.555   2.860 -0.5211 -0.4128  2.7702
 5112SOL    HW226796   4.559   2.654   2.756 -2.4773 -1.2885  0.5997
 5113SOL     OW26797   1.564   4.074  15.843 -0.6504 -0.0536 -0.2895
 5113SOL    HW126798   1.495   4.093  15.906 -0.6920  0.2240 -0.4211
 5113SOL    HW226799   1.609   3.998  15.881 -2.1708 -0.3164  0.9885
 5114SOL     OW26800   0.011   3.037   8.865  0.3303  0.0386 -0.3611
 5114SOL    HW126801   4.688   3.060   8.782 -1.1682  0.5853  0.5662
 5114SOL    HW226802   4.671   3.075   8.929  0.4275  1.1107 -0.9013
 5115SOL     OW26803   3.362   3.189   9.175 -0.4074  0.2263  0.5207
 5115SOL    HW126804   3.456   3.202   9.192 -0.3707  0.2384  0.3080
 5115SOL    HW226805   3.371   3.101   9.140  0.4114  0.8543 -0.8698
 5116SOL     OW26806   0.347   3.429   7.110  0.4039  0.7337 -0.1383
 5116SOL    HW126807   0.367   3.450   7.201 -1.7990  2.5239 -0.0656
 5116SOL    HW226808   0.429   3.397   7.072 -0.3175  0.7678 -1.7074
 5117SOL     OW26809   4.200   2.021   4.373  0.1070  0.5129  0.8307
 5117SOL    HW126810   4.291   2.031   4.344  0.3449 -2.3311  0.5932
 5117SOL    HW226811   4.172   2.112   4.384 -1.6739  0.1087 -0.4600
 5118SOL     OW26812   3.732   4.155   3.400  0.1549  0.4547 -0.0065
 5118SOL    HW126813   3.751   4.226   3.462 -1.8557  1.6383 -0.7538
 5118SOL    HW226814   3.637   4.156   3.396  0.0542 -0.3304  2.3151
 5119SOL     OW26815   3.233   3.941   4.653 -0.6041  0.5104  0.2859
 5119SOL    HW126816   3.317   3.969   4.689  0.3478 -2.0223  0.0141
 5119SOL    HW226817   3.168   3.970   4.717 -0.6523  0.0537  0.4490
 5120SOL     OW26818   4.513   4.032  16.962  0.1660 -0.3898  0.4603
 5120SOL    HW126819   4.521   4.083  17.043  3.0012  0.0539 -0.0784
 5120SOL    HW226820   4.575   4.083  16.909 -0.0601 -1.2911 -0.6541
 5121SOL     OW26821   4.669   0.302   1.665 -0.0019 -0.2690 -0.0353
 5121SOL    HW126822   4.717   0.379   1.633  0.0736 -0.8848 -1.3659
 5121SOL    HW226823   4.705   0.295   1.754 -2.6324 -2.5321  0.8353
 5122SOL     OW26824   2.107   1.689   8.477 -0.1499 -0.3687  0.0792
 5122SOL    HW126825   2.018   1.710   8.447 -0.8466 -0.7636  1.8981
 5122SOL    HW226826   2.099   1.693   8.572  0.4602  1.0007  0.0748
 5123SOL     OW26827   0.464   1.692  15.812 -0.6288  0.5428 -0.2246
 5123SOL    HW126828   0.472   1.608  15.768  0.2913  2.5152 -3.8727
 5123SOL    HW226829   0.452   1.666  15.903  2.7141 -0.8412 -0.1767
 5124SOL     OW26830   4.363   3.424   2.496  0.1960 -0.1674  0.1212
 5124SOL    HW126831   4.324   3.505   2.464  1.1084  0.4345  0.5480
 5124SOL    HW226832   4.283   3.383   2.528  0.0632 -0.4735 -0.5876
 5125SOL     OW26833   4.703   3.252   3.889  0.0214 -0.1950  0.0748
 5125SOL    HW126834   0.048   3.181   3.899 -1.1362 -0.8780  2.4802
 5125SOL    HW226835   0.041   3.326   3.909 -0.3572  0.3675 -0.9090
 5126SOL     OW26836   0.662   3.115   4.611 -0.0765 -0.1543  0.2724
 5126SOL    HW126837   0.574   3.145   4.586 -0.2626 -0.9812 -0.0528
 5126SOL    HW226838   0.674   3.153   4.698 -0.3632  0.1077  0.1974
 5127SOL     OW26839   1.604   0.456   5.344  0.0775 -0.4305  0.5527
 5127SOL    HW126840   1.699   0.442   5.350  0.2599  0.5556 -0.0365
 5127SOL    HW226841   1.579   0.440   5.254 -0.6779  2.4445  0.2616
 5128SOL     OW26842   4.531   0.713   3.559 -0.6786  0.6226 -0.2060
 5128SOL    HW126843   4.438   0.727   3.543 -0.9778 -0.1886  0.8512
 5128SOL    HW226844   4.555   0.698   3.467 -0.3619 -0.0726 -0.0086
 5129SOL     OW26845   0.651   4.457   6.696  1.0101  0.2583 -0.4321
 5129SOL    HW126846   0.562   4.462   6.733 -0.0658 -1.7075 -2.7487
 5129SOL    HW226847   0.634   4.384   6.637 -0.8052 -0.8059  1.3823
 5130SOL     OW26848   0.589   4.602   7.865  0.0357  0.3379  0.1971
 5130SOL    HW126849   0.590   4.697   7.869  2.7318  0.4059 -1.7494
 5130SOL    HW226850   0.582   4.585   7.771  1.6274  0.2919  0.0863
 5131SOL     OW26851   4.120   3.112  10.744 -0.3813  0.4609 -0.2304
 5131SOL    HW126852   4.041   3.151  10.708 -0.1917  0.2056 -0.9367
 5131SOL    HW226853   4.083   3.056  10.812 -1.1181 -0.5826 -1.4923
 5132SOL     OW26854   1.471   1.884   5.297 -0.3575  0.2926  0.4458
 5132SOL    HW126855   1.466   1.967   5.343 -2.2126  0.9064 -0.8443
 5132SOL    HW226856   1.537   1.834   5.345 -0.6916 -0.7551 -0.1896
 5133SOL     OW26857   1.912   0.853   6.615 -0.2278  0.0720  0.0584
 5133SOL    HW126858   1.973   0.896   6.675  1.5625 -1.7270 -0.4556
 5133SOL    HW226859   1.829   0.863   6.662 -0.8003 -1.7424 -0.5603
 5134SOL     OW26860   2.861   4.129   8.495 -0.2895  0.1438 -0.1777
 5134SOL    HW126861   2.932   4.159   8.439  0.9919  0.8259  1.7987
 5134SOL    HW226862   2.860   4.209   8.548 -2.4941  1.0057 -1.5216
 5135SOL     OW26863   1.301   1.252   1.783  0.1035 -0.1742 -0.0504
 5135SOL    HW126864   1.253   1.175   1.814  0.7278 -0.4377  0.2510
 5135SOL    HW226865   1.330   1.285   1.868 -1.3310  2.4225 -0.5611
 5136SOL     OW26866   2.668   0.165   1.781  0.2184 -0.1115  0.1111
 5136SOL    HW126867   2.661   0.071   1.767 -1.7512 -0.0844  0.8403
 5136SOL    HW226868   2.761   0.187   1.785 -0.0606  0.7884  2.0315
 5137SOL     OW26869   3.288   4.341   8.424 -0.4293  1.1075  0.3209
 5137SOL    HW126870   3.342   4.276   8.470 -1.3417  0.0831 -0.0480
 5137SOL    HW226871   3.351   4.413   8.423 -1.5741  2.1199  1.2183
 5138SOL     OW26872   4.478   4.296   2.643  0.5923  0.5194  0.2013
 5138SOL    HW126873   4.570   4.290   2.617 -0.0129  2.4829 -2.4490
 5138SOL    HW226874   4.452   4.384   2.616 -1.1313 -0.2210 -0.5608
 5139SOL     OW26875   2.563   4.680  14.922  0.0744 -0.0121 -0.3081
 5139SOL    HW126876   2.471   4.706  14.913 -0.1356 -0.6108  0.1501
 5139SOL    HW226877   2.567   4.696  15.016 -0.5281  2.4309 -0.6951
 5140SOL     OW26878   0.820   0.012   4.438  0.6151  0.1430  0.0718
 5140SOL    HW126879   0.759   0.060   4.493 -1.3588  0.4866 -2.3851
 5140SOL    HW226880   0.828   4.648   4.484  0.0676  0.9355  1.5967
 5141SOL     OW26881   3.256   4.677   8.171  0.0988 -0.2129 -0.2963
 5141SOL    HW126882   3.274   4.635   8.255 -0.2853 -3.1968 -1.7270
 5141SOL    HW226883   3.274   4.611   8.104 -1.4981 -1.0326  0.0875
 5142SOL     OW26884   3.781   1.472   0.637 -0.5164  0.3917 -0.1085
 5142SOL    HW126885   3.701   1.500   0.593 -0.7202  0.3030  0.2066
 5142SOL    HW226886   3.742   1.404   0.692 -3.0045  1.5432 -0.4171
 5143SOL     OW26887   2.348   3.483  10.499  0.0026 -0.4227 -0.2730
 5143SOL    HW126888   2.312   3.480  10.588  0.7772  0.2264  0.0590
 5143SOL    HW226889   2.429   3.443  10.531 -0.0973  0.1357  0.6697
 5144SOL     OW26890   0.374   1.833  11.390 -0.1410 -0.9193  0.2438
 5144SOL    HW126891   0.301   1.790  11.345 -2.1621  0.9004  1.7519
 5144SOL    HW226892   0.390   1.900  11.324  0.8310 -1.8041 -0.4277
 5145SOL     OW26893   0.852   0.266   8.370 -0.0511 -0.1702 -0.0285
 5145SOL    HW126894   0.886   0.186   8.409 -2.3267 -1.2515 -0.2331
 5145SOL    HW226895   0.830   0.320   8.446 -0.6700 -0.4928  0.0242
 5146SOL     OW26896   1.473   3.110   4.466 -0.1758 -0.1713  0.0720
 5146SOL    HW126897   1.507   3.039   4.520  0.1112  0.0623  0.2016
 5146SOL    HW226898   1.505   3.190   4.509 -0.6444 -0.3059  0.6819
 5147SOL     OW26899   2.319   1.190   5.787  0.2416  0.2714  0.1973
 5147SOL    HW126900   2.385   1.127   5.757 -2.1238 -2.0358 -0.1093
 5147SOL    HW226901   2.339   1.263   5.729 -0.0953 -0.3001 -0.6401
 5148SOL     OW26902   2.228   1.104   3.764 -0.3177 -0.7042 -0.4291
 5148SOL    HW126903   2.188   1.077   3.681 -2.3981 -1.9088  0.9454
 5148SOL    HW226904   2.154   1.084   3.822  1.5260 -0.9468  1.8291
 5149SOL     OW26905   0.073   4.190  14.564  0.0061 -0.0549 -0.3588
 5149SOL    HW126906   0.015   4.119  14.592  0.0738  0.0374  0.0276
 5149SOL    HW226907   0.038   4.226  14.483  1.3136 -0.9969 -1.3337
 5150SOL     OW26908   4.658   2.286   6.346 -0.0872 -0.1982 -0.4436
 5150SOL    HW126909   4.573   2.301   6.389  0.6408  0.8522  0.6164
 5150SOL    HW226910   0.004   2.333   6.397 -0.5917 -0.5834  0.5674
 5151SOL     OW26911   4.446   0.956   4.703  0.5199 -0.2268 -0.2895
 5151SOL    HW126912   4.436   1.042   4.742  1.4885  0.3564 -1.3327
 5151SOL    HW226913   4.363   0.953   4.656 -0.1247  2.0164  0.7186
 5152SOL     OW26914   3.241   2.291   3.914 -0.3629 -0.0706  0.2797
 5152SOL    HW126915   3.319   2.288   3.969 -0.2510  0.9009  0.1669
 5152SOL    HW226916   3.167   2.265   3.969 -0.7608 -0.9927 -0.6909
 5153SOL     OW26917   0.177   4.267   4.157 -0.0821 -0.2456  0.0654
 5153SOL    HW126918   0.195   4.187   4.207  0.0089 -0.6151 -0.5542
 5153SOL    HW226919   0.263   4.282   4.118  0.6163 -1.1129  1.2729
 5154SOL     OW26920   2.712   4.648   4.131 -0.2672 -0.2697  0.1921
 5154SOL    HW126921   2.784   4.687   4.182 -1.2033  0.3861  1.0206
 5154SOL    HW226922   2.752   4.576   4.084  0.4296 -0.1854  0.6432
 5155SOL     OW26923   1.058   3.213   5.393 -0.1991  0.3666 -0.2497
 5155SOL    HW126924   1.133   3.165   5.428 -0.6966  0.2048  0.5814
 5155SOL    HW226925   1.019   3.240   5.476 -0.5952  2.2345 -1.0358
 5156SOL     OW26926   3.610   3.880  10.807  0.5058 -0.3850  0.3146
 5156SOL    HW126927   3.696   3.843  10.788  0.5679  0.5867 -1.3118
 5156SOL    HW226928   3.596   3.869  10.901 -0.7686 -0.3996  0.1190
 5157SOL     OW26929   1.700   0.116   4.344 -0.2960 -0.1040 -0.4939
 5157SOL    HW126930   1.736   0.038   4.302  2.5092  0.3338  1.1153
 5157SOL    HW226931   1.749   0.182   4.294  2.4609 -0.5294  1.6782
 5158SOL     OW26932   1.020   3.263   3.823 -0.5114  0.1353 -0.0606
 5158SOL    HW126933   1.076   3.338   3.803  0.2879 -0.4716 -0.0705
 5158SOL    HW226934   1.049   3.201   3.757 -0.8541 -1.9169  1.7067
 5159SOL     OW26935   0.663   3.801  17.657 -0.0591  0.6562  0.3981
 5159SOL    HW126936   0.615   3.866  17.606 -1.4249 -0.4329  0.3056
 5159SOL    HW226937   0.754   3.815  17.629 -0.1288  1.0156  0.3586
 5160SOL     OW26938   3.121   3.582  15.189  0.0478 -0.0978 -0.1202
 5160SOL    HW126939   3.118   3.491  15.217 -2.4390 -0.1415 -0.5803
 5160SOL    HW226940   3.081   3.611  15.271 -0.7188 -0.0356 -0.5164
 5161SOL     OW26941   0.841   2.946   9.364  0.5214 -0.3471 -0.5956
 5161SOL    HW126942   0.923   2.908   9.333  0.8117 -1.1099  1.0951
 5161SOL    HW226943   0.839   3.029   9.317 -1.1403  0.1374  0.3399
 5162SOL     OW26944   0.618   1.743   2.555 -0.2727 -0.0311  0.5486
 5162SOL    HW126945   0.665   1.662   2.539 -1.3167 -0.3597 -0.8485
 5162SOL    HW226946   0.618   1.747   2.651  0.5365  2.2532  0.4635
 5163SOL     OW26947   1.063   0.919   4.086 -0.2203 -0.3981  0.2476
 5163SOL    HW126948   1.054   1.004   4.042 -0.6109 -1.3553 -1.5433
 5163SOL    HW226949   1.017   0.855   4.032 -1.8845 -0.7257  2.0789
 5164SOL     OW26950   4.044   3.802   9.930 -0.0668  0.3574 -0.0451
 5164SOL    HW126951   4.084   3.731   9.980  0.3838 -0.9678 -2.2833
 5164SOL    HW226952   4.077   3.783   9.842  0.2579 -1.7393  0.5366
 5165SOL     OW26953   4.099   4.127   8.000  0.3512  0.0043 -0.1349
 5165SOL    HW126954   4.109   4.184   7.924 -2.7811 -0.9129 -1.2055
 5165SOL    HW226955   4.092   4.038   7.965 -4.4662 -0.5369  2.2651
 5166SOL     OW26956   0.230   0.692   7.696  0.2141  0.1783  0.3231
 5166SOL    HW126957   0.201   0.664   7.783 -0.5076  1.0835  0.3752
 5166SOL    HW226958   0.155   0.742   7.664 -0.6643 -1.2327  0.1836
 5167SOL     OW26959   4.227   4.417   0.661  0.5386 -0.4623 -0.6022
 5167SOL    HW126960   4.312   4.374   0.648 -0.3967 -2.3620 -0.4522
 5167SOL    HW226961   4.204   4.396   0.752 -0.5252  0.2045 -0.7169
 5168SOL     OW26962   4.089   0.064   5.715 -0.5030  0.3747  0.3210
 5168SOL    HW126963   4.160   0.040   5.774  0.5715  2.1948 -0.2274
 5168SOL    HW226964   4.018   0.093   5.773 -2.3839 -1.5823 -1.0112
 5169SOL     OW26965   2.183   2.558   2.856 -0.2809 -0.0923 -0.1674
 5169SOL    HW126966   2.260   2.512   2.891  0.6552  0.4173 -1.5532
 5169SOL    HW226967   2.144   2.484   2.809 -1.0069  0.3793 -0.2996
 5170SOL     OW26968   4.359   1.774  15.958 -0.1148 -0.5845  0.1352
 5170SOL    HW126969   4.444   1.797  15.921 -0.2530 -0.1062  0.1145
 5170SOL    HW226970   4.384   1.774  16.051 -1.3092 -0.4140  0.4496
 5171SOL     OW26971   2.397   3.335   7.820  0.1669 -0.0529  0.0654
 5171SOL    HW126972   2.369   3.289   7.741  0.7981  0.7929 -0.6569
 5171SOL    HW226973   2.453   3.267   7.855  0.4273  1.2609  2.2108
 5172SOL     OW26974   4.444   1.733   3.718 -0.4415 -0.2113  0.6691
 5172SOL    HW126975   4.459   1.822   3.749 -2.0803 -0.2305  1.5421
 5172SOL    HW226976   4.349   1.737   3.710 -0.3597 -1.2000 -0.7507
 5173SOL     OW26977   1.565   0.423   5.840  0.8941 -0.2416 -0.1023
 5173SOL    HW126978   1.541   0.330   5.842  1.6051 -0.3951  1.4321
 5173SOL    HW226979   1.525   0.454   5.759  2.5792 -1.2314 -1.3096
 5174SOL     OW26980   1.030   0.825   2.782  0.2695 -0.1123  0.0389
 5174SOL    HW126981   1.075   0.749   2.819 -1.1186 -0.2560  1.4539
 5174SOL    HW226982   1.098   0.881   2.745  0.8096  0.3617  1.7562
 5175SOL     OW26983   2.945   2.697  15.194 -0.4650 -0.4279  0.3896
 5175SOL    HW126984   2.983   2.611  15.177  0.5319  0.1464 -0.2636
 5175SOL    HW226985   2.963   2.702  15.288  0.7636 -0.3682  0.1419
 5176SOL     OW26986   4.484   1.327   6.760 -0.3842 -0.1029 -0.1895
 5176SOL    HW126987   4.404   1.356   6.806 -1.0658  0.8991 -2.0062
 5176SOL    HW226988   4.544   1.400   6.772 -0.8795  0.4938 -1.3705
 5177SOL     OW26989   2.884   3.830   2.400 -0.4663  0.6387  0.1195
 5177SOL    HW126990   2.966   3.832   2.352 -1.5242 -1.4912 -1.7996
 5177SOL    HW226991   2.828   3.824   2.322 -3.1241  1.5188  1.9442
 5178SOL     OW26992   1.955   3.881  16.270  0.2932 -0.0102  0.1740
 5178SOL    HW126993   2.001   3.888  16.187 -0.8072 -1.3429 -0.5359
 5178SOL    HW226994   2.014   3.907  16.341 -0.4364 -0.1312  0.8345
 5179SOL     OW26995   0.480   3.011  12.593 -0.2361 -0.4202  1.0304
 5179SOL    HW126996   0.432   3.088  12.565  2.1902 -0.0802 -2.0987
 5179SOL    HW226997   0.501   2.980  12.505  0.4945  0.1082  1.0259
 5180SOL     OW26998   0.913   0.024   6.039  0.1507  0.2643  0.4873
 5180SOL    HW126999   0.922   0.069   6.123  2.8952  2.3756 -0.9562
 5180SOL    HW227000   0.897   0.102   5.986  1.5640  0.3602  0.2021
 5181SOL     OW27001   3.787   4.659   8.616 -0.3257  0.9518 -0.0094
 5181SOL    HW127002   3.793   4.565   8.634  0.6989  0.8631 -0.7665
 5181SOL    HW227003   3.695   4.663   8.642 -0.6719 -0.2624 -1.0491
 5182SOL     OW27004   1.138   4.645   3.387 -0.0996 -0.2090 -0.6762
 5182SOL    HW127005   1.211   4.667   3.329  0.8243 -0.3947  0.4176
 5182SOL    HW227006   1.196   4.605   3.451 -0.7006 -0.2000 -0.1206
 5183SOL     OW27007   1.673   1.049   6.210  0.3552 -0.0419  0.0584
 5183SOL    HW127008   1.748   1.005   6.250 -0.4305 -1.3840  0.0692
 5183SOL    HW227009   1.654   0.989   6.138 -0.8816 -2.5076  2.4339
 5184SOL     OW27010   4.113   2.410   5.275  0.2288  0.3926  0.6640
 5184SOL    HW127011   4.191   2.356   5.284  0.9554  1.7306  2.3685
 5184SOL    HW227012   4.076   2.388   5.360 -1.7245  1.8011  0.1899
 5185SOL     OW27013   3.858   1.603   8.276  0.3982  0.3491 -0.4561
 5185SOL    HW127014   3.919   1.533   8.301  0.2660  0.2410 -0.4375
 5185SOL    HW227015   3.784   1.544   8.259 -0.7940  1.8332 -0.3994
 5186SOL     OW27016   1.336   1.377  15.022 -0.6720 -0.0952 -0.8454
 5186SOL    HW127017   1.343   1.447  15.086  0.7517  1.3104 -2.5392
 5186SOL    HW227018   1.283   1.425  14.958 -0.0472 -1.1329 -2.1646
 5187SOL     OW27019   1.741   2.443   0.569 -0.0328  0.2554  0.3470
 5187SOL    HW127020   1.796   2.388   0.625 -0.3236 -0.1054  0.2727
 5187SOL    HW227021   1.702   2.511   0.624 -2.4998  0.1167 -1.2672
 5188SOL     OW27022   4.302   3.443   6.117 -0.1437 -0.2684 -0.7557
 5188SOL    HW127023   4.300   3.524   6.167 -0.0036 -0.1327 -0.9702
 5188SOL    HW227024   4.329   3.383   6.186  0.2608  0.1378 -0.5621
 5189SOL     OW27025   4.567   1.515  16.106  0.2005 -0.4860  0.6809
 5189SOL    HW127026   4.496   1.526  16.169  0.4151  1.6300  0.5558
 5189SOL    HW227027   4.517   1.505  16.026  0.8840  0.3974  0.1523
 5190SOL     OW27028   2.820   1.870  15.115 -0.6492  0.3045  0.5531
 5190SOL    HW127029   2.906   1.852  15.152 -0.5179 -1.3719 -0.5733
 5190SOL    HW227030   2.836   1.883  15.022 -3.3421 -2.5625 -0.2727
 5191SOL     OW27031   3.389   0.814   3.456 -0.4055  0.3160  0.4255
 5191SOL    HW127032   3.328   0.811   3.530  1.0928  0.3888  1.6719
 5191SOL    HW227033   3.433   0.897   3.473  0.4392  0.0573 -0.5457
 5192SOL     OW27034   0.724   4.529   5.822 -0.5872 -0.4587  0.7789
 5192SOL    HW127035   0.689   4.465   5.884 -2.9837  0.2875  0.1800
 5192SOL    HW227036   0.689   4.491   5.741 -0.8266  1.1634  0.1272
 5193SOL     OW27037   3.278   3.997   6.528 -0.0017 -0.1575  0.1521
 5193SOL    HW127038   3.351   3.978   6.587 -0.1436 -1.4595 -0.0993
 5193SOL    HW227039   3.304   4.085   6.501  1.0246 -0.9142 -1.3567
 5194SOL     OW27040   2.066   0.417   5.084  1.1308  0.0419  0.1096
 5194SOL    HW127041   2.077   0.335   5.035 -0.7063  0.5592 -1.1684
 5194SOL    HW227042   2.028   0.476   5.019 -0.5306 -0.5576  0.5505
 5195SOL     OW27043   0.755   3.677   7.595 -0.1390  0.2935  0.7130
 5195SOL    HW127044   0.841   3.689   7.556 -0.6686  4.1505  0.7094
 5195SOL    HW227045   0.699   3.673   7.518  0.0116  1.8153  0.5364
 5196SOL     OW27046   3.774   2.606   1.821  0.0205  0.7427  0.3750
 5196SOL    HW127047   3.704   2.578   1.880  2.1219  1.0974  2.9982
 5196SOL    HW227048   3.738   2.587   1.734 -0.5334  0.2895  0.7064
 5197SOL     OW27049   0.643   2.850  12.383  0.1268  0.3223  0.5730
 5197SOL    HW127050   0.706   2.877  12.449 -0.0707 -0.4314  1.0789
 5197SOL    HW227051   0.681   2.778  12.333  1.3459  1.2781  0.1300
 5198SOL     OW27052   0.682   3.301   9.327 -0.0445  0.2362 -0.3475
 5198SOL    HW127053   0.760   3.348   9.354 -1.5549  0.1545  4.0566
 5198SOL    HW227054   0.659   3.354   9.251  0.1839 -0.3095 -0.8042
 5199SOL     OW27055   2.463   1.426   6.548 -0.4162  0.0860  0.3711
 5199SOL    HW127056   2.443   1.372   6.625  0.6932 -0.2188  0.4525
 5199SOL    HW227057   2.530   1.375   6.502 -1.0964 -1.0779  0.6681
 5200SOL     OW27058   2.263   4.719   6.281 -0.3868 -0.3104  0.2966
 5200SOL    HW127059   2.322   0.074   6.273 -0.3916 -0.3040  0.3221
 5200SOL    HW227060   2.324   4.646   6.289  3.1569  2.3416 -2.8428
 5201SOL     OW27061   0.022   1.056   3.750 -0.2565 -0.4460  0.0681
 5201SOL    HW127062   0.064   1.043   3.836 -1.1262  0.5935  0.6456
 5201SOL    HW227063   0.090   1.076   3.686 -1.1428 -0.5238 -0.8871
 5202SOL     OW27064   1.732   2.906   3.951 -0.1926  0.1264  0.0030
 5202SOL    HW127065   1.826   2.917   3.939 -0.1899  1.0470  0.8965
 5202SOL    HW227066   1.701   2.989   3.914 -0.3543 -0.7275 -1.7867
 5203SOL     OW27067   3.829   1.369   7.382  0.4073  0.0420  0.0960
 5203SOL    HW127068   3.840   1.280   7.416  2.5713  0.9574  1.6874
 5203SOL    HW227069   3.734   1.371   7.369  0.4044  1.2449  0.3368
 5204SOL     OW27070   2.876   3.153   6.884  0.0118 -0.3311  0.0242
 5204SOL    HW127071   2.902   3.194   6.966 -1.7426  1.2226 -0.1963
 5204SOL    HW227072   2.959   3.140   6.838  0.1780 -0.8689  0.4771
 5205SOL     OW27073   4.678   1.177   7.314  0.2799 -0.4433 -0.3225
 5205SOL    HW127074   4.621   1.100   7.308  1.3029 -1.3545  1.8356
 5205SOL    HW227075   4.652   1.213   7.399  1.2550 -1.4932  0.4147
 5206SOL     OW27076   0.782   4.582   3.994  0.2797 -0.2598  0.0266
 5206SOL    HW127077   0.875   4.593   4.011 -0.0687  0.8031  1.1934
 5206SOL    HW227078   0.779   4.486   4.002 -1.1845 -0.1290  1.0411
 5207SOL     OW27079   2.931   0.118   0.852  0.0211  0.0043  0.0862
 5207SOL    HW127080   3.021   0.146   0.838  1.1980 -2.8393  2.0562
 5207SOL    HW227081   2.908   0.071   0.772 -1.7672 -0.6230  0.9759
 5208SOL     OW27082   0.516   2.487   1.856  0.0873 -0.1946 -0.2918
 5208SOL    HW127083   0.471   2.437   1.787  1.4059 -0.7438 -0.7552
 5208SOL    HW227084   0.485   2.574   1.831 -4.5375 -1.9764 -0.6773
 5209SOL     OW27085   4.089   1.310   0.957  0.1016 -0.1175  0.4093
 5209SOL    HW127086   4.124   1.372   1.021 -1.0358  0.8965  0.0529
 5209SOL    HW227087   4.052   1.374   0.895  1.9213  0.7025  0.1490
 5210SOL     OW27088   3.113   0.008   5.686 -0.2630 -0.3755 -0.0212
 5210SOL    HW127089   3.089   4.644   5.645 -2.7095  0.6713 -0.7370
 5210SOL    HW227090   3.205   0.010   5.710 -0.4386 -0.4688  0.6723
 5211SOL     OW27091   4.217   1.360   6.572 -0.1238 -0.0341 -0.1770
 5211SOL    HW127092   4.294   1.415   6.561  0.3047 -0.8296 -1.2132
 5211SOL    HW227093   4.191   1.394   6.658 -1.5150  1.5858 -1.2393
 5212SOL     OW27094   3.119   0.366   6.967 -0.0850  0.3982  0.2368
 5212SOL    HW127095   3.043   0.385   7.023 -1.1229 -0.2902 -0.9541
 5212SOL    HW227096   3.149   0.455   6.949  1.0259 -0.3718 -1.6510
 5213SOL     OW27097   4.057   3.989   3.148 -0.0210  0.0196  0.1099
 5213SOL    HW127098   4.047   3.984   3.243  2.8556  2.0966  0.5108
 5213SOL    HW227099   3.969   3.956   3.127  0.2246 -0.3952 -0.2683
 5214SOL     OW27100   3.700   2.814  10.854  0.7507 -0.3378 -0.0270
 5214SOL    HW127101   3.793   2.807  10.833  0.8299 -0.2621  0.2984
 5214SOL    HW227102   3.709   2.788  10.946 -1.1167 -2.8055 -0.5317
 5215SOL     OW27103   2.988   3.592   1.449  0.2231  0.8085  0.6080
 5215SOL    HW127104   2.921   3.546   1.398  1.9576  1.1840 -1.9997
 5215SOL    HW227105   3.066   3.557   1.406 -0.9040 -0.9717  0.0450
 5216SOL     OW27106   4.360   3.710   8.064  0.2839 -0.4842  0.1309
 5216SOL    HW127107   4.440   3.684   8.110 -0.4154 -2.0674  0.4228
 5216SOL    HW227108   4.335   3.796   8.097 -0.8047 -0.8553  0.2473
 5217SOL     OW27109   2.407   2.219   3.423  0.3049 -0.9507 -0.3231
 5217SOL    HW127110   2.497   2.197   3.447  0.9913  0.0942 -1.9398
 5217SOL    HW227111   2.399   2.165   3.344 -0.1840 -1.0282 -0.2193
 5218SOL     OW27112   0.117   2.350   6.554  0.1697  0.2869 -0.0504
 5218SOL    HW127113   0.110   2.429   6.606 -0.2931 -0.3460  0.8415
 5218SOL    HW227114   0.174   2.296   6.609 -0.2350 -0.2973 -0.2040
 5219SOL     OW27115   3.035   0.439   4.337  0.2855 -0.6319  0.4889
 5219SOL    HW127116   3.091   0.361   4.329 -1.6537 -2.1214  1.6065
 5219SOL    HW227117   3.036   0.479   4.249  1.3894  1.4579  1.4447
 5220SOL     OW27118   1.714   1.242  15.367  0.2573  0.3318  0.3686
 5220SOL    HW127119   1.740   1.319  15.317 -2.0428  1.1589  0.4341
 5220SOL    HW227120   1.675   1.203  15.289  1.1740 -0.1647  0.1622
 5221SOL     OW27121   2.854   2.632  10.721  0.3219 -0.1757  0.8818
 5221SOL    HW127122   2.796   2.708  10.715 -0.1726 -0.5633  0.7323
 5221SOL    HW227123   2.790   2.570  10.756 -0.5134  0.1793  0.0084
 5222SOL     OW27124   1.609   4.657   8.888 -0.1605  0.2058 -0.7003
 5222SOL    HW127125   1.646   4.715   8.955  1.6646 -1.1200 -0.5705
 5222SOL    HW227126   1.670   4.678   8.818 -0.1184  2.2773 -0.0358
 5223SOL     OW27127   4.093   3.122   1.219 -0.2847 -0.1133  0.1995
 5223SOL    HW127128   4.091   3.177   1.141  0.9260 -0.1846  0.1153
 5223SOL    HW227129   3.999   3.120   1.237 -0.5390 -1.5259 -1.2032
 5224SOL     OW27130   1.751   2.693   7.703  0.3236 -0.2317  0.5892
 5224SOL    HW127131   1.738   2.708   7.797  1.6126 -1.4443  0.9618
 5224SOL    HW227132   1.703   2.614   7.679  0.4152 -0.3527  0.7997
 5225SOL     OW27133   1.939   2.852   2.817 -0.0540 -0.4503 -0.1997
 5225SOL    HW127134   1.908   2.932   2.860  0.9618 -0.5877  0.7703
 5225SOL    HW227135   2.029   2.842   2.848 -0.1449  1.5780  0.6780
 5226SOL     OW27136   0.993   2.727   5.715 -0.1333  0.0187 -0.0226
 5226SOL    HW127137   0.988   2.637   5.746  0.1586  0.7362  2.1320
 5226SOL    HW227138   1.074   2.729   5.663 -1.1901 -1.5293 -1.7054
 5227SOL     OW27139   1.487   2.591   6.849  0.0838  0.1379 -0.5880
 5227SOL    HW127140   1.415   2.654   6.850  0.9409  1.1207 -1.4469
 5227SOL    HW227141   1.537   2.619   6.773  1.4464 -1.3557 -0.2332
 5228SOL     OW27142   1.309   4.577   7.661 -0.5377 -0.1135 -0.4112
 5228SOL    HW127143   1.249   4.538   7.725 -1.9515  1.8642 -0.5250
 5228SOL    HW227144   1.389   4.526   7.676 -2.0329 -1.7775  2.0652
 5229SOL     OW27145   3.465   3.977   3.516 -0.5907 -0.3874  0.4458
 5229SOL    HW127146   3.392   3.932   3.559 -0.6858 -1.1488 -0.4906
 5229SOL    HW227147   3.494   4.043   3.578 -0.1138  0.4069 -0.6352
 5230SOL     OW27148   0.221   4.532  13.195 -0.2761 -0.2787  0.2857
 5230SOL    HW127149   0.210   4.492  13.281 -0.2716 -2.3346 -0.6756
 5230SOL    HW227150   0.195   4.624  13.201  1.4860  0.2098  0.2447
 5231SOL     OW27151   0.712   2.866   4.147 -0.6190  0.0057  0.5288
 5231SOL    HW127152   0.732   2.901   4.235  0.7653  1.0409 -0.1965
 5231SOL    HW227153   0.781   2.800   4.151 -2.4013 -2.0216 -2.4925
 5232SOL     OW27154   0.536   4.065  14.058 -0.2044  0.9842  0.3052
 5232SOL    HW127155   0.462   4.083  14.000 -0.5291 -1.1829  0.0458
 5232SOL    HW227156   0.514   3.974  14.079  1.1291  0.2459 -1.4824
 5233SOL     OW27157   2.318   4.190   6.350 -0.5420  0.1372 -0.4878
 5233SOL    HW127158   2.387   4.144   6.397 -1.5747 -0.0367  0.8407
 5233SOL    HW227159   2.298   4.259   6.413  0.8875 -1.0397  1.2598
 5234SOL     OW27160   2.341   2.478   8.605 -0.1519  0.6879  0.3427
 5234SOL    HW127161   2.249   2.468   8.630 -0.4624 -0.9177 -1.4516
 5234SOL    HW227162   2.376   2.395   8.639  2.9503  2.7006  2.0846
 5235SOL     OW27163   3.301   2.197   4.885 -0.2183  0.2536  0.5210
 5235SOL    HW127164   3.268   2.268   4.940  1.4529  1.8359 -0.5228
 5235SOL    HW227165   3.218   2.162   4.853  0.5003 -0.0209 -1.0113
 5236SOL     OW27166   3.791   2.524  17.550 -0.4781  0.0756  0.4745
 5236SOL    HW127167   3.695   2.518  17.546 -0.6348  2.3389  1.0095
 5236SOL    HW227168   3.809   2.521  17.644  0.3432  2.2087  0.3797
 5237SOL     OW27169   1.246   0.567   7.802  0.7504 -0.0821  0.3334
 5237SOL    HW127170   1.334   0.546   7.833  0.8171  1.8288  1.4776
 5237SOL    HW227171   1.226   0.483   7.762 -0.4958  0.9041 -1.0964
 5238SOL     OW27172   2.657   1.115  15.638 -0.1466  0.4664 -0.1011
 5238SOL    HW127173   2.722   1.127  15.568 -0.2174 -0.0512 -0.2535
 5238SOL    HW227174   2.650   1.208  15.661 -0.7962  0.6272 -0.9584
 5239SOL     OW27175   3.778   1.074   4.240  0.6835 -0.0222 -0.5072
 5239SOL    HW127176   3.823   1.092   4.158 -0.5281 -0.3560 -1.2395
 5239SOL    HW227177   3.697   1.121   4.223  1.1380  1.1058  0.3533
 5240SOL     OW27178   1.214   0.909   2.096  0.4720 -0.1491 -0.0088
 5240SOL    HW127179   1.172   0.974   2.152 -1.5642 -2.8163  1.5295
 5240SOL    HW227180   1.305   0.920   2.125  1.2458  0.4523 -2.6764
 5241SOL     OW27181   4.469   1.134  15.839  0.2347  0.6039 -0.3295
 5241SOL    HW127182   4.473   1.055  15.893 -1.2053  0.2125 -0.8273
 5241SOL    HW227183   4.548   1.180  15.870  1.0634  0.0059 -1.5466
 5242SOL     OW27184   2.729   4.008   7.967 -0.4561  0.2298  0.3059
 5242SOL    HW127185   2.744   4.000   8.061  1.3055  0.5741  0.0695
 5242SOL    HW227186   2.710   4.100   7.949 -1.8603 -0.2713 -0.7373
 5243SOL     OW27187   0.463   4.649   9.120 -0.0824 -0.5357 -0.0607
 5243SOL    HW127188   0.481   4.573   9.175 -0.2724  1.7368  3.1244
 5243SOL    HW227189   0.446   4.712   9.190  1.2887  0.4693 -0.6418
 5244SOL     OW27190   0.127   4.157  12.939 -0.0827  0.4218  0.8961
 5244SOL    HW127191   0.127   4.084  12.876  0.1636  2.6567 -1.7073
 5244SOL    HW227192   0.036   4.155  12.969 -0.5540 -1.7368 -0.6523
 5245SOL     OW27193   0.705   3.431   9.080  0.0628  0.3503 -0.0918
 5245SOL    HW127194   0.688   3.525   9.066  0.7409  0.5038  0.1459
 5245SOL    HW227195   0.794   3.419   9.049  0.3914  2.8851 -0.1189
 5246SOL     OW27196   1.887   0.940   3.499  0.1257 -0.2373 -0.8791
 5246SOL    HW127197   1.926   0.896   3.424  0.1795  0.4957 -1.2886
 5246SOL    HW227198   1.822   0.875   3.521  0.6089  0.3609  2.2692
 5247SOL     OW27199   2.447   4.518   2.160  0.0287  0.5358  0.7553
 5247SOL    HW127200   2.355   4.528   2.135  1.1812  1.6626 -3.1348
 5247SOL    HW227201   2.475   4.444   2.106 -1.7829  0.6452 -0.3395
 5248SOL     OW27202   2.945   2.398   2.899  0.1953 -0.0832 -0.5770
 5248SOL    HW127203   3.004   2.441   2.838  2.8236  0.1457  2.0992
 5248SOL    HW227204   2.972   2.435   2.983  0.0763  1.2983 -1.1571
 5249SOL     OW27205   1.172   1.741  15.460 -0.1325 -0.2446  0.8074
 5249SOL    HW127206   1.151   1.648  15.454  0.0761 -0.3152  1.2377
 5249SOL    HW227207   1.261   1.740  15.495 -0.1774 -0.1699  0.9222
 5250SOL     OW27208   2.666   1.733   9.195  0.2351  0.1402  0.2108
 5250SOL    HW127209   2.749   1.719   9.241 -1.2655  1.0433  3.1729
 5250SOL    HW227210   2.699   1.808   9.145  1.5935  1.0564  2.4968
 5251SOL     OW27211   3.674   1.981   1.392  0.0284 -0.0627 -0.6398
 5251SOL    HW127212   3.679   1.918   1.464 -0.7106 -0.5902 -1.0419
 5251SOL    HW227213   3.613   2.047   1.423  0.3375 -0.4358  0.7545
 5252SOL     OW27214   4.574   0.399   5.211  0.2909  0.3480  0.1156
 5252SOL    HW127215   4.578   0.456   5.133 -1.5696 -0.8236 -0.8289
 5252SOL    HW227216   4.488   0.360   5.198  0.6562 -0.2990 -0.3768
 5253SOL     OW27217   0.921   0.438   0.211  0.3319 -0.5225  0.3352
 5253SOL    HW127218   0.843   0.395   0.246 -0.7328  3.2096  2.6115
 5253SOL    HW227219   0.974   0.435   0.290  0.5648  3.2405  0.3265
 5254SOL     OW27220   3.637   0.016  17.341 -0.4076  1.4263 -0.2221
 5254SOL    HW127221   3.544   0.013  17.365 -0.5424  0.7833 -0.8052
 5254SOL    HW227222   3.634   0.032  17.246  1.5028  3.1426  0.0147
 5255SOL     OW27223   1.408   1.640   2.318 -0.4688 -0.5823  0.0348
 5255SOL    HW127224   1.362   1.719   2.289  0.1592 -0.8230 -1.6319
 5255SOL    HW227225   1.339   1.578   2.295 -2.1483  1.6000 -0.7730
 5256SOL     OW27226   4.023   4.459   2.660 -0.3118  0.1186 -0.1189
 5256SOL    HW127227   4.089   4.500   2.604  1.0512  1.0874  2.1818
 5256SOL    HW227228   4.041   4.366   2.646  2.0413  0.4285  0.8269
 5257SOL     OW27229   4.094   0.924   9.123 -0.0853  0.5044 -0.3918
 5257SOL    HW127230   4.057   0.889   9.205 -1.6580  2.4749 -0.2620
 5257SOL    HW227231   4.176   0.955   9.161 -1.7457  3.2294  0.9785
 5258SOL     OW27232   4.257   0.362   7.756  0.5133  0.2636 -0.2787
 5258SOL    HW127233   4.211   0.412   7.689  0.9662  1.9840  0.6777
 5258SOL    HW227234   4.182   0.310   7.785 -0.2529  3.2585  3.0961
 5259SOL     OW27235   1.079   3.690  15.494  0.0372  0.7426  0.3972
 5259SOL    HW127236   1.095   3.676  15.588  1.2983 -0.6749 -0.0378
 5259SOL    HW227237   0.986   3.666  15.492  0.3570 -0.4164 -0.3879
 5260SOL     OW27238   3.901   4.589   4.632  0.7562  0.3294 -0.4655
 5260SOL    HW127239   3.891   4.517   4.695  0.2921  0.8962  0.1074
 5260SOL    HW227240   3.943   4.645   4.698 -1.5455 -1.1121  2.2004
 5261SOL     OW27241   3.010   3.425   2.378 -0.3570  0.2989 -0.4361
 5261SOL    HW127242   3.050   3.410   2.293  0.1138 -0.5033 -0.0754
 5261SOL    HW227243   2.917   3.410   2.362 -0.8458  0.0258  2.5607
 5262SOL     OW27244   2.288   3.780  15.776 -0.2789  0.4137  0.0388
 5262SOL    HW127245   2.220   3.773  15.709  0.2444  0.9520 -0.5520
 5262SOL    HW227246   2.253   3.723  15.845  0.4573 -2.5376 -2.0062
 5263SOL     OW27247   3.334   3.246   2.268 -0.0400 -0.2712 -0.1114
 5263SOL    HW127248   3.324   3.241   2.363 -0.6687 -0.6042 -0.1954
 5263SOL    HW227249   3.247   3.221   2.237 -0.0120  2.7530 -2.5992
 5264SOL     OW27250   0.085   1.113   4.294 -0.2021 -0.3608 -0.1589
 5264SOL    HW127251   0.117   1.048   4.232 -3.4341 -0.9430 -1.2409
 5264SOL    HW227252   0.025   1.069   4.355 -0.0505  0.1914  0.3907
 5265SOL     OW27253   4.504   3.235  14.247  0.7764 -0.1653  0.3656
 5265SOL    HW127254   4.510   3.151  14.294 -1.5399 -1.2669 -1.3106
 5265SOL    HW227255   4.548   3.223  14.163  0.8392 -1.9501  0.6562
 5266SOL     OW27256   4.603   2.985   8.150  0.2011 -0.4617  0.2921
 5266SOL    HW127257   4.560   3.071   8.159 -0.5852 -0.8538  0.2754
 5266SOL    HW227258   4.519   2.941   8.139 -0.0841  0.4360 -1.0824
 5267SOL     OW27259   0.782   0.158   0.787 -0.2017  0.0132  0.4856
 5267SOL    HW127260   0.702   0.145   0.736 -0.4730  0.1843  0.8614
 5267SOL    HW227261   0.775   0.099   0.862 -0.7569 -0.2288  0.2437
 5268SOL     OW27262   0.451   2.616   6.595 -0.5750  0.2566  0.3691
 5268SOL    HW127263   0.494   2.654   6.671 -1.0381 -1.0579  1.2835
 5268SOL    HW227264   0.515   2.612   6.524  0.5169  0.0529  1.3591
 5269SOL     OW27265   3.083   2.921   7.717  0.0744 -0.0014  0.1224
 5269SOL    HW127266   3.110   2.829   7.723  1.0497  0.2649 -0.1268
 5269SOL    HW227267   2.996   2.916   7.675 -0.1619  0.1782  0.6009
 5270SOL     OW27268   4.235   3.310   0.084 -0.0557 -0.5983 -0.0163
 5270SOL    HW127269   4.276   3.305  17.677  1.2387 -1.3832  0.6389
 5270SOL    HW227270   4.295   3.377   0.119 -0.3231  0.2257 -1.1449
 5271SOL     OW27271   3.457   1.398  10.078 -0.4313  0.2834 -0.7790
 5271SOL    HW127272   3.365   1.418  10.062 -0.1248  0.9769 -1.7418
 5271SOL    HW227273   3.445   1.332  10.145  0.4511 -0.9553 -1.8416
 5272SOL     OW27274   0.826   0.927   2.194  0.3430 -0.3970  0.0767
 5272SOL    HW127275   0.915   0.908   2.224  1.7009 -0.3995 -3.9974
 5272SOL    HW227276   0.845   0.985   2.120  0.9649  0.4277  0.8753
 5273SOL     OW27277   1.294   1.738   8.128 -0.2167 -0.2250  0.0471
 5273SOL    HW127278   1.243   1.659   8.150  0.8782 -0.6428  1.0805
 5273SOL    HW227279   1.219   1.796   8.115 -2.5011 -3.1515  0.1854
 5274SOL     OW27280   2.021   0.776  13.302  0.1643 -0.4419  0.0891
 5274SOL    HW127281   1.961   0.842  13.269  2.1142  2.4972  2.4147
 5274SOL    HW227282   1.978   0.767  13.386 -0.2332  0.7007  0.0041
 5275SOL     OW27283   2.403   4.281   7.728 -0.1514  0.6119  0.3271
 5275SOL    HW127284   2.419   4.281   7.823 -0.2220  0.5232  0.3390
 5275SOL    HW227285   2.488   4.268   7.687 -0.0969  0.0413  0.6165
 5276SOL     OW27286   2.251   2.023   5.372  0.6077 -0.3463  0.7502
 5276SOL    HW127287   2.328   2.055   5.324  0.3023  0.8214  1.0274
 5276SOL    HW227288   2.260   2.054   5.462 -1.7664  0.6720  0.6394
 5277SOL     OW27289   0.685   0.779  13.526 -0.5840  0.3021  0.0118
 5277SOL    HW127290   0.610   0.728  13.498  1.5136 -1.0580 -3.1069
 5277SOL    HW227291   0.760   0.743  13.479 -2.6269 -1.3029 -2.0180
 5278SOL     OW27292   0.465   2.452   4.713  0.6348 -0.4170  0.6069
 5278SOL    HW127293   0.370   2.453   4.717  0.7359  1.1692  2.7313
 5278SOL    HW227294   0.488   2.523   4.773  0.3646 -0.0070  0.2210
 5279SOL     OW27295   1.236   3.037   5.513 -0.5280  0.5525  0.0700
 5279SOL    HW127296   1.226   2.947   5.546  1.2207  0.6063  0.7659
 5279SOL    HW227297   1.322   3.058   5.548 -1.6142 -0.1922  3.2117
 5280SOL     OW27298   0.426   2.105   4.405 -0.0237 -0.3924 -0.1384
 5280SOL    HW127299   0.493   2.091   4.472 -0.9588  0.6477  1.0057
 5280SOL    HW227300   0.371   2.162   4.458  0.0500  0.2724 -0.7765
 5281SOL     OW27301   1.358   3.412  15.389 -0.0687  0.1263 -0.3000
 5281SOL    HW127302   1.394   3.331  15.354 -0.4124 -1.0363  2.0192
 5281SOL    HW227303   1.405   3.408  15.472  0.3361  0.9767 -0.4890
 5282SOL     OW27304   2.042   1.523   3.718 -0.2869  0.6695  0.1049
 5282SOL    HW127305   2.032   1.597   3.777 -0.0631  0.1945  0.7364
 5282SOL    HW227306   2.100   1.565   3.655  0.5588 -1.4277 -0.5111
 5283SOL     OW27307   1.423   0.570  14.087 -0.5187  0.0426 -0.2542
 5283SOL    HW127308   1.383   0.654  14.107  2.0191  1.3211 -0.5851
 5283SOL    HW227309   1.376   0.516  14.151 -0.6648 -0.5508 -0.8548
 5284SOL     OW27310   2.675   2.121   9.031  0.6503 -0.7082 -0.3588
 5284SOL    HW127311   2.694   2.084   9.118 -2.3222 -0.9564  0.1851
 5284SOL    HW227312   2.598   2.179   9.036  2.5368  1.9275 -1.8107
 5285SOL     OW27313   0.488   0.320   9.031 -0.5612 -0.5341  0.0633
 5285SOL    HW127314   0.431   0.338   9.106 -0.9862  1.2752 -0.6842
 5285SOL    HW227315   0.421   0.302   8.966 -0.0120 -0.9667 -0.3838
 5286SOL     OW27316   3.223   0.940   3.972  0.0099 -0.3361 -0.5331
 5286SOL    HW127317   3.257   1.029   3.956 -2.0195  0.4966 -0.1343
 5286SOL    HW227318   3.135   0.954   4.005 -0.4462  0.0087 -1.8984
 5287SOL     OW27319   3.472   2.173   1.523 -0.5609  0.5326  0.5995
 5287SOL    HW127320   3.481   2.267   1.507  0.2029 -0.0667 -2.5122
 5287SOL    HW227321   3.377   2.159   1.533 -1.0042  1.3919 -2.2017
 5288SOL     OW27322   3.743   4.380   3.565 -0.2510 -0.0967  0.0596
 5288SOL    HW127323   3.823   4.408   3.521  0.1756 -0.7621  0.4175
 5288SOL    HW227324   3.693   4.454   3.600 -3.0927 -1.7453 -0.5207
 5289SOL     OW27325   2.096   1.052  16.100  0.2810  0.0987 -0.2816
 5289SOL    HW127326   2.058   1.112  16.035  0.7910 -0.1926 -0.8462
 5289SOL    HW227327   2.021   1.050  16.160  0.1239  0.7601 -0.4562
 5290SOL     OW27328   3.810   4.265   0.112  0.8244 -0.2291 -0.3050
 5290SOL    HW127329   3.732   4.210   0.101  0.7649 -0.4669  1.3031
 5290SOL    HW227330   3.876   4.236   0.049 -0.4760  0.8439 -2.1688
 5291SOL     OW27331   2.175   2.461   2.150  0.3564  0.2285  0.1012
 5291SOL    HW127332   2.214   2.395   2.207 -0.7495  0.3868  1.0520
 5291SOL    HW227333   2.235   2.471   2.076  1.4963 -1.2639  0.8132
 5292SOL     OW27334   2.934   0.045   5.341 -0.7135 -0.0656  0.3654
 5292SOL    HW127335   2.967   0.096   5.267  1.5746 -1.1377  0.6649
 5292SOL    HW227336   2.918   4.680   5.297  0.8593  0.7812 -1.8264
 5293SOL     OW27337   3.796   0.253  16.266 -0.4325  0.5106 -0.9516
 5293SOL    HW127338   3.785   0.336  16.219 -0.9397  1.4935  0.9148
 5293SOL    HW227339   3.739   0.260  16.343  0.3814 -0.5660 -0.2595
 5294SOL     OW27340   3.471   1.000  13.659 -0.5811 -0.0209  0.0056
 5294SOL    HW127341   3.558   1.004  13.698 -0.4257 -0.5146 -0.2862
 5294SOL    HW227342   3.488   0.963  13.573 -1.3535  1.2149 -0.6776
 5295SOL     OW27343   2.396   0.435  17.656 -0.1918  0.1445  0.0346
 5295SOL    HW127344   2.417   0.387   0.056  1.9132 -0.6930 -1.0204
 5295SOL    HW227345   2.301   0.428  17.643 -0.5458  1.0862  2.1986
 5296SOL     OW27346   2.198   1.616   0.974 -0.0662 -0.1080 -0.1009
 5296SOL    HW127347   2.291   1.629   0.951 -0.1838 -1.1823 -1.1896
 5296SOL    HW227348   2.165   1.695   0.930 -0.4239 -0.8055 -1.0839
 5297SOL     OW27349   4.525   2.573   1.951  0.2559  0.3234 -0.3772
 5297SOL    HW127350   4.524   2.536   1.863  2.6563  0.4641 -0.4566
 5297SOL    HW227351   4.585   2.647   1.942  0.8536  0.0540  1.4273
 5298SOL     OW27352   4.269   4.026  14.693  0.8394 -0.4374 -0.7426
 5298SOL    HW127353   4.256   3.932  14.685  1.3713 -0.3735 -2.2683
 5298SOL    HW227354   4.364   4.035  14.695  0.6908  1.4285 -2.2103
 5299SOL     OW27355   1.335   1.438   6.630 -0.0715 -0.1591  0.1925
 5299SOL    HW127356   1.398   1.484   6.575  1.5873 -1.2983  1.1416
 5299SOL    HW227357   1.263   1.500   6.631 -1.2997 -1.5062 -2.2594
 5300SOL     OW27358   3.844   3.572   4.541 -0.1896  0.1574 -0.0357
 5300SOL    HW127359   3.805   3.523   4.614  1.4211 -0.0172  0.7019
 5300SOL    HW227360   3.892   3.502   4.497  0.4774  1.3354 -1.1563
 5301SOL     OW27361   3.707   0.082   9.786 -0.1928 -0.4348  0.0311
 5301SOL    HW127362   3.801   0.070   9.769 -0.4337  0.6149 -1.9920
 5301SOL    HW227363   3.682   0.152   9.726  1.0251 -0.1746 -0.1730
 5302SOL     OW27364   0.439   3.868   3.750  0.8335 -0.3696  0.4146
 5302SOL    HW127365   0.403   3.934   3.691  1.9029 -2.0923 -2.2027
 5302SOL    HW227366   0.485   3.812   3.686 -0.3425  0.3220 -1.0326
 5303SOL     OW27367   1.909   0.454   5.343  0.1050 -0.2512  0.0248
 5303SOL    HW127368   1.971   0.403   5.291  1.1938 -0.3243  1.4331
 5303SOL    HW227369   1.952   0.540   5.345 -2.0959  0.8687  0.0142
 5304SOL     OW27370   0.049   0.964   3.115  0.3045  0.2601  0.0692
 5304SOL    HW127371   0.102   0.885   3.103  0.7421  0.6576 -0.6158
 5304SOL    HW227372   0.063   1.001   3.028  0.6597 -0.7070 -0.2849
 5305SOL     OW27373   4.576   0.739   7.118 -0.3706  0.0870 -0.0267
 5305SOL    HW127374   4.490   0.701   7.135 -0.7378  0.7411 -0.4425
 5305SOL    HW227375   4.553   0.764   7.029  0.1501 -0.6805 -0.3817
 5306SOL     OW27376   2.207   4.220   2.919 -0.0038  0.0311  0.1583
 5306SOL    HW127377   2.114   4.202   2.935  0.0023 -1.0251 -0.9849
 5306SOL    HW227378   2.232   4.281   2.988  0.6898  0.9938 -0.9395
 5307SOL     OW27379   0.784   4.325   2.492 -0.3380 -0.3777 -0.2823
 5307SOL    HW127380   0.842   4.393   2.462  0.1910 -0.0850  1.3861
 5307SOL    HW227381   0.782   4.342   2.587 -0.0240 -0.2042 -0.3085
 5308SOL     OW27382   3.609   3.257   7.443 -0.2169  0.5560 -0.4865
 5308SOL    HW127383   3.545   3.223   7.505  1.8084  1.6451  2.2247
 5308SOL    HW227384   3.671   3.302   7.501 -0.8814  1.2675 -0.3232
 5309SOL     OW27385   3.456   0.792   5.839 -0.1090 -0.3853 -0.0043
 5309SOL    HW127386   3.387   0.834   5.787 -0.9008 -0.9341  0.5999
 5309SOL    HW227387   3.480   0.726   5.775  2.3134  1.8843 -1.4244
 5310SOL     OW27388   3.966   2.312   3.836 -0.2777 -0.8384 -0.4047
 5310SOL    HW127389   4.050   2.270   3.815 -0.1885 -1.3027  0.8312
 5310SOL    HW227390   3.905   2.247   3.803 -1.2408 -1.5853  2.8410
 5311SOL     OW27391   3.170   3.320   6.345  0.4675  0.1780 -0.4260
 5311SOL    HW127392   3.105   3.308   6.414  1.8711  1.7394  1.1782
 5311SOL    HW227393   3.161   3.236   6.299 -2.6752  0.0272  0.4686
 5312SOL     OW27394   2.387   1.152  16.510  0.0393  0.5464  0.2929
 5312SOL    HW127395   2.355   1.118  16.593 -2.2794  0.2164 -0.7343
 5312SOL    HW227396   2.324   1.101  16.459  1.5968 -0.1801 -0.9175
 5313SOL     OW27397   4.383   2.884   2.823 -0.1517 -0.2749 -0.2104
 5313SOL    HW127398   4.422   2.810   2.869  1.3814  0.6301 -0.0697
 5313SOL    HW227399   4.379   2.939   2.902  2.1787 -1.4008  0.6691
 5314SOL     OW27400   1.198   2.004   1.139 -0.6294  0.7060  0.3404
 5314SOL    HW127401   1.235   1.988   1.225 -1.8920 -0.7361  0.6134
 5314SOL    HW227402   1.270   2.056   1.102  0.8469 -0.2111  1.9528
 5315SOL     OW27403   0.333   2.726  11.193 -0.1604 -0.5512  0.4810
 5315SOL    HW127404   0.328   2.750  11.285 -1.1135  0.7416  0.0942
 5315SOL    HW227405   0.428   2.735  11.190 -0.2638 -0.6013 -2.6595
 5316SOL     OW27406   2.784   2.645   0.333  0.3667 -0.0815 -0.2667
 5316SOL    HW127407   2.752   2.714   0.391  2.2693  0.8188 -0.2929
 5316SOL    HW227408   2.762   2.676   0.245 -0.7261  3.1806  1.1816
 5317SOL     OW27409   1.911   0.987  15.821 -0.2193 -0.3080 -0.0990
 5317SOL    HW127410   1.825   0.997  15.781 -0.2129 -2.5738 -0.6574
 5317SOL    HW227411   1.943   1.078  15.816 -0.8332 -0.0935 -0.0489
 5318SOL     OW27412   1.189   3.093  11.401  0.5230 -0.0398 -0.1991
 5318SOL    HW127413   1.145   3.111  11.484  1.7837  0.0486  0.4560
 5318SOL    HW227414   1.278   3.074  11.430  0.0372 -2.2640 -0.1512
 5319SOL     OW27415   4.648   3.566  10.328  0.1326  0.1806  0.0964
 5319SOL    HW127416   4.708   3.511  10.278 -0.0227 -1.7114  1.9871
 5319SOL    HW227417   4.591   3.502  10.371 -0.0760  0.3516  0.0756
 5320SOL     OW27418   2.206   4.129   2.485 -0.2008  0.3644 -0.3441
 5320SOL    HW127419   2.230   4.175   2.405 -2.3641  2.6835  0.3388
 5320SOL    HW227420   2.200   4.041   2.448 -0.3013  0.1461  0.1794
 5321SOL     OW27421   1.705   1.151  11.920  0.1297 -0.3735  0.0058
 5321SOL    HW127422   1.722   1.194  11.837  0.8491 -0.9501 -0.1374
 5321SOL    HW227423   1.738   1.064  11.899 -2.3293 -1.3156  0.0328
 5322SOL     OW27424   3.204   2.773   2.335 -0.3340  0.0959  0.6148
 5322SOL    HW127425   3.230   2.791   2.426 -0.8723  0.3603  0.7203
 5322SOL    HW227426   3.292   2.783   2.298 -0.6817  1.0220  0.0490
 5323SOL     OW27427   1.964   1.323   6.893 -1.1428 -0.5697 -0.0577
 5323SOL    HW127428   2.052   1.344   6.923 -2.0818  3.5824 -0.1527
 5323SOL    HW227429   1.993   1.269   6.819  1.3016  1.5472 -0.6104
 5324SOL     OW27430   0.630   0.397   2.891  0.3670 -0.0824 -0.4200
 5324SOL    HW127431   0.693   0.430   2.827  0.3398  1.3962  0.3144
 5324SOL    HW227432   0.581   0.342   2.830  0.4722  1.3043 -1.7458
 5325SOL     OW27433   0.231   3.930   2.903 -0.6034  0.0801  0.7689
 5325SOL    HW127434   0.274   4.012   2.927 -0.0668  0.1093 -0.2920
 5325SOL    HW227435   0.243   3.918   2.809 -1.4068 -0.5081  0.7428
 5326SOL     OW27436   0.702   0.767   4.994  0.3075 -0.0567 -0.0723
 5326SOL    HW127437   0.775   0.746   4.937  3.0836 -0.8209  3.7555
 5326SOL    HW227438   0.737   0.830   5.057 -1.8397 -0.9857  2.0719
 5327SOL     OW27439   0.398   0.197   3.038 -0.7470 -0.1830  0.3663
 5327SOL    HW127440   0.439   0.278   3.069  2.1434 -0.9254 -1.5597
 5327SOL    HW227441   0.465   0.167   2.978 -1.9474 -1.1264 -0.4946
 5328SOL     OW27442   2.727   3.626   8.239  0.2323  0.1299 -0.3735
 5328SOL    HW127443   2.651   3.642   8.294  1.6189  1.2675  1.2407
 5328SOL    HW227444   2.804   3.643   8.294  0.9272 -0.7815 -1.0718
 5329SOL     OW27445   3.957   1.237   3.199 -0.6809 -0.1533 -0.8439
 5329SOL    HW127446   3.944   1.331   3.199  0.1998 -0.0472  1.5220
 5329SOL    HW227447   3.884   1.212   3.142 -0.2614  2.2849 -2.4399
 5330SOL     OW27448   3.078   4.185   6.006  0.9731  0.0703  0.3284
 5330SOL    HW127449   3.133   4.109   5.985 -2.9525 -1.9853 -2.5367
 5330SOL    HW227450   3.122   4.262   5.970  0.3111 -0.1525 -0.9265
 5331SOL     OW27451   3.821   3.724   8.461 -0.0339 -0.1568  0.4190
 5331SOL    HW127452   3.814   3.655   8.527  1.4821 -0.7811 -0.0666
 5331SOL    HW227453   3.781   3.680   8.386 -1.5828 -2.4759  2.6089
 5332SOL     OW27454   3.176   3.883   5.411  0.8018 -0.1146 -0.0518
 5332SOL    HW127455   3.237   3.916   5.346  0.8011  1.5417  0.7835
 5332SOL    HW227456   3.234   3.828   5.464  0.0804  0.5909  1.4878
 5333SOL     OW27457   1.237   3.483   3.039 -0.5487  0.1844  0.1976
 5333SOL    HW127458   1.279   3.557   2.995 -0.8292  0.9740  1.2485
 5333SOL    HW227459   1.272   3.418   2.978  1.8262  2.4470 -0.8108
 5334SOL     OW27460   2.863   4.640   4.680 -0.2749  0.5085 -0.3151
 5334SOL    HW127461   2.815   4.627   4.598  0.4824  1.2267 -0.8794
 5334SOL    HW227462   2.792   4.614   4.739  0.6252 -1.2238  0.0081
 5335SOL     OW27463   1.384   3.994   4.740  0.0711 -0.1208 -0.3384
 5335SOL    HW127464   1.431   4.042   4.808  0.0510  0.6925 -0.9010
 5335SOL    HW227465   1.447   3.925   4.720 -1.3467 -1.7083  0.6005
 5336SOL     OW27466   2.209   0.494   7.629 -0.2680 -0.6061  0.4322
 5336SOL    HW127467   2.264   0.479   7.553  0.4824 -0.7909  1.0180
 5336SOL    HW227468   2.275   0.532   7.687  0.0027 -1.0842  0.4364
 5337SOL     OW27469   4.295   0.335   4.169 -0.2463 -0.5155  0.3454
 5337SOL    HW127470   4.348   0.280   4.226 -1.7489 -0.6144  1.6542
 5337SOL    HW227471   4.273   0.275   4.098 -0.9058 -0.5328  0.5576
 5338SOL     OW27472   0.068   0.261   6.450 -0.3408  0.5890 -0.7585
 5338SOL    HW127473   0.156   0.300   6.449  0.5784 -1.4661 -0.5750
 5338SOL    HW227474   0.015   0.332   6.486  0.4498  1.4224 -1.2499
 5339SOL     OW27475   2.819   2.650   8.126 -0.2363  0.1641  0.2341
 5339SOL    HW127476   2.802   2.620   8.216  2.8122 -1.4147  0.2834
 5339SOL    HW227477   2.766   2.729   8.114  1.3822  1.1984 -0.1122
 5340SOL     OW27478   4.629   0.327   3.102 -0.1266 -0.2233  0.1150
 5340SOL    HW127479   4.610   0.339   3.009  0.3234  1.4178  0.2447
 5340SOL    HW227480   4.719   0.292   3.109 -0.7568 -2.3798 -2.5284
 5341SOL     OW27481   2.239   2.352   4.330 -0.5113 -0.5386 -0.3456
 5341SOL    HW127482   2.275   2.426   4.381 -0.1917  0.3245 -1.8366
 5341SOL    HW227483   2.164   2.338   4.388 -0.7034 -0.2951 -0.5380
 5342SOL     OW27484   4.594   3.524   8.428  0.0011 -0.0859 -0.2349
 5342SOL    HW127485   4.674   3.552   8.472 -1.0961  0.7878  1.2345
 5342SOL    HW227486   4.543   3.497   8.505 -0.8371  0.6745 -0.5301
 5343SOL     OW27487   1.474   3.600   0.606  0.0874 -0.4076  0.1462
 5343SOL    HW127488   1.555   3.569   0.566  1.4381  0.5834  2.1135
 5343SOL    HW227489   1.438   3.654   0.535 -0.2040  0.8225  1.2215
 5344SOL     OW27490   1.297   1.422  10.475  0.3601  0.6482  0.4302
 5344SOL    HW127491   1.230   1.359  10.449  0.3371  0.2456  1.4463
 5344SOL    HW227492   1.262   1.445  10.561 -1.7725 -0.8718 -0.0351
 5345SOL     OW27493   3.617   0.577   6.058 -0.0497  0.0942 -0.2543
 5345SOL    HW127494   3.532   0.563   6.015 -0.1946  2.3549 -0.7089
 5345SOL    HW227495   3.625   0.672   6.065  0.0399  0.0375  0.4850
 5346SOL     OW27496   1.030   4.312   8.698 -0.4006 -0.4140  0.0282
 5346SOL    HW127497   1.106   4.357   8.736 -0.6831 -1.3823  1.7624
 5346SOL    HW227498   1.075   4.284   8.618  0.2928 -0.0765  0.2960
 5347SOL     OW27499   4.653   4.419   5.611  0.2109  0.0659 -0.0869
 5347SOL    HW127500   4.608   4.443   5.530  1.6715  1.0185 -0.6196
 5347SOL    HW227501   4.583   4.420   5.676  1.2511 -1.7731  1.0825
 5348SOL     OW27502   1.325   4.230   2.091  0.1560 -0.0019 -0.0920
 5348SOL    HW127503   1.378   4.288   2.036  3.0311  0.2156  2.9206
 5348SOL    HW227504   1.265   4.286   2.140 -0.0973 -0.6162  0.2958
 5349SOL     OW27505   2.077   3.053   3.164 -0.1001  0.1078  0.5832
 5349SOL    HW127506   2.146   3.109   3.128  0.3752 -0.7637  0.1597
 5349SOL    HW227507   2.003   3.105   3.131  0.9544  0.9554 -0.4193
 5350SOL     OW27508   0.571   0.634   6.017  0.1343  0.0321  0.0047
 5350SOL    HW127509   0.624   0.695   6.069  0.4523 -1.5281  1.4986
 5350SOL    HW227510   0.506   0.697   5.987  0.1083  0.7324  1.5282
 5351SOL     OW27511   0.389   3.052   4.119  0.4384 -0.0926 -0.2733
 5351SOL    HW127512   0.445   2.993   4.169 -0.8706 -0.1802  1.1074
 5351SOL    HW227513   0.451   3.119   4.091 -0.7520  0.2086 -2.1915
 5352SOL     OW27514   3.894   2.095   1.270  0.5296  0.4623 -0.1816
 5352SOL    HW127515   3.824   2.051   1.318 -0.8107  0.4822 -2.1313
 5352SOL    HW227516   3.847   2.151   1.208 -0.3492 -0.6308 -0.4974
 5353SOL     OW27517   2.046   0.131   6.425 -0.6996 -0.0034 -0.0868
 5353SOL    HW127518   2.060   0.220   6.392  0.8763  1.4016  4.3589
 5353SOL    HW227519   2.121   0.080   6.393 -0.1749 -0.0962  1.2516
 5354SOL     OW27520   4.398   4.413  10.947  0.1510  0.3810  0.2897
 5354SOL    HW127521   4.442   4.493  10.974  0.2108  0.6821 -0.6958
 5354SOL    HW227522   4.433   4.348  11.009 -1.9763  0.1649  1.2740
 5355SOL     OW27523   0.117   4.276   9.928  0.0036  0.4036  0.6495
 5355SOL    HW127524   0.122   4.313   9.840 -1.3195  0.3450  0.5468
 5355SOL    HW227525   0.110   4.360   9.973  0.9507  0.5916  0.4433
 5356SOL     OW27526   2.201   0.118  12.611  0.5747 -0.2393 -0.3408
 5356SOL    HW127527   2.203   0.022  12.612 -0.7367 -0.2611 -0.5630
 5356SOL    HW227528   2.115   0.139  12.575 -0.1800 -1.0850  0.9786
 5357SOL     OW27529   0.637   3.879   2.704  0.2585 -0.5728 -0.4231
 5357SOL    HW127530   0.575   3.863   2.632  0.9492  1.0745 -1.4009
 5357SOL    HW227531   0.708   3.819   2.684 -0.2723 -1.5621  0.6888
 5358SOL     OW27532   3.775   1.415   3.718 -0.1611  0.3071  0.1961
 5358SOL    HW127533   3.827   1.386   3.793 -2.0065 -0.4703  1.1913
 5358SOL    HW227534   3.836   1.410   3.644 -1.4452  1.6863 -0.9543
 5359SOL     OW27535   1.914   0.188  12.802  0.4784  0.0941 -0.1478
 5359SOL    HW127536   1.864   0.230  12.732  2.1188  3.4404  0.6874
 5359SOL    HW227537   1.908   0.096  12.776  1.8449  0.1382 -0.6515
 5360SOL     OW27538   1.671   3.909   6.828 -0.1663 -0.6294 -0.5410
 5360SOL    HW127539   1.607   3.977   6.805  1.4493  0.1026 -2.7931
 5360SOL    HW227540   1.616   3.843   6.871  0.3574 -0.7411 -0.0414
 5361SOL     OW27541   0.016   3.369  10.690 -0.2415  0.0745  0.9481
 5361SOL    HW127542   4.687   3.402  10.766 -0.3599  0.9622  0.4843
 5361SOL    HW227543   4.699   3.282  10.672 -0.1822  0.1105  0.6670
 5362SOL     OW27544   1.274   1.983  13.657  0.0597  0.4122 -0.1825
 5362SOL    HW127545   1.196   2.031  13.687  1.5226  2.3949  0.4400
 5362SOL    HW227546   1.315   1.975  13.743  1.8954  3.1108 -0.8195
 5363SOL     OW27547   4.474   4.666  11.051  0.4148  0.0254 -0.0986
 5363SOL    HW127548   4.419   4.699  11.122 -1.6626 -0.0202 -1.6886
 5363SOL    HW227549   4.562   4.674  11.089  0.0608  1.2243  0.4690
 5364SOL     OW27550   1.241   4.259   0.956 -0.0061 -0.0354  0.5693
 5364SOL    HW127551   1.319   4.305   0.924  1.3669 -1.0533  2.4361
 5364SOL    HW227552   1.214   4.319   1.026  0.4759  0.6025  0.2103
 5365SOL     OW27553   2.545   2.415   3.719 -0.2602  0.3166  0.5033
 5365SOL    HW127554   2.513   2.501   3.695  1.0976  0.6231 -0.1870
 5365SOL    HW227555   2.463   2.369   3.702 -0.8185  1.2796  0.6069
 5366SOL     OW27556   0.018   0.328   1.227 -0.0950  0.2112 -0.6778
 5366SOL    HW127557   0.063   0.336   1.142  0.3709  1.4773 -0.3126
 5366SOL    HW227558   0.013   0.234   1.243  1.7475 -0.1044 -1.8999
 5367SOL     OW27559   0.578   2.372  11.701  0.4968 -0.1365  0.7634
 5367SOL    HW127560   0.536   2.305  11.647  0.2746 -0.6956  1.6195
 5367SOL    HW227561   0.650   2.392  11.642 -0.1130 -1.5848 -0.4476
 5368SOL     OW27562   2.244   4.424  13.315  0.0930 -0.0115 -0.2696
 5368SOL    HW127563   2.201   4.485  13.375 -1.1143  0.3144 -1.4851
 5368SOL    HW227564   2.328   4.404  13.357 -0.3190 -0.9826  0.0907
 5369SOL     OW27565   2.572   3.302   5.012 -0.0360 -0.0793 -0.5422
 5369SOL    HW127566   2.499   3.363   5.022  1.6469  1.5552  1.7440
 5369SOL    HW227567   2.625   3.351   5.075 -0.4654 -1.5791  0.9913
 5370SOL     OW27568   0.803   3.641   8.688  0.1021 -0.0546 -0.1230
 5370SOL    HW127569   0.795   3.719   8.632 -0.7593 -0.0150  0.0651
 5370SOL    HW227570   0.872   3.675   8.745 -2.3154  1.0382  2.1165
 5371SOL     OW27571   4.193   3.486   8.061  0.3081  0.5618 -0.1069
 5371SOL    HW127572   4.144   3.503   8.142  1.7969  0.3366  0.8415
 5371SOL    HW227573   4.246   3.566   8.063 -0.3252  0.9747  0.0037
 5372SOL     OW27574   3.556   2.324   8.393 -0.3418  0.0399 -0.0297
 5372SOL    HW127575   3.567   2.388   8.463  0.0211 -0.6855  0.5810
 5372SOL    HW227576   3.493   2.265   8.436 -0.0880  0.0829  0.4040
 5373SOL     OW27577   1.616   1.833   7.338 -0.1071  0.4136 -0.3843
 5373SOL    HW127578   1.540   1.817   7.395  0.5450 -2.8506 -0.4436
 5373SOL    HW227579   1.579   1.817   7.251 -0.7601 -1.7467  0.2871
 5374SOL     OW27580   4.613   2.876   2.294  0.1607  0.5043  0.7344
 5374SOL    HW127581   4.576   2.890   2.382 -1.2493  0.9981  0.0666
 5374SOL    HW227582   4.546   2.907   2.234  1.2861 -0.3075 -0.9262
 5375SOL     OW27583   3.518   3.020   5.114 -0.1684  0.2426  0.5006
 5375SOL    HW127584   3.492   3.009   5.206 -0.5565 -1.0875  0.2341
 5375SOL    HW227585   3.538   2.928   5.097  2.2682  0.4376  2.2523
 5376SOL     OW27586   3.689   0.353  15.708 -0.3110 -0.0882 -0.1311
 5376SOL    HW127587   3.647   0.301  15.639 -1.4016  0.2311  0.2990
 5376SOL    HW227588   3.682   0.446  15.687 -0.9890 -0.6182 -2.3075
 5377SOL     OW27589   1.358   2.990   6.961 -0.1956  0.2922  0.0930
 5377SOL    HW127590   1.450   3.012   6.945 -0.7269  2.3128 -0.2206
 5377SOL    HW227591   1.374   2.908   7.009  1.4290 -0.2435 -1.3544
 5378SOL     OW27592   0.644   0.578   8.229  0.0418  0.4886 -0.1596
 5378SOL    HW127593   0.564   0.601   8.277 -1.7582  1.4784 -3.6396
 5378SOL    HW227594   0.634   0.613   8.141  0.9896 -1.3620 -1.0185
 5379SOL     OW27595   1.987   2.117   7.774 -0.0795  0.0725  0.2308
 5379SOL    HW127596   2.026   2.189   7.824 -0.2280 -0.7465  1.5185
 5379SOL    HW227597   1.931   2.075   7.838 -2.2411  1.2966 -0.8705
 5380SOL     OW27598   3.235   1.811   0.464 -0.0364  0.2298  0.0117
 5380SOL    HW127599   3.180   1.775   0.533 -1.6358 -2.7436 -2.8482
 5380SOL    HW227600   3.317   1.830   0.511 -0.3507  0.1984  0.5615
 5381SOL     OW27601   2.001   0.386  16.825  0.1998  0.1761  0.5326
 5381SOL    HW127602   1.994   0.291  16.830 -1.8136  0.4386  2.5357
 5381SOL    HW227603   2.027   0.412  16.913  0.1070 -0.9262  0.8757
 5382SOL     OW27604   4.382   2.989   3.723 -0.1887 -0.0376  0.1340
 5382SOL    HW127605   4.351   3.079   3.724  1.2259  0.4862 -4.5619
 5382SOL    HW227606   4.346   2.957   3.640 -1.2407  0.2538  0.4704
 5383SOL     OW27607   3.795   1.263   1.928 -0.3175  0.5926  0.2112
 5383SOL    HW127608   3.769   1.192   1.869 -0.2093  0.7040  0.0321
 5383SOL    HW227609   3.889   1.260   1.911 -0.2735  0.1738  0.5157
 5384SOL     OW27610   4.697   2.268  17.523 -0.2836  0.5120 -0.1990
 5384SOL    HW127611   4.606   2.267  17.494  0.1163 -2.0142 -1.3268
 5384SOL    HW227612   0.005   2.200  17.462 -0.8738 -0.5563  0.7511
 5385SOL     OW27613   3.228   4.097   6.846 -0.3749  0.0283  0.0383
 5385SOL    HW127614   3.321   4.117   6.859 -0.6553  1.3162  0.0921
 5385SOL    HW227615   3.220   4.160   6.774  0.7581 -1.5819 -1.4940
 5386SOL     OW27616   3.056   1.586   9.812  0.0373  1.0787  0.1908
 5386SOL    HW127617   3.060   1.682   9.816  0.9383  1.0864 -0.7800
 5386SOL    HW227618   2.998   1.567   9.738  0.4120  0.2446  0.1110
 5387SOL     OW27619   1.398   3.685  11.015  0.3310 -0.0158 -0.2166
 5387SOL    HW127620   1.412   3.626  10.941  0.4937 -2.7019  1.9561
 5387SOL    HW227621   1.315   3.660  11.057  0.6165 -0.1238  0.2798
 5388SOL     OW27622   2.937   3.608   4.873 -0.0002 -0.1154 -0.1318
 5388SOL    HW127623   2.842   3.615   4.862 -0.1181 -1.9641 -0.2992
 5388SOL    HW227624   2.955   3.686   4.820  0.0469  0.0590  0.1430
 5389SOL     OW27625   2.357   4.317   5.558  0.3342  0.0221 -0.2244
 5389SOL    HW127626   2.353   4.256   5.484 -4.1169  0.6619 -0.4753
 5389SOL    HW227627   2.449   4.344   5.556  0.1488  0.7218  1.0555
 5390SOL     OW27628   0.283   1.064  11.268  0.4038 -0.7479  0.4397
 5390SOL    HW127629   0.358   1.012  11.296  1.1298 -0.3829 -0.8200
 5390SOL    HW227630   0.236   1.015  11.200  0.4244 -1.4991  0.9669
 5391SOL     OW27631   0.465   3.899  10.638  0.2117  0.1208  0.2559
 5391SOL    HW127632   0.392   3.906  10.699 -2.7097 -2.1390 -2.9726
 5391SOL    HW227633   0.424   3.861  10.560  1.1315 -1.4528  0.5348
 5392SOL     OW27634   4.567   3.443  17.112  0.2456 -0.0765 -0.7807
 5392SOL    HW127635   4.556   3.446  17.017 -1.5024 -1.8410 -0.6226
 5392SOL    HW227636   4.655   3.474  17.132 -0.0048 -0.2913  0.6479
 5393SOL     OW27637   2.434   0.023   5.978 -0.1958  0.0009 -0.0070
 5393SOL    HW127638   2.367   0.066   5.924  0.6076 -0.7665 -1.6198
 5393SOL    HW227639   2.470   0.100   6.022 -0.8082  0.6433 -0.6322
 5394SOL     OW27640   0.265   1.727   8.373  0.4679  0.2537 -0.6343
 5394SOL    HW127641   0.236   1.643   8.338  0.4720 -0.0198  0.0083
 5394SOL    HW227642   0.229   1.789   8.310 -1.2168 -1.4988 -1.3876
 5395SOL     OW27643   1.507   3.536   5.626 -0.2771 -0.1979 -0.2758
 5395SOL    HW127644   1.504   3.539   5.721 -0.7322  1.1759 -0.3395
 5395SOL    HW227645   1.512   3.630   5.609 -2.9887  0.0657  0.4215
 5396SOL     OW27646   0.664   3.022   9.995  0.0735 -0.5658  0.4792
 5396SOL    HW127647   0.655   3.101   9.942  0.0709  0.0968  1.4668
 5396SOL    HW227648   0.693   3.051  10.081  2.7038  0.8271 -0.8573
 5397SOL     OW27649   4.157   2.730   2.130  0.0244 -0.1487 -0.7607
 5397SOL    HW127650   4.086   2.680   2.089 -0.6013  0.2870 -0.2029
 5397SOL    HW227651   4.148   2.816   2.089 -0.2233 -0.0436 -0.4846
 5398SOL     OW27652   3.553   1.101   9.277  0.2573  0.0939 -0.4188
 5398SOL    HW127653   3.476   1.107   9.222 -0.3440  0.7689  0.4988
 5398SOL    HW227654   3.573   1.191   9.304  2.5083 -0.9515  1.4048
 5399SOL     OW27655   2.483   3.382   5.763 -0.5638 -0.2676  0.3686
 5399SOL    HW127656   2.409   3.390   5.703  2.6194  1.8441 -3.2641
 5399SOL    HW227657   2.438   3.385   5.848 -1.6287 -0.1878 -0.1896
 5400SOL     OW27658   1.828   1.789   8.877  0.1198  0.0155 -0.5462
 5400SOL    HW127659   1.788   1.775   8.963 -3.5214  2.5405 -1.8299
 5400SOL    HW227660   1.749   1.806   8.825  1.2055 -1.9894 -2.8557
 5401SOL     OW27661   2.201   3.596   3.167 -0.1935  0.5362 -0.2606
 5401SOL    HW127662   2.197   3.561   3.256 -1.0778  1.1494 -0.0582
 5401SOL    HW227663   2.115   3.564   3.139 -0.7847  2.9744 -1.3119
 5402SOL     OW27664   4.134   3.580   7.547 -0.1258  0.7453 -0.1220
 5402SOL    HW127665   4.209   3.634   7.570 -1.6093  0.4008  5.5666
 5402SOL    HW227666   4.057   3.636   7.558 -1.0822 -0.4593 -0.7165
 5403SOL     OW27667   3.946   3.737   8.040 -0.2641  0.5262  0.4200
 5403SOL    HW127668   3.993   3.673   8.095 -1.0960 -0.2271  0.2547
 5403SOL    HW227669   3.862   3.729   8.085 -0.0338  2.3717  1.1805
 5404SOL     OW27670   1.465   3.151   7.833  0.0020  0.0626 -0.7165
 5404SOL    HW127671   1.519   3.163   7.910 -0.6083  0.8110 -0.4023
 5404SOL    HW227672   1.486   3.059   7.818  1.1541  0.4401 -1.4196
 5405SOL     OW27673   1.922   3.811  15.248  0.6736  0.0797 -0.2819
 5405SOL    HW127674   1.994   3.856  15.293 -0.3637  0.5170  0.9460
 5405SOL    HW227675   1.849   3.861  15.284  0.7594 -0.6108  0.8598
 5406SOL     OW27676   0.172   4.712   3.510  0.6545  0.0092  0.2051
 5406SOL    HW127677   0.195   4.653   3.438 -0.7213  0.5471 -0.6712
 5406SOL    HW227678   0.116   0.058   3.468 -1.1450 -1.5034  0.2640
 5407SOL     OW27679   1.046   0.236   4.123 -0.2502 -0.0387 -0.0099
 5407SOL    HW127680   1.030   0.328   4.099  1.4896  0.4246  0.5799
 5407SOL    HW227681   1.068   0.196   4.039 -0.9177 -0.4759  0.0275
 5408SOL     OW27682   3.653   3.498   2.466 -0.2068 -0.0857 -0.0064
 5408SOL    HW127683   3.651   3.568   2.531  1.3903  0.0686 -0.1387
 5408SOL    HW227684   3.627   3.419   2.514  3.7725  0.0027  2.2716
 5409SOL     OW27685   3.475   0.463   9.858  0.2584 -0.4358 -0.0672
 5409SOL    HW127686   3.424   0.511   9.924  0.6920 -0.0177 -0.0290
 5409SOL    HW227687   3.540   0.416   9.910  0.9591 -1.2683 -1.7124
 5410SOL     OW27688   0.637   2.129   6.436 -0.2947 -0.3973  0.6992
 5410SOL    HW127689   0.573   2.107   6.504  0.8638 -0.2268  1.8351
 5410SOL    HW227690   0.634   2.224   6.444  2.1633 -0.4148  1.7503
 5411SOL     OW27691   4.201   0.244  14.811 -0.1527  0.3029  0.8485
 5411SOL    HW127692   4.252   0.300  14.871  1.4175 -1.2471  0.9714
 5411SOL    HW227693   4.259   0.223  14.738  1.3526  0.7079  1.9198
 5412SOL     OW27694   4.301   3.785   4.734  0.0750  0.3369  0.3443
 5412SOL    HW127695   4.334   3.875   4.740  1.2323  0.1795 -3.2147
 5412SOL    HW227696   4.373   3.755   4.679 -0.6347 -3.1044  1.3142
 5413SOL     OW27697   0.210   3.008   6.296 -0.2933 -0.6702 -0.0480
 5413SOL    HW127698   0.190   2.916   6.312 -0.2951 -0.5323  0.7731
 5413SOL    HW227699   0.287   3.019   6.351  0.0374 -0.0761 -0.6339
 5414SOL     OW27700   1.892   2.278  14.409  0.1221  0.3031 -0.2881
 5414SOL    HW127701   1.868   2.326  14.330  0.8295 -0.3658 -0.9108
 5414SOL    HW227702   1.980   2.249  14.385  0.3399  0.6857  0.0709
 5415SOL     OW27703   4.013   0.582   3.163  0.6711 -0.1233 -0.1607
 5415SOL    HW127704   3.920   0.559   3.166  0.0851  2.1912 -0.1346
 5415SOL    HW227705   4.050   0.555   3.247  2.7836  0.5717 -0.8752
 5416SOL     OW27706   0.197   0.193  15.626 -0.0324  0.0182  0.0952
 5416SOL    HW127707   0.129   0.231  15.571  0.1452  0.0388 -0.1098
 5416SOL    HW227708   0.265   0.183  15.560  0.1328  0.3644  0.2147
 5417SOL     OW27709   3.007   4.097   0.904  1.1438  0.0806 -0.4185
 5417SOL    HW127710   2.992   4.188   0.929  0.1437 -0.4104  0.7785
 5417SOL    HW227711   3.007   4.046   0.985 -0.2728  1.4069  0.4195
 5418SOL     OW27712   4.499   2.221   2.408  0.0632  0.0092  0.0025
 5418SOL    HW127713   4.553   2.211   2.487 -0.9370 -1.4666  0.4917
 5418SOL    HW227714   4.539   2.302   2.377  1.1591 -0.9845 -1.2228
 5419SOL     OW27715   0.262   1.165   3.652 -0.3331  0.0661  0.7617
 5419SOL    HW127716   0.217   1.249   3.643 -2.3218 -0.9046  1.6556
 5419SOL    HW227717   0.354   1.192   3.644 -0.3788  0.3748  1.3081
 5420SOL     OW27718   1.064   3.148   3.567 -0.4196 -0.4473  0.1655
 5420SOL    HW127719   1.092   3.085   3.501  0.8955 -1.9759  2.2247
 5420SOL    HW227720   1.075   3.231   3.520 -2.7824  0.0210  0.4179
 5421SOL     OW27721   0.505   2.373  16.210 -0.3647 -0.6328  0.0370
 5421SOL    HW127722   0.574   2.359  16.275 -2.8791 -1.7336  2.4528
 5421SOL    HW227723   0.526   2.454  16.162  0.6214 -0.3188  0.9990
 5422SOL     OW27724   1.637   0.027   7.553  0.3918 -1.2071  0.2772
 5422SOL    HW127725   1.727   0.046   7.526  1.1532 -0.7652  3.1104
 5422SOL    HW227726   1.645   4.696   7.634  0.5247 -0.7471  0.5526
 5423SOL     OW27727   1.108   0.751   5.339 -0.1110  0.1960 -0.0225
 5423SOL    HW127728   1.041   0.807   5.379  0.5249  0.8483  0.1219
 5423SOL    HW227729   1.072   0.662   5.347  1.0120 -0.3275 -0.8698
 5424SOL     OW27730   4.533   4.167   3.603  0.1873 -0.4745  0.0352
 5424SOL    HW127731   4.464   4.228   3.627 -0.9063 -0.3525 -3.4210
 5424SOL    HW227732   4.518   4.104   3.674 -3.3868  1.5674  1.1382
 5425SOL     OW27733   2.579   1.800   1.791 -0.2168  0.0608 -0.0128
 5425SOL    HW127734   2.556   1.721   1.839 -0.0921 -0.5657 -0.9702
 5425SOL    HW227735   2.563   1.758   1.706 -1.7929  1.6923 -0.5140
 5426SOL     OW27736   1.908   3.400   4.307 -0.2673  0.4188  0.7995
 5426SOL    HW127737   1.849   3.468   4.275 -0.2543  0.3989  0.7336
 5426SOL    HW227738   1.979   3.388   4.245  0.0017  2.1992  0.7559
 5427SOL     OW27739   0.724   2.972   6.522  0.0484 -0.3819 -0.2244
 5427SOL    HW127740   0.771   2.909   6.468 -0.0557  0.6354 -1.5104
 5427SOL    HW227741   0.791   3.012   6.577 -1.9885  0.9752  1.3004
 5428SOL     OW27742   2.636   1.469   7.668 -0.2005  0.2059 -0.1234
 5428SOL    HW127743   2.649   1.466   7.763  1.2079  1.8883 -0.2477
 5428SOL    HW227744   2.677   1.555   7.657 -3.8216  1.7199 -1.6799
 5429SOL     OW27745   3.831   2.739   6.630  0.7929  0.3145 -0.4610
 5429SOL    HW127746   3.818   2.773   6.719 -0.0528  0.7106 -0.7378
 5429SOL    HW227747   3.919   2.772   6.614  0.9657 -0.5971 -1.3235
 5430SOL     OW27748   0.423   1.782   5.906 -0.2585 -0.1902 -0.3685
 5430SOL    HW127749   0.503   1.788   5.853 -1.5338 -0.1151 -2.2989
 5430SOL    HW227750   0.430   1.863   5.955  4.4363 -0.8665  0.0867
 5431SOL     OW27751   3.722   0.369  12.405  0.3350  0.1106 -0.3126
 5431SOL    HW127752   3.775   0.446  12.423  0.3482 -0.2823  1.3823
 5431SOL    HW227753   3.757   0.305  12.467 -0.3702  2.8018  2.8461
 5432SOL     OW27754   4.447   0.658   5.365 -0.0040  0.4238  0.2615
 5432SOL    HW127755   4.511   0.587   5.357  0.0434  0.4257  0.6513
 5432SOL    HW227756   4.374   0.605   5.332  0.9056 -0.3485 -0.5226
 5433SOL     OW27757   2.786   1.350  15.419 -1.1836  0.9154  0.1541
 5433SOL    HW127758   2.698   1.355  15.381 -0.8705 -0.2722 -0.7219
 5433SOL    HW227759   2.806   1.444  15.426  0.1304  0.4557  2.3540
 5434SOL     OW27760   3.380   2.207   2.293  0.0234  0.6370  0.0431
 5434SOL    HW127761   3.410   2.284   2.246 -1.9653  2.1605  1.2230
 5434SOL    HW227762   3.386   2.139   2.226  2.7893  3.3539 -2.4615
 5435SOL     OW27763   4.585   2.230   7.706 -0.3530  0.2035 -0.0090
 5435SOL    HW127764   4.573   2.217   7.800 -0.8372  1.3882  0.0990
 5435SOL    HW227765   4.664   2.284   7.700  0.5126 -0.9227  1.1695
 5436SOL     OW27766   0.790   3.390   8.610  0.1130 -0.8250  0.2017
 5436SOL    HW127767   0.879   3.375   8.577  0.9562  0.5302  1.8467
 5436SOL    HW227768   0.789   3.485   8.624 -0.8883 -0.9006  0.6058
 5437SOL     OW27769   2.969   0.641   5.785 -0.1886 -0.1110  0.1082
 5437SOL    HW127770   2.895   0.627   5.726 -1.0176  2.3456  0.5721
 5437SOL    HW227771   3.024   0.685   5.720  0.6112  0.8649  1.4500
 5438SOL     OW27772   2.565   3.528   2.797 -0.1243 -0.1322  0.2246
 5438SOL    HW127773   2.600   3.510   2.710  1.3269 -0.4092  0.8703
 5438SOL    HW227774   2.591   3.619   2.809 -0.8810  0.2084 -0.7080
 5439SOL     OW27775   0.314   0.316  14.770 -0.5553 -0.1108  0.0756
 5439SOL    HW127776   0.350   0.324  14.682 -3.8445  2.6987 -1.0133
 5439SOL    HW227777   0.228   0.279  14.752 -0.6864 -0.6457  1.7506
 5440SOL     OW27778   0.417   4.490   2.861 -0.3558 -0.2728  0.0216
 5440SOL    HW127779   0.464   4.499   2.944  2.9624 -2.9930 -1.5575
 5440SOL    HW227780   0.483   4.509   2.794 -0.1495 -0.2604  0.2254
 5441SOL     OW27781   3.058   1.868   8.021  0.5231 -0.3868 -0.0015
 5441SOL    HW127782   3.126   1.935   8.035  0.4691  0.4096 -3.7505
 5441SOL    HW227783   3.081   1.817   7.943 -0.9853 -1.0467 -0.0036
 5442SOL     OW27784   2.126   0.614   7.066 -0.3412  0.5519 -0.0641
 5442SOL    HW127785   2.186   0.547   7.034  0.2378  1.7247 -1.4297
 5442SOL    HW227786   2.067   0.610   6.990 -1.3961 -1.0118  0.8433
 5443SOL     OW27787   0.482   0.786   7.704  0.3812  0.1017 -0.0038
 5443SOL    HW127788   0.395   0.748   7.697  0.7565 -0.9817  1.1220
 5443SOL    HW227789   0.467   0.870   7.748  0.9356  0.2288 -0.0468
 5444SOL     OW27790   2.448   1.683   0.904  0.3274 -0.1374  0.0965
 5444SOL    HW127791   2.512   1.659   0.972 -1.9369 -1.6377  1.6984
 5444SOL    HW227792   2.488   1.751   0.850  0.4957 -1.5954 -1.6161
 5445SOL     OW27793   2.826   4.044   3.000  0.4409 -0.2256 -0.5344
 5445SOL    HW127794   2.878   3.975   3.043 -0.5754 -0.3031  0.5640
 5445SOL    HW227795   2.742   3.999   2.992  0.1880 -0.1007  1.4145
 5446SOL     OW27796   0.341   2.102   8.481 -0.0807 -0.1853  0.0457
 5446SOL    HW127797   0.355   2.178   8.536  0.2862 -1.0129  1.1059
 5446SOL    HW227798   0.378   2.125   8.395 -0.3180 -0.8298 -0.2345
 5447SOL     OW27799   2.891   3.638   9.302 -0.5292  0.0591  0.9165
 5447SOL    HW127800   2.897   3.696   9.226 -0.7944 -2.0695 -0.7226
 5447SOL    HW227801   2.860   3.700   9.369 -1.2358  0.8648 -0.1389
 5448SOL     OW27802   0.928   0.992  12.422 -0.0745  0.2204 -0.4425
 5448SOL    HW127803   0.923   0.960  12.512 -1.7658 -0.8521 -0.9289
 5448SOL    HW227804   0.836   1.008  12.401 -0.2969 -3.7423 -2.5236
 5449SOL     OW27805   3.053   2.919  15.976  0.6488  0.2651 -0.0766
 5449SOL    HW127806   3.083   2.975  15.905 -0.3762  1.0638  0.1235
 5449SOL    HW227807   3.102   2.841  15.949 -0.3893  0.5294 -2.6687
 5450SOL     OW27808   1.904   4.527  13.044 -0.0008 -0.3353 -0.5399
 5450SOL    HW127809   1.839   4.463  13.073  0.7055 -0.7289  0.1760
 5450SOL    HW227810   1.976   4.467  13.026  0.1478  0.0364 -1.1614
 5451SOL     OW27811   4.405   3.948   3.358 -0.5536  0.1161  0.0979
 5451SOL    HW127812   4.392   3.871   3.304 -1.0123  1.2437 -1.3808
 5451SOL    HW227813   4.485   3.929   3.408 -0.9073  1.3998  1.1540
 5452SOL     OW27814   1.569   1.250   8.494 -0.0024 -0.4545 -0.2415
 5452SOL    HW127815   1.619   1.331   8.503  0.4133 -0.7212 -0.1942
 5452SOL    HW227816   1.581   1.200   8.574 -2.6356 -1.5520 -0.5285
 5453SOL     OW27817   0.101   1.700   2.025 -0.5249  0.1886 -0.1300
 5453SOL    HW127818   0.092   1.605   2.033  0.4824  0.2005  1.2701
 5453SOL    HW227819   0.196   1.711   2.020 -0.4177 -0.1505  1.0226
 5454SOL     OW27820   4.206   3.467   3.115  0.1853  0.1766 -0.3872
 5454SOL    HW127821   4.265   3.402   3.075  0.7835  0.2131  0.4431
 5454SOL    HW227822   4.208   3.536   3.048 -2.2859  0.5348 -0.1044
 5455SOL     OW27823   1.569   4.009   3.079  0.3363 -0.1337 -0.3730
 5455SOL    HW127824   1.508   3.967   3.018  0.0718 -1.3623  0.7406
 5455SOL    HW227825   1.508   4.072   3.117 -0.2069 -0.3035 -0.9569
 5456SOL     OW27826   0.031   2.698   6.990 -0.4426 -0.3248 -0.6399
 5456SOL    HW127827   0.050   2.785   7.025  1.3847 -1.6594  1.7504
 5456SOL    HW227828   0.115   2.655   7.008 -1.1371 -2.0864 -1.6437
 5457SOL     OW27829   4.567   2.839   4.740 -0.4169 -0.2826 -0.1075
 5457SOL    HW127830   4.544   2.902   4.672 -2.4657 -0.0949  0.7669
 5457SOL    HW227831   4.480   2.802   4.752 -0.2713  0.3019  2.8141
 5458SOL     OW27832   4.119   0.992   3.185  0.0271 -0.3526 -0.4286
 5458SOL    HW127833   4.196   1.032   3.145  0.8043  0.7125  2.1110
 5458SOL    HW227834   4.085   1.077   3.213  3.6348  0.6136  1.1107
 5459SOL     OW27835   1.474   3.277   0.639 -0.6271 -0.4740  0.4402
 5459SOL    HW127836   1.434   3.255   0.555  0.5396 -1.0864  0.0534
 5459SOL    HW227837   1.456   3.197   0.690  0.1107 -1.4493 -0.8303
 5460SOL     OW27838   3.941   0.191  10.610  0.7121 -0.2229 -0.1078
 5460SOL    HW127839   4.034   0.171  10.598  0.3547 -1.0640 -1.3721
 5460SOL    HW227840   3.883   0.119  10.586 -0.6980  0.4336  1.2647
 5461SOL     OW27841   3.884   2.686   2.256  0.0679  0.2767 -0.5506
 5461SOL    HW127842   3.962   2.725   2.296 -1.0235 -0.7262  2.5482
 5461SOL    HW227843   3.904   2.593   2.248 -2.7787 -0.0378 -3.9745
 5462SOL     OW27844   4.347   2.274   9.377  0.1613  0.3192  0.0831
 5462SOL    HW127845   4.372   2.301   9.466 -0.1840  0.3253  0.1792
 5462SOL    HW227846   4.362   2.181   9.393 -0.9819 -0.2062 -1.9248
 5463SOL     OW27847   2.035   0.756   5.566 -0.1972  0.7352  0.6517
 5463SOL    HW127848   1.955   0.756   5.619 -0.2986 -0.8652  0.4818
 5463SOL    HW227849   2.089   0.828   5.601  0.2939  0.5932  0.1819
 5464SOL     OW27850   3.656   0.722  16.070 -0.3786  0.2836 -0.1183
 5464SOL    HW127851   3.610   0.733  15.986  0.7940 -1.4748 -0.9903
 5464SOL    HW227852   3.716   0.797  16.073 -0.0618 -0.0365  1.1466
 5465SOL     OW27853   3.318   2.032   8.105 -0.2709 -0.2748 -0.7235
 5465SOL    HW127854   3.391   2.076   8.148 -0.5323 -1.0434  0.4912
 5465SOL    HW227855   3.255   2.052   8.174  0.2610 -0.3548 -0.2155
 5466SOL     OW27856   4.543   2.448   8.047  0.0316 -0.3020  0.7793
 5466SOL    HW127857   4.617   2.393   8.019  0.6376  0.8800  0.0918
 5466SOL    HW227858   4.582   2.513   8.105 -0.6493  2.0570 -1.3865
 5467SOL     OW27859   0.349   1.519  11.402 -0.0736 -0.0327 -0.9892
 5467SOL    HW127860   0.436   1.483  11.421 -0.1910  0.8910  1.2912
 5467SOL    HW227861   0.346   1.570  11.483  2.9584 -0.5689 -0.5309
 5468SOL     OW27862   0.201   4.695   3.787 -0.1717 -0.0209 -0.2137
 5468SOL    HW127863   0.233   0.066   3.788  2.1955 -0.8402 -1.3056
 5468SOL    HW227864   0.198   4.692   3.692  1.9439 -1.0107 -0.2571
 5469SOL     OW27865   1.928   3.584  17.583  0.4866  0.4993 -0.5783
 5469SOL    HW127866   1.950   3.676  17.595 -0.5986  0.7032 -0.1288
 5469SOL    HW227867   1.936   3.549  17.672 -0.9669  0.7713 -0.3389
 5470SOL     OW27868   3.604   0.772  12.948  0.0883  0.1978  0.3317
 5470SOL    HW127869   3.609   0.676  12.955  0.1800  0.3706  2.7133
 5470SOL    HW227870   3.695   0.789  12.973  0.2119 -1.2461  0.8776
 5471SOL     OW27871   2.821   3.882   9.437 -0.6571  0.4303  0.4885
 5471SOL    HW127872   2.826   3.977   9.423 -0.2937  0.6204  1.9095
 5471SOL    HW227873   2.890   3.867   9.501  1.7568 -1.6838 -2.6467
 5472SOL     OW27874   0.413   2.768   9.821 -0.0978  0.0884  0.0022
 5472SOL    HW127875   0.483   2.725   9.869 -2.2546 -3.1113  0.2757
 5472SOL    HW227876   0.386   2.832   9.887 -1.5175 -1.0073  0.4751
 5473SOL     OW27877   4.031   0.985   4.941 -0.0730  0.4590  0.1291
 5473SOL    HW127878   4.017   0.921   4.872  2.2726  0.0353  0.0497
 5473SOL    HW227879   4.123   0.966   4.962  0.0212  0.0807 -0.6595
 5474SOL     OW27880   1.957   4.622   3.295  0.4726 -0.3553 -0.2292
 5474SOL    HW127881   2.008   4.701   3.278 -1.3365  0.9528  0.5242
 5474SOL    HW227882   1.869   4.648   3.268  1.0803 -0.3007 -2.1376
 5475SOL     OW27883   2.753   2.960  15.146  0.0272  0.6598 -0.7013
 5475SOL    HW127884   2.679   2.908  15.177  0.8153 -0.5400 -0.8475
 5475SOL    HW227885   2.816   2.888  15.155 -2.2145 -0.9531  1.9148
 5476SOL     OW27886   0.808   2.772  15.965 -0.4431  0.2228 -0.1737
 5476SOL    HW127887   0.903   2.777  15.980 -1.1838  1.1681  4.3110
 5476SOL    HW227888   0.786   2.861  15.937  0.3644 -0.1069 -1.8658
 5477SOL     OW27889   3.461   0.359   2.444 -0.0276  0.2069  0.1595
 5477SOL    HW127890   3.552   0.367   2.474  0.7411 -2.0417 -1.5890
 5477SOL    HW227891   3.477   0.338   2.352  2.9019 -0.0843  0.7274
 5478SOL     OW27892   2.467   0.610   2.104 -0.1485 -0.0331  0.4547
 5478SOL    HW127893   2.472   0.683   2.042 -1.6733  0.6474  1.1458
 5478SOL    HW227894   2.558   0.580   2.102 -0.1723 -0.2556  3.1356
 5479SOL     OW27895   0.224   0.160   5.040  0.1850 -0.6558  0.4406
 5479SOL    HW127896   0.201   0.080   4.993 -1.1485 -0.3770  0.6160
 5479SOL    HW227897   0.151   0.220   5.027  1.1546  0.1380 -1.2143
 5480SOL     OW27898   3.582   2.212   7.597 -0.1616 -0.1253 -0.5772
 5480SOL    HW127899   3.561   2.141   7.658  1.1048  0.7502  0.8773
 5480SOL    HW227900   3.494   2.239   7.570 -0.9106 -0.2161  1.7705
 5481SOL     OW27901   2.476   4.265   2.056  0.0979 -0.7782  0.0707
 5481SOL    HW127902   2.513   4.176   2.058  1.6772 -0.1733 -2.9077
 5481SOL    HW227903   2.471   4.280   1.962 -2.0326 -0.5459  0.2428
 5482SOL     OW27904   0.414   0.124   5.695 -0.1886 -0.9244  0.1989
 5482SOL    HW127905   0.323   0.132   5.724 -1.0693 -2.6058 -2.0526
 5482SOL    HW227906   0.421   0.194   5.630  1.4108 -1.6025 -0.3652
 5483SOL     OW27907   3.380   2.791   1.587  0.0586 -0.1672  0.0651
 5483SOL    HW127908   3.469   2.825   1.600 -0.6037  1.3214  0.6881
 5483SOL    HW227909   3.319   2.845   1.637  0.4742  2.0343 -1.8298
 5484SOL     OW27910   2.396   4.315  12.501  0.8064  0.2796  0.1081
 5484SOL    HW127911   2.442   4.363  12.570  1.3940 -2.0538  1.3628
 5484SOL    HW227912   2.344   4.390  12.474 -2.0463 -1.5895  0.4256
 5485SOL     OW27913   1.838   3.573  15.114 -0.0768 -0.4250 -0.0133
 5485SOL    HW127914   1.861   3.656  15.155  1.1680 -0.7981  0.0368
 5485SOL    HW227915   1.857   3.591  15.022  1.8579 -0.8425  0.3141
 5486SOL     OW27916   3.534   3.271   1.668  0.3071  0.0464 -0.3417
 5486SOL    HW127917   3.515   3.358   1.705 -1.1258 -0.4407  0.0688
 5486SOL    HW227918   3.518   3.294   1.576 -0.8865  2.0400  0.3467
 5487SOL     OW27919   0.865   3.804   2.889  0.1881  0.0611  0.2102
 5487SOL    HW127920   0.912   3.739   2.837  0.9002  0.4007  0.4299
 5487SOL    HW227921   0.779   3.805   2.848  0.0797 -0.8779  0.4127
 5488SOL     OW27922   1.515   0.370   2.923  0.2129  0.7198  0.1043
 5488SOL    HW127923   1.570   0.402   2.994 -0.8435 -0.2051  1.3466
 5488SOL    HW227924   1.485   0.451   2.882  1.0908  1.4443  0.9052
 5489SOL     OW27925   3.588   4.636   0.570 -0.3221 -0.3794  0.1064
 5489SOL    HW127926   3.584   4.548   0.534  0.0301 -0.2185 -0.3247
 5489SOL    HW227927   3.561   4.625   0.662  0.5476  0.1099  0.4194
 5490SOL     OW27928   3.490   3.973  14.906 -0.4231 -0.1867  0.1496
 5490SOL    HW127929   3.532   3.888  14.886 -2.4684 -1.1192 -0.1475
 5490SOL    HW227930   3.553   4.037  14.872  2.2039 -1.8761  1.8603
 5491SOL     OW27931   4.085   4.677   5.156  0.0444  0.0989 -0.4759
 5491SOL    HW127932   4.101   4.588   5.186  0.7643  0.0151 -1.1073
 5491SOL    HW227933   4.147   4.682   5.084 -0.4835  1.7696 -0.8173
 5492SOL     OW27934   4.554   0.286   4.764 -0.2255 -0.0154  0.9852
 5492SOL    HW127935   4.620   0.321   4.824 -0.4326  2.2915 -0.1227
 5492SOL    HW227936   4.564   0.350   4.693 -0.4619  1.5904  2.3959
 5493SOL     OW27937   0.414   4.237   8.202 -0.4346 -0.3701 -0.2440
 5493SOL    HW127938   0.484   4.188   8.247  2.5235  0.3297 -4.0629
 5493SOL    HW227939   0.378   4.269   8.285  0.1839  1.4315 -0.6842
 5494SOL     OW27940   4.223   4.024  11.692 -0.3285  0.4298 -0.3696
 5494SOL    HW127941   4.151   4.031  11.630  0.0284  0.8571 -0.7410
 5494SOL    HW227942   4.278   4.093  11.655  1.4482 -1.5883 -1.4734
 5495SOL     OW27943   4.255   3.606   3.407 -0.1699 -0.0445 -0.3316
 5495SOL    HW127944   4.242   3.514   3.433  0.7385  0.4483  1.9210
 5495SOL    HW227945   4.206   3.601   3.325 -0.3341 -3.2466 -0.0665
 5496SOL     OW27946   0.522   2.712   3.156 -0.3833  0.6031 -0.6871
 5496SOL    HW127947   0.431   2.740   3.149 -0.0538  1.5864 -1.0023
 5496SOL    HW227948   0.563   2.736   3.073 -0.9636  0.8024 -0.9092
 5497SOL     OW27949   0.972   1.213  14.977 -0.4621  0.0413 -0.0380
 5497SOL    HW127950   1.024   1.249  15.049  3.1500 -1.8650 -1.6732
 5497SOL    HW227951   0.884   1.222  15.013  0.0033  2.8404  0.4165
 5498SOL     OW27952   0.916   0.639   9.068 -0.0115  0.3513 -1.0277
 5498SOL    HW127953   0.827   0.673   9.065  0.5682  2.0254  0.3519
 5498SOL    HW227954   0.907   0.577   9.140  1.7049 -0.9987 -1.9776
 5499SOL     OW27955   2.466   3.692   9.437  0.2736  0.3487  0.1909
 5499SOL    HW127956   2.418   3.724   9.513  0.0578  0.5945 -0.0468
 5499SOL    HW227957   2.409   3.620   9.406  0.3994  0.7966 -1.1045
 5500SOL     OW27958   2.313   4.008   8.796 -0.3325 -0.3426 -0.7661
 5500SOL    HW127959   2.243   3.975   8.853 -0.6624  0.9471 -0.4274
 5500SOL    HW227960   2.259   4.003   8.717 -1.9704 -1.3007  0.3955
 5501SOL     OW27961   1.003   3.742   7.476 -0.6270 -0.1697 -0.1577
 5501SOL    HW127962   1.057   3.820   7.487  0.7904 -1.2345  0.3492
 5501SOL    HW227963   1.016   3.723   7.383 -0.7989  0.9479 -0.4049
 5502SOL     OW27964   0.468   4.354  12.203  0.8079 -0.2624 -0.2358
 5502SOL    HW127965   0.539   4.357  12.139  0.8460 -1.1954 -0.2329
 5502SOL    HW227966   0.407   4.420  12.170 -1.2641 -1.6862  0.7127
 5503SOL     OW27967   0.203   0.113   9.508 -0.6783  0.3369 -0.4719
 5503SOL    HW127968   0.225   0.205   9.492  0.6183  0.4368  1.8492
 5503SOL    HW227969   0.165   0.091   9.423  1.6027  0.9714 -1.6477
 5504SOL     OW27970   1.068   0.332  10.234 -0.1389  0.0666 -0.4687
 5504SOL    HW127971   1.066   0.239  10.254 -0.2662  0.2007  0.1391
 5504SOL    HW227972   1.156   0.348  10.200  0.2026 -2.4966 -0.7781
 5505SOL     OW27973   0.556   2.908   1.774  0.4974 -0.4503 -0.0910
 5505SOL    HW127974   0.498   2.841   1.738 -0.9033  1.9148 -2.2139
 5505SOL    HW227975   0.513   2.935   1.856 -0.4004 -2.0265 -0.0527
 5506SOL     OW27976   3.519   1.822   8.444  0.2504  0.2527  0.9139
 5506SOL    HW127977   3.429   1.850   8.460 -0.0155  0.5270 -1.0322
 5506SOL    HW227978   3.560   1.843   8.528  2.5933 -1.1400  0.1337
 5507SOL     OW27979   1.807   2.982   1.848  0.1968 -0.6253  0.2544
 5507SOL    HW127980   1.823   3.055   1.789 -0.2986  1.1093  2.2499
 5507SOL    HW227981   1.860   3.004   1.926 -1.6120 -0.6028  1.4715
 5508SOL     OW27982   3.578   2.465   9.724  0.2770  0.4521  0.0519
 5508SOL    HW127983   3.522   2.542   9.727 -1.4694 -0.9730  3.0864
 5508SOL    HW227984   3.665   2.504   9.711 -0.6646  1.8864 -1.8728
 5509SOL     OW27985   2.351   3.172   5.490 -0.3616  1.1601  0.0697
 5509SOL    HW127986   2.275   3.226   5.510 -0.0621  1.1478  1.2155
 5509SOL    HW227987   2.344   3.115   5.567 -1.0741  2.2177  0.7838
 5510SOL     OW27988   4.690   0.052   6.680 -0.0009  0.3724  0.3519
 5510SOL    HW127989   0.016   0.005   6.610 -0.4447  0.5038 -0.0291
 5510SOL    HW227990   4.687   0.141   6.644  1.7249 -0.3016 -1.4694
 5511SOL     OW27991   2.976   0.643   4.517  0.0141 -0.1567 -0.9196
 5511SOL    HW127992   2.959   0.715   4.457 -2.4865  0.7790  0.9218
 5511SOL    HW227993   2.991   0.568   4.458 -0.3073  0.2671 -1.5326
 5512SOL     OW27994   0.405   1.662   9.546 -0.1164  0.0094  0.1671
 5512SOL    HW127995   0.359   1.587   9.584 -0.9936  0.5032  0.0928
 5512SOL    HW227996   0.338   1.723   9.515  0.2542  1.1872  1.7292
 5513SOL     OW27997   4.580   4.510   3.507  0.6963  0.3749  0.3666
 5513SOL    HW127998   4.643   4.454   3.552 -1.2995 -1.2972  1.0708
 5513SOL    HW227999   4.598   4.592   3.554 -1.3893  1.5925 -0.9720
 5514SOL     OW28000   2.768   1.930   4.435 -0.4987  0.5955 -0.2016
 5514SOL    HW128001   2.810   1.901   4.516  0.2320  2.3622  0.0583
 5514SOL    HW228002   2.846   1.927   4.380  0.3414  0.4433  0.9902
 5515SOL     OW28003   3.381   0.429   3.336  0.4247 -0.0667  0.5762
 5515SOL    HW128004   3.392   0.335   3.353  1.5068 -0.0259  0.0893
 5515SOL    HW228005   3.352   0.455   3.423 -0.4425 -0.1987  0.3327
 5516SOL     OW28006   2.510   1.719  14.446 -0.3473  0.3384  0.0432
 5516SOL    HW128007   2.522   1.775  14.369 -0.6301 -1.4026 -1.2676
 5516SOL    HW228008   2.506   1.630  14.412 -0.6870 -0.4999  2.2684
 5517SOL     OW28009   1.588   3.539  11.190 -0.7694  0.3519 -0.2972
 5517SOL    HW128010   1.551   3.553  11.103 -0.8267  1.5641 -0.0718
 5517SOL    HW228011   1.503   3.527  11.232  0.0330 -0.3057  1.1574
 5518SOL     OW28012   2.991   2.392  11.583  0.2775 -0.3104 -0.3592
 5518SOL    HW128013   3.061   2.367  11.522  2.9171 -0.9267  2.9701
 5518SOL    HW228014   2.971   2.472  11.534  0.3249 -0.2705 -0.3131
 5519SOL     OW28015   3.701   1.618   2.309  0.2595  0.6732 -0.3252
 5519SOL    HW128016   3.720   1.711   2.317 -1.3859  0.9560  0.3976
 5519SOL    HW228017   3.786   1.584   2.334  0.5674  2.2741  0.7387
 5520SOL     OW28018   1.537   3.858   2.005  0.1312 -0.1776  0.0336
 5520SOL    HW128019   1.451   3.816   2.010 -1.2252  2.4210 -1.6567
 5520SOL    HW228020   1.544   3.877   1.912  0.7264 -0.4862  0.0157
 5521SOL     OW28021   4.079   2.998   6.974  0.1392 -0.2129  0.0294
 5521SOL    HW128022   4.127   3.078   6.997 -0.6564  0.2492  0.0654
 5521SOL    HW228023   4.055   3.033   6.888 -0.5569  0.9137  0.6820
 5522SOL     OW28024   1.334   2.217  11.874  0.7801  0.1310 -0.2387
 5522SOL    HW128025   1.375   2.162  11.941 -1.0204 -0.6349  0.2342
 5522SOL    HW228026   1.269   2.157  11.838 -0.0895  0.9169  0.0207
 5523SOL     OW28027   0.632   0.384   4.902  0.0324  0.0250  0.1230
 5523SOL    HW128028   0.601   0.441   4.972 -1.8580 -1.7367  0.7251
 5523SOL    HW228029   0.673   0.441   4.838 -0.6864  1.7192  1.1769
 5524SOL     OW28030   3.995   2.711   2.633 -0.4120 -0.0691 -0.1329
 5524SOL    HW128031   4.015   2.730   2.542 -1.1105  2.1010  0.1477
 5524SOL    HW228032   4.031   2.623   2.638  1.4983  0.7800  1.5276
 5525SOL     OW28033   3.185   1.791   7.095  0.8149 -0.1512  0.3655
 5525SOL    HW128034   3.200   1.698   7.077  0.7940  0.2579 -1.8222
 5525SOL    HW228035   3.269   1.826   7.063  0.6528 -0.6825 -0.6522
 5526SOL     OW28036   1.131   0.677  11.671 -0.6669  0.5727 -0.3345
 5526SOL    HW128037   1.106   0.624  11.595  1.7268 -0.1701 -0.6097
 5526SOL    HW228038   1.044   0.667  11.709 -0.8348  0.6252 -0.7055
 5527SOL     OW28039   4.391   2.866  14.167 -0.0486  0.3348  0.2873
 5527SOL    HW128040   4.328   2.818  14.221  0.0355 -0.2688 -0.1658
 5527SOL    HW228041   4.355   2.874  14.079 -0.5139 -2.3687  0.2502
 5528SOL     OW28042   4.608   3.743   3.473  0.2557  0.1859 -0.2528
 5528SOL    HW128043   4.701   3.759   3.463  0.3053 -1.0910 -1.7698
 5528SOL    HW228044   4.584   3.726   3.382 -3.0175 -1.0643  0.8433
 5529SOL     OW28045   0.999   4.287   2.702 -0.5353  0.7314  0.0138
 5529SOL    HW128046   0.966   4.215   2.648 -1.5426 -1.5299  3.6746
 5529SOL    HW228047   1.090   4.260   2.713 -0.7499  0.2741  0.7131
 5530SOL     OW28048   2.859   4.040   9.699  0.5422  0.2965  0.3269
 5530SOL    HW128049   2.841   4.048   9.605  1.1691  1.3123  0.3014
 5530SOL    HW228050   2.822   4.120   9.735 -0.8080  0.4704 -1.4655
 5531SOL     OW28051   3.323   1.071   6.596  0.0464 -0.2503  0.1585
 5531SOL    HW128052   3.307   1.106   6.684 -2.3346  0.1710 -0.4389
 5531SOL    HW228053   3.236   1.037   6.575 -0.6182  1.2011  0.5717
 5532SOL     OW28054   4.579   2.130   0.061  0.1082  0.0926 -0.4221
 5532SOL    HW128055   4.577   2.047   0.014 -0.9270 -0.2733  0.2656
 5532SOL    HW228056   4.617   2.173  17.665  0.9088  1.3579  0.6891
 5533SOL     OW28057   3.378   1.237  15.180 -0.1441  0.4584 -0.8619
 5533SOL    HW128058   3.440   1.168  15.159 -0.6217  0.2257 -1.5058
 5533SOL    HW228059   3.312   1.203  15.241  4.6499 -1.0278  3.4987
 5534SOL     OW28060   3.865   4.675  10.323  0.1941 -0.5419  0.0157
 5534SOL    HW128061   3.930   0.022  10.299 -0.3929  0.1349  0.2826
 5534SOL    HW228062   3.898   4.605  10.268  2.0863  0.2897  0.0979
 5535SOL     OW28063   2.269   2.782  11.969  0.2969 -0.1493 -0.3616
 5535SOL    HW128064   2.197   2.738  12.015 -0.1839  1.7284  0.6733
 5535SOL    HW228065   2.314   2.699  11.951  1.7521  0.8344 -1.2709
 5536SOL     OW28066   4.283   0.072  11.222  0.2954 -0.6753  0.2330
 5536SOL    HW128067   4.204   0.121  11.200  0.2942 -0.2499  1.1686
 5536SOL    HW228068   4.254   0.010  11.288  1.6294 -0.0045  1.4608
 5537SOL     OW28069   1.349   1.675  16.907  0.3590 -0.4837 -0.3176
 5537SOL    HW128070   1.271   1.661  16.961 -0.2700 -0.7360 -1.2947
 5537SOL    HW228071   1.383   1.586  16.917 -0.8443 -0.7253  1.7464
 5538SOL     OW28072   2.941   2.373   6.880 -0.2718 -0.3514  0.1984
 5538SOL    HW128073   2.977   2.285   6.869 -1.5824 -1.0019  1.0435
 5538SOL    HW228074   3.019   2.425   6.862  0.5828 -0.8478  2.5112
 5539SOL     OW28075   3.225   3.736  14.376 -0.3720  0.0231 -0.9363
 5539SOL    HW128076   3.162   3.782  14.321  0.2344  0.7288 -1.0547
 5539SOL    HW228077   3.184   3.732  14.462  0.2223  0.9873 -0.5985
 5540SOL     OW28078   4.084   3.367   7.824 -0.3402  0.1223  0.6684
 5540SOL    HW128079   4.164   3.394   7.780  0.0966 -2.4251 -0.0886
 5540SOL    HW228080   4.111   3.389   7.913  1.4290 -0.4615  0.2764
 5541SOL     OW28081   2.545   4.643   1.482  0.0286 -0.2397  0.4141
 5541SOL    HW128082   2.620   4.658   1.539  1.8395 -0.8057 -1.7856
 5541SOL    HW228083   2.570   4.675   1.395 -0.8416 -1.3837 -0.2652
 5542SOL     OW28084   4.635   1.222   5.417  0.2216  0.0239  0.3243
 5542SOL    HW128085   4.673   1.218   5.505  0.5790  0.1886  0.1780
 5542SOL    HW228086   4.566   1.281   5.448  0.2007  0.8591 -1.3124
 5543SOL     OW28087   1.065   0.608   4.322  0.1612  0.2885  0.2559
 5543SOL    HW128088   1.118   0.531   4.302 -0.1926  0.4150 -1.2012
 5543SOL    HW228089   1.058   0.587   4.415 -3.8684  0.7387  0.0486
 5544SOL     OW28090   2.966   2.301   7.412 -0.0016 -0.2007  0.5321
 5544SOL    HW128091   2.957   2.364   7.341 -1.2417  0.0011  0.8665
 5544SOL    HW228092   2.975   2.350   7.493  0.3545  0.8648 -0.1587
 5545SOL     OW28093   4.462   2.785  15.575 -0.1827 -0.4480 -0.5192
 5545SOL    HW128094   4.531   2.757  15.635  1.4866  1.4862 -1.5622
 5545SOL    HW228095   4.464   2.879  15.589 -1.2198 -0.2750 -1.5142
 5546SOL     OW28096   4.414   0.184   1.628 -0.2202  0.3302 -1.1518
 5546SOL    HW128097   4.486   0.232   1.668  0.0365  0.2411 -1.5030
 5546SOL    HW228098   4.451   0.097   1.610  0.3221  0.1470  0.8434
 5547SOL     OW28099   2.606   0.746   5.075 -0.1246 -0.2361 -0.1101
 5547SOL    HW128100   2.686   0.703   5.106  2.6420  1.1286 -5.3614
 5547SOL    HW228101   2.582   0.774   5.164  0.8914 -0.0680  0.1160
 5548SOL     OW28102   1.390   4.411   8.140  0.1624  0.7909  0.2212
 5548SOL    HW128103   1.404   4.466   8.063 -4.0589 -0.9186 -1.7625
 5548SOL    HW228104   1.319   4.353   8.113 -1.2665  2.6071  0.1498
 5549SOL     OW28105   4.156   0.219   1.731 -0.2723 -0.0209  0.0118
 5549SOL    HW128106   4.156   0.295   1.790  1.6050  0.5898 -0.7733
 5549SOL    HW228107   4.234   0.219   1.677 -0.7689 -2.6254 -0.7050
 5550SOL     OW28108   3.983   4.357   0.499  0.1465  0.0571 -0.4740
 5550SOL    HW128109   3.995   4.426   0.434 -3.0995  2.4238  1.4698
 5550SOL    HW228110   4.051   4.390   0.558 -0.2355 -0.5200  0.2896
 5551SOL     OW28111   1.319   0.641  16.038 -0.0860  0.0362  0.0374
 5551SOL    HW128112   1.356   0.566  16.084  2.3268  1.5914  0.5836
 5551SOL    HW228113   1.284   0.599  15.959  1.8490  1.1832 -1.4116
 5552SOL     OW28114   3.438   1.319   8.428 -0.7679 -0.1867 -0.3218
 5552SOL    HW128115   3.502   1.384   8.458  0.0017 -0.9359 -0.3083
 5552SOL    HW228116   3.469   1.244   8.480 -1.3339  1.5716  2.5067
 5553SOL     OW28117   4.159   1.610   4.982  0.5649 -0.8472  0.4808
 5553SOL    HW128118   4.160   1.699   4.947  0.5741 -0.8179  0.5554
 5553SOL    HW228119   4.177   1.630   5.073  1.3142  1.2337 -0.1108
 5554SOL     OW28120   1.661   1.250   4.517  0.1842 -0.5348 -0.5920
 5554SOL    HW128121   1.587   1.213   4.564  0.3582 -1.5134 -1.0957
 5554SOL    HW228122   1.713   1.298   4.582  0.8643 -1.7147 -0.2755
 5555SOL     OW28123   2.775   2.678   7.177  0.7321  0.0547  0.0757
 5555SOL    HW128124   2.825   2.701   7.254  0.8819 -0.3913  0.1104
 5555SOL    HW228125   2.772   2.766   7.139  1.2131  0.2358  0.4636
 5556SOL     OW28126   1.697   3.876   7.735 -0.0851  0.0882  0.1423
 5556SOL    HW128127   1.714   3.892   7.642 -1.3699  1.5324  0.1539
 5556SOL    HW228128   1.738   3.945   7.787  2.4060 -3.4948  2.8807
 5557SOL     OW28129   1.923   2.284   2.505  0.4796 -0.9800  0.9300
 5557SOL    HW128130   1.936   2.345   2.433 -2.5768 -1.4923 -0.0613
 5557SOL    HW228131   1.912   2.204   2.454 -2.5396 -1.6191  2.5789
 5558SOL     OW28132   0.925   1.815   0.700  0.4816  0.1615  0.6833
 5558SOL    HW128133   0.913   1.908   0.720  0.0564  0.4724 -1.0429
 5558SOL    HW228134   1.002   1.803   0.756  0.9200  0.9538  0.2493
 5559SOL     OW28135   0.104   1.894  11.237  0.2796 -0.5212 -0.5275
 5559SOL    HW128136   0.033   1.943  11.278 -0.4750 -1.3198 -0.8897
 5559SOL    HW228137   0.144   1.961  11.181  1.5008 -0.3617  0.5322
 5560SOL     OW28138   1.791   4.133   2.800 -1.0236  0.3337  0.5291
 5560SOL    HW128139   1.855   4.104   2.864  1.3761  2.8701 -0.7157
 5560SOL    HW228140   1.797   4.228   2.792 -1.1723  0.3163  0.1994
 5561SOL     OW28141   3.188   1.357   2.319 -0.2620  0.3474  0.3134
 5561SOL    HW128142   3.109   1.399   2.284 -1.0317 -0.9111  0.5486
 5561SOL    HW228143   3.246   1.363   2.243  1.4649 -0.0607  1.6011
 5562SOL     OW28144   4.010   1.839   4.336 -0.4992  0.3998 -0.2684
 5562SOL    HW128145   4.062   1.763   4.361 -0.3042  0.4103 -0.6440
 5562SOL    HW228146   4.075   1.908   4.351  0.1239 -0.2041 -0.2024
 5563SOL     OW28147   0.497   3.279   1.716  0.3168  0.1367  0.4356
 5563SOL    HW128148   0.562   3.348   1.709  0.4689 -0.0786 -0.2543
 5563SOL    HW228149   0.544   3.200   1.691  2.9160  2.5233 -2.2092
 5564SOL     OW28150   4.393   0.383   1.240 -0.2071  0.0485  0.5053
 5564SOL    HW128151   4.355   0.470   1.225  1.4539  0.7155  0.1790
 5564SOL    HW228152   4.478   0.410   1.276  0.8295 -1.8865 -0.4928
 5565SOL     OW28153   3.622   4.688   6.525  0.0862  0.1500  0.1394
 5565SOL    HW128154   3.589   4.673   6.614  1.6975  0.1703  0.7386
 5565SOL    HW228155   3.636   0.063   6.532 -1.6176  0.1845  3.0557
 5566SOL     OW28156   1.729   3.441   2.923 -0.7779 -0.7123 -0.2716
 5566SOL    HW128157   1.777   3.376   2.871 -0.9800 -2.1424  1.3525
 5566SOL    HW228158   1.738   3.521   2.872  0.2771  0.7801  2.2629
 5567SOL     OW28159   2.314   2.344  10.955  0.1486 -0.3297 -0.3041
 5567SOL    HW128160   2.230   2.325  10.913  0.1673 -0.6123 -0.2147
 5567SOL    HW228161   2.296   2.314  11.044 -1.0850 -1.8151 -1.0499
 5568SOL     OW28162   2.825   2.365   6.357 -0.2281  0.1575 -0.1059
 5568SOL    HW128163   2.746   2.402   6.317 -0.6547  0.4098  0.9669
 5568SOL    HW228164   2.783   2.283   6.381 -1.9265  0.7019 -1.1534
 5569SOL     OW28165   0.548   3.062   3.647  0.2995  0.4931  0.5408
 5569SOL    HW128166   0.570   3.057   3.554  0.6981  1.4748  0.5800
 5569SOL    HW228167   0.591   3.142   3.676  0.5308  1.3985 -2.3206
 5570SOL     OW28168   2.132   0.258   8.793  0.2224  0.2360  0.3785
 5570SOL    HW128169   2.139   0.198   8.867  1.6332 -2.9887 -2.3905
 5570SOL    HW228170   2.212   0.309   8.792 -1.1976  2.4920  1.1199
 5571SOL     OW28171   1.019   4.051  10.718  0.0504  0.2845  0.0040
 5571SOL    HW128172   0.944   3.999  10.748  0.3699  0.3124  0.8255
 5571SOL    HW228173   0.982   4.135  10.690 -0.6249  0.6243  1.8959
 5572SOL     OW28174   1.581   3.893   4.162  0.3010  0.0159 -0.0399
 5572SOL    HW128175   1.514   3.897   4.229  2.0635  0.2028  1.7155
 5572SOL    HW228176   1.624   3.977   4.176 -0.5375  0.7914 -2.1596
 5573SOL     OW28177   3.938   2.053   4.980  0.4107  0.0575 -0.0383
 5573SOL    HW128178   4.001   2.089   4.918  2.2321 -1.2993  1.0445
 5573SOL    HW228179   3.984   2.022   5.058 -2.3646 -0.9332  1.2132
 5574SOL     OW28180   3.797   4.078  16.806 -0.5328  1.0378 -0.6057
 5574SOL    HW128181   3.780   4.103  16.715  0.8283  1.2768 -0.7939
 5574SOL    HW228182   3.828   4.160  16.843  1.8873 -0.3743  0.5015
 5575SOL     OW28183   3.016   2.353  13.813 -0.3081 -0.3559 -0.3985
 5575SOL    HW128184   3.091   2.325  13.760 -0.8135 -1.3363 -0.5963
 5575SOL    HW228185   2.958   2.404  13.757  1.4887  1.9197 -0.1899
 5576SOL     OW28186   1.900   1.842   6.282 -0.9514 -0.5911 -0.2581
 5576SOL    HW128187   1.913   1.919   6.227 -1.1265 -0.3892 -0.0203
 5576SOL    HW228188   1.987   1.804   6.294 -0.8596 -0.1565  0.4829
 5577SOL     OW28189   1.399   0.699  12.016 -0.1292  0.3894  0.7856
 5577SOL    HW128190   1.395   0.794  12.015 -1.2707  0.3480  1.8412
 5577SOL    HW228191   1.394   0.684  11.921 -0.1758  1.9312  0.5494
 5578SOL     OW28192   0.865   1.148   7.376  0.3904  0.2293  0.0649
 5578SOL    HW128193   0.818   1.068   7.398 -0.0435  1.2921  2.9911
 5578SOL    HW228194   0.949   1.157   7.420  0.8283  0.9592 -0.9159
 5579SOL     OW28195   1.366   0.453  14.786  0.6002  0.8438 -0.0255
 5579SOL    HW128196   1.344   0.472  14.877  1.8982 -1.9556  0.8756
 5579SOL    HW228197   1.429   0.521  14.761 -1.0261  1.2216 -3.0874
 5580SOL     OW28198   3.924   0.098   6.694  0.5870 -0.7046 -0.4422
 5580SOL    HW128199   3.893   0.151   6.767  0.7353  1.2985 -1.8286
 5580SOL    HW228200   3.885   0.159   6.631 -1.8225 -0.2118  1.5309
 5581SOL     OW28201   4.149   2.081   5.859 -0.3650  0.2976 -0.0911
 5581SOL    HW128202   4.097   2.102   5.936  1.1396  0.4968  0.8697
 5581SOL    HW228203   4.219   2.028   5.896 -0.2222 -0.0683 -0.8827
 5582SOL     OW28204   4.295   3.283  15.351 -0.7104  0.1201 -0.6007
 5582SOL    HW128205   4.263   3.373  15.351  0.5067  0.5436  0.7882
 5582SOL    HW228206   4.383   3.297  15.318 -0.2880  0.9506  0.8712
 5583SOL     OW28207   4.699   3.710  14.620  0.0418  0.2134 -0.2983
 5583SOL    HW128208   0.016   3.633  14.575 -1.4272  0.3193 -1.6567
 5583SOL    HW228209   4.667   3.753  14.541 -1.6817  0.0555  0.3091
 5584SOL     OW28210   1.409   2.946   4.986 -0.2765  0.0009  0.4187
 5584SOL    HW128211   1.362   2.991   5.056 -0.1305 -0.7340  0.9968
 5584SOL    HW228212   1.338   2.914   4.930  0.3446 -0.0672 -0.3304
 5585SOL     OW28213   2.375   1.330  10.773 -0.7040 -0.3945 -0.2102
 5585SOL    HW128214   2.394   1.394  10.842  2.4717 -1.9716  0.3600
 5585SOL    HW228215   2.289   1.298  10.801 -0.7932  1.1021  1.2338
 5586SOL     OW28216   1.095   4.185   6.028 -0.3918  0.6805 -0.2020
 5586SOL    HW128217   1.154   4.112   6.010 -0.4677  1.0099 -1.7773
 5586SOL    HW228218   1.061   4.213   5.943  1.9761 -1.2539 -1.7862
 5587SOL     OW28219   3.010   1.055   4.683  0.8432  0.2697  0.1319
 5587SOL    HW128220   3.025   0.967   4.718 -0.1730  0.2754  0.5702
 5587SOL    HW228221   3.086   1.060   4.625  0.1279  0.3118 -0.8006
 5588SOL     OW28222   1.963   4.149   3.013 -0.1735  0.5692  0.0652
 5588SOL    HW128223   1.919   4.232   3.032 -0.8133  0.0172  0.9877
 5588SOL    HW228224   1.934   4.092   3.083 -1.0619  0.6171 -0.2630
 5589SOL     OW28225   1.792   3.086   7.653  0.3198 -0.1474 -0.4565
 5589SOL    HW128226   1.851   3.134   7.711  1.4123 -1.1091 -0.7719
 5589SOL    HW228227   1.808   2.995   7.677 -0.4976 -0.0142  0.5860
 5590SOL     OW28228   1.366   1.625   8.764  0.3224 -0.2770  0.7625
 5590SOL    HW128229   1.346   1.531   8.764  0.4945 -0.3164  2.2562
 5590SOL    HW228230   1.336   1.657   8.679  0.4368 -0.0576  0.8041
 5591SOL     OW28231   0.191   1.565   0.372  0.0363 -0.0549  0.2643
 5591SOL    HW128232   0.157   1.586   0.459 -0.1930  1.7452 -0.2772
 5591SOL    HW228233   0.110   1.567   0.322  1.6973 -2.0577 -2.5520
 5592SOL     OW28234   2.685   2.026   2.888 -0.0747 -0.5680  0.3721
 5592SOL    HW128235   2.725   2.075   2.816 -1.1043 -1.7280 -0.9952
 5592SOL    HW228236   2.716   2.080   2.960  0.1138  1.1685 -1.0096
 5593SOL     OW28237   3.389   4.058   7.526 -0.4358 -0.0279  0.2379
 5593SOL    HW128238   3.443   4.003   7.583 -1.7919 -0.8595  0.7021
 5593SOL    HW228239   3.455   4.066   7.457  1.2021  0.5119  1.8430
 5594SOL     OW28240   1.431   3.473  10.840  0.1277 -1.1833 -0.4299
 5594SOL    HW128241   1.433   3.391  10.888 -1.7828 -1.3734 -0.6524
 5594SOL    HW228242   1.427   3.437  10.752  1.2496 -2.2572 -0.0376
 5595SOL     OW28243   0.244   4.271  13.429 -0.6512  0.5546  0.1553
 5595SOL    HW128244   0.158   4.304  13.454 -1.8648 -2.1421 -0.4591
 5595SOL    HW228245   0.292   4.352  13.449 -1.6514  1.2445 -0.2189
 5596SOL     OW28246   1.914   4.509  14.946  0.0820 -0.4130  0.4543
 5596SOL    HW128247   1.977   4.547  15.008  0.6514  0.0003 -0.3840
 5596SOL    HW228248   1.840   4.483  15.001 -2.2488  2.4053 -1.3409
 5597SOL     OW28249   4.260   2.474   8.004  0.3446  0.4133  0.2517
 5597SOL    HW128250   4.353   2.491   8.014  0.2492  1.2376 -0.3063
 5597SOL    HW228251   4.249   2.454   7.911  0.4048  1.9917 -0.0857
 5598SOL     OW28252   3.643   2.978   8.816 -0.0382 -0.0580  0.6829
 5598SOL    HW128253   3.662   3.072   8.823 -0.7929  0.1305  0.2544
 5598SOL    HW228254   3.646   2.952   8.908 -2.4406  1.2441  1.1181
 5599SOL     OW28255   0.622   2.367   7.578  0.0666  0.4145 -0.0564
 5599SOL    HW128256   0.669   2.433   7.629  1.0464 -0.8942  0.7193
 5599SOL    HW228257   0.607   2.295   7.640  0.0735 -0.6253 -1.2623
 5600SOL     OW28258   0.858   0.840   3.594 -0.1376 -0.2115 -0.1539
 5600SOL    HW128259   0.844   0.788   3.515 -2.1039 -0.5657  0.4072
 5600SOL    HW228260   0.944   0.813   3.626 -0.7019 -0.8908  0.8212
 5601SOL     OW28261   1.437   1.972   4.549 -0.0491  0.5342 -0.7841
 5601SOL    HW128262   1.475   1.937   4.630 -1.6024 -0.9464 -0.6829
 5601SOL    HW228263   1.373   1.905   4.524  2.6115 -2.5471  0.6252
 5602SOL     OW28264   3.558   0.935  12.154  0.3817  0.1508 -0.4144
 5602SOL    HW128265   3.468   0.941  12.125  0.6136 -0.4020 -1.2261
 5602SOL    HW228266   3.553   1.003  12.222 -0.6562 -1.0633  0.7109
 5603SOL     OW28267   3.300   3.244   4.831 -0.3782 -0.3733 -0.1585
 5603SOL    HW128268   3.213   3.282   4.819 -0.8944 -1.0070  1.5386
 5603SOL    HW228269   3.316   3.264   4.923  0.0533 -2.3963  0.2022
 5604SOL     OW28270   0.452   2.006   7.968 -0.4444 -0.2120 -0.7046
 5604SOL    HW128271   0.511   1.962   8.029 -0.4456  0.3488 -0.2964
 5604SOL    HW228272   0.457   1.939   7.899 -0.5237  0.3606 -1.2664
 5605SOL     OW28273   1.022   3.557   3.545 -0.0425 -0.4551  0.0632
 5605SOL    HW128274   1.035   3.480   3.490  1.4594 -1.0679  1.2717
 5605SOL    HW228275   1.072   3.534   3.623 -1.4980  0.6704  1.3472
 5606SOL     OW28276   0.267   3.895   9.619 -0.7485 -0.2611 -0.2413
 5606SOL    HW128277   0.204   3.940   9.676 -0.0528  1.6102 -0.9447
 5606SOL    HW228278   0.243   3.934   9.535  0.0997  1.9956  0.5689
 5607SOL     OW28279   2.350   3.635   2.595 -0.1751  0.0000 -0.6405
 5607SOL    HW128280   2.344   3.674   2.682  0.3429 -2.4935  0.5106
 5607SOL    HW228281   2.263   3.657   2.563  0.2433  0.9848 -1.1125
 5608SOL     OW28282   2.487   0.388  15.448  0.5541 -0.0873  0.7940
 5608SOL    HW128283   2.448   0.437  15.375  0.7326  0.9084  1.3638
 5608SOL    HW228284   2.457   0.299  15.434  0.6651  0.1934 -1.1813
 5609SOL     OW28285   4.372   3.244   1.535  0.1326  0.0183 -0.3246
 5609SOL    HW128286   4.290   3.202   1.560  0.5209 -1.4269 -1.4867
 5609SOL    HW228287   4.354   3.262   1.443 -1.5489  0.2144  0.0408
 5610SOL     OW28288   1.802   0.415   2.110  0.0035 -0.0005  0.0786
 5610SOL    HW128289   1.771   0.435   2.021 -1.5737  0.5604  0.7528
 5610SOL    HW228290   1.726   0.394   2.164  0.0720  4.7588  2.0443
 5611SOL     OW28291   1.168   3.528   0.177  0.1518 -0.2389 -0.0464
 5611SOL    HW128292   1.123   3.444   0.181  2.2689 -1.2986  1.5769
 5611SOL    HW228293   1.218   3.541   0.258 -1.9959 -1.6625  1.5155
 5612SOL     OW28294   0.563   1.560   3.589  0.0712 -0.1330  0.1352
 5612SOL    HW128295   0.547   1.575   3.682  1.8917  0.0836  0.4155
 5612SOL    HW228296   0.475   1.578   3.558  0.6786  0.2200 -1.3822
 5613SOL     OW28297   3.559   1.433   1.658  0.5449  0.2312 -0.3502
 5613SOL    HW128298   3.641   1.469   1.624  0.0020  1.1931 -0.6499
 5613SOL    HW228299   3.484   1.490   1.637 -1.5651 -2.3665  0.1269
 5614SOL     OW28300   2.122   4.687   7.660  0.2883  0.0620  0.4192
 5614SOL    HW128301   2.132   0.057   7.691  0.5197 -0.1138  0.8579
 5614SOL    HW228302   2.198   4.680   7.602 -0.6545  1.5540 -0.9900
 5615SOL     OW28303   0.761   3.830   3.781  0.0194 -0.2827  0.3523
 5615SOL    HW128304   0.752   3.822   3.686  1.8069 -1.6096  0.2979
 5615SOL    HW228305   0.758   3.925   3.793 -0.1513 -0.5691  2.4619
 5616SOL     OW28306   3.747   4.401  10.465  0.3858  0.3938 -0.4341
 5616SOL    HW128307   3.781   4.377  10.552 -0.1722  0.7887 -0.1046
 5616SOL    HW228308   3.783   4.337  10.404 -1.2457  0.3728 -1.3838
 5617SOL     OW28309   3.193   2.982   6.067  0.2702  0.0405 -0.3861
 5617SOL    HW128310   3.128   3.016   6.005 -1.6481  1.6179  2.5250
 5617SOL    HW228311   3.164   3.024   6.148  0.0610 -0.6622 -0.0961
 5618SOL     OW28312   2.937   3.430   2.853  0.2646  0.1973 -0.1884
 5618SOL    HW128313   3.011   3.407   2.797  0.4097  1.2979 -0.4410
 5618SOL    HW228314   2.931   3.526   2.855  0.7177  0.2249 -0.2525
 5619SOL     OW28315   2.335   3.474   8.757 -0.4095  0.1969 -0.6406
 5619SOL    HW128316   2.422   3.459   8.720  0.2829  1.0064  0.6649
 5619SOL    HW228317   2.300   3.543   8.700 -0.2633  1.5185  0.8904
 5620SOL     OW28318   1.098   2.811   5.951  0.5026 -0.2589 -0.1707
 5620SOL    HW128319   1.055   2.803   5.865  0.4576  0.7185 -0.2471
 5620SOL    HW228320   1.139   2.725   5.958 -1.2223 -1.0363  0.5880
 5621SOL     OW28321   1.690   1.691   5.995 -0.0081  0.1510  0.4555
 5621SOL    HW128322   1.780   1.722   6.002  0.0823 -0.4753  2.1414
 5621SOL    HW228323   1.690   1.621   5.930 -3.1295  0.4643  0.0971
 5622SOL     OW28324   3.811   0.763   2.942  0.5084 -0.4853 -0.0223
 5622SOL    HW128325   3.828   0.794   3.032 -0.3739 -1.5400  0.5065
 5622SOL    HW228326   3.750   0.831   2.914  0.4824 -0.9191 -0.9983
 5623SOL     OW28327   4.497   3.160   2.676 -0.0825 -0.0856 -0.1807
 5623SOL    HW128328   4.509   3.218   2.601  0.0747 -0.1218 -0.1837
 5623SOL    HW228329   4.402   3.169   2.678  0.0106  0.5309  0.9697
 5624SOL     OW28330   3.706   4.163  13.632  0.2682 -0.5943  0.4339
 5624SOL    HW128331   3.780   4.196  13.581 -0.0839 -0.6000 -0.0847
 5624SOL    HW228332   3.672   4.099  13.569  2.7942  1.2498 -2.7652
 5625SOL     OW28333   1.662   3.051   9.531 -0.4034  0.0595  0.3036
 5625SOL    HW128334   1.647   3.106   9.608 -1.0466  0.8111 -0.3591
 5625SOL    HW228335   1.757   3.050   9.522 -0.4594  0.6976 -0.4357
 5626SOL     OW28336   3.981   1.693   8.812 -0.0735 -0.2755 -0.3228
 5626SOL    HW128337   3.962   1.785   8.831 -0.1380  0.0232 -1.8600
 5626SOL    HW228338   3.972   1.654   8.899  1.2386  0.7358  0.2620
 5627SOL     OW28339   0.565   3.286   5.897 -0.4966 -0.1542  0.4519
 5627SOL    HW128340   0.550   3.300   5.803  0.4517  0.3540  0.3751
 5627SOL    HW228341   0.505   3.214   5.919  0.5365 -1.1032  0.1067
 5628SOL     OW28342   4.328   1.100   7.773 -0.5888  0.0765 -0.6717
 5628SOL    HW128343   4.405   1.100   7.830 -0.8228  2.5311 -0.3579
 5628SOL    HW228344   4.255   1.118   7.833 -1.1423 -1.8132 -0.7632
 5629SOL     OW28345   3.004   0.251   5.576 -0.0055 -0.2281 -0.2959
 5629SOL    HW128346   3.064   0.189   5.616 -0.0337 -1.4964 -2.2083
 5629SOL    HW228347   2.980   0.199   5.499 -3.5880  1.5694 -0.4121
 5630SOL     OW28348   3.405   3.052  13.387  0.0184  0.0466 -0.5529
 5630SOL    HW128349   3.455   3.004  13.453 -1.5278  1.3654  1.5972
 5630SOL    HW228350   3.464   3.123  13.366  1.6558 -1.7519 -2.0183
 5631SOL     OW28351   3.798   0.524  16.162  0.6248  0.4585  0.1836
 5631SOL    HW128352   3.882   0.520  16.116  0.9647 -1.8743  1.0031
 5631SOL    HW228353   3.746   0.591  16.118  1.2305  1.4987  1.0564
 5632SOL     OW28354   1.618   0.607   4.758  0.3830  0.0223  0.2051
 5632SOL    HW128355   1.619   0.520   4.719  0.4160 -0.4458  1.2523
 5632SOL    HW228356   1.582   0.585   4.844 -1.0630  2.4198  0.2474
 5633SOL     OW28357   1.711   3.689   7.042  0.1369  0.5249 -0.3244
 5633SOL    HW128358   1.681   3.673   7.131  1.1877  2.1676  0.3346
 5633SOL    HW228359   1.628   3.715   7.002  0.9311  0.9435 -1.6915
 5634SOL     OW28360   1.901   0.544  15.787  0.1419  0.1118  0.2217
 5634SOL    HW128361   1.958   0.619  15.807  1.0857 -0.3811 -0.6617
 5634SOL    HW228362   1.856   0.579  15.710  2.6958 -0.4371 -1.5334
 5635SOL     OW28363   0.648   2.237   1.679 -0.3537 -0.1865 -0.6614
 5635SOL    HW128364   0.569   2.276   1.641  0.4287  0.4819 -1.5676
 5635SOL    HW228365   0.619   2.196   1.761 -1.6808 -1.2703 -1.6715
 5636SOL     OW28366   2.182   0.715  17.189  0.3296 -0.2722 -0.3437
 5636SOL    HW128367   2.094   0.751  17.203  0.7563  1.0098 -1.0474
 5636SOL    HW228368   2.210   0.729  17.280 -1.7590 -1.6778  0.5442
 5637SOL     OW28369   3.939   3.427   9.025 -0.2049 -0.6792 -0.3278
 5637SOL    HW128370   3.901   3.343   8.999  2.2623 -1.5727 -1.0253
 5637SOL    HW228371   4.013   3.401   9.080 -0.4081 -1.8739 -0.6192
 5638SOL     OW28372   2.476   2.470   5.635 -0.3405  0.0853  0.2627
 5638SOL    HW128373   2.387   2.471   5.671  0.1799 -1.5049  1.5796
 5638SOL    HW228374   2.442   2.478   5.546  0.4199  0.2559 -0.0082
 5639SOL     OW28375   1.780   0.907  15.186 -0.3667 -0.3954  0.0312
 5639SOL    HW128376   1.765   0.869  15.272 -0.3869  1.6905  0.9616
 5639SOL    HW228377   1.871   0.937  15.185 -1.0499  1.6836  0.1941
 5640SOL     OW28378   1.218   1.011   7.288 -0.6548 -0.6725  0.3696
 5640SOL    HW128379   1.260   1.043   7.209  1.5282  0.7316  2.1190
 5640SOL    HW228380   1.213   1.090   7.342 -2.6931 -0.7974  0.3617
 5641SOL     OW28381   4.476   4.307   0.716 -0.4685  0.0606 -0.4738
 5641SOL    HW128382   4.564   4.333   0.689 -0.6145 -1.2707 -2.2779
 5641SOL    HW228383   4.494   4.215   0.734 -1.5986 -0.4919 -2.0892
 5642SOL     OW28384   3.230   4.620   5.250 -0.2322 -0.2164  0.4148
 5642SOL    HW128385   3.229   4.553   5.318  0.8777 -1.3044 -0.6353
 5642SOL    HW228386   3.242   4.563   5.173 -1.2752  0.6679 -0.3993
 5643SOL     OW28387   1.832   3.070   2.916 -0.4031 -0.0300 -0.0687
 5643SOL    HW128388   1.881   3.132   2.970 -1.0784 -0.0379  0.5548
 5643SOL    HW228389   1.810   3.123   2.840  3.6844 -0.0786 -1.2280
 5644SOL     OW28390   2.406   3.746  13.138 -0.2824 -0.5258 -0.3501
 5644SOL    HW128391   2.400   3.651  13.151  0.7280 -0.0602  3.4289
 5644SOL    HW228392   2.500   3.762  13.147 -0.3469 -1.0849  1.3027
 5645SOL     OW28393   0.251   3.218   5.033 -0.2040 -0.2386 -0.1508
 5645SOL    HW128394   0.216   3.191   4.948 -1.5281 -1.9575  0.9565
 5645SOL    HW228395   0.343   3.191   5.024 -0.0018 -0.2036  1.9249
 5646SOL     OW28396   3.313   2.416  12.021  0.3280  0.2461 -0.2491
 5646SOL    HW128397   3.350   2.370  12.096  0.2087 -0.4336 -0.6050
 5646SOL    HW228398   3.325   2.510  12.036 -1.4299  0.4535 -0.1469
 5647SOL     OW28399   2.817   3.165   2.031 -0.4344  0.3361 -0.5825
 5647SOL    HW128400   2.724   3.157   2.052 -0.1782 -3.2274 -0.8552
 5647SOL    HW228401   2.844   3.077   2.005  2.0402  0.6426  0.9068
 5648SOL     OW28402   3.033   1.466   2.570 -0.4569  0.4026  0.0730
 5648SOL    HW128403   2.997   1.378   2.572 -0.9404  0.6189  0.8210
 5648SOL    HW228404   3.009   1.495   2.658 -0.2975 -0.1690  0.3022
 5649SOL     OW28405   3.670   2.604   5.294 -0.0222  0.0695 -0.6379
 5649SOL    HW128406   3.692   2.578   5.383  0.0385  0.2373 -0.6031
 5649SOL    HW228407   3.678   2.700   5.296 -1.0792  0.1581 -0.8820
 5650SOL     OW28408   2.170   3.911   5.375  0.2623  0.2473 -0.2925
 5650SOL    HW128409   2.203   3.931   5.462 -2.8087  0.3415  0.8466
 5650SOL    HW228410   2.078   3.933   5.390 -0.3794 -1.7499 -1.2873
 5651SOL     OW28411   4.072   1.409   5.791 -0.1211  0.5338 -0.0992
 5651SOL    HW128412   4.033   1.424   5.705 -0.4772  0.4860  0.0527
 5651SOL    HW228413   4.137   1.479   5.800  2.0538 -1.6416  1.0602
 5652SOL     OW28414   2.332   3.421  11.082 -0.1062  0.0548  0.0469
 5652SOL    HW128415   2.403   3.428  11.018 -0.4481 -2.4083 -0.6218
 5652SOL    HW228416   2.377   3.446  11.162 -2.3082 -3.3811  2.3815
 5653SOL     OW28417   1.534   3.574   4.398  0.0683  0.3041  0.1464
 5653SOL    HW128418   1.548   3.547   4.489 -0.4019  0.2084  0.1898
 5653SOL    HW228419   1.591   3.515   4.349 -1.5699 -1.0270 -0.1611
 5654SOL     OW28420   0.893   0.654   4.835  0.4911 -0.1458  0.1286
 5654SOL    HW128421   0.876   0.685   4.746 -2.7847  1.3748  1.2525
 5654SOL    HW228422   0.988   0.659   4.828  0.5757 -1.1253  0.6797
 5655SOL     OW28423   2.168   3.335   5.167 -0.4054 -0.9009 -0.3971
 5655SOL    HW128424   2.184   3.392   5.092 -0.1900 -1.0766 -0.4852
 5655SOL    HW228425   2.091   3.387   5.191  0.0316 -1.1256  1.4984
 5656SOL     OW28426   1.454   2.090   8.068  0.5506 -0.3246 -0.5598
 5656SOL    HW128427   1.467   2.126   8.156  0.8006 -0.2204 -0.6386
 5656SOL    HW228428   1.382   2.146   8.039  1.8379  0.8442 -1.5573
 5657SOL     OW28429   0.213   2.007  14.374  0.3558 -0.5274  0.2070
 5657SOL    HW128430   0.281   1.973  14.432  2.3298  1.1832 -1.0763
 5657SOL    HW228431   0.238   2.099  14.359 -3.3514 -0.2233 -3.9256
 5658SOL     OW28432   3.647   0.494   3.466  0.4989  0.1591 -0.4098
 5658SOL    HW128433   3.705   0.432   3.511 -0.4677  0.7706  1.6591
 5658SOL    HW228434   3.612   0.432   3.402  0.9550  0.5403 -1.0275
 5659SOL     OW28435   3.490   0.714   8.761 -0.6325 -0.0747 -0.4782
 5659SOL    HW128436   3.574   0.727   8.717 -0.2845 -1.0918 -0.1202
 5659SOL    HW228437   3.434   0.746   8.691 -0.5669 -2.3986 -1.6036
 5660SOL     OW28438   4.563   1.866   3.257 -0.0231  0.4131 -0.4709
 5660SOL    HW128439   4.477   1.834   3.283 -0.8010  1.2863 -1.9339
 5660SOL    HW228440   4.553   1.843   3.164  0.9446 -2.0161  0.0244
 5661SOL     OW28441   0.352   1.251   2.883 -0.3912 -0.1195  0.3795
 5661SOL    HW128442   0.447   1.240   2.874  0.0589  2.7372  1.4647
 5661SOL    HW228443   0.339   1.310   2.958  0.7352  0.0185  0.4665
 5662SOL     OW28444   0.625   1.350   1.208 -0.1170 -0.1571  0.1364
 5662SOL    HW128445   0.677   1.395   1.275  0.5591  0.4247 -0.7653
 5662SOL    HW228446   0.697   1.342   1.144 -1.1731 -1.3952 -0.8859
 5663SOL     OW28447   1.946   3.991   3.785 -0.0213  0.0909 -0.0319
 5663SOL    HW128448   1.866   4.033   3.818  0.7403  0.9521  0.7258
 5663SOL    HW228449   2.011   4.036   3.839  1.3353 -1.8967  0.0168
 5664SOL     OW28450   1.287   3.353  15.844 -0.2251  0.3984  0.0625
 5664SOL    HW128451   1.342   3.322  15.916 -1.2990  0.8586  1.0690
 5664SOL    HW228452   1.222   3.286  15.823  1.3361 -1.3415  0.8150
 5665SOL     OW28453   0.739   2.200  13.517 -0.2311  0.2012  1.0134
 5665SOL    HW128454   0.820   2.221  13.564 -0.5931 -0.8960  2.1122
 5665SOL    HW228455   0.708   2.289  13.501  0.0922  0.3484  1.2044
 5666SOL     OW28456   1.900   0.598   2.381 -0.5119  0.2051  0.5453
 5666SOL    HW128457   1.989   0.576   2.409 -0.5963 -2.1612 -1.1018
 5666SOL    HW228458   1.912   0.590   2.287  1.1726  0.9343  0.6794
 5667SOL     OW28459   3.199   2.116   8.342 -0.1144  0.2357  0.0436
 5667SOL    HW128460   3.197   2.025   8.372 -1.4625 -0.1516 -1.2444
 5667SOL    HW228461   3.242   2.165   8.411  0.9947  2.1402 -1.9828
 5668SOL     OW28462   2.908   4.435   7.700  0.2408 -0.1819 -0.7815
 5668SOL    HW128463   2.891   4.393   7.784 -1.2452  0.1762 -0.9135
 5668SOL    HW228464   2.887   4.366   7.636 -1.6961  0.6814 -1.0394
 5669SOL     OW28465   4.369   1.930   5.253  0.1826  0.3911 -0.0973
 5669SOL    HW128466   4.436   1.880   5.299  0.0238  0.0524 -0.2335
 5669SOL    HW228467   4.294   1.920   5.312  0.5786 -0.6531  0.2286
 5670SOL     OW28468   2.853   1.083  15.405  0.1316  0.2621  0.1257
 5670SOL    HW128469   2.846   1.174  15.432  2.2894  0.7636 -0.9973
 5670SOL    HW228470   2.824   1.073  15.314 -0.8447 -1.1609  0.5899
 5671SOL     OW28471   4.149   2.745   0.596  0.4440  0.1182 -0.0476
 5671SOL    HW128472   4.230   2.769   0.643  1.2053 -2.6905  0.0611
 5671SOL    HW228473   4.138   2.820   0.538  1.7847 -0.8206 -1.5344
 5672SOL     OW28474   2.540   0.284  11.150  0.4505  0.1641 -0.2302
 5672SOL    HW128475   2.465   0.292  11.091  1.5576  0.8099 -1.5350
 5672SOL    HW228476   2.610   0.250  11.095  1.3930 -0.2596  1.2240
 5673SOL     OW28477   4.279   0.053  14.399  0.0951  0.1037 -0.0677
 5673SOL    HW128478   4.354   0.063  14.339  1.5252 -0.2893  1.6523
 5673SOL    HW228479   4.296   0.117  14.468  1.2715  0.1893 -0.4250
 5674SOL     OW28480   4.130   3.692   0.964  0.3256  0.3227  0.4455
 5674SOL    HW128481   4.216   3.677   1.004  0.5640 -0.8351 -0.5328
 5674SOL    HW228482   4.117   3.604   0.930  2.2533 -0.0064  0.5516
 5675SOL     OW28483   2.721   4.324   9.135  0.5510  0.1791 -0.4392
 5675SOL    HW128484   2.800   4.316   9.081  1.0914 -0.2147  0.3985
 5675SOL    HW228485   2.759   4.343   9.221 -1.1928 -1.3804  0.6791
 5676SOL     OW28486   1.270   4.263   6.523  0.3316  0.5710  0.3061
 5676SOL    HW128487   1.302   4.323   6.591  0.0990  2.0187 -0.8617
 5676SOL    HW228488   1.341   4.277   6.460  2.3977 -0.6684  2.3993
 5677SOL     OW28489   2.714   4.033   4.871 -0.4496 -0.3565 -0.6398
 5677SOL    HW128490   2.718   4.039   4.966 -0.1058  1.7741 -0.7929
 5677SOL    HW228491   2.804   4.054   4.846 -0.1766 -0.1395  0.5257
 5678SOL     OW28492   1.220   1.120   9.786 -0.3776  0.0302  0.3908
 5678SOL    HW128493   1.293   1.135   9.726  0.1989 -0.2945  1.0093
 5678SOL    HW228494   1.252   1.049   9.841 -0.3066 -1.9799 -2.2766
 5679SOL     OW28495   4.172   0.677  16.679  0.2520  0.0587 -0.8268
 5679SOL    HW128496   4.245   0.737  16.693 -0.7766  1.1554 -0.1774
 5679SOL    HW228497   4.222   0.611  16.631  0.0523  0.4123 -1.5254
 5680SOL     OW28498   0.879   1.122   5.367 -0.3850 -0.2416 -0.1365
 5680SOL    HW128499   0.918   1.060   5.428  2.1305 -0.0124 -1.5172
 5680SOL    HW228500   0.957   1.170   5.338  1.2161 -2.5179  0.4362
 5681SOL     OW28501   0.646   0.596   3.582 -0.3660  0.2689  0.1646
 5681SOL    HW128502   0.623   0.635   3.666  1.1451  1.9616 -0.2068
 5681SOL    HW228503   0.634   0.678   3.534  2.0148  1.0564  0.9221
 5682SOL     OW28504   2.353   0.567   6.680 -0.2589  0.4677  0.1646
 5682SOL    HW128505   2.272   0.607   6.711  0.3163  1.7327  0.0336
 5682SOL    HW228506   2.406   0.647   6.676 -0.6514  0.7531  0.8766
 5683SOL     OW28507   2.240   3.143   4.988  0.5510 -0.2663 -0.5383
 5683SOL    HW128508   2.204   3.203   5.053  2.2488  0.3910 -0.2083
 5683SOL    HW228509   2.288   3.091   5.052 -1.1689  0.6328  1.4856
 5684SOL     OW28510   3.691   0.062   5.776 -0.1683  0.2849  0.0521
 5684SOL    HW128511   3.634   0.016   5.838 -0.4371 -1.8573 -1.8039
 5684SOL    HW228512   3.765   0.086   5.831 -0.3217  0.4824  0.1764
 5685SOL     OW28513   0.953   1.797   4.293  0.2206 -0.1780  0.0039
 5685SOL    HW128514   0.914   1.710   4.278  0.4812  0.0279 -1.7810
 5685SOL    HW228515   0.938   1.785   4.387  0.2679 -1.5090 -0.1573
 5686SOL     OW28516   0.311   1.943  11.638 -0.6849  0.5476  0.1975
 5686SOL    HW128517   0.342   1.895  11.560 -0.6071  1.4055 -0.3025
 5686SOL    HW228518   0.363   2.024  11.634 -0.7862  0.5476 -1.2258
 5687SOL     OW28519   0.438   1.299  14.016  0.2366 -0.4081  0.2956
 5687SOL    HW128520   0.473   1.384  14.044  0.4922 -1.0864  2.0083
 5687SOL    HW228521   0.508   1.279  13.955 -0.1385  2.7145 -1.1794
 5688SOL     OW28522   0.112   3.687  15.258 -0.0192 -0.5271  0.1792
 5688SOL    HW128523   0.134   3.678  15.351 -0.3320  2.6934  0.5644
 5688SOL    HW228524   0.176   3.634  15.211 -0.5852 -2.5187  1.6400
 5689SOL     OW28525   2.361   4.462  17.187 -0.3706 -0.4611  0.7136
 5689SOL    HW128526   2.275   4.427  17.164  0.3150 -0.6884 -1.4792
 5689SOL    HW228527   2.399   4.391  17.238 -0.0322  0.2684  1.4744
 5690SOL     OW28528   4.124   0.356  14.504 -0.0323 -0.0324 -0.0106
 5690SOL    HW128529   4.200   0.318  14.548  0.3120  1.0579  0.3456
 5690SOL    HW228530   4.115   0.430  14.563 -2.0732  0.9678 -1.5779
 5691SOL     OW28531   3.506   1.891   2.477 -0.6565  0.3231 -0.7776
 5691SOL    HW128532   3.580   1.843   2.513 -2.3364 -1.0844  0.7902
 5691SOL    HW228533   3.475   1.819   2.422  0.0267  0.0021 -0.7369
 5692SOL     OW28534   1.025   0.975   6.036  0.0684  0.0688 -0.0509
 5692SOL    HW128535   0.994   1.056   6.077 -1.7913 -1.0789  0.8014
 5692SOL    HW228536   1.103   1.014   5.997  0.0979 -0.7439 -0.8021
 5693SOL     OW28537   4.325   1.460   7.329  0.2683  0.3026  0.2561
 5693SOL    HW128538   4.370   1.455   7.244 -0.1302  0.4595  0.0374
 5693SOL    HW228539   4.240   1.430   7.297  0.0440 -0.3594  1.4587
 5694SOL     OW28540   4.194   1.442   3.068 -0.1285 -0.9244  0.2811
 5694SOL    HW128541   4.111   1.467   3.108  0.8484  1.4851  0.8037
 5694SOL    HW228542   4.229   1.518   3.020 -1.8310 -1.6064 -2.0422
 5695SOL     OW28543   3.062   0.719   1.904 -0.2718  0.5689 -0.1189
 5695SOL    HW128544   3.071   0.624   1.899 -0.6312  0.5098  0.3846
 5695SOL    HW228545   3.107   0.730   1.988  1.7158 -3.0101 -0.7252
 5696SOL     OW28546   3.740   0.954   8.428  0.0601 -0.6759 -0.4102
 5696SOL    HW128547   3.765   0.939   8.337  2.6644  3.6434 -0.3974
 5696SOL    HW228548   3.645   0.947   8.419 -0.0756  1.2214 -0.4328
 5697SOL     OW28549   1.145   4.384   7.494  0.2740 -0.1474 -0.0576
 5697SOL    HW128550   1.109   4.296   7.504  0.0856  0.0170  0.6782
 5697SOL    HW228551   1.219   4.358   7.440 -0.1940 -0.7080 -0.4297
 5698SOL     OW28552   3.632   4.044  17.318  0.5926 -0.1076  0.2479
 5698SOL    HW128553   3.567   4.014  17.254 -0.5112 -1.9681  2.2106
 5698SOL    HW228554   3.569   4.051  17.390 -1.3455  1.8731 -1.6450
 5699SOL     OW28555   0.818   2.585  16.250 -0.0984 -0.7014  0.1667
 5699SOL    HW128556   0.830   2.666  16.200 -1.4978 -0.1164  0.7708
 5699SOL    HW228557   0.771   2.610  16.329 -2.2643 -2.6685 -0.4805
 5700SOL     OW28558   2.460   0.664   2.708 -0.2561  0.0940 -0.0033
 5700SOL    HW128559   2.471   0.583   2.658 -0.5254 -1.6661  2.8216
 5700SOL    HW228560   2.375   0.651   2.749 -1.8693  0.1757 -3.3511
 5701SOL     OW28561   0.100   2.048   7.062 -0.6022  0.1980  0.5217
 5701SOL    HW128562   0.082   2.142   7.055 -0.8876 -0.0495 -2.0233
 5701SOL    HW228563   0.194   2.044   7.048 -0.7065  0.3102 -0.2169
 5702SOL     OW28564   3.185   3.398   1.394 -0.0721  0.0896  0.0862
 5702SOL    HW128565   3.237   3.470   1.431 -0.5686 -0.1696  1.2976
 5702SOL    HW228566   3.242   3.376   1.321 -0.0753 -1.1072  0.4396
 5703SOL     OW28567   1.459   3.055  11.441  0.5080  0.7082 -0.0542
 5703SOL    HW128568   1.554   3.063  11.439  0.5531  0.3241  0.3553
 5703SOL    HW228569   1.438   2.987  11.376 -2.1129  1.2133  0.2453
 5704SOL     OW28570   3.201   0.568  14.211 -0.1005 -0.0763  0.5656
 5704SOL    HW128571   3.182   0.604  14.298 -2.8968 -1.5728  0.5732
 5704SOL    HW228572   3.168   0.478  14.216 -1.4875  0.4629  1.1279
 5705SOL     OW28573   2.062   4.562  10.963  0.2694 -0.3858 -0.0825
 5705SOL    HW128574   2.036   4.510  11.039  0.1259 -0.7236 -0.3589
 5705SOL    HW228575   2.093   4.503  10.894  1.7917 -1.8554  1.8558
 5706SOL     OW28576   0.338   2.725  11.465 -0.2759 -0.1816 -0.4118
 5706SOL    HW128577   0.361   2.741  11.556 -3.1094  0.2073  0.2242
 5706SOL    HW228578   0.346   2.631  11.453 -0.4216 -0.2400 -0.0424
 5707SOL     OW28579   3.895   1.694   5.751  0.2149 -0.2303 -0.8965
 5707SOL    HW128580   3.868   1.785   5.761 -1.2923 -0.5907 -1.6741
 5707SOL    HW228581   3.987   1.710   5.729  1.2061 -1.1977  2.5925
 5708SOL     OW28582   4.612   1.494   4.997 -0.1788  0.4422 -0.0007
 5708SOL    HW128583   4.602   1.578   4.952 -2.8812  0.8716  1.3820
 5708SOL    HW228584   4.542   1.438   4.963  1.3337 -1.4199 -0.0497
 5709SOL     OW28585   0.659   0.009   4.228 -0.1453  0.0972 -0.4294
 5709SOL    HW128586   0.709   4.676   4.166 -1.4477 -0.1595 -1.2643
 5709SOL    HW228587   0.718   0.008   4.303 -0.0255  0.6376 -0.5137
 5710SOL     OW28588   1.777   3.659   4.255  0.1181  0.1424  0.0630
 5710SOL    HW128589   1.848   3.709   4.215 -0.9863  1.0247 -0.8089
 5710SOL    HW228590   1.699   3.716   4.251 -1.1118 -1.3621  2.4179
 5711SOL     OW28591   3.875   2.863   4.706  0.2108  0.3579  0.1582
 5711SOL    HW128592   3.814   2.905   4.767  0.6508 -1.4669  1.8745
 5711SOL    HW228593   3.818   2.820   4.642 -0.9138  1.1171  0.6359
 5712SOL     OW28594   0.056   4.155   9.202 -0.1050 -0.1817 -0.5015
 5712SOL    HW128595   0.085   4.153   9.111  1.2546  0.4717 -0.0861
 5712SOL    HW228596   4.688   4.118   9.190  0.5414 -2.2345  1.0105
 5713SOL     OW28597   4.607   3.530   6.308 -0.1754 -0.0764 -0.7651
 5713SOL    HW128598   4.670   3.593   6.343 -1.6699  0.9284  0.1635
 5713SOL    HW228599   4.660   3.505   6.233  0.6013 -0.9653  0.0784
 5714SOL     OW28600   2.008   0.541   5.894  0.6273 -0.1399  0.5547
 5714SOL    HW128601   1.964   0.481   5.954  1.4942  0.5449  1.8889
 5714SOL    HW228602   1.940   0.609   5.889  0.7871  0.0658  1.2384
 5715SOL     OW28603   4.168   2.048  12.807  0.0813  0.0505  0.1308
 5715SOL    HW128604   4.075   2.048  12.784 -0.5118  2.7813  2.6088
 5715SOL    HW228605   4.194   2.081  12.721 -2.3404  3.0281  0.5189
 5716SOL     OW28606   0.257   4.156  11.052  0.1121  0.4479 -0.0058
 5716SOL    HW128607   0.207   4.136  11.131  0.7975  2.0264  0.8348
 5716SOL    HW228608   0.329   4.103  11.086  0.5450  1.7076  1.0478
 5717SOL     OW28609   4.098   2.769   6.598  0.1289 -0.3543 -0.3172
 5717SOL    HW128610   4.166   2.817   6.646  0.4095 -1.1513  0.0873
 5717SOL    HW228611   4.101   2.809   6.511  1.0102  0.5993  0.1449
 5718SOL     OW28612   4.399   3.045   3.036 -0.0709  0.0797 -0.0916
 5718SOL    HW128613   4.465   3.083   3.094 -1.7425 -0.9940  2.4914
 5718SOL    HW228614   4.333   3.022   3.101 -1.8843 -0.0433 -1.9802
 5719SOL     OW28615   1.260   0.514   8.104 -0.4607  0.7086  0.2479
 5719SOL    HW128616   1.238   0.483   8.016  0.2308  1.0086 -0.0322
 5719SOL    HW228617   1.177   0.488   8.145 -0.7069 -0.2975 -0.8639
 5720SOL     OW28618   3.348   1.627   0.284  0.1169  0.7739 -0.9828
 5720SOL    HW128619   3.292   1.648   0.209 -0.3038 -0.8452 -1.1150
 5720SOL    HW228620   3.328   1.698   0.345  2.0696  0.1851  0.3456
 5721SOL     OW28621   0.407   3.201   9.977  0.3501 -0.1581  0.1296
 5721SOL    HW128622   0.440   3.113   9.995  0.4699 -0.1251  0.0700
 5721SOL    HW228623   0.327   3.190  10.028  0.1758 -2.5865 -0.6617
 5722SOL     OW28624   2.709   0.219   3.005 -0.0900  0.0864 -0.4044
 5722SOL    HW128625   2.679   0.294   2.954 -1.9825 -1.9789 -2.3702
 5722SOL    HW228626   2.719   0.252   3.094 -0.0618 -1.7568  0.2668
 5723SOL     OW28627   2.729   1.669   6.941 -0.0988 -0.0578 -0.2478
 5723SOL    HW128628   2.720   1.756   6.979  0.9433 -0.4559  0.9183
 5723SOL    HW228629   2.756   1.623   7.021 -1.7834 -0.1653  0.2518
 5724SOL     OW28630   3.292   1.351   0.344 -0.1457  0.2433 -0.4821
 5724SOL    HW128631   3.303   1.445   0.327 -1.8168  0.6435  0.6628
 5724SOL    HW228632   3.234   1.347   0.420  1.9082  0.6912  1.1069
 5725SOL     OW28633   4.302   2.662   3.527  0.0529 -0.3083 -0.1154
 5725SOL    HW128634   4.253   2.654   3.446 -1.7918  1.0233  0.8903
 5725SOL    HW228635   4.274   2.749   3.556  0.8595 -0.0963  0.0369
 5726SOL     OW28636   3.079   2.897   7.065  0.1090 -0.3178  0.5092
 5726SOL    HW128637   3.098   2.878   7.157 -0.8885  1.1361  1.0011
 5726SOL    HW228638   3.166   2.889   7.027  0.3974  0.6857  0.9698
 5727SOL     OW28639   3.342   1.366   4.449 -0.3663  0.4814 -0.0629
 5727SOL    HW128640   3.302   1.330   4.370  1.4582 -0.1100 -0.7207
 5727SOL    HW228641   3.424   1.407   4.421  1.0609 -2.4950 -0.2750
 5728SOL     OW28642   4.098   2.872   5.116  0.1687 -0.4536 -0.2488
 5728SOL    HW128643   4.129   2.921   5.039 -0.3127 -0.6369 -0.5622
 5728SOL    HW228644   4.004   2.869   5.100 -0.0231 -0.0611  0.8814
 5729SOL     OW28645   4.552   1.122  11.637 -0.1692  0.3194 -0.2033
 5729SOL    HW128646   4.616   1.183  11.601  2.2501 -1.9808  0.2038
 5729SOL    HW228647   4.558   1.051  11.574  1.2758  0.3578 -0.1152
 5730SOL     OW28648   3.802   0.244   3.325 -0.5978  0.6329 -0.2515
 5730SOL    HW128649   3.888   0.219   3.291 -0.7198 -0.2460  0.0960
 5730SOL    HW228650   3.761   0.158   3.329  2.3729 -0.6939  2.0133
 5731SOL     OW28651   1.390   2.313   6.580 -0.3192  0.6139  0.1388
 5731SOL    HW128652   1.443   2.323   6.659 -1.1008  0.6429  0.6630
 5731SOL    HW228653   1.313   2.365   6.605 -0.5817  1.6300 -2.8122
 5732SOL     OW28654   4.123   4.643   2.303 -0.2193 -0.0909  0.5897
 5732SOL    HW128655   4.041   4.694   2.305 -0.3941 -0.4026  1.1343
 5732SOL    HW228656   4.187   4.713   2.320  0.3481 -0.0469 -1.7081
 5733SOL     OW28657   0.686   2.574   5.650 -0.9295  0.2968 -0.2696
 5733SOL    HW128658   0.688   2.661   5.690 -0.3685  0.2785 -0.2551
 5733SOL    HW228659   0.609   2.577   5.593 -0.6004  0.5488 -0.7051
 5734SOL     OW28660   1.372   1.377  16.270  0.2843  0.0412 -0.3680
 5734SOL    HW128661   1.295   1.377  16.212 -0.5676  1.1341  0.7525
 5734SOL    HW228662   1.442   1.331  16.225 -2.1655 -0.2171 -3.9927
 5735SOL     OW28663   3.976   4.376   3.433 -0.0557  0.1313  0.0172
 5735SOL    HW128664   4.005   4.436   3.364  0.6240 -0.8679 -0.5653
 5735SOL    HW228665   3.994   4.293   3.389  1.7180  0.3547  0.3230
 5736SOL     OW28666   0.315   0.733   6.240 -0.3878  0.0859  0.8685
 5736SOL    HW128667   0.382   0.801   6.256  1.7743 -1.9462  0.4346
 5736SOL    HW228668   0.374   0.659   6.229  1.0838  1.4690 -0.6246
 5737SOL     OW28669   0.307   0.998  14.925  0.1592  0.5738  0.1209
 5737SOL    HW128670   0.238   0.993  14.991  1.3559  0.8172  1.3986
 5737SOL    HW228671   0.337   1.088  14.939 -0.9407  0.9121  0.2368
 5738SOL     OW28672   4.227   0.477   5.397  0.4762 -0.1445  0.2666
 5738SOL    HW128673   4.163   0.490   5.467  1.5843  0.8575  1.0788
 5738SOL    HW228674   4.178   0.501   5.318  1.0617  0.8242  0.1904
 5739SOL     OW28675   3.560   4.229   5.160  0.2736  0.0921 -0.0056
 5739SOL    HW128676   3.612   4.295   5.114  0.1816 -0.2453 -0.5849
 5739SOL    HW228677   3.622   4.156   5.149  0.7515  0.6129 -0.7231
 5740SOL     OW28678   1.283   0.032  16.053  0.0925 -0.0945  0.0992
 5740SOL    HW128679   1.357   0.066  16.003  0.1104  1.1039  0.9162
 5740SOL    HW228680   1.324   4.690  16.114  2.0322  0.5632 -0.5553
 5741SOL     OW28681   1.171   2.065   4.800 -0.2370  0.8990  0.1275
 5741SOL    HW128682   1.189   1.972   4.810 -0.6564  0.7644 -0.3591
 5741SOL    HW228683   1.248   2.083   4.746 -0.4820 -0.8889 -0.8052
 5742SOL     OW28684   0.342   0.149  13.860 -0.0567 -1.0168 -0.1036
 5742SOL    HW128685   0.401   0.127  13.932  0.2292 -2.2929 -0.7240
 5742SOL    HW228686   0.369   0.237  13.835 -1.8294 -0.4932 -0.1669
 5743SOL     OW28687   3.191   0.966  10.187  0.3733  0.3043 -0.1451
 5743SOL    HW128688   3.259   0.962  10.120 -0.4646  0.2450 -1.0061
 5743SOL    HW228689   3.168   0.873  10.191 -1.3237  0.7723  1.0301
 5744SOL     OW28690   2.977   3.493   8.080 -0.0707  0.2668  0.0347
 5744SOL    HW128691   2.887   3.502   8.048 -0.3022 -1.8274  0.0584
 5744SOL    HW228692   3.017   3.477   7.995  1.0174  0.3018  0.5505
 5745SOL     OW28693   3.044   1.136   2.974  0.1532 -0.7412 -0.1582
 5745SOL    HW128694   3.079   1.172   3.055  1.5807 -0.7959 -0.7408
 5745SOL    HW228695   3.124   1.130   2.921  0.8005  4.5352  0.2202
 5746SOL     OW28696   3.612   1.521   2.948  0.5462  0.5380 -0.1304
 5746SOL    HW128697   3.703   1.522   2.917  0.4055  0.6391 -0.5494
 5746SOL    HW228698   3.582   1.494   2.861  2.1264 -0.8476 -0.2603
 5747SOL     OW28699   0.461   2.764  12.745 -0.4814  0.4707  0.2349
 5747SOL    HW128700   0.471   2.843  12.693  2.8893  0.5006  0.8991
 5747SOL    HW228701   0.368   2.771  12.767 -1.0007 -0.9890 -1.5679
 5748SOL     OW28702   1.329   0.224   6.198  0.3982  0.0846 -0.1714
 5748SOL    HW128703   1.289   0.150   6.242  1.4925  0.0019  0.6918
 5748SOL    HW228704   1.374   0.254   6.276 -0.8247  0.4063  0.4142
 5749SOL     OW28705   4.004   3.544  13.489 -0.3382  0.0220  0.0758
 5749SOL    HW128706   3.918   3.507  13.468 -0.3248  1.0417 -1.7887
 5749SOL    HW228707   3.989   3.638  13.497  1.6607  0.3800 -0.3999
 5750SOL     OW28708   0.322   2.580   6.938  0.0660  0.1835  0.0567
 5750SOL    HW128709   0.351   2.503   6.888  1.5808  0.4146  0.5766
 5750SOL    HW228710   0.384   2.580   7.011 -1.6132  1.6797  1.4688
 5751SOL     OW28711   1.001   1.500   5.632  0.2000  0.2947 -0.1563
 5751SOL    HW128712   1.046   1.532   5.711 -0.4943 -1.2344  0.8351
 5751SOL    HW228713   1.031   1.561   5.564 -1.0486  1.2186  0.1219
 5752SOL     OW28714   3.318   1.624   7.326 -0.6141 -0.4878  0.6239
 5752SOL    HW128715   3.241   1.660   7.370 -0.3841  1.4952 -0.5507
 5752SOL    HW228716   3.357   1.706   7.294  1.2149 -1.8489 -0.6362
 5753SOL     OW28717   0.992   0.735  17.051 -0.5056 -0.5804 -0.2486
 5753SOL    HW128718   1.006   0.790  16.973  1.7230 -0.3033  0.3326
 5753SOL    HW228719   0.903   0.705  17.031 -0.5633 -0.1928 -0.5801
 5754SOL     OW28720   2.819   0.724   7.055  0.7734  0.3599 -0.4620
 5754SOL    HW128721   2.850   0.811   7.028 -1.3556  0.9705 -0.9004
 5754SOL    HW228722   2.900   0.676   7.075 -0.6861 -2.4241 -1.2601
 5755SOL     OW28723   0.316   4.276  17.146 -0.6319  0.2899 -0.0960
 5755SOL    HW128724   0.362   4.358  17.127  2.9323 -1.0060  2.8931
 5755SOL    HW228725   0.241   4.292  17.089 -0.8244  2.1053  0.6481
 5756SOL     OW28726   4.419   3.324   7.480  0.3970 -0.0698  0.1350
 5756SOL    HW128727   4.407   3.378   7.403 -1.7885  0.2786  0.7160
 5756SOL    HW228728   4.363   3.255   7.445  0.1622  0.0941  0.1894
 5757SOL     OW28729   0.154   3.140   4.779  0.4731  0.6495 -0.4031
 5757SOL    HW128730   0.193   3.081   4.714 -0.4225 -2.6497  2.0276
 5757SOL    HW228731   0.154   3.212   4.717 -0.0736 -0.2304 -1.4384
 5758SOL     OW28732   3.376   0.180   6.757  0.4406  0.8198  0.1493
 5758SOL    HW128733   3.291   0.152   6.722  1.5767 -0.8411 -1.2578
 5758SOL    HW228734   3.345   0.251   6.814 -0.1315  0.3255  0.4554
 5759SOL     OW28735   2.661   2.915   4.972  0.4338  0.2636  0.2477
 5759SOL    HW128736   2.650   2.938   4.879  1.3582  0.8157  0.2705
 5759SOL    HW228737   2.739   2.965   4.998 -0.7957  2.8429 -1.0167
 5760SOL     OW28738   0.108   1.328  15.522  0.7495 -0.0421 -0.2218
 5760SOL    HW128739   0.123   1.409  15.570 -2.5578  1.5540 -1.8943
 5760SOL    HW228740   0.032   1.356  15.471  1.2745 -0.6085 -1.3147
 5761SOL     OW28741   0.905   4.057   2.598  0.2214  0.1314 -0.2547
 5761SOL    HW128742   0.877   3.990   2.661  0.5804 -0.2805 -0.5351
 5761SOL    HW228743   0.869   4.021   2.517 -1.6661  1.6132 -0.0729
 5762SOL     OW28744   4.175   2.692   0.243  0.3985 -0.3622  0.1524
 5762SOL    HW128745   4.117   2.768   0.256 -3.1697 -3.2738  1.1711
 5762SOL    HW228746   4.255   2.745   0.236 -0.1202  0.2461 -1.1200
 5763SOL     OW28747   0.203   4.249  11.554 -0.3694  0.1473 -1.0839
 5763SOL    HW128748   0.231   4.199  11.478 -1.2821  0.2868 -1.5072
 5763SOL    HW228749   0.124   4.284  11.513 -1.0512 -2.1435 -1.7037
 5764SOL     OW28750   0.383   0.823   2.940 -0.1756  0.0528  0.2940
 5764SOL    HW128751   0.385   0.854   2.849 -0.2107  0.4200  0.4169
 5764SOL    HW228752   0.295   0.786   2.948  0.0442 -0.4370  0.4336
 5765SOL     OW28753   0.787   2.741  17.611 -0.2442 -0.0071 -0.1710
 5765SOL    HW128754   0.712   2.798  17.593  0.0985  0.5368  0.1308
 5765SOL    HW228755   0.810   2.729  17.519  0.5657  2.9217 -0.3623
 5766SOL     OW28756   0.657   4.347  12.021  0.0235 -0.2775  0.2706
 5766SOL    HW128757   0.709   4.427  12.024 -0.6852  0.0724  2.9154
 5766SOL    HW228758   0.682   4.327  11.931  0.3973  1.2654  0.0251
 5767SOL     OW28759   0.940   3.710   2.172 -0.2396 -0.2756  0.0303
 5767SOL    HW128760   0.918   3.620   2.195  1.2551 -0.7515 -0.3697
 5767SOL    HW228761   1.019   3.686   2.123 -0.1537  1.7490 -0.8246
 5768SOL     OW28762   3.293   0.017   9.167  0.6405  0.1408 -0.3583
 5768SOL    HW128763   3.319   0.104   9.198 -1.0394  0.8112 -0.8305
 5768SOL    HW228764   3.268   4.705   9.254 -1.3901 -0.8719 -1.2876
 5769SOL     OW28765   2.304   3.840  14.123  0.2151  0.3315 -0.0529
 5769SOL    HW128766   2.330   3.766  14.068 -1.6387 -0.4092  0.0588
 5769SOL    HW228767   2.209   3.838  14.117  0.2951  1.1040 -1.4638
 5770SOL     OW28768   2.786   0.232   5.051 -0.7629  0.1198 -0.0228
 5770SOL    HW128769   2.829   0.286   5.118 -2.0410  0.5913  0.4224
 5770SOL    HW228770   2.804   0.274   4.967  1.7424 -1.6113 -0.3611
 5771SOL     OW28771   4.656   2.905  14.112  0.7379 -0.1668  0.7314
 5771SOL    HW128772   4.572   2.899  14.158 -0.4230 -0.3541 -1.3977
 5771SOL    HW228773   4.657   2.991  14.071  3.4409  0.5311  2.2804
 5772SOL     OW28774   0.128   2.127  10.196  0.6236 -0.0595  0.6112
 5772SOL    HW128775   0.205   2.183  10.205  2.2832 -2.1046 -0.8447
 5772SOL    HW228776   0.055   2.188  10.203  1.9394  1.6903 -0.7193
 5773SOL     OW28777   0.720   3.428   8.256 -0.0816  0.1183  0.8690
 5773SOL    HW128778   0.796   3.484   8.241  1.3827 -1.8343  1.0264
 5773SOL    HW228779   0.758   3.343   8.277  2.6290  0.9898 -0.4694
 5774SOL     OW28780   3.667   4.554   8.848 -0.4429 -0.2487 -0.3576
 5774SOL    HW128781   3.585   4.596   8.875 -0.9649 -0.8715 -0.9805
 5774SOL    HW228782   3.731   4.593   8.908  0.2073 -2.2092  0.2065
 5775SOL     OW28783   2.459   1.047   2.640 -0.0597 -0.2592 -0.1287
 5775SOL    HW128784   2.523   0.986   2.678 -1.9852 -0.8824  2.0815
 5775SOL    HW228785   2.381   0.997   2.662 -0.3533 -0.9183 -2.7382
 5776SOL     OW28786   2.970   0.137   2.910  0.0468 -0.3244 -0.2513
 5776SOL    HW128787   2.920   0.210   2.947 -0.3801 -0.7654  0.0351
 5776SOL    HW228788   2.931   0.149   2.824 -1.1337  0.2543  0.3561
 5777SOL     OW28789   3.695   3.508   9.235  0.2324 -0.3719 -0.5438
 5777SOL    HW128790   3.615   3.528   9.186  1.9945  0.0083 -3.2682
 5777SOL    HW228791   3.668   3.531   9.323  0.4425 -2.6336  0.1201
 5778SOL     OW28792   1.197   3.659  13.782 -0.3033 -0.1304 -0.1224
 5778SOL    HW128793   1.286   3.674  13.814  0.3384 -2.2397 -0.9411
 5778SOL    HW228794   1.187   3.565  13.768 -1.6116 -0.1083  0.6540
 5779SOL     OW28795   0.768   1.268  15.162  0.3933 -0.4625 -1.0192
 5779SOL    HW128796   0.811   1.353  15.170 -0.2334 -0.3550  1.1379
 5779SOL    HW228797   0.701   1.291  15.098 -0.3561  1.0030  0.2969
 5780SOL     OW28798   4.391   4.042   4.797  0.1286  0.3240 -0.8722
 5780SOL    HW128799   4.412   4.086   4.879 -1.8434 -0.2260 -0.0744
 5780SOL    HW228800   4.412   4.119   4.744 -1.2116  1.2242 -0.0839
 5781SOL     OW28801   1.153   3.797  10.706  0.0619 -0.0953  0.0902
 5781SOL    HW128802   1.100   3.773  10.782 -0.7211 -1.7905 -0.9901
 5781SOL    HW228803   1.128   3.889  10.711  0.0107 -0.0802 -0.4376
 5782SOL     OW28804   3.922   4.159   3.721 -0.6828 -0.2281 -0.2295
 5782SOL    HW128805   4.015   4.179   3.728 -0.2502 -2.6101  0.9638
 5782SOL    HW228806   3.929   4.088   3.657 -0.4717  0.0819 -0.5481
 5783SOL     OW28807   2.090   0.534   4.096  0.3937  0.1260 -0.0403
 5783SOL    HW128808   2.053   0.461   4.145  1.9845 -0.2210  0.6179
 5783SOL    HW228809   2.168   0.492   4.062  1.2218  0.1963  1.7568
 5784SOL     OW28810   2.220   1.084   8.752 -0.0952 -0.2019  0.0484
 5784SOL    HW128811   2.211   1.137   8.832  1.2231  0.3571 -0.1845
 5784SOL    HW228812   2.267   1.135   8.687  0.8184  0.3004  1.0966
 5785SOL     OW28813   2.671   3.198   7.489  0.2863 -0.5940  0.3267
 5785SOL    HW128814   2.583   3.161   7.493 -0.9082  2.0598 -0.8838
 5785SOL    HW228815   2.658   3.293   7.495 -1.8239 -0.9318  1.2484
 5786SOL     OW28816   4.663   3.758  16.998  0.3673  0.1956 -0.3846
 5786SOL    HW128817   4.639   3.848  16.975  2.9301  0.8949 -0.3270
 5786SOL    HW228818   4.590   3.702  16.971  1.0709 -0.8462 -0.1351
 5787SOL     OW28819   1.369   1.621   4.360 -0.0869  0.2225  0.0203
 5787SOL    HW128820   1.443   1.564   4.382  0.3912  0.4593 -0.9388
 5787SOL    HW228821   1.387   1.639   4.267 -2.6915  1.3157 -0.2573
 5788SOL     OW28822   3.186   3.601  14.914 -0.0788 -0.0207  0.3139
 5788SOL    HW128823   3.262   3.545  14.926  1.1591  1.1494 -2.3160
 5788SOL    HW228824   3.144   3.582  14.999  2.0582  1.2288  1.6501
 5789SOL     OW28825   3.460   0.211   0.119 -0.1210 -0.0451 -0.5622
 5789SOL    HW128826   3.366   0.220   0.102 -0.5154 -1.7822  0.6775
 5789SOL    HW228827   3.467   0.142   0.185  2.2895  0.6875 -0.0663
 5790SOL     OW28828   3.301   2.981   7.312 -0.1374 -0.0831  0.9526
 5790SOL    HW128829   3.266   2.892   7.305  0.3290 -0.1434 -0.5514
 5790SOL    HW228830   3.304   2.987   7.407 -0.4448 -0.3194  0.9802
 5791SOL     OW28831   3.725   4.633  11.845  0.3733  0.1000 -0.7129
 5791SOL    HW128832   3.768   4.675  11.771 -1.7283 -0.2139 -2.0847
 5791SOL    HW228833   3.651   4.595  11.799  0.6112  1.1897 -1.9895
 5792SOL     OW28834   1.945   4.166   5.168  0.5057  0.2844 -0.2871
 5792SOL    HW128835   1.917   4.236   5.109  0.5910 -0.3928 -1.1223
 5792SOL    HW228836   1.984   4.111   5.100  0.3536  1.3772 -1.2655
 5793SOL     OW28837   4.474   3.068   7.606 -0.7645  0.0699  0.0474
 5793SOL    HW128838   4.563   3.046   7.578 -1.1648 -0.5366 -0.7602
 5793SOL    HW228839   4.478   3.164   7.604  1.2172  0.0340  2.8344
 5794SOL     OW28840   4.288   2.930  13.911  0.1155 -0.1581 -0.1134
 5794SOL    HW128841   4.234   3.009  13.907  1.3527  0.7290  0.9599
 5794SOL    HW228842   4.254   2.877  13.839  1.4356  0.8231 -1.4445
 5795SOL     OW28843   3.341   4.350   2.658 -0.0732  0.1484 -0.2126
 5795SOL    HW128844   3.325   4.322   2.748  3.8913 -1.4536 -0.0204
 5795SOL    HW228845   3.266   4.405   2.635 -0.9826 -0.4209  1.4187
 5796SOL     OW28846   0.004   3.395   6.079 -0.5634 -0.0595  0.2766
 5796SOL    HW128847   0.070   3.340   6.121 -0.5508 -0.5921 -0.4484
 5796SOL    HW228848   0.049   3.396   5.995 -4.4588  1.0716 -1.8157
 5797SOL     OW28849   4.022   1.521   0.756 -0.0438  0.4212  0.0119
 5797SOL    HW128850   3.951   1.502   0.696 -1.2518 -0.5030  1.7205
 5797SOL    HW228851   4.099   1.539   0.702 -0.1397  0.2349 -0.1864
 5798SOL     OW28852   0.181   4.214  16.031  0.7783 -0.2151 -0.5333
 5798SOL    HW128853   0.144   4.281  16.088  1.0587 -0.3340 -0.2111
 5798SOL    HW228854   0.112   4.200  15.966  1.1370  1.3608 -1.2535
 5799SOL     OW28855   3.253   4.524   4.172  0.1766  0.6517  0.2424
 5799SOL    HW128856   3.314   4.456   4.143 -1.6341 -0.1667 -1.6415
 5799SOL    HW228857   3.308   4.596   4.204  0.1391  0.5486  0.5451
 5800SOL     OW28858   3.326   2.804   6.628  0.0316 -0.2657  0.3468
 5800SOL    HW128859   3.404   2.753   6.649 -0.6042 -1.2543  0.3101
 5800SOL    HW228860   3.356   2.854   6.551  1.2079  0.7804  1.4890
 5801SOL     OW28861   2.133   4.614  15.061  0.6403 -0.0649 -0.4398
 5801SOL    HW128862   2.205   4.673  15.040 -0.8303  1.6825 -0.6152
 5801SOL    HW228863   2.185   4.535  15.074  1.2261  0.1697 -1.4010
 5802SOL     OW28864   0.190   2.334   2.518 -0.3153  0.0609 -0.8160
 5802SOL    HW128865   0.112   2.284   2.542  1.6373 -3.0390 -0.8261
 5802SOL    HW228866   0.161   2.424   2.527 -2.5721 -0.7645  0.1717
 5803SOL     OW28867   1.944   1.012   1.599  0.3973 -0.3871  0.4978
 5803SOL    HW128868   2.035   1.040   1.595  0.6456 -1.2187  0.3129
 5803SOL    HW228869   1.897   1.075   1.544 -1.9735 -2.7076 -0.1584
 5804SOL     OW28870   0.246   1.852   0.452  0.0567 -0.0441  0.3797
 5804SOL    HW128871   0.310   1.784   0.475 -0.7080 -0.4325  1.3993
 5804SOL    HW228872   0.170   1.818   0.501 -0.5789 -0.5149 -0.9301
 5805SOL     OW28873   4.148   4.613   3.593 -0.0154 -0.3545 -0.2348
 5805SOL    HW128874   4.087   4.549   3.555  0.6216 -0.6644 -0.7263
 5805SOL    HW228875   4.088   4.684   3.617 -0.3797 -0.6943 -0.1257
 5806SOL     OW28876   3.338   2.433   5.433 -0.1762 -0.2978 -0.2033
 5806SOL    HW128877   3.334   2.497   5.504 -2.6289 -0.4218 -0.2176
 5806SOL    HW228878   3.249   2.442   5.399 -0.4370 -0.8384  0.3304
 5807SOL     OW28879   1.309   1.768   3.460  0.2353  0.2230  0.4570
 5807SOL    HW128880   1.334   1.678   3.481  0.3612  0.1439 -0.0321
 5807SOL    HW228881   1.393   1.813   3.465 -0.9121  2.3113  1.0344
 5808SOL     OW28882   3.458   2.308  14.485  0.0155 -0.1482 -0.2129
 5808SOL    HW128883   3.474   2.385  14.431 -1.4550 -1.0377 -1.9297
 5808SOL    HW228884   3.543   2.272  14.509  0.5737  0.7300 -0.9074
 5809SOL     OW28885   4.356   0.233  10.338 -0.7422 -0.2815  0.2453
 5809SOL    HW128886   4.390   0.145  10.324  0.6485  0.3161 -0.1889
 5809SOL    HW228887   4.370   0.265  10.249 -0.2841 -1.3144 -0.0492
 5810SOL     OW28888   0.524   1.153   5.215 -0.2910  0.0759 -0.0724
 5810SOL    HW128889   0.529   1.076   5.157  1.4713 -0.9482  1.4442
 5810SOL    HW228890   0.452   1.208   5.183 -0.0157  1.2752  1.4082
 5811SOL     OW28891   2.063   4.210  14.131  0.0245  0.6400  0.0461
 5811SOL    HW128892   2.081   4.297  14.094  2.6021  0.4556  0.8523
 5811SOL    HW228893   1.979   4.223  14.175  0.7627  0.6625  1.4478
 5812SOL     OW28894   4.427   3.938   6.815  0.4013 -0.1226 -0.2986
 5812SOL    HW128895   4.376   3.996   6.758 -0.6699  1.6561  2.4986
 5812SOL    HW228896   4.383   3.955   6.898  0.4627  1.9784 -0.6925
 5813SOL     OW28897   2.636   1.179   8.095 -0.5132 -0.1323 -0.2912
 5813SOL    HW128898   2.686   1.100   8.112  0.4897  0.6191  0.2430
 5813SOL    HW228899   2.549   1.149   8.067 -0.8019 -0.0010  0.4684
 5814SOL     OW28900   0.011   0.002  13.049 -0.4307  0.1444  1.2067
 5814SOL    HW128901   0.083   0.041  13.100 -2.2109  2.3839  1.9989
 5814SOL    HW228902   0.064   4.647  13.018  2.0007  1.6763  1.6527
 5815SOL     OW28903   2.595   3.748   0.493 -0.4161  0.1844  0.2300
 5815SOL    HW128904   2.688   3.765   0.482 -0.5232  0.2390 -0.5845
 5815SOL    HW228905   2.552   3.834   0.503  0.8886  0.9591 -0.8393
 5816SOL     OW28906   3.219   0.202   2.863  0.4114  0.2061  0.1508
 5816SOL    HW128907   3.191   0.283   2.821 -3.7925 -0.8370  0.9644
 5816SOL    HW228908   3.133   0.159   2.868 -0.2831  1.6919  0.7390
 5817SOL     OW28909   4.264   2.428   6.631 -0.2712  0.3895  0.1275
 5817SOL    HW128910   4.272   2.420   6.726 -1.4312  1.1359  0.2894
 5817SOL    HW228911   4.356   2.420   6.604  0.3833  2.2115  1.8067
 5818SOL     OW28912   3.979   3.189  14.003  0.3901 -0.3721  0.1148
 5818SOL    HW128913   3.956   3.096  14.005  2.1946 -0.8380 -0.6316
 5818SOL    HW228914   3.908   3.228  14.053 -0.5712 -1.8431 -0.1121
 5819SOL     OW28915   4.438   0.734  11.017  0.3332  0.0968 -0.0592
 5819SOL    HW128916   4.424   0.639  11.015 -0.6869  0.2530 -0.2165
 5819SOL    HW228917   4.427   0.761  10.926  1.4397  2.2597  0.4604
 5820SOL     OW28918   1.417   4.671  13.675  0.0620  0.0146 -0.2267
 5820SOL    HW128919   1.330   4.704  13.698  0.3201  0.7314 -0.2854
 5820SOL    HW228920   1.469   0.031  13.672  3.3079 -2.0942  0.5268
 5821SOL     OW28921   3.180   0.345  10.017 -0.4441 -0.2007 -0.5009
 5821SOL    HW128922   3.173   0.383  10.104  0.0639  1.9968 -1.4114
 5821SOL    HW228923   3.156   0.424   9.969 -3.5023 -2.1470 -2.1579
 5822SOL     OW28924   0.518   0.384   7.729  1.0852 -0.2940 -0.3294
 5822SOL    HW128925   0.463   0.404   7.653  1.8277  1.7494 -0.3365
 5822SOL    HW228926   0.603   0.428   7.717  1.0575 -0.6162 -1.7279
 5823SOL     OW28927   4.538   3.667   0.968  0.2803  0.0892 -0.3754
 5823SOL    HW128928   4.631   3.684   0.953  0.4221 -1.1124 -0.8074
 5823SOL    HW228929   4.508   3.758   0.975 -1.0778 -0.3044 -1.1344
 5824SOL     OW28930   0.375   2.913  17.665 -0.2676  0.6926 -0.4313
 5824SOL    HW128931   0.400   2.909  17.572 -1.0100  4.2826 -0.7860
 5824SOL    HW228932   0.281   2.903  17.655 -0.2506  0.7211 -0.6385
 5825SOL     OW28933   2.592   2.084   4.302 -0.0876 -0.3125 -0.2397
 5825SOL    HW128934   2.522   2.095   4.366  1.9025  1.2829  1.6652
 5825SOL    HW228935   2.647   2.022   4.349 -0.5852 -1.1081 -0.7006
 5826SOL     OW28936   0.140   0.241   7.576 -0.4682  0.3356 -0.0151
 5826SOL    HW128937   0.166   0.225   7.667  0.4574 -0.3087 -0.3960
 5826SOL    HW228938   0.133   0.150   7.548  3.7285 -0.4694  1.5866
 5827SOL     OW28939   3.135   3.158   9.370 -0.3680  0.0959  0.1466
 5827SOL    HW128940   3.122   3.085   9.431  1.1898 -0.3613 -0.0498
 5827SOL    HW228941   3.230   3.170   9.359 -0.4936  0.3474 -0.6202
 5828SOL     OW28942   4.237   1.826  10.428  0.0769 -0.2808  0.5473
 5828SOL    HW128943   4.205   1.888  10.363  1.0935 -0.0717  0.2550
 5828SOL    HW228944   4.155   1.780  10.448 -1.2812  2.0284  0.2477
 5829SOL     OW28945   1.108   1.178   2.060 -0.2119 -0.1774  0.2180
 5829SOL    HW128946   1.125   1.167   2.154  0.1247  4.8307  0.7522
 5829SOL    HW228947   1.191   1.222   2.038 -0.2543 -1.3598 -2.3164
 5830SOL     OW28948   2.461   0.555   4.852 -0.0769  0.1706  0.2250
 5830SOL    HW128949   2.479   0.479   4.908 -0.5575  0.0318  0.1974
 5830SOL    HW228950   2.538   0.606   4.874 -0.9458  1.0330  1.2727
 5831SOL     OW28951   4.078   2.272  11.030 -0.0350  0.2628  0.5333
 5831SOL    HW128952   4.016   2.218  11.079  2.3614 -2.3576  0.6341
 5831SOL    HW228953   4.151   2.285  11.091  0.0184  1.5455  0.2031
 5832SOL     OW28954   1.831   1.330  13.372 -0.7240 -0.3028  0.0488
 5832SOL    HW128955   1.833   1.309  13.465  1.9369 -1.1010 -0.1773
 5832SOL    HW228956   1.917   1.304  13.338 -0.9597  1.0675 -1.6128
 5833SOL     OW28957   3.684   0.480   8.131  0.7548 -0.0720  0.0857
 5833SOL    HW128958   3.624   0.550   8.158 -0.7455 -0.6980 -1.5829
 5833SOL    HW228959   3.638   0.409   8.085  1.4970 -0.5969  0.1603
 5834SOL     OW28960   0.533   1.808  12.880 -0.1477 -0.0052 -0.2353
 5834SOL    HW128961   0.475   1.874  12.843 -1.8203  0.1779  2.7027
 5834SOL    HW228962   0.593   1.869  12.922 -2.0566  1.7979 -0.0795
 5835SOL     OW28963   3.400   0.199  14.629 -0.1984 -0.0673 -0.2140
 5835SOL    HW128964   3.456   0.198  14.551 -0.6441  2.1757 -0.5710
 5835SOL    HW228965   3.393   0.104  14.640 -1.1550  0.0252 -0.0491
 5836SOL     OW28966   1.618   3.068   2.660  0.1965  0.0550 -0.0260
 5836SOL    HW128967   1.562   3.100   2.589 -0.4630  2.5778  1.6119
 5836SOL    HW228968   1.547   3.095   2.718  0.9183 -0.5548  1.1543
 5837SOL     OW28969   0.900   2.469   2.283 -0.2457  0.1916  0.4744
 5837SOL    HW128970   0.967   2.531   2.253  0.0217 -0.7145 -0.7900
 5837SOL    HW228971   0.860   2.521   2.353  2.8765  1.8427  1.0292
 5838SOL     OW28972   1.514   1.511  16.658 -1.0557 -0.1652  0.3426
 5838SOL    HW128973   1.463   1.430  16.665 -0.6591 -0.4261  0.2040
 5838SOL    HW228974   1.446   1.578  16.658 -0.4264  0.4690 -2.1794
 5839SOL     OW28975   0.337   2.862  15.855 -0.3253  0.2980  0.4826
 5839SOL    HW128976   0.346   2.938  15.797 -1.3237 -0.5573 -0.7984
 5839SOL    HW228977   0.259   2.874  15.909 -1.0611  3.0755 -1.1811
 5840SOL     OW28978   3.991   2.212   7.827  0.0290 -0.0900  0.1721
 5840SOL    HW128979   4.033   2.238   7.745 -2.5248 -5.0347 -2.6950
 5840SOL    HW228980   3.905   2.249   7.806  1.1392  2.6546  0.4205
 5841SOL     OW28981   1.617   2.173   0.100  0.2988 -0.7079 -0.3758
 5841SOL    HW128982   1.697   2.177   0.047  1.0000 -0.9758  0.6687
 5841SOL    HW228983   1.655   2.128   0.175 -0.5067 -0.6131  0.0889
 5842SOL     OW28984   4.487   0.041   3.579  0.0040  0.3454  0.8266
 5842SOL    HW128985   4.491   0.076   3.490 -2.1106  1.0428  0.9905
 5842SOL    HW228986   4.525   0.110   3.632 -1.8232  0.6492  1.7604
 5843SOL     OW28987   0.773   0.193   4.728  0.2917 -0.3431 -0.0178
 5843SOL    HW128988   0.708   0.211   4.797 -1.2694 -0.1146 -1.5617
 5843SOL    HW228989   0.827   0.123   4.764 -2.5317 -2.4395  0.1196
 5844SOL     OW28990   0.124   4.287   9.419 -0.8662  0.3335 -0.4530
 5844SOL    HW128991   0.045   4.249   9.456  0.3619 -1.6063  0.2182
 5844SOL    HW228992   0.114   4.270   9.326  0.4424 -2.2334 -0.1327
 5845SOL     OW28993   1.165   1.753   6.510 -0.1535 -0.0030 -0.3598
 5845SOL    HW128994   1.190   1.713   6.427 -2.3992  0.4173 -1.2384
 5845SOL    HW228995   1.227   1.825   6.518 -0.8885  0.5471  0.3733
 5846SOL     OW28996   2.558   1.668   2.982  0.3036 -0.7028 -0.0880
 5846SOL    HW128997   2.466   1.695   2.983  0.0394 -1.5561 -1.0816
 5846SOL    HW228998   2.533   1.589   3.031  1.3925 -1.6449 -1.0565
 5847SOL     OW28999   0.604   0.856  16.872  0.1002 -0.5007 -0.2078
 5847SOL    HW129000   0.517   0.847  16.832  0.6309 -1.1500 -1.1911
 5847SOL    HW229001   0.619   0.947  16.847 -2.8648 -0.0910 -0.5537
 5848SOL     OW29002   1.426   3.695   8.009  0.0611 -0.4815  0.2512
 5848SOL    HW129003   1.477   3.654   7.939  0.3889  0.0286  0.1888
 5848SOL    HW229004   1.350   3.701   7.951  1.0686 -1.4839 -1.1625
 5849SOL     OW29005   3.344   4.600   2.267 -0.9684 -0.3360  0.0018
 5849SOL    HW129006   3.438   4.612   2.257 -1.5850  2.5768 -2.2008
 5849SOL    HW229007   3.344   4.514   2.310 -0.5635 -0.2231  0.2335
 5850SOL     OW29008   2.793   1.336   1.202 -0.1142 -0.3324 -0.5615
 5850SOL    HW129009   2.710   1.288   1.211 -0.6951  0.7795  0.0207
 5850SOL    HW229010   2.791   1.392   1.124 -0.3004  1.6879  0.8921
 5851SOL     OW29011   3.995   1.018  13.589  0.1458 -0.4050  0.0773
 5851SOL    HW129012   4.078   0.972  13.603 -0.1490 -0.9950 -0.0916
 5851SOL    HW229013   3.960   1.009  13.678 -0.7845 -0.1827 -0.2711
 5852SOL     OW29014   4.456   2.935   1.149 -0.5165  0.2063 -0.1841
 5852SOL    HW129015   4.508   3.004   1.190 -0.8651  0.4344 -0.1242
 5852SOL    HW229016   4.408   2.894   1.221 -0.0985 -0.7347 -0.4376
 5853SOL     OW29017   0.118   1.365   4.405 -0.3725  0.0922 -0.0583
 5853SOL    HW129018   0.055   1.386   4.473  0.0783  1.6049 -0.1086
 5853SOL    HW229019   0.093   1.275   4.385 -1.4055 -0.0533  1.9582
 5854SOL     OW29020   1.463   1.425  17.371  0.3238 -0.6144 -0.0948
 5854SOL    HW129021   1.430   1.345  17.411  0.6529 -0.3995  0.5989
 5854SOL    HW229022   1.541   1.386  17.331  1.4867 -1.6910  3.2160
 5855SOL     OW29023   1.249   2.147   2.337 -0.8215 -0.4893 -0.2628
 5855SOL    HW129024   1.278   2.066   2.294  2.1015  0.2299  0.4006
 5855SOL    HW229025   1.154   2.132   2.334 -0.5716 -2.5273  1.4234
 5856SOL     OW29026   0.120   0.203   1.498 -0.0336 -0.3584 -0.7870
 5856SOL    HW129027   0.171   0.266   1.548 -1.8635 -1.1342  2.1120
 5856SOL    HW229028   0.035   0.220   1.538  0.9254 -0.5610  1.3333
 5857SOL     OW29029   1.131   4.110   7.779  0.6000 -0.3444 -0.1508
 5857SOL    HW129030   1.191   4.163   7.726 -0.3223  1.0567  0.1970
 5857SOL    HW229031   1.075   4.179   7.815  0.9941 -1.0148  1.7335
 5858SOL     OW29032   0.553   3.514   1.976  0.3776  0.4055 -0.3049
 5858SOL    HW129033   0.513   3.427   1.979 -1.2426  1.1146 -1.2743
 5858SOL    HW229034   0.478   3.563   2.008 -0.7883 -0.8550 -1.1004
 5859SOL     OW29035   3.337   3.363  13.098  0.4980 -0.0140 -0.2798
 5859SOL    HW129036   3.310   3.399  13.182  1.3440  1.1404 -0.5092
 5859SOL    HW229037   3.253   3.348  13.055 -0.1894 -0.4302  1.2111
 5860SOL     OW29038   2.588   4.084   8.962 -0.1023  0.2303 -0.2777
 5860SOL    HW129039   2.580   4.077   8.866 -0.2612  0.9327 -0.3143
 5860SOL    HW229040   2.621   3.995   8.975 -2.1093 -0.3601  0.7765
 5861SOL     OW29041   3.388   3.772  16.851  0.0004  0.7364 -0.0072
 5861SOL    HW129042   3.423   3.700  16.903 -0.2407 -0.3689 -1.3646
 5861SOL    HW229043   3.301   3.782  16.889  0.9144  1.2469  1.9155
 5862SOL     OW29044   2.666   4.661  10.579  0.1691  0.2152 -0.1850
 5862SOL    HW129045   2.653   4.665  10.484 -0.2130  2.5330 -0.0415
 5862SOL    HW229046   2.758   4.637  10.588  0.5527  1.4212 -0.8684
 5863SOL     OW29047   2.784   3.444   1.310 -0.5204 -0.4295  0.0971
 5863SOL    HW129048   2.690   3.457   1.309 -0.7358 -2.0238 -0.5662
 5863SOL    HW229049   2.789   3.358   1.351  2.2862 -0.6864 -0.7777
 5864SOL     OW29050   0.822   2.871   7.722  0.7855 -0.2957  0.0193
 5864SOL    HW129051   0.885   2.809   7.758  0.8038  0.8199  1.9244
 5864SOL    HW229052   0.872   2.909   7.650 -0.8925  0.0540 -0.9700
 5865SOL     OW29053   1.920   0.643   4.683  0.1600  0.5190 -0.0988
 5865SOL    HW129054   1.858   0.711   4.656  0.8124  0.3767 -1.9170
 5865SOL    HW229055   1.995   0.699   4.702  1.8037 -1.7575  0.0221
 5866SOL     OW29056   3.149   2.690   4.535  0.1103  0.2160  0.1242
 5866SOL    HW129057   3.108   2.626   4.593  0.3458  2.1649  2.4683
 5866SOL    HW229058   3.165   2.766   4.592 -2.0870  0.9985 -0.3059
 5867SOL     OW29059   4.399   3.324   8.865 -0.2221  0.2075 -0.2128
 5867SOL    HW129060   4.399   3.398   8.927 -0.3868 -0.4196  0.5371
 5867SOL    HW229061   4.433   3.364   8.785  0.1977 -1.0259 -0.6488
 5868SOL     OW29062   2.037   2.519  17.205  0.7785 -0.1088 -0.3783
 5868SOL    HW129063   2.036   2.424  17.197  0.3692 -0.1059 -0.3624
 5868SOL    HW229064   2.020   2.537  17.298 -0.0443  0.8848 -0.7122
 5869SOL     OW29065   1.191   0.955   1.816  0.2819  0.1227  0.5495
 5869SOL    HW129066   1.111   0.902   1.820  1.6463 -1.9887 -0.3916
 5869SOL    HW229067   1.224   0.927   1.902 -0.7319 -1.4834  0.4396
 5870SOL     OW29068   3.718   1.053   8.895  0.1210  0.2225  0.1990
 5870SOL    HW129069   3.666   1.133   8.896  2.3274  1.6239  1.6801
 5870SOL    HW229070   3.745   1.044   8.804  2.4939 -3.2301  1.2089
 5871SOL     OW29071   1.863   0.023   8.993 -0.0526 -0.1255  0.3690
 5871SOL    HW129072   1.928   0.028   9.064 -0.7044  0.4791  0.9198
 5871SOL    HW229073   1.885   4.656   8.957  0.0908  0.6646 -1.4428
 5872SOL     OW29074   4.336   2.574   2.974 -0.6946 -0.2793 -0.5614
 5872SOL    HW129075   4.399   2.612   2.912 -0.3537  3.2119  1.9482
 5872SOL    HW229076   4.361   2.481   2.971 -1.3420 -0.5581  2.8571
 5873SOL     OW29077   1.655   4.698   4.993  0.4794 -0.0935 -0.0390
 5873SOL    HW129078   1.628   4.619   4.947  2.5121 -0.2385 -1.0010
 5873SOL    HW229079   1.571   0.023   5.009 -0.5354 -1.7982 -0.6964
 5874SOL     OW29080   0.971   4.423   8.213  0.1642  0.6660  0.1952
 5874SOL    HW129081   0.982   4.471   8.295 -1.2979 -0.9135  1.3248
 5874SOL    HW229082   0.882   4.392   8.228  0.2535 -0.8568 -2.4251
 5875SOL     OW29083   0.906   1.702   0.463  0.1647 -0.6032  0.2137
 5875SOL    HW129084   0.899   1.741   0.550  0.6337  1.1153 -0.5143
 5875SOL    HW229085   0.839   1.742   0.408  1.0805  0.6698  0.0157
 5876SOL     OW29086   1.015   0.920   2.380 -0.1437  0.2908  0.0530
 5876SOL    HW129087   1.079   0.984   2.349  0.3646 -0.6594 -0.8653
 5876SOL    HW229088   1.071   0.858   2.427 -2.7186 -0.6546  1.8527
 5877SOL     OW29089   1.330   3.669   6.669 -0.6077 -0.0910  0.3634
 5877SOL    HW129090   1.414   3.640   6.634 -1.1401 -0.9359 -0.2204
 5877SOL    HW229091   1.279   3.683   6.589 -0.0450 -0.9910 -0.1463
 5878SOL     OW29092   0.043   2.627   8.023 -0.6979  0.0852 -0.4152
 5878SOL    HW129093   0.126   2.597   8.061 -0.7423  1.1894  0.5294
 5878SOL    HW229094   0.054   2.715   8.058  0.7846 -0.0588 -0.4898
 5879SOL     OW29095   1.240   2.759   5.588  0.0249  0.0488  0.9678
 5879SOL    HW129096   1.211   2.736   5.500 -0.6420  0.9097  0.9543
 5879SOL    HW229097   1.320   2.707   5.594  1.6598  2.3727 -0.5200
 5880SOL     OW29098   1.104   1.126  15.280  0.1260  0.2761 -0.5734
 5880SOL    HW129099   1.032   1.063  15.289 -0.0575  0.3524 -1.5490
 5880SOL    HW229100   1.074   1.185  15.349  1.3733 -1.9038  1.8456
 5881SOL     OW29101   2.047   2.612   7.791 -0.0295  0.1504  0.5443
 5881SOL    HW129102   1.994   2.596   7.713 -0.1500 -1.9363  1.0616
 5881SOL    HW229103   2.089   2.696   7.769 -1.9299  1.4420  1.8906
 5882SOL     OW29104   0.861   4.666   6.315  0.6991 -0.6099 -0.0275
 5882SOL    HW129105   0.791   4.682   6.378  1.0048 -0.6926  0.3340
 5882SOL    HW229106   0.804   4.653   6.239 -0.8695  1.0505  0.8692
 5883SOL     OW29107   2.372   2.078   2.940  0.1067  0.0959 -0.1800
 5883SOL    HW129108   2.419   2.159   2.922 -2.3382  1.2344 -1.4222
 5883SOL    HW229109   2.365   2.036   2.854  0.4179  2.1784 -1.2137
 5884SOL     OW29110   0.383   4.369   5.555 -0.1142 -0.2817 -0.0218
 5884SOL    HW129111   0.450   4.435   5.538 -1.0732  0.6613 -0.1983
 5884SOL    HW229112   0.322   4.419   5.610 -1.4808  1.8554 -3.4644
 5885SOL     OW29113   0.763   3.387   6.393 -0.1812 -0.6134  0.5048
 5885SOL    HW129114   0.858   3.400   6.398  0.1796 -3.3246  0.7842
 5885SOL    HW229115   0.754   3.393   6.298  0.4662 -1.1098  0.4147
 5886SOL     OW29116   1.816   0.852   1.321  0.2478  0.4106  0.1358
 5886SOL    HW129117   1.758   0.908   1.373 -2.3813 -1.6155 -0.6047
 5886SOL    HW229118   1.768   0.838   1.239  0.7342  0.2512 -0.1206
 5887SOL     OW29119   2.706   2.160   8.189 -0.0752 -0.0356 -0.2239
 5887SOL    HW129120   2.735   2.134   8.277 -2.8187  0.5263  0.8368
 5887SOL    HW229121   2.616   2.127   8.195  0.5217 -1.7869 -0.7856
 5888SOL     OW29122   3.267   1.624   2.613  0.7746 -0.6718 -0.0440
 5888SOL    HW129123   3.319   1.581   2.680 -0.9921 -2.1555  0.3792
 5888SOL    HW229124   3.187   1.572   2.610 -0.4155  1.1938 -0.6159
 5889SOL     OW29125   3.029   3.506  13.055 -0.1578  0.4898  0.2327
 5889SOL    HW129126   3.010   3.487  12.963 -1.2832 -1.6630  0.9188
 5889SOL    HW229127   3.007   3.420  13.089  1.3890  0.8651  2.2210
 5890SOL     OW29128   1.839   4.178   8.522 -0.3615  0.0771 -0.2458
 5890SOL    HW129129   1.760   4.171   8.467 -0.6172  0.4216  0.0748
 5890SOL    HW229130   1.816   4.255   8.574 -2.4846  0.1091 -1.1900
 5891SOL     OW29131   1.665   2.223   6.994 -0.2549  0.4471  0.1638
 5891SOL    HW129132   1.723   2.147   7.003  0.3640  0.7845 -0.9032
 5891SOL    HW229133   1.589   2.196   7.044 -0.4657  1.1681  0.2224
 5892SOL     OW29134   2.258   1.506   7.526 -0.9009 -0.2937  0.2351
 5892SOL    HW129135   2.312   1.585   7.534 -0.1884 -0.8715  1.1070
 5892SOL    HW229136   2.245   1.472   7.615  0.5342 -0.2536  0.4589
 5893SOL     OW29137   2.266   2.724   2.226  0.4044  0.3248 -0.1886
 5893SOL    HW129138   2.303   2.696   2.309  0.1705  1.5401  0.3339
 5893SOL    HW229139   2.212   2.649   2.203 -0.5599  0.5316  1.3808
 5894SOL     OW29140   1.346   3.864  17.300 -0.0980  0.1380  0.3268
 5894SOL    HW129141   1.431   3.883  17.340  0.0992 -0.3815  0.1598
 5894SOL    HW229142   1.370   3.777  17.268  0.0208  0.1807  0.3015
 5895SOL     OW29143   0.051   1.132   5.639  0.8001 -0.1340  0.0897
 5895SOL    HW129144   0.054   1.142   5.734 -0.7845 -3.7451  0.5191
 5895SOL    HW229145   0.141   1.111   5.616  0.0688 -2.2349 -0.8840
 5896SOL     OW29146   0.724   2.058   6.102  0.3495 -0.3163 -0.0982
 5896SOL    HW129147   0.669   1.981   6.119 -0.5831  0.4952  0.4920
 5896SOL    HW229148   0.666   2.132   6.119 -1.2646 -1.5239 -0.2992
 5897SOL     OW29149   4.275   1.011   7.519  0.0971  0.1196  0.2859
 5897SOL    HW129150   4.296   1.034   7.610 -1.0819 -1.4694  0.9483
 5897SOL    HW229151   4.240   1.096   7.491  1.8534  0.3130 -1.3310
 5898SOL     OW29152   1.009   0.138   0.501  0.0899  0.2411  0.0262
 5898SOL    HW129153   0.994   0.155   0.594 -0.6877  0.9135 -0.2204
 5898SOL    HW229154   1.045   0.224   0.476 -0.8830  0.4008 -0.8365
 5899SOL     OW29155   3.609   1.075   0.120 -0.4936 -0.3793  0.1197
 5899SOL    HW129156   3.575   1.139   0.182  0.1280 -3.3070  3.5174
 5899SOL    HW229157   3.538   1.080   0.055 -1.6319  3.2410  1.6639
 5900SOL     OW29158   2.056   0.138   4.939  0.0714 -0.5091  0.1972
 5900SOL    HW129159   1.989   0.093   4.991 -2.0122  1.8230 -0.4842
 5900SOL    HW229160   2.102   0.064   4.898  0.5583  0.1487 -0.4478
 5901SOL     OW29161   1.401   1.913   4.205  0.0434  0.1492  0.1146
 5901SOL    HW129162   1.345   1.913   4.127  0.8202  0.6212 -0.4411
 5901SOL    HW229163   1.344   1.893   4.279 -0.5766  3.5161  0.5182
 5902SOL     OW29164   4.227   0.426  11.824 -0.3668  0.8298 -0.3858
 5902SOL    HW129165   4.280   0.352  11.855 -0.5561  0.2772 -1.3976
 5902SOL    HW229166   4.142   0.386  11.806 -0.4417  0.4575  0.8011
 5903SOL     OW29167   2.610   4.296   9.572 -0.1908  0.1546 -0.0154
 5903SOL    HW129168   2.661   4.332   9.644 -1.0180 -0.0623  0.6849
 5903SOL    HW229169   2.577   4.216   9.613  0.1892 -0.5031 -0.9830
 5904SOL     OW29170   4.362   1.794   1.961 -0.3002 -0.0042  0.1796
 5904SOL    HW129171   4.455   1.815   1.971 -0.2785 -0.8421  1.6807
 5904SOL    HW229172   4.357   1.723   2.025  1.5339 -1.5709 -1.4011
 5905SOL     OW29173   1.189   1.109   2.310 -0.6663  0.7362 -0.3254
 5905SOL    HW129174   1.280   1.079   2.310 -0.6534  0.7886 -1.1382
 5905SOL    HW229175   1.192   1.168   2.385  0.9482  1.3304 -0.8681
 5906SOL     OW29176   3.244   1.884  16.898  0.4182  0.0341 -0.6799
 5906SOL    HW129177   3.316   1.917  16.844 -0.5970  0.8735 -1.5241
 5906SOL    HW229178   3.197   1.965  16.917 -0.7298 -0.7859 -0.0026
 5907SOL     OW29179   4.088   2.462   2.610  0.1953 -0.2738  0.5837
 5907SOL    HW129180   4.169   2.416   2.589  0.3865  0.2832  0.0861
 5907SOL    HW229181   4.050   2.443   2.525  0.8684  0.5683  0.0929
 5908SOL     OW29182   1.597   3.989   7.139  0.2305  0.1834 -0.6356
 5908SOL    HW129183   1.626   3.999   7.048  0.4267  2.2748 -0.3394
 5908SOL    HW229184   1.507   4.013   7.118  0.8715  2.2528 -1.0785
 5909SOL     OW29185   2.166   0.766   2.301 -0.7405 -0.0364  0.5716
 5909SOL    HW129186   2.161   0.707   2.225  1.0478 -0.2784  0.6322
 5909SOL    HW229187   2.177   0.694   2.363 -0.8749  0.9055  1.6820
 5910SOL     OW29188   1.691   0.316  17.472 -0.3114 -0.8715  0.6307
 5910SOL    HW129189   1.630   0.293  17.402 -0.8592  0.9492  0.5120
 5910SOL    HW229190   1.634   0.369  17.529 -0.4834 -3.9119  3.2878
 5911SOL     OW29191   0.045   1.469   7.280 -0.0961  0.3658  0.0591
 5911SOL    HW129192   4.713   1.454   7.359 -0.5366 -0.5020 -0.4029
 5911SOL    HW229193   0.078   1.380   7.270  0.6707  0.7325 -0.7049
 5912SOL     OW29194   0.639   0.638  11.831 -0.1592 -0.4728  0.1020
 5912SOL    HW129195   0.640   0.542  11.838 -1.8363 -0.3919  1.2588
 5912SOL    HW229196   0.622   0.667  11.920  2.9153  1.2082  0.1407
 5913SOL     OW29197   2.406   4.447  10.629  0.4812 -0.7700  0.1727
 5913SOL    HW129198   2.474   4.503  10.666 -0.0855  0.6536 -0.9171
 5913SOL    HW229199   2.345   4.452  10.702 -2.8719 -0.1468 -2.6413
 5914SOL     OW29200   0.333   0.502   7.955 -0.1263 -0.0499 -0.2352
 5914SOL    HW129201   0.428   0.511   7.951 -0.1804  0.5063 -0.3212
 5914SOL    HW229202   0.315   0.519   7.862 -3.1266 -1.0031  0.1564
 5915SOL     OW29203   1.597   3.676   8.234  0.0934 -0.5925 -0.2170
 5915SOL    HW129204   1.601   3.762   8.274  0.0064 -0.1543 -1.1517
 5915SOL    HW229205   1.530   3.686   8.167 -0.1218  3.4232  0.6479
 5916SOL     OW29206   0.630   0.370   5.704  0.5617 -0.0443 -0.3555
 5916SOL    HW129207   0.653   0.462   5.712  1.8843 -0.4858  0.8879
 5916SOL    HW229208   0.656   0.347   5.615  1.3281  0.5354 -0.2801
 5917SOL     OW29209   1.784   0.102   3.585 -0.6532 -0.4509 -0.1825
 5917SOL    HW129210   1.764   0.010   3.567  2.1121 -0.8935 -0.9978
 5917SOL    HW229211   1.798   0.128   3.494 -0.7713 -1.5835 -0.5334
 5918SOL     OW29212   4.367   1.321   8.021  0.0844 -0.4821 -0.4677
 5918SOL    HW129213   4.443   1.371   7.989 -1.5976  1.7566 -0.9779
 5918SOL    HW229214   4.313   1.383   8.070  0.5969 -0.4831  0.1030
 5919SOL     OW29215   2.056   0.301  13.037 -0.3627  0.0168 -0.0141
 5919SOL    HW129216   2.019   0.310  12.949 -0.5097 -0.4098  0.0023
 5919SOL    HW229217   2.066   0.206  13.040 -3.2867 -0.2813  0.3527
 5920SOL     OW29218   3.955   2.007   9.799  0.0770 -0.0702 -0.6729
 5920SOL    HW129219   3.862   2.000   9.777 -0.4207  0.0417  1.4143
 5920SOL    HW229220   3.972   2.098   9.776 -0.1933 -0.2509 -1.5888
 5921SOL     OW29221   2.976   0.992   3.252  0.5408 -0.2373  0.2789
 5921SOL    HW129222   2.912   0.927   3.225  0.7957 -0.2936 -0.1914
 5921SOL    HW229223   3.055   0.946   3.224 -1.0013 -2.8021  0.1594
 5922SOL     OW29224   1.603   0.328   4.733  0.3014 -0.3541 -0.4696
 5922SOL    HW129225   1.514   0.304   4.756  0.0865  1.3625  0.5197
 5922SOL    HW229226   1.645   0.243   4.724 -0.1382 -0.6452  0.2381
 5923SOL     OW29227   1.422   3.859   4.390  0.0073  0.2558 -0.4256
 5923SOL    HW129228   1.473   3.802   4.446 -2.0217  0.7370  1.9363
 5923SOL    HW229229   1.456   3.946   4.412 -0.1652  0.8188 -2.3229
 5924SOL     OW29230   1.923   0.442  17.364  0.2664 -0.3820  0.8319
 5924SOL    HW129231   1.910   0.528  17.404  0.3086  0.4430 -0.9373
 5924SOL    HW229232   1.846   0.403  17.405 -0.1717 -0.5067 -0.1083
 5925SOL     OW29233   2.039   3.859   5.760 -0.0113  0.3863  0.5816
 5925SOL    HW129234   2.130   3.887   5.774 -0.2045  1.5604 -0.4443
 5925SOL    HW229235   2.010   3.946   5.733  0.9077 -0.3327 -2.7269
 5926SOL     OW29236   3.129   2.486   1.467 -0.3521 -0.6331 -0.0292
 5926SOL    HW129237   3.108   2.395   1.489 -0.5048 -0.9145 -1.3531
 5926SOL    HW229238   3.104   2.522   1.553  0.8986  0.9982 -0.3369
 5927SOL     OW29239   0.175   0.458  14.112  0.0924 -0.0938 -0.0437
 5927SOL    HW129240   0.263   0.430  14.084  0.1034  1.4771 -1.5555
 5927SOL    HW229241   0.183   0.549  14.084 -0.6301  0.0066  0.0951
 5928SOL     OW29242   2.995   3.900   3.862 -0.6154  0.2948 -0.1796
 5928SOL    HW129243   3.081   3.908   3.903 -0.2866 -4.4508  0.0112
 5928SOL    HW229244   3.019   3.828   3.804 -1.1624  0.3896 -0.5262
 5929SOL     OW29245   1.755   1.204  14.889 -0.5915 -0.0330  0.0085
 5929SOL    HW129246   1.726   1.171  14.974  0.4912  0.7951  0.7017
 5929SOL    HW229247   1.673   1.251  14.871 -3.1782 -4.4548  0.2715
 5930SOL     OW29248   0.319   2.343   0.722  0.3620  1.0120  0.2949
 5930SOL    HW129249   0.410   2.372   0.722  1.0202 -1.0024 -0.5281
 5930SOL    HW229250   0.325   2.253   0.755  0.1667  0.4652 -1.1786
 5931SOL     OW29251   4.391   0.831   3.820  0.1986  0.2145 -0.5106
 5931SOL    HW129252   4.363   0.920   3.801  2.1031  1.1093  0.8664
 5931SOL    HW229253   4.316   0.772   3.820  0.3280  0.0498 -0.8771
 5932SOL     OW29254   4.681   1.499  12.820 -0.2756 -0.3371  0.1249
 5932SOL    HW129255   4.715   1.414  12.792  0.9538 -0.6396  2.5525
 5932SOL    HW229256   4.667   1.540  12.735 -0.4787 -1.1484 -0.2390
 5933SOL     OW29257   3.682   0.158   4.940 -0.7273 -0.0920  0.2281
 5933SOL    HW129258   3.610   0.204   4.898 -1.8803 -0.9720  1.2513
 5933SOL    HW229259   3.749   0.225   4.957  2.3573 -2.6649 -1.7274
 5934SOL     OW29260   1.650   1.795  16.423 -0.5081 -0.5035  0.2207
 5934SOL    HW129261   1.711   1.738  16.375 -0.8526 -2.0214  1.5785
 5934SOL    HW229262   1.565   1.772  16.387 -1.2138  2.2354  0.1505
 5935SOL     OW29263   1.523   4.390   8.940  0.0916 -0.5857  0.1816
 5935SOL    HW129264   1.542   4.472   8.893  0.4320 -0.2639  0.8808
 5935SOL    HW229265   1.585   4.399   9.012  2.1408  0.5617 -1.7277
 5936SOL     OW29266   2.117   2.214   2.996  0.3335 -0.4777  0.2256
 5936SOL    HW129267   2.112   2.242   2.905 -0.5177  0.4343  0.5598
 5936SOL    HW229268   2.185   2.147   2.985 -0.7276 -1.8160  1.8515
 5937SOL     OW29269   1.406   0.186   9.815  0.3121 -0.1987 -0.1274
 5937SOL    HW129270   1.351   0.263   9.805 -3.1591 -2.6288  0.4892
 5937SOL    HW229271   1.360   0.144   9.888  4.6545 -1.9002  1.6621
 5938SOL     OW29272   0.919   4.259   7.874  0.0518  0.7162  0.0886
 5938SOL    HW129273   0.839   4.220   7.839  1.5584 -0.4441 -2.0590
 5938SOL    HW229274   0.909   4.354   7.868 -0.0701  0.6311 -1.0511
 5939SOL     OW29275   3.682   1.413   6.150 -0.2821  0.1616  0.0964
 5939SOL    HW129276   3.703   1.470   6.076 -0.8094  0.6239  0.3059
 5939SOL    HW229277   3.725   1.334   6.115  2.0691  1.6473 -0.3599
 5940SOL     OW29278   4.140   1.987   3.943  0.4438 -0.0073 -0.0018
 5940SOL    HW129279   4.108   1.906   3.982  0.1054  0.6510  1.0739
 5940SOL    HW229280   4.081   2.048   3.989  0.0594 -0.3182 -0.0828
 5941SOL     OW29281   3.086   0.840   4.358 -0.4299 -0.2877  0.1986
 5941SOL    HW129282   3.027   0.911   4.337 -0.3174  0.2167  1.6221
 5941SOL    HW229283   3.085   0.793   4.274  1.6138  2.0775 -1.1468
 5942SOL     OW29284   0.647   0.071  10.989  0.1450 -0.5927  0.9229
 5942SOL    HW129285   0.649   0.064  11.085  0.0242 -2.2014  0.8153
 5942SOL    HW229286   0.624   4.702  10.959  1.0671 -0.9366  1.2251
 5943SOL     OW29287   0.571   2.940  14.199 -0.2092  0.1476 -0.0424
 5943SOL    HW129288   0.646   2.884  14.181  1.0890  2.5218 -2.1540
 5943SOL    HW229289   0.515   2.926  14.122  1.7719  0.8363 -1.6319
 5944SOL     OW29290   4.701   3.373   7.576 -0.2408  0.4031 -0.2247
 5944SOL    HW129291   4.609   3.384   7.553 -0.1933 -1.4768 -1.3429
 5944SOL    HW229292   0.032   3.342   7.500  1.7313 -0.5229  1.4346
 5945SOL     OW29293   2.097   1.902   8.181 -0.4554 -0.0766  0.0268
 5945SOL    HW129294   2.126   1.979   8.131 -0.3832 -1.0902 -1.5045
 5945SOL    HW229295   2.146   1.824   8.154 -0.2340 -0.8974  2.8416
 5946SOL     OW29296   2.105   2.017   4.305  0.6737  0.5549  0.4578
 5946SOL    HW129297   2.020   2.052   4.332  0.7752  0.7389  0.5426
 5946SOL    HW229298   2.108   2.037   4.212 -0.8121 -0.3337  0.2175
 5947SOL     OW29299   3.956   2.204  10.205  0.1530 -0.5191  0.0350
 5947SOL    HW129300   3.869   2.170  10.225 -0.4838  1.4290  0.5606
 5947SOL    HW229301   3.990   2.125  10.163 -0.9507  0.2600 -2.3269
 5948SOL     OW29302   3.887   3.176   9.291 -0.0244 -0.4176  0.4467
 5948SOL    HW129303   3.943   3.111   9.334  2.3254  0.4003 -1.4220
 5948SOL    HW229304   3.886   3.236   9.365 -2.9140  1.0603 -0.7758
 5949SOL     OW29305   0.181   0.974   6.674  0.2274  0.1443 -0.3224
 5949SOL    HW129306   0.177   0.911   6.602 -1.2503 -0.0650 -0.0540
 5949SOL    HW229307   0.268   0.957   6.709  0.9213  1.5657 -1.3624
 5950SOL     OW29308   3.852   2.525  13.468  0.7395 -0.2544 -0.1496
 5950SOL    HW129309   3.833   2.471  13.392 -0.1189  1.4572 -1.1387
 5950SOL    HW229310   3.942   2.549  13.448  0.0097  1.2374 -1.5861
 5951SOL     OW29311   0.723   4.210  11.161 -0.0186 -0.3924  0.3455
 5951SOL    HW129312   0.715   4.139  11.098  0.5561 -0.9861  0.9553
 5951SOL    HW229313   0.670   4.178  11.234  0.8526 -2.3710  0.0922
 5952SOL     OW29314   2.612   2.291   7.305 -0.0083  0.5585 -0.1302
 5952SOL    HW129315   2.526   2.316   7.339  0.7022  1.4359  1.0046
 5952SOL    HW229316   2.665   2.351   7.357  1.0103 -0.6886  0.2924
 5953SOL     OW29317   1.221   0.382   6.870 -0.0224 -0.0327 -0.3196
 5953SOL    HW129318   1.205   0.476   6.877 -0.4758 -0.0593 -1.0060
 5953SOL    HW229319   1.308   0.375   6.910  0.5181 -1.5918 -1.7774
 5954SOL     OW29320   3.810   3.281   8.603  0.0927  0.5696  0.0117
 5954SOL    HW129321   3.728   3.256   8.645 -0.3294 -1.1857 -1.8415
 5954SOL    HW229322   3.875   3.222   8.640  0.4288 -0.7239 -2.6012
 5955SOL     OW29323   1.934   0.221  11.624  0.6491 -0.3524 -0.6113
 5955SOL    HW129324   2.007   0.231  11.563 -0.2182  1.8390 -1.2736
 5955SOL    HW229325   1.979   0.175  11.695 -2.4832 -1.2577  0.7918
 5956SOL     OW29326   1.483   4.167  11.266  0.9579 -0.6839 -0.0522
 5956SOL    HW129327   1.494   4.175  11.361  1.9165  2.0769 -0.3989
 5956SOL    HW229328   1.564   4.210  11.237 -0.2410  1.8369  0.3542
 5957SOL     OW29329   2.700   1.171   5.826  0.2024 -0.2701 -0.0791
 5957SOL    HW129330   2.649   1.125   5.758  0.9803 -1.0387 -0.1404
 5957SOL    HW229331   2.681   1.126   5.908 -0.0597 -1.5249 -0.8199
 5958SOL     OW29332   0.046   3.940   1.458 -0.1698 -0.7230  0.2964
 5958SOL    HW129333   0.093   4.007   1.507 -2.4185  1.6916 -0.8518
 5958SOL    HW229334   4.680   3.940   1.501 -0.4283 -3.1288 -0.2132
 5959SOL     OW29335   1.511   2.180   5.354  0.1093  0.0410  0.1512
 5959SOL    HW129336   1.442   2.203   5.416  0.5096 -0.8854  0.9324
 5959SOL    HW229337   1.492   2.252   5.294  1.3930 -0.0909 -0.4245
 5960SOL     OW29338   4.494   0.880   2.213  0.0451 -0.1732  0.3303
 5960SOL    HW129339   4.542   0.912   2.137 -0.5669  1.3493  0.5782
 5960SOL    HW229340   4.536   0.929   2.283  1.8316 -0.0971 -0.7864
 5961SOL     OW29341   1.629   2.668   0.690  0.1858 -0.5245 -0.3859
 5961SOL    HW129342   1.713   2.710   0.672 -1.5656  3.3153  0.2472
 5961SOL    HW229343   1.577   2.728   0.636 -1.2893 -2.7899 -1.4697
 5962SOL     OW29344   2.898   4.034  10.360 -0.3191 -0.0929 -0.6871
 5962SOL    HW129345   2.871   3.947  10.331  0.1981 -1.4004  2.7290
 5962SOL    HW229346   2.984   4.022  10.402 -0.9236  0.3273  0.6564
 5963SOL     OW29347   2.531   4.554  13.577 -0.1850 -0.2294 -0.3643
 5963SOL    HW129348   2.440   4.542  13.603  0.4372  0.1608  1.9593
 5963SOL    HW229349   2.540   4.647  13.596  0.7115 -0.1411 -1.1869
 5964SOL     OW29350   3.693   1.779  10.479 -0.5068 -0.2015 -0.0262
 5964SOL    HW129351   3.775   1.829  10.474 -0.6097 -0.0359 -0.0720
 5964SOL    HW229352   3.625   1.845  10.491  0.2801  0.6149 -0.0051
 5965SOL     OW29353   2.329   0.458   3.837  0.0462  0.5924 -0.1429
 5965SOL    HW129354   2.309   0.462   3.744  0.3891 -0.5348 -0.2615
 5965SOL    HW229355   2.311   0.370   3.869  0.6862  0.6610  0.4195
 5966SOL     OW29356   1.214   2.986   4.282  0.0821 -0.6842 -0.2891
 5966SOL    HW129357   1.215   3.039   4.203 -0.6118  0.0131  0.1742
 5966SOL    HW229358   1.229   2.910   4.224  0.1756 -1.2053  0.4188
 5967SOL     OW29359   4.283   1.331   5.392 -0.3465 -0.1508 -0.3304
 5967SOL    HW129360   4.202   1.306   5.436  0.9402  0.2621  2.3437
 5967SOL    HW229361   4.332   1.337   5.475  0.1513  0.7458 -0.6861
 5968SOL     OW29362   4.551   3.101   6.110 -0.4469 -0.4425  0.5669
 5968SOL    HW129363   4.601   3.117   6.190 -1.6272 -3.1156  1.8262
 5968SOL    HW229364   4.565   3.178   6.055 -0.9507  0.1238  1.2251
 5969SOL     OW29365   0.243   3.278   6.536 -0.4241 -0.5974  0.0305
 5969SOL    HW129366   0.330   3.293   6.499 -0.5685  2.2428  0.8262
 5969SOL    HW229367   0.203   3.365   6.535 -0.4373 -0.5982  0.7469
 5970SOL     OW29368   4.642   0.061   9.764  0.2012 -0.5825 -0.0806
 5970SOL    HW129369   4.662   0.148   9.728 -0.7598 -0.0878  0.5686
 5970SOL    HW229370   4.713   0.013   9.722 -0.3183 -2.3714  1.0864
 5971SOL     OW29371   3.524   2.037  17.119 -0.0831 -0.2376  0.0064
 5971SOL    HW129372   3.511   2.079  17.204 -1.3774 -0.8160  0.0932
 5971SOL    HW229373   3.465   2.087  17.062  1.3975 -0.2839 -1.5704
 5972SOL     OW29374   3.065   2.259   6.414 -0.5860 -0.4376  0.3861
 5972SOL    HW129375   3.048   2.224   6.502 -0.7191 -1.9454 -0.2547
 5972SOL    HW229376   2.986   2.313   6.408  0.5641  1.2761  0.4669
 5973SOL     OW29377   3.441   2.216   1.198  0.3306  0.2917  0.0399
 5973SOL    HW129378   3.347   2.208   1.210  0.8803 -0.6158  3.9317
 5973SOL    HW229379   3.462   2.293   1.251 -1.5881 -0.1608  1.4756
 5974SOL     OW29380   4.508   3.258   0.510  0.1736 -0.0290 -0.2031
 5974SOL    HW129381   4.469   3.332   0.463 -2.3852 -2.5122 -2.0143
 5974SOL    HW229382   4.562   3.310   0.570  0.1757  0.1906 -0.3949
 5975SOL     OW29383   2.196   0.576  12.378 -0.6155 -0.1143  0.1689
 5975SOL    HW129384   2.207   0.620  12.293  1.9594 -0.8397  0.1210
 5975SOL    HW229385   2.285   0.574  12.413 -0.8433 -2.8978  0.5721
 5976SOL     OW29386   1.752   1.324   4.946  0.8551 -0.0078  0.0239
 5976SOL    HW129387   1.800   1.246   4.973 -0.8867 -1.0013  0.2073
 5976SOL    HW229388   1.767   1.376   5.025 -0.2742  1.9024 -1.0083
 5977SOL     OW29389   1.155   2.230   6.709 -0.2719  0.4197 -0.1695
 5977SOL    HW129390   1.199   2.258   6.789 -0.7961  0.7268  0.0113
 5977SOL    HW229391   1.226   2.185   6.664  0.4289  2.3948 -1.0377
 5978SOL     OW29392   0.970   2.430   8.690 -0.3757 -0.4186  0.2653
 5978SOL    HW129393   0.896   2.468   8.738  1.9234  2.5386  1.4668
 5978SOL    HW229394   1.011   2.516   8.678  1.4014 -1.4848 -1.1734
 5979SOL     OW29395   2.525   4.523  11.262  0.6107  0.5772 -0.8248
 5979SOL    HW129396   2.593   4.456  11.267  2.5992  2.5183 -1.8809
 5979SOL    HW229397   2.543   4.569  11.180 -2.7090  0.0950 -1.8543
 5980SOL     OW29398   0.698   1.324   5.384 -0.1956 -0.0957  0.0899
 5980SOL    HW129399   0.637   1.285   5.321  1.1913 -0.6437 -0.9112
 5980SOL    HW229400   0.767   1.258   5.386 -0.4167 -0.2480  2.1726
 5981SOL     OW29401   3.632   0.869   6.048 -0.1697  0.4001 -0.2342
 5981SOL    HW129402   3.698   0.906   5.989  1.2405 -1.3666  0.2352
 5981SOL    HW229403   3.560   0.854   5.987  0.9205  0.9074 -1.6388
 5982SOL     OW29404   2.557   0.088  13.659 -0.2201 -0.1125 -0.1954
 5982SOL    HW129405   2.555   0.183  13.663 -1.0885 -0.1728  0.6901
 5982SOL    HW229406   2.578   0.063  13.749  0.7664 -1.6597 -0.8588
 5983SOL     OW29407   3.260   1.635   2.014 -0.4338 -0.0319  0.1398
 5983SOL    HW129408   3.191   1.625   1.948 -1.5826 -0.2166  1.3571
 5983SOL    HW229409   3.321   1.694   1.970 -0.3401 -0.0528  0.2424
 5984SOL     OW29410   0.061   3.679   5.698  0.1264  0.5896 -0.0118
 5984SOL    HW129411   0.054   3.597   5.649  1.3121 -0.3400  1.3357
 5984SOL    HW229412   0.090   3.740   5.630 -2.1682  1.1224 -0.4890
 5985SOL     OW29413   2.453   0.333   7.195 -0.0569  0.1388 -0.1368
 5985SOL    HW129414   2.443   0.359   7.104  0.7273 -0.6663 -0.4533
 5985SOL    HW229415   2.529   0.274   7.196 -1.3612 -1.5152  0.7601
 5986SOL     OW29416   2.097   2.787   5.683  0.8010 -0.0726  0.3810
 5986SOL    HW129417   2.064   2.813   5.597  0.8980  4.3598  1.7007
 5986SOL    HW229418   2.062   2.860   5.734  0.0628 -0.1975  0.0497
 5987SOL     OW29419   2.836   2.554   7.851  0.4648 -0.0824  0.5767
 5987SOL    HW129420   2.824   2.595   7.937 -0.1465 -0.6290  0.7496
 5987SOL    HW229421   2.812   2.465   7.877  1.6477 -0.3319  0.7895
 5988SOL     OW29422   2.161   0.115  12.101  0.3175 -0.2152  0.1622
 5988SOL    HW129423   2.228   0.175  12.068  0.1818 -1.0940 -1.7284
 5988SOL    HW229424   2.124   0.165  12.174 -0.2477  1.1763 -1.0839
 5989SOL     OW29425   2.525   4.679  12.227  0.4454  0.2974  0.2613
 5989SOL    HW129426   2.579   0.038  12.215  0.7232  0.0059 -0.3696
 5989SOL    HW229427   2.539   4.671  12.322 -1.8651  4.4658  0.9440
 5990SOL     OW29428   1.623   4.433   6.797 -0.0785 -0.2627 -0.0439
 5990SOL    HW129429   1.542   4.453   6.751  3.0111  3.2336 -4.0169
 5990SOL    HW229430   1.626   4.510   6.854 -0.3218  0.4037 -0.9393
 5991SOL     OW29431   4.585   2.303   6.942 -0.0843  0.3485 -0.2284
 5991SOL    HW129432   4.679   2.311   6.956  0.3923  0.4765 -3.4438
 5991SOL    HW229433   4.550   2.387   6.972 -1.7441  0.0963 -1.4093
 5992SOL     OW29434   0.527   2.372   1.349 -0.3514 -0.3856  0.4710
 5992SOL    HW129435   0.448   2.387   1.401 -0.3298 -0.9721  0.6762
 5992SOL    HW229436   0.493   2.407   1.267  1.0688  0.8751  0.4166
 5993SOL     OW29437   2.881   1.404   6.878  0.2454 -0.3512 -0.0453
 5993SOL    HW129438   2.871   1.343   6.952 -1.8435 -1.0572 -0.9060
 5993SOL    HW229439   2.820   1.473   6.903  0.9683 -0.6144  2.4550
 5994SOL     OW29440   0.397   2.973   2.150 -0.1303 -0.3439  0.0451
 5994SOL    HW129441   0.407   2.968   2.245 -1.5642  2.3918  0.3454
 5994SOL    HW229442   0.483   2.939   2.127  0.2168  0.5738 -0.0289
 5995SOL     OW29443   3.807   4.049   3.957 -0.2338 -0.7842  0.7772
 5995SOL    HW129444   3.875   4.025   4.020 -0.3022  1.6213  1.7361
 5995SOL    HW229445   3.788   3.968   3.909  3.0578  0.2558 -2.2416
 5996SOL     OW29446   1.184   3.753   5.364  0.2142  0.1152 -0.1220
 5996SOL    HW129447   1.179   3.674   5.418  1.3211 -1.5059 -2.3765
 5996SOL    HW229448   1.266   3.752   5.315  0.5500 -1.2024  0.4829
 5997SOL     OW29449   0.611   0.195   6.798 -0.2786  0.0244 -0.4623
 5997SOL    HW129450   0.519   0.169   6.805 -0.2416  0.2463  1.0089
 5997SOL    HW229451   0.636   0.195   6.891 -0.6609 -2.5614 -0.3511
 5998SOL     OW29452   1.826   3.282   2.007  0.3485 -0.0667 -0.2995
 5998SOL    HW129453   1.895   3.243   1.953  0.2521 -0.2243 -0.3086
 5998SOL    HW229454   1.799   3.207   2.059 -0.1299 -1.0207 -1.9334
 5999SOL     OW29455   0.613   1.316   7.923  0.2695 -0.5437  0.0315
 5999SOL    HW129456   0.703   1.309   7.955  0.7972  0.1428 -1.3229
 5999SOL    HW229457   0.618   1.260   7.846 -0.6880  1.4827 -1.4704
 6000SOL     OW29458   1.016   2.291   1.328 -0.1318  0.5819 -0.2819
 6000SOL    HW129459   0.940   2.336   1.366 -0.3309 -0.3166  0.3932
 6000SOL    HW229460   0.997   2.205   1.364 -0.9369  0.7976 -0.1853
 6001SOL     OW29461   2.478   1.499   1.265 -0.2331  0.3847  0.3232
 6001SOL    HW129462   2.485   1.412   1.305  1.3240  1.0625  1.5378
 6001SOL    HW229463   2.434   1.552   1.332  0.6237  0.3811  0.8941
 6002SOL     OW29464   3.906   1.532   4.075  0.6338 -0.2085  0.6698
 6002SOL    HW129465   3.895   1.454   4.020  0.8449  0.7007 -0.6603
 6002SOL    HW229466   3.960   1.499   4.146  1.2421  0.2632  0.4221
 6003SOL     OW29467   3.081   0.759   7.569  0.0250 -0.3008 -0.1896
 6003SOL    HW129468   3.169   0.792   7.556 -0.1481  0.1641 -0.1796
 6003SOL    HW229469   3.058   0.825   7.635  0.0739 -2.1016  1.6131
 6004SOL     OW29470   3.690   2.303   3.525 -0.3357 -0.8605  0.2404
 6004SOL    HW129471   3.712   2.258   3.444  0.8710 -2.0505  1.2259
 6004SOL    HW229472   3.768   2.356   3.545 -0.2428 -0.8170 -0.2437
 6005SOL     OW29473   2.644   3.321   3.622 -0.2895  0.2158  0.4167
 6005SOL    HW129474   2.564   3.298   3.576 -0.9890  1.0155  1.2448
 6005SOL    HW229475   2.646   3.415   3.605  0.2122 -0.3298 -2.4820
 6006SOL     OW29476   3.903   1.094   1.056  0.0829 -0.6707 -0.0696
 6006SOL    HW129477   3.902   1.073   1.150  1.3225 -0.8844 -0.1045
 6006SOL    HW229478   3.980   1.146   1.031 -2.0380  0.9285 -3.2194
 6007SOL     OW29479   2.993   1.434   3.532  0.1959  0.8722 -0.0392
 6007SOL    HW129480   3.015   1.341   3.529  2.1492  1.2750  1.4941
 6007SOL    HW229481   3.049   1.470   3.464  0.9376 -1.4858 -0.6757
 6008SOL     OW29482   2.520   4.194   9.315  0.0908 -0.3472 -0.2499
 6008SOL    HW129483   2.546   4.103   9.325 -1.0374 -0.4919  1.4067
 6008SOL    HW229484   2.514   4.229   9.404  1.2362  1.5326 -0.8977
 6009SOL     OW29485   3.630   1.279  17.460 -0.2657 -0.3395 -0.2638
 6009SOL    HW129486   3.579   1.216  17.510  2.8452 -1.0700  1.9904
 6009SOL    HW229487   3.683   1.229  17.398 -0.4934 -1.3654  0.3716
 6010SOL     OW29488   0.810   2.242  15.993 -0.0197 -0.1493 -0.2304
 6010SOL    HW129489   0.891   2.281  15.959  0.4265 -0.5583  0.3563
 6010SOL    HW229490   0.740   2.270  15.935 -0.5802  2.9438  1.9638
 6011SOL     OW29491   4.101   1.962   8.032  0.4324 -0.2638  0.0543
 6011SOL    HW129492   4.024   1.920   8.071  0.6116 -0.7939 -0.1577
 6011SOL    HW229493   4.172   1.940   8.092  0.5181  2.1356  0.8348
 6012SOL     OW29494   1.865   3.022   6.437  0.4087  0.6461  0.3993
 6012SOL    HW129495   1.940   2.963   6.444 -0.8689 -1.0034 -0.1438
 6012SOL    HW229496   1.861   3.081   6.512 -0.0073  1.0403  0.0661
 6013SOL     OW29497   0.604   1.422   0.223 -0.0933 -0.4164  0.0362
 6013SOL    HW129498   0.551   1.499   0.199 -1.2822 -1.1580  0.2571
 6013SOL    HW229499   0.541   1.356   0.194 -3.7705  2.6931  0.7857
 6014SOL     OW29500   4.266   3.938   6.175 -0.3020  0.1772  0.6998
 6014SOL    HW129501   4.308   3.982   6.100  0.2647 -1.2644  0.1647
 6014SOL    HW229502   4.323   3.862   6.179  1.2502  1.2045 -1.4892
 6015SOL     OW29503   0.965   3.125   5.674 -0.7524 -0.4689  0.9112
 6015SOL    HW129504   1.020   3.110   5.751  0.0467  0.5287  0.5350
 6015SOL    HW229505   0.957   3.039   5.631  1.6339 -0.2588  0.0781
 6016SOL     OW29506   0.952   2.626   1.437 -0.0929 -0.1028 -0.1410
 6016SOL    HW129507   0.959   2.702   1.495  0.6624  0.1031 -0.5005
 6016SOL    HW229508   0.889   2.568   1.479 -0.1373  0.0793  0.0441
 6017SOL     OW29509   1.352   0.134   5.777 -0.0633  0.3257  0.1439
 6017SOL    HW129510   1.338   0.229   5.776 -2.4226 -0.0334 -0.2631
 6017SOL    HW229511   1.319   0.103   5.693 -1.2795 -0.7001  1.0043
 6018SOL     OW29512   2.228   2.139   2.579  0.2889  0.3560  0.1505
 6018SOL    HW129513   2.170   2.086   2.525 -0.1621  1.7756 -0.7311
 6018SOL    HW229514   2.262   2.065   2.630 -0.1395  0.0138 -0.0532
 6019SOL     OW29515   1.171   3.434   2.620  0.0356  0.0833  0.1448
 6019SOL    HW129516   1.267   3.437   2.622  0.0423 -1.2659  1.7866
 6019SOL    HW229517   1.153   3.346   2.654 -1.0335  0.0056 -0.6073
 6020SOL     OW29518   3.488   4.047   5.863 -0.0621  0.2207  0.1693
 6020SOL    HW129519   3.416   3.986   5.881  0.4475  0.0913  1.7785
 6020SOL    HW229520   3.483   4.049   5.767 -0.3093  0.8199  0.1985
 6021SOL     OW29521   3.293   4.094  15.876  0.0477  0.8115  0.6687
 6021SOL    HW129522   3.284   4.035  15.951 -1.9543  3.7884  2.7581
 6021SOL    HW229523   3.235   4.164  15.904 -2.2687 -0.5106 -0.8768
 6022SOL     OW29524   1.789   1.073  11.564  0.5121 -0.3147 -0.1893
 6022SOL    HW129525   1.717   1.019  11.597  0.2133  0.3354  0.2290
 6022SOL    HW229526   1.833   1.012  11.505  1.7099  1.9799 -1.6696
 6023SOL     OW29527   0.733   1.067   3.581  0.3001  0.3132 -0.0709
 6023SOL    HW129528   0.784   0.987   3.598 -1.1325 -0.6196 -0.1850
 6023SOL    HW229529   0.654   1.030   3.541  0.2507  0.7614 -0.3846
 6024SOL     OW29530   0.747   0.798  17.379  0.0593  0.1996 -0.4993
 6024SOL    HW129531   0.711   0.771  17.463  0.8834  3.2223  0.8296
 6024SOL    HW229532   0.794   0.874  17.414 -2.1652  0.8999  0.9562
 6025SOL     OW29533   0.931   0.053   5.080  0.5181  0.3350 -0.3303
 6025SOL    HW129534   0.923   0.148   5.069  2.6196  0.6299  0.6812
 6025SOL    HW229535   0.952   0.023   4.992  0.3153 -1.2287  0.1549
 6026SOL     OW29536   0.831   2.437   4.210  0.2388  0.1304  0.0339
 6026SOL    HW129537   0.806   2.386   4.286  0.0078 -1.5483 -1.1653
 6026SOL    HW229538   0.889   2.371   4.171  0.9375  0.0326  1.2257
 6027SOL     OW29539   0.791   3.409   5.507 -0.1419 -0.6096 -0.3110
 6027SOL    HW129540   0.715   3.423   5.562  0.2224 -0.0719  0.0578
 6027SOL    HW229541   0.798   3.492   5.459 -0.0137 -1.0777 -1.1148
 6028SOL     OW29542   0.150   4.475   2.875 -0.2909  0.5042 -0.1486
 6028SOL    HW129543   0.164   4.460   2.968  2.7216  1.0845 -0.4783
 6028SOL    HW229544   0.240   4.488   2.845 -0.1894  0.3246  0.0812
 6029SOL     OW29545   4.453   1.888   7.195  0.4793  0.1015 -0.6037
 6029SOL    HW129546   4.359   1.869   7.191  0.2934  0.4925  2.1715
 6029SOL    HW229547   4.484   1.807   7.236 -0.2942 -1.1961 -2.5865
 6030SOL     OW29548   2.466   4.513   2.616 -0.4028 -0.5117 -0.1087
 6030SOL    HW129549   2.477   4.452   2.543  3.3290 -0.7535  0.6526
 6030SOL    HW229550   2.370   4.508   2.618 -0.5218  0.2882 -3.2134
 6031SOL     OW29551   1.421   0.156   1.495 -0.2454 -0.0020 -0.6692
 6031SOL    HW129552   1.479   0.173   1.569 -1.5450  2.9697 -0.3727
 6031SOL    HW229553   1.348   0.107   1.532 -1.2583  1.2605 -1.0183
 6032SOL     OW29554   0.403   3.892  13.787 -0.3530 -0.4874  0.1028
 6032SOL    HW129555   0.465   3.819  13.787 -0.4206 -0.5392 -1.0407
 6032SOL    HW229556   0.329   3.863  13.840  1.4905 -0.6438  2.5969
 6033SOL     OW29557   3.515   1.879  10.233 -0.4169  0.6274 -0.2777
 6033SOL    HW129558   3.501   1.913  10.321 -2.9335  0.8865 -0.7756
 6033SOL    HW229559   3.578   1.946  10.206  1.7470 -1.7049 -1.0604
 6034SOL     OW29560   4.046   4.109  11.511 -0.4600  0.3100 -0.0125
 6034SOL    HW129561   4.068   4.066  11.428  0.6995 -0.3307  0.6335
 6034SOL    HW229562   3.950   4.101  11.506 -0.5906  1.1813  1.0982
 6035SOL     OW29563   2.442   2.536   6.418  0.3162 -0.4167  0.5024
 6035SOL    HW129564   2.428   2.457   6.470 -1.3820 -0.9894 -0.7945
 6035SOL    HW229565   2.357   2.541   6.374  1.0312  1.5134 -0.6570
 6036SOL     OW29566   1.067   0.380   7.497  0.2911 -0.3620  0.1422
 6036SOL    HW129567   1.065   0.375   7.593 -0.0639  1.0138  0.2004
 6036SOL    HW229568   1.128   0.453   7.493 -0.3635  0.1832  0.1036
 6037SOL     OW29569   2.631   4.302   5.529 -0.0552 -0.1185  0.2426
 6037SOL    HW129570   2.636   4.397   5.523  0.7177 -0.1103  1.1326
 6037SOL    HW229571   2.713   4.284   5.574  1.4458  0.4919 -2.2175
 6038SOL     OW29572   4.523   4.448   7.229 -0.0359  0.6375 -0.5458
 6038SOL    HW129573   4.560   4.385   7.167  0.4492 -0.4058  0.7874
 6038SOL    HW229574   4.607   4.470   7.270  0.6568 -3.1340  0.1429
 6039SOL     OW29575   1.629   0.924   7.464 -0.0012 -0.1151 -0.1278
 6039SOL    HW129576   1.698   0.888   7.520 -0.0553  0.7680  0.5031
 6039SOL    HW229577   1.675   0.928   7.380  1.9664 -0.2842  0.9471
 6040SOL     OW29578   3.462   3.678  16.473 -0.1508 -0.5854  0.0929
 6040SOL    HW129579   3.527   3.748  16.477  0.3306 -1.0875  1.0973
 6040SOL    HW229580   3.509   3.603  16.435  1.3036 -0.4933  1.7213
 6041SOL     OW29581   3.020   0.715   4.146 -0.2610  0.1370  0.3033
 6041SOL    HW129582   3.051   0.633   4.108  2.4342  1.9726 -1.4461
 6041SOL    HW229583   2.924   0.708   4.146 -0.6372  5.1876  1.7343
 6042SOL     OW29584   1.435   4.554  10.477 -0.2189 -0.2835 -0.6840
 6042SOL    HW129585   1.502   4.532  10.412 -0.3891 -1.7644 -0.3454
 6042SOL    HW229586   1.496   4.570  10.549 -0.4575 -1.4911 -0.2240
 6043SOL     OW29587   4.472   2.032   2.739 -0.0381 -0.2146 -0.1807
 6043SOL    HW129588   4.507   1.955   2.693  0.3121  1.3347 -2.5187
 6043SOL    HW229589   4.439   1.987   2.817  0.6449  0.7065  0.6349
 6044SOL     OW29590   2.731   3.656   5.249  0.0230  0.3369  0.5082
 6044SOL    HW129591   2.795   3.608   5.196  0.8297  0.6477  1.2130
 6044SOL    HW229592   2.711   3.586   5.311  2.8812  0.5669  1.6965
 6045SOL     OW29593   1.295   3.209   6.409  0.1982  0.6362  0.0728
 6045SOL    HW129594   1.240   3.135   6.435 -0.6456  0.8122 -1.1795
 6045SOL    HW229595   1.346   3.221   6.489  1.1755 -1.5882 -0.2287
 6046SOL     OW29596   0.435   0.846  11.360 -0.4849  0.1320  0.2179
 6046SOL    HW129597   0.440   0.826  11.453  1.1836 -0.0419  0.0763
 6046SOL    HW229598   0.378   0.774  11.332  0.6205 -0.7132  0.1568
 6047SOL     OW29599   2.339   4.374   8.291  0.2550 -0.1108 -0.3269
 6047SOL    HW129600   2.300   4.458   8.315  0.9254  0.0060  0.3306
 6047SOL    HW229601   2.272   4.306   8.302 -0.1023  0.3082  0.1034
 6048SOL     OW29602   4.607   0.703   3.937 -0.3465  0.5100  0.0107
 6048SOL    HW129603   4.542   0.750   3.884 -0.4006  0.9375  0.4568
 6048SOL    HW229604   4.564   0.661   4.011 -1.4805 -0.6009 -1.2768
 6049SOL     OW29605   2.874   0.342   3.773 -0.2479  0.0121 -0.6807
 6049SOL    HW129606   2.921   0.287   3.710  0.6476 -2.3779  2.0447
 6049SOL    HW229607   2.827   0.270   3.815 -1.6624  0.1227 -2.0765
 6050SOL     OW29608   1.538   0.919   3.578 -0.0605  0.4037  0.5750
 6050SOL    HW129609   1.574   1.004   3.602 -1.8689  0.7953  1.8891
 6050SOL    HW229610   1.510   0.881   3.661 -0.2988  0.8246  0.6872
 6051SOL     OW29611   3.190   1.992   3.888 -0.2569 -0.0007  0.0461
 6051SOL    HW129612   3.216   2.054   3.820 -0.6783 -0.4674 -0.5446
 6051SOL    HW229613   3.096   2.004   3.885 -0.2938 -0.5373 -1.2665
 6052SOL     OW29614   2.576   2.946   2.209  0.0695 -0.5775  0.6422
 6052SOL    HW129615   2.629   2.891   2.267  1.2789  1.7344  1.7283
 6052SOL    HW229616   2.508   2.976   2.270  0.7173  0.5258  0.8082
 6053SOL     OW29617   3.456   3.760  12.559  0.0895  0.6005  0.0881
 6053SOL    HW129618   3.426   3.791  12.645  0.3664  2.3324 -0.4323
 6053SOL    HW229619   3.529   3.705  12.586 -1.5516 -1.3295  0.5642
 6054SOL     OW29620   4.234   0.583   3.866 -0.6533  0.0564 -0.0823
 6054SOL    HW129621   4.211   0.592   3.958 -0.2060  0.9526 -0.0619
 6054SOL    HW229622   4.169   0.643   3.831 -0.9859 -0.4729 -0.3796
 6055SOL     OW29623   3.971   3.116   8.720 -0.0188  0.5299 -0.1936
 6055SOL    HW129624   4.032   3.045   8.700  2.0060  2.6856 -1.8538
 6055SOL    HW229625   4.024   3.173   8.777  0.9024 -1.8881  1.3468
 6056SOL     OW29626   3.911   3.812   7.040 -0.1897 -0.0892  0.0799
 6056SOL    HW129627   3.857   3.748   7.086 -1.1647 -0.0824 -1.0721
 6056SOL    HW229628   3.902   3.778   6.951  1.2152 -1.1868  0.3535
 6057SOL     OW29629   3.386   3.658   3.342 -0.4318  0.1267  0.5852
 6057SOL    HW129630   3.293   3.647   3.325 -0.6063  0.7863  1.1685
 6057SOL    HW229631   3.387   3.641   3.436 -2.8419  1.7302  0.8747
 6058SOL     OW29632   1.706   1.135   2.274  0.5273 -0.0101 -0.0823
 6058SOL    HW129633   1.719   1.051   2.318  1.4818 -0.0675 -0.4633
 6058SOL    HW229634   1.748   1.202   2.327  0.2495 -1.5455  2.0796
 6059SOL     OW29635   0.473   0.900   5.043  0.7302  0.3578 -0.3277
 6059SOL    HW129636   0.553   0.857   5.013 -1.0745 -3.1542 -0.0306
 6059SOL    HW229637   0.432   0.904   4.957 -0.1435  0.7156  0.1083
 6060SOL     OW29638   1.146   4.465   4.302 -0.3540  0.4449 -0.3356
 6060SOL    HW129639   1.200   4.519   4.245  0.4968 -1.6520 -1.5197
 6060SOL    HW229640   1.073   4.442   4.245 -0.3019 -1.1413  0.2439
 6061SOL     OW29641   4.579   0.376   8.423  0.2207  0.1146  0.3115
 6061SOL    HW129642   4.561   0.400   8.514  0.4555 -1.9234  0.8997
 6061SOL    HW229643   4.673   0.361   8.435  0.1225  0.4480  1.5192
 6062SOL     OW29644   0.924   2.729   8.996  0.1858 -0.0701  0.0912
 6062SOL    HW129645   0.977   2.807   9.014  0.0115  0.6436 -2.4985
 6062SOL    HW229646   0.929   2.686   9.081 -0.1358  1.5076  0.9150
 6063SOL     OW29647   3.448   1.612   0.753 -0.3603 -0.0196 -0.3074
 6063SOL    HW129648   3.381   1.544   0.759  0.6955 -0.9642  0.5205
 6063SOL    HW229649   3.422   1.660   0.832 -0.6723 -1.1369  0.2572
 6064SOL     OW29650   3.214   1.395  16.717 -0.0382  0.4494 -0.2256
 6064SOL    HW129651   3.254   1.323  16.669  0.5606 -1.1498  2.6963
 6064SOL    HW229652   3.123   1.366  16.723 -1.1003  3.2570 -2.9953
 6065SOL     OW29653   3.106   2.258   4.616 -0.4564 -0.4431  0.0535
 6065SOL    HW129654   3.054   2.336   4.634 -0.0705 -1.3046  4.9448
 6065SOL    HW229655   3.133   2.295   4.533 -2.6933 -0.7898 -0.8071
 6066SOL     OW29656   0.275   0.825   2.295 -0.1321 -0.2762 -0.1615
 6066SOL    HW129657   0.327   0.779   2.229  0.4854 -1.0461  0.8656
 6066SOL    HW229658   0.320   0.906   2.316 -0.3650 -0.7352  2.0725
 6067SOL     OW29659   0.922   0.279   2.948  0.0909 -0.2389  0.5292
 6067SOL    HW129660   0.844   0.232   2.977  0.0552 -0.7981 -0.5051
 6067SOL    HW229661   0.884   0.335   2.880 -0.0677  0.9298  1.5687
 6068SOL     OW29662   1.795   2.876   2.589  0.2106  0.5007  0.4869
 6068SOL    HW129663   1.868   2.871   2.650 -0.2151 -1.9882  0.7752
 6068SOL    HW229664   1.738   2.942   2.629 -1.9780 -0.6924 -0.6342
 6069SOL     OW29665   4.694   0.563  11.170 -0.1815 -0.1116  0.0145
 6069SOL    HW129666   4.628   0.578  11.102 -2.9551 -0.0599  2.6860
 6069SOL    HW229667   4.702   0.468  11.169 -2.7525 -0.3246 -0.0668
 6070SOL     OW29668   2.543   2.601  12.653  0.1310 -0.2458 -0.1778
 6070SOL    HW129669   2.635   2.627  12.647 -0.1337  0.5786 -0.5769
 6070SOL    HW229670   2.529   2.612  12.747  1.2852  2.8141 -0.3680
 6071SOL     OW29671   4.590   0.983   3.495 -0.4051  0.3494  0.5204
 6071SOL    HW129672   4.564   0.901   3.536 -0.8051  0.7450  1.0664
 6071SOL    HW229673   4.631   1.022   3.573 -1.1623  0.6770  0.7563
 6072SOL     OW29674   0.429   3.877   4.865  0.1418  0.1187 -0.1671
 6072SOL    HW129675   0.361   3.922   4.915 -1.6596 -2.4586 -0.3160
 6072SOL    HW229676   0.455   3.948   4.806  0.1931  0.2279 -0.0119
 6073SOL     OW29677   4.442   0.615   2.291  0.2193  0.8989 -0.2549
 6073SOL    HW129678   4.481   0.699   2.264  0.6685  0.8250  0.1630
 6073SOL    HW229679   4.512   0.558   2.260  0.0524  0.5637 -0.0024
 6074SOL     OW29680   4.569   0.315  10.513  0.3165  0.1775  0.1162
 6074SOL    HW129681   4.563   0.220  10.529 -2.1309 -0.1384 -2.7432
 6074SOL    HW229682   4.498   0.328  10.450 -0.1814  1.0573  0.8687
 6075SOL     OW29683   4.478   4.111   6.062  0.1550  0.3940  0.3683
 6075SOL    HW129684   4.482   4.200   6.098  2.5787  1.4976 -2.6115
 6075SOL    HW229685   4.560   4.073   6.092  0.9615  2.3288  0.5899
 6076SOL     OW29686   1.188   3.195   2.259  0.4602 -0.3243 -0.4357
 6076SOL    HW129687   1.141   3.170   2.179 -2.3258 -0.5636  1.2652
 6076SOL    HW229688   1.173   3.290   2.258  2.1935 -0.0720 -2.1425
 6077SOL     OW29689   3.429   3.633   8.225 -0.2658 -0.3040 -0.0551
 6077SOL    HW129690   3.373   3.565   8.262  0.1793 -0.4037  0.4371
 6077SOL    HW229691   3.374   3.654   8.150 -0.6648 -1.9752 -0.2172
 6078SOL     OW29692   1.705   2.079   7.408  0.4839  0.3207 -0.6564
 6078SOL    HW129693   1.675   1.996   7.371  0.9367  0.6235 -1.6874
 6078SOL    HW229694   1.662   2.070   7.493  3.0293  4.3020  1.0854
 6079SOL     OW29695   4.482   0.251   7.866  0.0505 -0.0610 -0.7395
 6079SOL    HW129696   4.400   0.286   7.831 -0.8301 -0.0218  1.3995
 6079SOL    HW229697   4.462   0.254   7.959 -0.6761  1.7561 -0.9655
 6080SOL     OW29698   1.625   3.247  11.012 -0.0594 -0.1100  0.4553
 6080SOL    HW129699   1.541   3.200  11.008 -0.7656  1.1827  0.2266
 6080SOL    HW229700   1.662   3.198  11.086  0.0353  1.0832  1.1828
 6081SOL     OW29701   0.742   4.176   3.714  1.0434 -0.0782 -0.6514
 6081SOL    HW129702   0.805   4.118   3.671 -0.9936 -2.5659 -0.2338
 6081SOL    HW229703   0.715   4.235   3.642 -0.2269 -2.3251 -2.0111
 6082SOL     OW29704   2.874   4.494   8.383 -0.2285  0.3098 -0.5838
 6082SOL    HW129705   2.798   4.461   8.431 -1.2328 -0.2520 -2.5705
 6082SOL    HW229706   2.849   4.491   8.290 -1.5825  0.8724 -0.2440
 6083SOL     OW29707   1.077   3.327   0.760 -0.1907  0.1893  0.5398
 6083SOL    HW129708   1.017   3.353   0.690  0.5398 -0.6370 -0.3914
 6083SOL    HW229709   1.128   3.405   0.784 -1.0843  0.3998  1.7765
 6084SOL     OW29710   4.124   3.832  10.829  0.2340  0.0790  0.1476
 6084SOL    HW129711   4.205   3.788  10.804  1.2138  2.6567 -1.2075
 6084SOL    HW229712   4.143   3.859  10.919  1.2881 -0.1480 -0.0103
 6085SOL     OW29713   1.907   4.367   4.998  0.5204  0.6662 -0.1663
 6085SOL    HW129714   1.964   4.394   4.927  1.9628  0.7148  1.0113
 6085SOL    HW229715   1.821   4.350   4.959  1.0906 -1.0094 -0.6727
 6086SOL     OW29716   0.932   4.010   0.133  0.2000  0.0278  0.5987
 6086SOL    HW129717   0.981   3.948   0.187 -1.2108  0.0996  1.9988
 6086SOL    HW229718   0.940   3.961   0.052  1.1198 -3.0782  2.5900
 6087SOL     OW29719   1.778   0.731   0.133 -0.6867 -0.4541 -0.0370
 6087SOL    HW129720   1.700   0.754   0.183 -1.4361  0.0883 -1.4370
 6087SOL    HW229721   1.823   0.816   0.140 -1.6311  0.0472 -0.0583
 6088SOL     OW29722   2.409   0.458  15.168 -0.0997 -0.2911  0.2707
 6088SOL    HW129723   2.481   0.413  15.123  0.3842 -0.4043  1.1685
 6088SOL    HW229724   2.341   0.391  15.175  0.4252 -0.8694 -0.2551
 6089SOL     OW29725   0.084   0.671   4.592  0.7411  0.3157 -0.0878
 6089SOL    HW129726   0.025   0.616   4.642  0.4583 -1.4518 -2.3366
 6089SOL    HW229727   0.052   0.646   4.505 -2.9748  1.6914  0.9028
 6090SOL     OW29728   4.307   1.130   2.741 -0.6331 -0.4510  0.3586
 6090SOL    HW129729   4.377   1.065   2.747 -0.1598  0.0332  0.0882
 6090SOL    HW229730   4.295   1.128   2.646 -0.9817  0.8361  0.3838
 6091SOL     OW29731   2.991   4.242   3.127 -0.0818 -0.5125  0.0755
 6091SOL    HW129732   2.941   4.179   3.075 -1.3260 -1.2897  2.1935
 6091SOL    HW229733   2.989   4.325   3.080 -0.6827 -0.7172 -0.2586
 6092SOL     OW29734   3.250   2.487   2.402  0.6339  0.1976 -0.2363
 6092SOL    HW129735   3.189   2.436   2.349  0.5269 -0.1859  0.2533
 6092SOL    HW229736   3.227   2.576   2.373  0.4913  0.8608  1.8807
 6093SOL     OW29737   1.518   0.652   6.593  0.5952 -0.0151  0.0237
 6093SOL    HW129738   1.555   0.630   6.508 -2.3085  0.8597 -1.4551
 6093SOL    HW229739   1.445   0.590   6.593  0.8180 -0.2823  0.1943
 6094SOL     OW29740   2.097   3.441   7.432 -0.1458  0.0176  0.2285
 6094SOL    HW129741   2.106   3.500   7.357  0.7618 -0.2631  0.1124
 6094SOL    HW229742   2.004   3.420   7.422 -0.0055  0.5679 -2.2749
 6095SOL     OW29743   0.227   1.124  14.029  0.3429 -0.2121  0.3223
 6095SOL    HW129744   0.224   1.132  13.934 -0.8848 -1.2843  0.2848
 6095SOL    HW229745   0.289   1.195  14.050  1.5054 -0.8652 -0.8474
 6096SOL     OW29746   3.048   1.218   1.275 -0.5905  0.3894 -0.4724
 6096SOL    HW129747   2.967   1.249   1.234 -0.3995  1.1284 -0.3033
 6096SOL    HW229748   3.035   1.124   1.264  5.6431 -0.5762  0.1291
 6097SOL     OW29749   0.209   3.970   7.483  0.1403 -0.7872  0.7853
 6097SOL    HW129750   0.266   4.047   7.479  0.5239 -1.2961 -3.0263
 6097SOL    HW229751   0.174   3.992   7.570 -2.1267  0.4677 -0.4493
 6098SOL     OW29752   2.495   0.780   5.323  0.6120 -0.9341 -0.2891
 6098SOL    HW129753   2.523   0.801   5.412 -1.2821  0.4813  0.0029
 6098SOL    HW229754   2.408   0.821   5.321  1.5840  1.1402  0.3538
 6099SOL     OW29755   0.628   0.265  16.715  0.2194 -0.4306  0.2764
 6099SOL    HW129756   0.549   0.225  16.678 -0.2271 -0.1660  0.9455
 6099SOL    HW229757   0.613   0.353  16.683  0.2829 -1.5927 -2.9275
 6100SOL     OW29758   1.542   3.484   6.238  0.4676 -0.2065  0.0045
 6100SOL    HW129759   1.593   3.489   6.319 -0.7387 -0.1746  0.7564
 6100SOL    HW229760   1.520   3.391   6.232  3.6437 -0.8382 -2.3931
 6101SOL     OW29761   3.122   1.214   3.228  0.2081 -0.4423 -0.0137
 6101SOL    HW129762   3.177   1.203   3.306  1.0920  0.8262 -0.4684
 6101SOL    HW229763   3.077   1.130   3.240  1.2065 -0.9061  0.5770
 6102SOL     OW29764   1.260   2.138   9.636 -0.0028 -0.3194  0.2271
 6102SOL    HW129765   1.169   2.167   9.632 -1.1156 -3.9530 -0.2975
 6102SOL    HW229766   1.288   2.146   9.545 -0.3169 -2.8832 -0.0988
 6103SOL     OW29767   0.661   2.192   3.070  0.0959  0.0580  0.3559
 6103SOL    HW129768   0.743   2.240   3.054 -1.2568  1.9607 -0.8538
 6103SOL    HW229769   0.689   2.125   3.132  1.4006  1.2853  1.0898
 6104SOL     OW29770   3.482   2.919  10.761  0.5103  0.1723  0.3923
 6104SOL    HW129771   3.565   2.906  10.807  0.6151 -2.3330 -0.4979
 6104SOL    HW229772   3.479   3.014  10.758  0.6331  0.1468 -0.8128
 6105SOL     OW29773   3.412   1.170   1.641  0.2517  0.2757  0.0160
 6105SOL    HW129774   3.459   1.158   1.559 -0.0784  1.4045 -0.3405
 6105SOL    HW229775   3.462   1.245   1.673 -1.1957  0.8229  1.0417
 6106SOL     OW29776   0.789   4.047  14.908 -0.4282 -0.5753  0.2749
 6106SOL    HW129777   0.840   4.118  14.948 -0.7301 -0.9254  1.2821
 6106SOL    HW229778   0.809   4.058  14.815  0.9782  0.6179  0.7097
 6107SOL     OW29779   1.508   3.502   3.472  0.1383  0.2041 -0.1197
 6107SOL    HW129780   1.439   3.456   3.423  0.6580 -0.1872 -0.4774
 6107SOL    HW229781   1.535   3.550   3.394 -0.2972 -0.1623 -0.4993
 6108SOL     OW29782   4.098   1.291   2.848 -0.1424  0.5905 -0.3771
 6108SOL    HW129783   4.149   1.352   2.901 -0.8467  1.4201 -0.6718
 6108SOL    HW229784   4.176   1.245   2.817 -0.7937 -0.4605 -0.4759
 6109SOL     OW29785   3.785   0.947   5.606 -0.1932 -0.1954 -0.1572
 6109SOL    HW129786   3.696   0.973   5.580  0.4892  0.6416 -1.6554
 6109SOL    HW229787   3.799   0.866   5.558  1.0036 -0.3559  0.4652
 6110SOL     OW29788   1.962   4.075   8.313  0.1232 -1.2545 -0.3940
 6110SOL    HW129789   1.900   4.144   8.290  1.7809 -0.3194 -1.9656
 6110SOL    HW229790   1.971   4.021   8.235 -0.7938  0.2450 -1.5204
 6111SOL     OW29791   4.377   1.344   4.947 -0.5330 -0.2254 -0.1353
 6111SOL    HW129792   4.324   1.421   4.968 -0.6952 -0.2637 -0.4032
 6111SOL    HW229793   4.367   1.286   5.023 -0.3072 -0.5654 -0.3663
 6112SOL     OW29794   2.159   1.566  16.011 -0.0949  0.3702  0.1497
 6112SOL    HW129795   2.101   1.632  16.051 -0.1925 -1.4606  3.0391
 6112SOL    HW229796   2.235   1.557  16.069  1.2057 -1.4445 -1.8573
 6113SOL     OW29797   1.453   0.445   7.581 -0.6346  0.2289 -0.0982
 6113SOL    HW129798   1.460   0.377   7.513  0.3039 -1.0911  1.3184
 6113SOL    HW229799   1.413   0.520   7.537 -0.5996  1.1838  1.5040
 6114SOL     OW29800   1.746   2.111  11.870 -0.0230  0.3443 -0.3903
 6114SOL    HW129801   1.687   2.182  11.845  1.5453  2.8313  2.9578
 6114SOL    HW229802   1.794   2.160  11.937  0.5976  0.1884 -0.7272
 6115SOL     OW29803   3.332   3.570   6.337 -0.3585  0.4178 -0.0741
 6115SOL    HW129804   3.266   3.631   6.370  0.2684  0.3666  1.2735
 6115SOL    HW229805   3.279   3.491   6.344 -0.2287  0.4675  1.4914
 6116SOL     OW29806   3.194   1.463   1.074 -0.4745  0.0114 -0.4956
 6116SOL    HW129807   3.139   1.400   1.119 -1.3027  2.0304  1.3321
 6116SOL    HW229808   3.200   1.537   1.135 -0.9665 -0.4481  0.1025
 6117SOL     OW29809   2.906   1.153   2.581 -0.2383 -0.6985  0.3187
 6117SOL    HW129810   2.910   1.058   2.589 -1.0981 -0.5983  2.0870
 6117SOL    HW229811   2.869   1.156   2.492 -0.5848 -2.6054  0.3999
 6118SOL     OW29812   3.945   2.902  15.403 -0.1442 -0.5679 -0.4573
 6118SOL    HW129813   3.998   2.882  15.480  0.1221 -2.2537 -1.0682
 6118SOL    HW229814   3.979   2.988  15.379 -2.8277  1.0736  1.6617
 6119SOL     OW29815   4.091   2.362  17.484 -0.2562  0.2963 -0.0529
 6119SOL    HW129816   4.085   2.456  17.467  1.6384  0.0380 -2.2141
 6119SOL    HW229817   3.997   2.348  17.470 -0.5508  1.8423  0.3023
 6120SOL     OW29818   0.542   1.672   1.843  0.3847  0.4094  0.6250
 6120SOL    HW129819   0.534   1.729   1.919  0.2251  0.2488  0.7296
 6120SOL    HW229820   0.609   1.610   1.874 -0.3617 -0.0594  1.3128
 6121SOL     OW29821   3.354   1.664   6.428  0.0750 -0.5365 -0.0319
 6121SOL    HW129822   3.286   1.614   6.472 -0.4166 -1.2379 -1.5787
 6121SOL    HW229823   3.399   1.594   6.380 -0.9190  0.1036 -1.9038
 6122SOL     OW29824   0.254   1.316   7.655 -0.3136  0.0433 -0.1561
 6122SOL    HW129825   0.166   1.291   7.629 -0.7900  1.6419 -0.0962
 6122SOL    HW229826   0.301   1.242   7.617  0.0477  1.4366 -2.4539
 6123SOL     OW29827   1.611   1.800   4.763 -0.1023 -0.2799  0.7141
 6123SOL    HW129828   1.569   1.760   4.838 -2.6921  1.7646  0.3657
 6123SOL    HW229829   1.591   1.743   4.689 -1.5216 -2.3432  2.6972
 6124SOL     OW29830   0.535   0.186   2.771  0.3969 -0.3414 -0.3059
 6124SOL    HW129831   0.439   0.176   2.769  0.1309  1.4743  2.4764
 6124SOL    HW229832   0.541   0.188   2.675  1.1958 -0.5046 -0.2570
 6125SOL     OW29833   3.903   1.561   7.629 -0.0690  0.1702  0.2335
 6125SOL    HW129834   3.982   1.539   7.579 -1.3212 -0.0998 -1.6371
 6125SOL    HW229835   3.942   1.624   7.689  1.4305  0.2291 -0.8017
 6126SOL     OW29836   3.777   4.334   6.102  0.2312  0.4321  0.3653
 6126SOL    HW129837   3.870   4.310   6.101  0.3298  0.7526  1.4790
 6126SOL    HW229838   3.774   4.389   6.180 -2.9267  0.7731 -0.0313
 6127SOL     OW29839   2.056   1.944   8.687  0.1908 -0.5149 -0.5174
 6127SOL    HW129840   2.085   1.963   8.598 -0.5080 -0.5524 -0.7531
 6127SOL    HW229841   1.969   1.982   8.678 -0.0710 -0.9714  0.0647
 6128SOL     OW29842   2.049   3.535   8.935 -0.5889 -0.2583  0.9189
 6128SOL    HW129843   2.011   3.556   8.850  0.7933 -0.1166  0.3322
 6128SOL    HW229844   2.143   3.557   8.934 -0.6348 -0.0693  0.8169
 6129SOL     OW29845   1.037   1.355   8.358  0.2988 -0.3670  0.0287
 6129SOL    HW129846   1.093   1.277   8.355 -0.9395 -1.2073 -1.0055
 6129SOL    HW229847   0.948   1.324   8.372  0.0975 -0.9608 -2.5470
 6130SOL     OW29848   1.486   1.968   6.631  0.0453 -0.1063  0.4667
 6130SOL    HW129849   1.510   2.061   6.633  2.7078 -0.8053  0.7426
 6130SOL    HW229850   1.567   1.930   6.598 -0.7908  1.5153 -3.4908
 6131SOL     OW29851   2.250   1.526  14.126 -0.1513  0.8151  0.5267
 6131SOL    HW129852   2.189   1.515  14.199 -1.4475  0.8255 -0.5546
 6131SOL    HW229853   2.190   1.537  14.052  2.1260 -0.8158 -1.5762
 6132SOL     OW29854   4.042   4.449  12.771  0.8433  0.1368  0.1971
 6132SOL    HW129855   4.035   4.378  12.835  2.5470 -1.6220 -1.5785
 6132SOL    HW229856   3.993   4.418  12.696 -0.6640 -0.1416  1.2975
 6133SOL     OW29857   2.082   0.890  16.560  0.3354  0.7169 -0.3823
 6133SOL    HW129858   2.134   0.916  16.635 -1.6954 -1.1763  1.7021
 6133SOL    HW229859   2.097   0.966  16.504  0.8261  1.2646  0.4928
 6134SOL     OW29860   0.635   0.001   3.807 -0.3433 -0.0392 -0.5279
 6134SOL    HW129861   0.701   4.705   3.875 -1.7151  0.6381  0.9510
 6134SOL    HW229862   0.660   4.637   3.768 -0.3369 -0.8456  1.2206
 6135SOL     OW29863   4.423   1.229   4.707  0.7047  0.2279  0.2781
 6135SOL    HW129864   4.367   1.270   4.641 -2.4616 -1.7331  1.7384
 6135SOL    HW229865   4.401   1.275   4.787  1.3280 -0.5386  0.8982
 6136SOL     OW29866   1.089   0.817   8.072  0.1228 -0.3401  0.2134
 6136SOL    HW129867   1.038   0.736   8.078  0.6310 -0.6393  0.4652
 6136SOL    HW229868   1.148   0.794   8.144  0.7072  2.3970  0.5912
 6137SOL     OW29869   3.792   1.384  13.692  0.3685 -0.1252  0.2116
 6137SOL    HW129870   3.823   1.317  13.753 -0.7304  0.6992  1.6455
 6137SOL    HW229871   3.731   1.425  13.753 -1.4280 -2.7526  0.1553
 6138SOL     OW29872   0.738   1.159   6.019 -0.6907  0.1946  0.0095
 6138SOL    HW129873   0.681   1.236   6.022 -1.4437 -0.4303  1.3710
 6138SOL    HW229874   0.799   1.188   5.951  0.3056  1.9352  1.6445
 6139SOL     OW29875   2.267   2.831   3.104  0.1843  0.3084  0.3038
 6139SOL    HW129876   2.249   2.919   3.136  0.2127  1.2028 -2.1648
 6139SOL    HW229877   2.248   2.773   3.178  1.9091  0.0598  0.5505
 6140SOL     OW29878   3.062   3.892   4.201 -0.0407  0.6080  0.1813
 6140SOL    HW129879   3.076   3.809   4.157 -1.0140  0.9087 -0.7147
 6140SOL    HW229880   3.104   3.855   4.279 -1.2000  0.0955  0.5557
 6141SOL     OW29881   4.026   3.912  10.538 -0.7234 -0.4881 -0.7021
 6141SOL    HW129882   4.006   3.826  10.573  0.9647 -1.5100 -2.2599
 6141SOL    HW229883   4.117   3.895  10.515 -0.7202  0.8922 -1.7236
 6142SOL     OW29884   4.000   4.263   4.235  0.1895  0.0433  0.3269
 6142SOL    HW129885   4.015   4.349   4.196 -1.5647 -0.4650 -1.4557
 6142SOL    HW229886   3.906   4.252   4.227  0.0709  1.9698 -1.1004
 6143SOL     OW29887   1.759   1.666   4.343  0.0063 -0.5081  0.3951
 6143SOL    HW129888   1.798   1.730   4.403 -0.4009  0.9651 -0.9330
 6143SOL    HW229889   1.760   1.707   4.257 -0.2565  0.0434  0.6579
 6144SOL     OW29890   0.026   4.246   5.982  0.7171  0.1195 -0.1715
 6144SOL    HW129891   0.034   4.150   5.975 -2.2837 -0.2707  1.8814
 6144SOL    HW229892   0.108   4.270   6.027  2.2565 -0.3350 -2.7272
 6145SOL     OW29893   0.821   3.717  12.902  0.5244  0.2055  0.5236
 6145SOL    HW129894   0.816   3.690  12.811 -0.9555  1.0337  0.3540
 6145SOL    HW229895   0.741   3.692  12.947 -0.0394  0.4662 -0.3399
 6146SOL     OW29896   3.344   2.336  11.665  0.1635  0.4560 -0.0155
 6146SOL    HW129897   3.303   2.310  11.582 -2.3372  0.5910  1.1809
 6146SOL    HW229898   3.353   2.431  11.655  0.2470  0.2195 -2.2926
 6147SOL     OW29899   4.636   0.256   3.673  0.6582  0.9047 -0.1874
 6147SOL    HW129900   4.572   0.325   3.692  0.4017 -0.1346  2.8320
 6147SOL    HW229901   4.675   0.271   3.587  1.8691  0.8112  0.3396
 6148SOL     OW29902   0.332   1.472   1.840  0.2082 -0.4831  0.2563
 6148SOL    HW129903   0.271   1.462   1.767  1.1080  0.1084 -0.5685
 6148SOL    HW229904   0.353   1.381   1.859 -0.0037 -0.1663  2.0277
 6149SOL     OW29905   4.488   4.533   8.381 -0.1922  0.5924 -0.4843
 6149SOL    HW129906   4.531   4.603   8.332 -0.4526 -0.4211 -2.1677
 6149SOL    HW229907   4.396   4.560   8.369  0.2357  2.1892 -0.1587
 6150SOL     OW29908   0.608   1.594   5.318 -0.0517  0.5979 -0.1725
 6150SOL    HW129909   0.686   1.540   5.331  0.2598  1.5795  1.9627
 6150SOL    HW229910   0.616   1.600   5.223 -0.5340 -0.1917 -0.2667
 6151SOL     OW29911   1.270   4.401   6.956  0.7575 -0.0199 -0.5010
 6151SOL    HW129912   1.340   4.452   6.996 -0.4966  1.4863 -0.2029
 6151SOL    HW229913   1.251   4.327   7.014  0.5136 -0.7106 -1.4574
 6152SOL     OW29914   4.467   1.202   2.324  0.3319 -0.0155  0.3501
 6152SOL    HW129915   4.533   1.255   2.279  3.2988 -3.3690  0.6970
 6152SOL    HW229916   4.525   1.161   2.389  0.1544 -0.5265  0.1834
 6153SOL     OW29917   2.229   1.773   4.388  0.4683  0.0949 -0.3002
 6153SOL    HW129918   2.193   1.860   4.372  1.9364  1.1001  1.8241
 6153SOL    HW229919   2.323   1.778   4.370  0.7166  0.8328  1.1414
 6154SOL     OW29920   1.815   2.357   1.149  0.1474 -0.7033  0.1902
 6154SOL    HW129921   1.854   2.334   1.233  1.1710  0.7719  0.1117
 6154SOL    HW229922   1.740   2.298   1.149 -0.5349  0.1604  1.5995
 6155SOL     OW29923   3.846   0.613   3.787 -0.2631 -0.6782 -0.6925
 6155SOL    HW129924   3.891   0.569   3.859  1.4250  2.1160 -0.0205
 6155SOL    HW229925   3.779   0.656   3.841  0.1039  0.8415 -1.4342
 6156SOL     OW29926   2.208   4.653   4.842 -0.1183 -0.0978 -0.0363
 6156SOL    HW129927   2.282   4.639   4.783 -0.1795  0.5654 -0.2660
 6156SOL    HW229928   2.254   4.650   4.926  0.7574 -0.9458 -0.5488
 6157SOL     OW29929   1.821   4.298  17.502  0.1365  0.5235 -0.0050
 6157SOL    HW129930   1.802   4.333  17.589 -0.0550  1.6771 -0.5138
 6157SOL    HW229931   1.737   4.301  17.457 -0.3944  1.9469  1.0815
 6158SOL     OW29932   0.607   2.278   2.778 -0.1528  0.2107  0.4399
 6158SOL    HW129933   0.554   2.230   2.714  1.3702  0.7370 -1.2247
 6158SOL    HW229934   0.551   2.282   2.855  2.1982 -0.7060  2.2149
 6159SOL     OW29935   1.731   4.247   3.372  0.1613  0.4919 -0.4324
 6159SOL    HW129936   1.793   4.265   3.443 -1.5682  3.7912  0.2778
 6159SOL    HW229937   1.648   4.275   3.411  0.6718 -1.0140  1.7376
 6160SOL     OW29938   1.487   2.026  12.008  0.1116  0.0770 -0.0991
 6160SOL    HW129939   1.476   1.939  11.971 -1.1870  0.5616 -0.8306
 6160SOL    HW229940   1.550   2.064  11.947  0.6356 -1.2574 -0.3751
 6161SOL     OW29941   4.555   4.089  14.660  0.1208 -0.2641 -0.4219
 6161SOL    HW129942   4.561   4.094  14.755  1.1820 -0.7870 -0.4580
 6161SOL    HW229943   4.547   4.184  14.646  0.4145 -0.0476  0.9219
 6162SOL     OW29944   1.267   2.623   9.773  0.4219  0.4478 -0.2148
 6162SOL    HW129945   1.179   2.653   9.751 -0.6560  0.1508  3.6198
 6162SOL    HW229946   1.271   2.542   9.722  0.2325  1.1716 -1.3680
 6163SOL     OW29947   1.235   2.923   8.146  0.4457  0.2974  0.3270
 6163SOL    HW129948   1.161   2.899   8.089  1.7550  0.6386 -1.5290
 6163SOL    HW229949   1.311   2.901   8.092 -0.4328 -0.1038 -0.7566
 6164SOL     OW29950   4.063   2.545   1.598 -0.4925 -0.1043 -0.1957
 6164SOL    HW129951   4.033   2.455   1.586  0.1423 -0.3488  0.0389
 6164SOL    HW229952   4.056   2.575   1.507 -0.0111 -0.5588 -0.3853
 6165SOL     OW29953   4.150   0.786   8.312 -0.6062 -0.0874 -0.0037
 6165SOL    HW129954   4.075   0.786   8.372 -0.7679  1.7810 -0.1807
 6165SOL    HW229955   4.117   0.847   8.246 -0.6070  1.4939  1.4555
 6166SOL     OW29956   2.055   2.083   3.633 -0.2592  0.0813 -0.4458
 6166SOL    HW129957   2.033   2.151   3.570  0.3764 -0.2691 -1.0390
 6166SOL    HW229958   2.114   2.124   3.696  0.1981 -1.9257  0.4659
 6167SOL     OW29959   0.674   3.543   3.794 -0.4865 -0.1934  0.4758
 6167SOL    HW129960   0.672   3.624   3.744  0.5024 -0.2272  0.3790
 6167SOL    HW229961   0.705   3.568   3.881 -1.3363 -0.2478  0.7934
 6168SOL     OW29962   0.555   4.679   4.574 -0.9190  0.4287  0.0944
 6168SOL    HW129963   0.517   0.044   4.598  0.0971  0.6296  0.9589
 6168SOL    HW229964   0.481   4.628   4.541  1.4462 -2.5088 -0.7357
 6169SOL     OW29965   3.477   1.531   9.143 -0.2051 -0.2496 -0.0382
 6169SOL    HW129966   3.508   1.464   9.205 -3.0395 -1.1556  0.3895
 6169SOL    HW229967   3.384   1.512   9.130 -0.2585  0.1684 -0.2792
 6170SOL     OW29968   1.708   0.083   7.024  0.2236 -0.5180 -0.3726
 6170SOL    HW129969   1.689   0.163   7.073  2.4966 -0.4935  0.4824
 6170SOL    HW229970   1.732   0.118   6.938  0.6563  1.8862  0.7316
 6171SOL     OW29971   0.076   2.173   0.943  0.1987  0.0183  0.1710
 6171SOL    HW129972   4.713   2.213   0.914 -0.9066 -2.6591 -0.3705
 6171SOL    HW229973   0.089   2.222   1.024 -0.0358  0.4264 -0.0373
 6172SOL     OW29974   4.137   1.657   9.775  0.1557 -1.1579 -0.0317
 6172SOL    HW129975   4.153   1.566   9.749 -0.7235 -1.5752  0.8988
 6172SOL    HW229976   4.058   1.637   9.825  0.9187 -1.9475  0.8479
 6173SOL     OW29977   2.386   2.864   5.500  0.3430  0.2971 -0.4434
 6173SOL    HW129978   2.394   2.781   5.453 -0.6797  0.8346 -1.5754
 6173SOL    HW229979   2.476   2.882   5.527  0.2362  1.6098 -0.9618
 6174SOL     OW29980   0.299   1.627   6.871 -0.4080 -0.3200  0.8266
 6174SOL    HW129981   0.255   1.617   6.787  2.4067  1.0497 -0.7985
 6174SOL    HW229982   0.228   1.617   6.935  0.0128  0.1994  1.3757
 6175SOL     OW29983   3.764   0.496   3.167  0.2432  0.0410  0.1327
 6175SOL    HW129984   3.680   0.542   3.168  2.0335  3.3371 -0.3268
 6175SOL    HW229985   3.737   0.404   3.169  1.8488 -0.4277  0.0309
 6176SOL     OW29986   2.769   4.649   9.884  0.0078 -0.1113  0.6246
 6176SOL    HW129987   2.841   4.649   9.821 -0.2217  0.9520  0.3626
 6176SOL    HW229988   2.791   4.572   9.936 -1.6878 -1.7008 -0.9877
 6177SOL     OW29989   4.215   1.190   5.991  0.1000  0.0369  0.0847
 6177SOL    HW129990   4.285   1.124   5.998  1.4706  1.3001 -1.6708
 6177SOL    HW229991   4.215   1.200   5.896  1.9546 -1.8608 -0.1186
 6178SOL     OW29992   3.662   3.626   2.974 -0.1130 -0.3522 -0.4063
 6178SOL    HW129993   3.667   3.575   2.893  2.2855 -0.7962  0.0290
 6178SOL    HW229994   3.713   3.577   3.038 -0.2500  0.8015  0.5979
 6179SOL     OW29995   1.092   1.596  16.297 -0.0429 -0.1487  0.2310
 6179SOL    HW129996   1.035   1.665  16.331  2.3152  1.3994  1.0606
 6179SOL    HW229997   1.080   1.525  16.360 -0.1296 -1.3752 -1.1763
 6180SOL     OW29998   0.385   0.446   8.427 -0.4021  0.3473 -0.1453
 6180SOL    HW129999   0.364   0.509   8.497  0.6629  2.1198 -1.4117
 6180SOL    HW230000   0.342   0.370   8.464  1.4137 -0.8259 -0.4425
 6181SOL     OW30001   3.144   2.815   9.353 -0.3307  0.2648 -0.3278
 6181SOL    HW130002   3.234   2.823   9.322  0.2657 -0.7273  1.1834
 6181SOL    HW230003   3.144   2.865   9.434  2.1204 -0.0342 -0.1672
 6182SOL     OW30004   2.380   2.679   4.273 -0.2345 -0.3104  0.1270
 6182SOL    HW130005   2.315   2.637   4.217  2.1922 -4.0948  0.2006
 6182SOL    HW230006   2.464   2.654   4.234 -0.6084 -2.6119  0.8238
 6183SOL     OW30007   0.068   3.906  16.017  0.5211 -0.1760 -0.1284
 6183SOL    HW130008   0.131   3.945  15.956  1.1507 -0.0912  0.5703
 6183SOL    HW230009   0.098   3.816  16.007 -1.4726 -1.0091  1.3763
 6184SOL     OW30010   2.613   0.018   9.626 -0.3045 -0.4223 -0.0489
 6184SOL    HW130011   2.518   0.025   9.638 -0.2416 -0.8679  0.7434
 6184SOL    HW230012   2.647   0.006   9.715  0.7188 -0.0092 -0.3825
 6185SOL     OW30013   4.159   0.208   7.022 -0.4637  0.2338 -0.8843
 6185SOL    HW130014   4.153   0.114   7.034 -2.3268  0.4628 -0.1018
 6185SOL    HW230015   4.247   0.216   6.985  0.6452  1.7402  2.0657
 6186SOL     OW30016   0.997   3.539   2.394  0.5945  0.0646  0.8625
 6186SOL    HW130017   1.045   3.532   2.477  1.3431 -0.8186  0.3520
 6186SOL    HW230018   1.065   3.498   2.340 -0.8485 -0.1608 -0.7590
 6187SOL     OW30019   3.019   0.224   3.552  0.4560 -0.4571 -0.0861
 6187SOL    HW130020   3.022   0.317   3.531 -1.1535 -0.0288  1.5578
 6187SOL    HW230021   3.112   0.207   3.565  0.1878 -1.9514 -0.1004
 6188SOL     OW30022   4.336   3.202   5.278  0.4812  0.4182  0.5320
 6188SOL    HW130023   4.336   3.270   5.345 -0.3760  0.2685  0.6845
 6188SOL    HW230024   4.243   3.188   5.259  0.6657  1.3167 -1.0569
 6189SOL     OW30025   2.138   4.103   6.017  0.6018 -0.1534  0.2835
 6189SOL    HW130026   2.060   4.055   5.991  1.0057  0.5513 -2.2355
 6189SOL    HW230027   2.158   4.162   5.944  0.7906  0.5996  0.9346
 6190SOL     OW30028   3.560   1.125   4.515 -0.6749 -0.2777  0.5384
 6190SOL    HW130029   3.527   1.167   4.595  1.7089 -1.5045  2.1897
 6190SOL    HW230030   3.557   1.202   4.458  2.0773 -0.8377 -0.3435
 6191SOL     OW30031   0.847   0.685  13.325  0.2667 -0.3722 -0.3866
 6191SOL    HW130032   0.930   0.721  13.357  1.2507 -2.2219 -0.8164
 6191SOL    HW230033   0.856   0.695  13.231 -0.1698  0.7022 -0.3110
 6192SOL     OW30034   3.741   2.777   0.493  0.4555  0.8281  0.4659
 6192SOL    HW130035   3.718   2.854   0.545  1.1873  2.2518 -1.2796
 6192SOL    HW230036   3.834   2.792   0.473  1.0723  0.0451  2.8017
 6193SOL     OW30037   3.248   0.003   7.014  0.1155 -0.1020 -0.2052
 6193SOL    HW130038   3.325   0.052   7.041  0.6963 -1.4541  0.5863
 6193SOL    HW230039   3.175   0.064   7.001 -0.4767 -0.6767  0.4165
 6194SOL     OW30040   3.136   2.540   2.697 -0.1591 -0.6157  0.5302
 6194SOL    HW130041   3.182   2.530   2.613 -0.1847 -1.1068  0.5747
 6194SOL    HW230042   3.101   2.628   2.681  0.9168  0.2020  2.6588
 6195SOL     OW30043   3.063   2.743  10.614 -0.3006  0.4377  0.3366
 6195SOL    HW130044   3.059   2.834  10.643 -3.0352  0.0110  1.2737
 6195SOL    HW230045   3.022   2.698  10.688  0.4896  0.4778  0.7992
 6196SOL     OW30046   4.210   0.052   2.613 -0.5548 -0.4774  0.8776
 6196SOL    HW130047   4.215   0.133   2.664 -0.6368  0.0209  0.0971
 6196SOL    HW230048   4.119   0.071   2.589 -0.6409 -1.8968  0.1188
 6197SOL     OW30049   3.918   4.653   1.963 -0.0908  0.0540  0.4656
 6197SOL    HW130050   3.913   4.614   2.050  0.8829  0.8945  0.8990
 6197SOL    HW230051   4.001   4.699   1.974 -0.2630  0.5843 -0.4479
 6198SOL     OW30052   3.632   0.322   2.919 -0.3056  0.1313 -0.4122
 6198SOL    HW130053   3.562   0.265   2.888 -2.3277  2.1632  0.4791
 6198SOL    HW230054   3.686   0.254   2.959 -0.4146  0.2820 -0.0127
 6199SOL     OW30055   3.926   2.959   3.376 -0.3873 -0.5275 -0.4811
 6199SOL    HW130056   3.857   3.011   3.416 -0.3959  0.7588 -2.1919
 6199SOL    HW230057   3.944   2.894   3.444 -2.6649 -1.9562 -1.2393
 6200SOL     OW30058   4.563   3.064   1.623 -0.5260 -0.1347 -0.7738
 6200SOL    HW130059   4.491   3.006   1.650 -0.7972  0.9695  0.8737
 6200SOL    HW230060   4.515   3.132   1.577  0.4761  1.0278 -0.1044
 6201SOL     OW30061   4.692   4.666   5.212  0.1854 -0.5961  0.5511
 6201SOL    HW130062   4.649   0.020   5.255 -1.5664 -1.3612  0.0872
 6201SOL    HW230063   4.647   4.592   5.253 -0.7324 -0.1666  0.3046
 6202SOL     OW30064   4.652   2.639  10.573  0.6864 -0.3790  0.6883
 6202SOL    HW130065   4.586   2.569  10.573 -0.3764  0.6334  1.9899
 6202SOL    HW230066   0.002   2.600  10.519 -0.6881 -1.4995 -0.2641
 6203SOL     OW30067   2.891   3.807  14.586  0.0040  0.0661  0.2485
 6203SOL    HW130068   2.871   3.715  14.573  0.2146 -0.0208  0.5496
 6203SOL    HW230069   2.922   3.814  14.676  0.4443  1.5281 -0.0119
 6204SOL     OW30070   2.064   0.762  14.004  0.3449 -0.4571  0.4301
 6204SOL    HW130071   2.019   0.791  13.924 -1.1909  1.1297  1.8650
 6204SOL    HW230072   2.072   0.669  13.981 -0.6078 -0.2033 -0.9497
 6205SOL     OW30073   2.161   1.754   6.343  0.1743  0.7883  0.1219
 6205SOL    HW130074   2.170   1.662   6.368 -0.1894  0.2220 -1.8278
 6205SOL    HW230075   2.130   1.795   6.424  0.0983  1.3857 -0.2158
 6206SOL     OW30076   0.401   3.561  14.895 -0.1196 -0.8038  0.1216
 6206SOL    HW130077   0.349   3.625  14.846  0.9748 -1.0080 -1.3056
 6206SOL    HW230078   0.482   3.571  14.845  0.1502 -0.0295  0.7076
 6207SOL     OW30079   2.849   3.757  12.118 -0.1579 -0.4757  0.0437
 6207SOL    HW130080   2.944   3.758  12.129 -0.2102  0.4627  0.3515
 6207SOL    HW230081   2.842   3.833  12.061 -0.3506 -0.2271  0.4005
 6208SOL     OW30082   0.593   3.276   7.105  0.2053  0.2177  0.4310
 6208SOL    HW130083   0.603   3.212   7.175  3.4573 -1.3850 -1.5339
 6208SOL    HW230084   0.617   3.220   7.031  0.1889 -1.3569  1.6413
 6209SOL     OW30085   0.607   3.683   4.899 -0.0434  0.0601 -0.0427
 6209SOL    HW130086   0.686   3.721   4.860 -1.6335  1.3141 -2.0863
 6209SOL    HW230087   0.547   3.757   4.891  0.6717  0.4366 -1.8450
 6210SOL     OW30088   2.984   1.313  15.085 -0.0864  0.4727 -0.0216
 6210SOL    HW130089   2.989   1.298  14.991  1.0724  0.9792 -0.0424
 6210SOL    HW230090   2.911   1.374  15.093 -0.4415  0.1271 -0.6664
 6211SOL     OW30091   3.702   0.707   8.582 -0.3422 -0.2500 -0.0672
 6211SOL    HW130092   3.693   0.778   8.518 -0.3008  0.6872  0.9639
 6211SOL    HW230093   3.670   0.633   8.531 -1.4928  0.3112 -0.1706
 6212SOL     OW30094   1.091   2.529   2.526 -0.4380 -0.2193  0.3249
 6212SOL    HW130095   1.171   2.484   2.555  0.0747  0.3077 -0.2709
 6212SOL    HW230096   1.028   2.458   2.533 -0.5459 -0.2403 -0.9548
 6213SOL     OW30097   3.763   2.899   3.814  0.7605  0.0860 -0.0271
 6213SOL    HW130098   3.818   2.893   3.736  0.7019  1.3864 -0.1657
 6213SOL    HW230099   3.763   2.990   3.845 -2.0298 -0.3910  1.3263
 6214SOL     OW30100   3.707   4.636   8.266 -0.0494  0.9320  0.0545
 6214SOL    HW130101   3.710   0.007   8.295  0.0379  1.0293 -0.2558
 6214SOL    HW230102   3.650   4.641   8.189  0.4491 -1.9239 -0.5204
 6215SOL     OW30103   4.110   1.497   8.340 -0.3680  0.0571  0.2527
 6215SOL    HW130104   4.111   1.542   8.424  0.2700 -2.6728  1.7320
 6215SOL    HW230105   4.165   1.422   8.363  0.5345  1.0045  1.1467
 6216SOL     OW30106   0.129   0.042   4.733 -0.0168 -0.1420  0.1970
 6216SOL    HW130107   0.132   4.681   4.680  2.2787 -0.3759  0.6655
 6216SOL    HW230108   0.107   0.004   4.818 -0.0327  2.1662  1.2051
 6217SOL     OW30109   3.967   0.265   4.352 -0.0367  0.1102  0.2242
 6217SOL    HW130110   4.016   0.208   4.411 -0.8814 -1.2592 -0.4267
 6217SOL    HW230111   3.888   0.213   4.346 -0.5036  0.6542  1.5313
 6218SOL     OW30112   1.201   0.596   7.451  0.6409 -0.2146 -0.2067
 6218SOL    HW130113   1.231   0.657   7.384 -0.3323  1.6208  1.0382
 6218SOL    HW230114   1.148   0.650   7.509  0.2944  0.3852 -1.0708
 6219SOL     OW30115   3.721   0.964  17.582 -0.7159 -0.3837  0.2362
 6219SOL    HW130116   3.692   1.023  17.651 -0.5021 -2.0785  1.7702
 6219SOL    HW230117   3.652   0.965  17.516  0.9228 -1.0717 -1.5040
 6220SOL     OW30118   4.001   3.272  17.063 -0.0307  0.4887  0.3677
 6220SOL    HW130119   3.934   3.334  17.094  0.2683  0.1612  1.6558
 6220SOL    HW230120   3.959   3.191  17.034 -0.3362  0.6019  0.4808
 6221SOL     OW30121   0.575   0.258   3.908  0.5855 -0.7599 -0.3298
 6221SOL    HW130122   0.651   0.302   3.870 -0.7163  0.3518 -1.6471
 6221SOL    HW230123   0.595   0.171   3.874 -0.2153 -0.0964 -2.4944
 6222SOL     OW30124   3.507   0.464   4.045  0.4743  0.1139 -0.7684
 6222SOL    HW130125   3.457   0.537   4.008  2.1109  0.1530 -2.8779
 6222SOL    HW230126   3.523   0.407   3.970 -0.4915  0.6537 -1.3918
 6223SOL     OW30127   1.712   4.683  10.515  0.2446 -0.1336  0.0928
 6223SOL    HW130128   1.777   4.648  10.454  0.1058  1.0100 -0.7179
 6223SOL    HW230129   1.672   0.034  10.464  0.0599 -0.4960 -0.2660
 6224SOL     OW30130   0.208   1.640  17.333 -0.0421 -0.0705  0.2969
 6224SOL    HW130131   0.221   1.695  17.256  0.8312 -1.6701 -0.6912
 6224SOL    HW230132   0.271   1.569  17.321 -0.7843 -0.4334 -1.4676
 6225SOL     OW30133   3.631   1.308   0.786  0.4055  0.1622 -0.2454
 6225SOL    HW130134   3.674   1.228   0.754 -1.1653 -0.2657 -1.2935
 6225SOL    HW230135   3.538   1.286   0.786  0.2439  0.8605  1.0778
 6226SOL     OW30136   0.528   1.908  12.275  0.2674  0.7110 -0.1664
 6226SOL    HW130137   0.458   1.971  12.295  0.2296  0.2605  1.1179
 6226SOL    HW230138   0.512   1.894  12.181  0.4411  0.5701 -0.1735
 6227SOL     OW30139   0.604   3.048   7.263  0.1013 -0.4793 -0.0490
 6227SOL    HW130140   0.561   2.966   7.238  1.1929 -1.7055  2.0502
 6227SOL    HW230141   0.614   3.040   7.358  0.5505  2.3255  0.1336
 6228SOL     OW30142   2.832   2.298   2.367 -0.1713 -0.9361 -0.2995
 6228SOL    HW130143   2.927   2.288   2.374  0.1549  1.6848 -1.0659
 6228SOL    HW230144   2.815   2.211   2.330 -1.9472 -0.3636 -0.8369
 6229SOL     OW30145   3.241   3.254   5.551  0.0333  0.0433 -0.2994
 6229SOL    HW130146   3.176   3.231   5.617 -0.5966  0.3479 -0.8072
 6229SOL    HW230147   3.295   3.327   5.579  0.9818  0.2033 -2.5196
 6230SOL     OW30148   3.276   2.846   5.776  0.5226 -0.2903 -0.0764
 6230SOL    HW130149   3.343   2.789   5.740 -1.0831 -2.1599 -0.0833
 6230SOL    HW230150   3.328   2.907   5.828 -0.8172 -0.3378  1.3141
 6231SOL     OW30151   0.935   3.403   0.488  0.1777 -0.5412  0.0980
 6231SOL    HW130152   0.903   3.480   0.440  0.2828 -0.6394 -0.1327
 6231SOL    HW230153   0.884   3.334   0.446 -0.0927  0.0207 -0.5032
 6232SOL     OW30154   1.968   1.489   4.327  0.3881 -0.4147  0.4120
 6232SOL    HW130155   2.009   1.465   4.409  1.6473 -2.4961 -0.8438
 6232SOL    HW230156   1.907   1.560   4.349  0.6218  0.2226 -1.0062
 6233SOL     OW30157   1.545   3.229   8.997 -0.2934  0.0210 -0.0360
 6233SOL    HW130158   1.560   3.272   8.914  0.0371 -1.9550 -1.0137
 6233SOL    HW230159   1.561   3.298   9.061 -1.5425 -0.2810  0.6119
 6234SOL     OW30160   0.928   3.933  15.620 -0.2209  0.1608  0.0736
 6234SOL    HW130161   0.899   3.851  15.660 -0.5992  0.0312 -0.4680
 6234SOL    HW230162   0.865   3.994  15.660 -0.3840 -0.9893  1.5902
 6235SOL     OW30163   1.041   3.675   6.872  0.1429 -0.3708 -0.7634
 6235SOL    HW130164   1.070   3.589   6.903 -0.2648  0.1324  1.0160
 6235SOL    HW230165   1.026   3.662   6.779  0.8551  2.4934 -1.2709
 6236SOL     OW30166   1.010   0.032  16.103  0.0937  0.3382 -0.6042
 6236SOL    HW130167   1.105   0.043  16.102  0.0239  1.1424  2.1883
 6236SOL    HW230168   0.991   4.657  16.099 -3.8676  1.1008  0.5097
 6237SOL     OW30169   3.790   1.933   5.871 -0.6972  0.5883 -0.1982
 6237SOL    HW130170   3.736   1.902   5.944 -0.1842 -1.3182 -0.6405
 6237SOL    HW230171   3.724   1.961   5.808 -1.3834 -0.2761  0.1295
 6238SOL     OW30172   4.385   2.134   7.046 -0.4654  0.2023  0.3132
 6238SOL    HW130173   4.434   2.074   7.103  3.1580  2.4753 -0.3655
 6238SOL    HW230174   4.454   2.183   7.001 -0.1945  0.5973  1.1555
 6239SOL     OW30175   3.065   3.799  11.854 -0.1587  0.3318 -0.3867
 6239SOL    HW130176   3.034   3.839  11.773  1.4350  1.7943 -0.2819
 6239SOL    HW230177   3.134   3.863  11.871 -1.2339  1.1653  0.7308
 6240SOL     OW30178   1.015   0.458  17.620  0.4736 -0.1696 -0.2499
 6240SOL    HW130179   0.933   0.485  17.579  0.6002  1.2136  0.4049
 6240SOL    HW230180   0.978   0.441   0.027  1.7330  0.0488  0.3432
 6241SOL     OW30181   3.562   1.711   5.333 -0.2533 -0.5914  0.2088
 6241SOL    HW130182   3.592   1.795   5.369  0.9669 -1.7250  1.8423
 6241SOL    HW230183   3.632   1.654   5.363  0.1960 -0.0632  0.1658
 6242SOL     OW30184   1.116   4.244   5.599  0.7381 -0.5963  0.6670
 6242SOL    HW130185   1.206   4.267   5.619  0.7543  0.4783 -0.6663
 6242SOL    HW230186   1.118   4.164   5.546  1.4424  0.4273 -0.8735
 6243SOL     OW30187   2.141   3.919   2.338  0.5402  0.2367  0.0763
 6243SOL    HW130188   2.045   3.923   2.329  0.6651 -0.4075 -1.5078
 6243SOL    HW230189   2.158   3.825   2.344  0.9380  0.3741  1.1327
 6244SOL     OW30190   2.744   1.977   5.810  0.1925 -0.7722  0.1452
 6244SOL    HW130191   2.770   2.019   5.892  0.2302  0.1319 -0.3409
 6244SOL    HW230192   2.821   1.990   5.756  0.1737 -0.8707  0.0930
 6245SOL     OW30193   0.231   3.848  17.328 -0.2966  0.1156 -0.0089
 6245SOL    HW130194   0.278   3.765  17.316 -1.0275 -0.4464  1.0369
 6245SOL    HW230195   0.286   3.913  17.284  0.0643 -0.8410 -0.9678
 6246SOL     OW30196   0.481   1.464   7.381  0.1101  0.0497  0.1524
 6246SOL    HW130197   0.500   1.447   7.289 -0.8908 -2.2724  0.3829
 6246SOL    HW230198   0.386   1.454   7.387  0.2775  0.2305  3.1784
 6247SOL     OW30199   1.755   2.120   3.801  0.3722 -0.1714 -0.0700
 6247SOL    HW130200   1.764   2.032   3.765 -1.3527 -0.4645  0.2170
 6247SOL    HW230201   1.689   2.161   3.745  0.6963 -1.4216 -1.3482
 6248SOL     OW30202   1.901   0.187   1.839  0.3709 -0.3076  0.4434
 6248SOL    HW130203   1.893   0.115   1.902  0.0334 -1.6891 -1.2021
 6248SOL    HW230204   1.980   0.231   1.873  0.3868  0.0152 -0.0140
 6249SOL     OW30205   4.103   1.302  13.649  0.0936  0.2550 -0.1361
 6249SOL    HW130206   4.068   1.256  13.573 -0.9883  0.2389  0.3794
 6249SOL    HW230207   4.066   1.390  13.643  0.3947  0.3006 -1.2916
 6250SOL     OW30208   4.080   4.549   3.240  0.2624 -0.1472  0.0889
 6250SOL    HW130209   4.084   4.529   3.147  1.3337 -0.8437  0.2832
 6250SOL    HW230210   4.044   4.638   3.239 -3.8827 -1.7857  0.9707
 6251SOL     OW30211   0.841   0.092   9.342 -0.1837  0.2751 -0.2386
 6251SOL    HW130212   0.782   0.107   9.416  0.5283 -0.8886  0.5603
 6251SOL    HW230213   0.912   0.042   9.381 -0.0221 -0.7508 -1.8580
 6252SOL     OW30214   2.047   3.407   2.801 -0.0925  0.0906  0.0374
 6252SOL    HW130215   2.015   3.324   2.765 -0.1937  0.3226 -0.4012
 6252SOL    HW230216   2.136   3.418   2.768 -0.6977 -0.9696 -1.9260
 6253SOL     OW30217   0.374   3.189  16.965 -0.2425  0.0021 -0.1728
 6253SOL    HW130218   0.301   3.205  17.025  0.2141  1.5202 -0.0128
 6253SOL    HW230219   0.416   3.116  17.011 -0.0416  0.2235  0.0006
 6254SOL     OW30220   4.004   1.250  13.403 -0.1400  0.3365  0.3539
 6254SOL    HW130221   4.006   1.155  13.394 -1.7317  0.3424 -0.0481
 6254SOL    HW230222   3.913   1.274  13.385  0.1592  0.9409 -0.3357
 6255SOL     OW30223   0.020   4.581   8.844  0.1542 -0.1370  0.2631
 6255SOL    HW130224   0.008   4.551   8.754 -0.3131 -1.0973  0.6506
 6255SOL    HW230225   0.116   4.587   8.843  0.2415 -1.7143 -2.2247
 6256SOL     OW30226   3.619   0.795  15.312 -0.1773 -0.3143  0.3576
 6256SOL    HW130227   3.647   0.719  15.363 -0.0773  1.2520  2.6279
 6256SOL    HW230228   3.703   0.841  15.309 -0.9208  1.0140  0.1593
 6257SOL     OW30229   0.374   1.154   4.202 -0.2980  0.0482 -0.1590
 6257SOL    HW130230   0.404   1.193   4.120  0.2509  0.6811  0.3487
 6257SOL    HW230231   0.291   1.199   4.219  0.4575  1.5872 -0.5500
 6258SOL     OW30232   4.368   4.269   6.841 -0.0727  0.5160 -0.0723
 6258SOL    HW130233   4.286   4.301   6.805 -0.4694 -0.1125  0.2807
 6258SOL    HW230234   4.333   4.210   6.908  2.4578  0.6957  1.4061
 6259SOL     OW30235   0.028   1.717   3.397 -0.5202 -0.1795 -0.6274
 6259SOL    HW130236   4.712   1.630   3.381  2.8373 -0.9982 -3.5788
 6259SOL    HW230237   4.687   1.774   3.349  0.5276  1.6976  0.2949
 6260SOL     OW30238   4.271   4.655   5.530 -0.2734 -0.3573 -0.1021
 6260SOL    HW130239   4.207   4.594   5.493  0.4664  1.0541 -3.7218
 6260SOL    HW230240   4.209   4.712   5.575 -0.3117 -1.9878  1.9212
 6261SOL     OW30241   0.485   2.144   4.835 -0.1772 -0.9125 -0.0524
 6261SOL    HW130242   0.417   2.192   4.882  0.6877 -1.7647  2.0594
 6261SOL    HW230243   0.559   2.204   4.838 -0.3971 -0.5898 -1.0061
 6262SOL     OW30244   2.675   4.250   3.142  0.1406 -0.1001 -0.6729
 6262SOL    HW130245   2.626   4.216   3.217 -0.2343 -2.9798 -2.2035
 6262SOL    HW230246   2.714   4.173   3.100 -0.0349 -0.0689 -0.8925
 6263SOL     OW30247   1.727   3.274  16.417 -0.6506 -0.7538  0.1188
 6263SOL    HW130248   1.761   3.187  16.437 -0.3116 -0.8005 -0.6416
 6263SOL    HW230249   1.757   3.325  16.492  0.1644  0.1583 -0.8171
 6264SOL     OW30250   4.583   1.668  11.458  0.0771  0.2025 -0.0531
 6264SOL    HW130251   4.553   1.756  11.482 -0.5323 -0.0996  0.3059
 6264SOL    HW230252   4.501   1.626  11.434  0.3850 -1.6252  2.1176
 6265SOL     OW30253   0.542   0.167   0.684 -0.6000  0.2532  0.1831
 6265SOL    HW130254   0.479   0.115   0.733 -0.3157  0.7336  1.0570
 6265SOL    HW230255   0.491   0.214   0.617  0.0432 -1.2236 -1.3463
 6266SOL     OW30256   1.291   1.779   3.766 -0.7308 -0.8105 -0.1668
 6266SOL    HW130257   1.329   1.717   3.829 -0.9305  0.8478  1.5936
 6266SOL    HW230258   1.348   1.854   3.784 -4.4964  1.8643  0.5355
 6267SOL     OW30259   0.227   2.053   4.056 -0.4602 -0.8375  0.1394
 6267SOL    HW130260   0.233   2.147   4.071 -0.0864 -1.3101  2.9849
 6267SOL    HW230261   0.319   2.039   4.034 -0.5644 -1.5935  0.1878
 6268SOL     OW30262   4.375   0.896   8.913  0.2723 -0.1620 -0.4466
 6268SOL    HW130263   4.462   0.931   8.933  1.1443 -0.5575 -3.5233
 6268SOL    HW230264   4.380   0.810   8.954 -0.5169 -0.0725 -0.1644
 6269SOL     OW30265   3.002   3.314   0.772  0.2645 -0.6761 -0.0002
 6269SOL    HW130266   2.964   3.295   0.858  0.0334 -1.9258 -0.3658
 6269SOL    HW230267   3.004   3.409   0.778  2.0080 -0.7995  1.4131
 6270SOL     OW30268   4.174   4.245  11.283  0.4034  0.1354  0.0293
 6270SOL    HW130269   4.102   4.242  11.220 -0.6084  1.2172  1.1299
 6270SOL    HW230270   4.190   4.151  11.293  2.0280  0.4353  0.2770
 6271SOL     OW30271   0.799   0.044   8.176 -0.1037 -0.7673  0.5226
 6271SOL    HW130272   0.773   0.132   8.202  0.6194 -0.1885 -0.7304
 6271SOL    HW230273   0.716   4.715   8.180 -0.3816 -0.4070 -0.9318
 6272SOL     OW30274   3.333   3.111   4.486 -0.2049  0.1537  0.0445
 6272SOL    HW130275   3.257   3.065   4.520  0.8160 -0.6650  1.1772
 6272SOL    HW230276   3.323   3.086   4.394 -0.4311 -0.2949  0.1946
 6273SOL     OW30277   1.229   0.037   4.989  0.1967  0.1197 -0.2629
 6273SOL    HW130278   1.145   0.065   5.025 -1.4572 -2.8567 -1.8165
 6273SOL    HW230279   1.234   4.664   5.011 -0.8655  0.2330  0.4588
 6274SOL     OW30280   1.137   4.665   2.825  0.5939  0.7892 -0.2615
 6274SOL    HW130281   1.046   4.653   2.799  0.7566  1.7679 -1.2776
 6274SOL    HW230282   1.156   0.009   2.755 -0.5640 -0.5358 -1.7662
 6275SOL     OW30283   2.004   4.033   4.633  0.3720 -0.3052  0.2334
 6275SOL    HW130284   2.058   4.112   4.629  3.0218 -2.1294 -0.1348
 6275SOL    HW230285   1.977   4.024   4.542 -1.4320  0.2444  0.7035
 6276SOL     OW30286   2.373   2.729   8.497 -0.3883 -0.1431  0.4974
 6276SOL    HW130287   2.360   2.642   8.536  1.0574 -0.2102  0.8223
 6276SOL    HW230288   2.348   2.777   8.577  0.7035 -0.0050  0.7464
 6277SOL     OW30289   0.698   4.583   5.120 -0.1434  0.4376  0.3571
 6277SOL    HW130290   0.635   4.595   5.049  0.3284 -1.6706 -0.3946
 6277SOL    HW230291   0.742   4.668   5.116  1.0235 -0.1641  0.4292
 6278SOL     OW30292   0.475   2.946   2.797 -0.4243  0.2913 -0.3822
 6278SOL    HW130293   0.510   3.001   2.727  1.9423  1.3290  1.5970
 6278SOL    HW230294   0.389   2.987   2.798 -0.4916  0.1668 -1.2895
 6279SOL     OW30295   1.984   0.856   6.912  0.1358  0.7552 -0.1548
 6279SOL    HW130296   2.026   0.897   6.987  1.7669 -4.3938  1.7637
 6279SOL    HW230297   1.905   0.909   6.904  0.1338  0.3202 -3.2399
 6280SOL     OW30298   1.298   0.636   8.688 -0.2203  0.7922  0.7827
 6280SOL    HW130299   1.233   0.618   8.756 -1.2252 -2.1253 -0.9231
 6280SOL    HW230300   1.372   0.668   8.740  1.2922 -1.4935 -0.0011
 6281SOL     OW30301   3.850   4.469  10.957  0.0167  0.3580 -0.0394
 6281SOL    HW130302   3.800   4.483  11.037 -2.1977  2.2696 -1.7494
 6281SOL    HW230303   3.870   4.562  10.944  2.4365 -0.2868 -0.8388
 6282SOL     OW30304   1.987   2.174  13.089  0.7253  0.2032  0.1672
 6282SOL    HW130305   1.902   2.203  13.057 -0.2877 -0.3089  2.4278
 6282SOL    HW230306   2.028   2.154  13.005 -1.3992  0.0318 -0.8205
 6283SOL     OW30307   4.009   0.822   8.556  0.9214  0.3779  0.2751
 6283SOL    HW130308   4.071   0.870   8.611  2.1549 -1.3879  0.4432
 6283SOL    HW230309   3.929   0.873   8.567  1.4448  1.1930  0.2821
 6284SOL     OW30310   2.653   1.295   6.385 -0.2175 -0.0947  0.1469
 6284SOL    HW130311   2.674   1.324   6.296 -2.2891 -2.4274 -1.1092
 6284SOL    HW230312   2.601   1.215   6.374 -2.6006  1.2751  1.6207
 6285SOL     OW30313   3.182   3.502   3.551  0.0685 -0.0414 -0.1908
 6285SOL    HW130314   3.214   3.430   3.498  1.2564  0.4814 -0.2028
 6285SOL    HW230315   3.093   3.522   3.521 -0.2646  0.2873  1.0240
 6286SOL     OW30316   1.275   4.113  17.206  0.0179 -0.2453  0.3493
 6286SOL    HW130317   1.264   4.025  17.240 -1.8114  0.0231  0.4650
 6286SOL    HW230318   1.310   4.153  17.286 -0.2518 -0.3212  0.5036
 6287SOL     OW30319   4.058   1.197  11.129  0.0195 -0.3385  0.1541
 6287SOL    HW130320   4.039   1.228  11.217  1.6286 -1.7043  0.9759
 6287SOL    HW230321   4.032   1.263  11.064  1.1420 -1.4049 -1.3665
 6288SOL     OW30322   0.095   1.241  15.211 -0.0660 -0.3127 -0.4386
 6288SOL    HW130323   0.085   1.153  15.174  0.7112 -0.3792 -0.4933
 6288SOL    HW230324   0.180   1.228  15.254  0.4753  1.8740 -0.8687
 6289SOL     OW30325   1.544   4.354   7.173 -0.1442 -0.2602  0.2917
 6289SOL    HW130326   1.619   4.311   7.132 -1.6375 -3.2358  0.6577
 6289SOL    HW230327   1.513   4.406   7.100  1.2551  0.9067  0.5184
 6290SOL     OW30328   1.130   1.150   6.825  0.2164  0.0802 -0.3927
 6290SOL    HW130329   1.069   1.208   6.870  0.0288  0.3456 -0.9942
 6290SOL    HW230330   1.138   1.077   6.887  0.4935  0.7810  0.3936
 6291SOL     OW30331   4.381   1.574  14.296  0.0869 -0.0374 -0.5813
 6291SOL    HW130332   4.296   1.548  14.331  0.2317  0.6092  0.2654
 6291SOL    HW230333   4.423   1.606  14.376  0.6155 -0.8124 -0.5526
 6292SOL     OW30334   2.929   2.107  11.117  0.0540  0.2131 -0.0639
 6292SOL    HW130335   2.839   2.087  11.091  0.2378  0.8508 -1.1744
 6292SOL    HW230336   2.982   2.070  11.047  0.5472 -0.5272  0.6956
 6293SOL     OW30337   1.841   1.215   1.372 -0.2228 -0.3515 -0.3840
 6293SOL    HW130338   1.764   1.182   1.327 -0.9530 -0.8175  1.1871
 6293SOL    HW230339   1.818   1.308   1.374 -2.0078 -0.7955 -1.2483
 6294SOL     OW30340   4.028   0.296   7.914  0.0348  0.0403 -0.6661
 6294SOL    HW130341   4.086   0.316   7.987  0.0148 -0.1075 -0.6098
 6294SOL    HW230342   3.971   0.373   7.909 -0.5298 -0.4303 -1.4449
 6295SOL     OW30343   3.158   1.848   3.120 -1.0831 -0.0672  0.3505
 6295SOL    HW130344   3.185   1.913   3.055  1.3074 -0.1985  1.2132
 6295SOL    HW230345   3.073   1.828   3.080 -0.9375  0.8602 -0.4321
 6296SOL     OW30346   3.587   1.613   6.603 -0.8117  0.3489  0.8558
 6296SOL    HW130347   3.535   1.575   6.532  0.3681  0.6093 -0.1649
 6296SOL    HW230348   3.610   1.699   6.567 -1.1188  0.3600  0.6865
 6297SOL     OW30349   2.897   3.541   3.512  0.3339 -0.0089 -1.0180
 6297SOL    HW130350   2.843   3.522   3.436 -0.4192 -0.2323 -0.4217
 6297SOL    HW230351   2.870   3.632   3.523 -0.6234 -0.3723 -0.4140
 6298SOL     OW30352   4.379   2.800   0.695  0.4707 -0.7735 -0.1949
 6298SOL    HW130353   4.434   2.842   0.629  1.3590  0.1795  1.1448
 6298SOL    HW230354   4.388   2.861   0.768 -0.3231 -0.4786 -0.3534
 6299SOL     OW30355   2.682   0.398   7.793 -0.1938  0.5404 -0.3037
 6299SOL    HW130356   2.749   0.336   7.823  0.1883  0.8785 -0.4539
 6299SOL    HW230357   2.740   0.470   7.768 -0.3769  0.7678 -0.0700
 6300SOL     OW30358   4.320   0.159   8.397 -0.1371  0.1959  0.2621
 6300SOL    HW130359   4.356   0.123   8.477  0.3044  0.1370  0.0389
 6300SOL    HW230360   4.273   0.079   8.373 -0.5815  0.8253 -0.9726
 6301SOL     OW30361   3.827   1.888  13.877 -0.0978  0.1770  0.7585
 6301SOL    HW130362   3.849   1.946  13.950 -1.0823  2.3585 -0.6586
 6301SOL    HW230363   3.904   1.833  13.868 -0.6471 -0.5509  0.4975
 6302SOL     OW30364   2.004   0.596  11.285 -0.1940 -0.3179  0.1073
 6302SOL    HW130365   1.911   0.600  11.309 -0.1390  0.8799  0.1500
 6302SOL    HW230366   2.044   0.654  11.350 -0.6024 -0.5948  0.6109
 6303SOL     OW30367   3.537   4.701   6.785 -0.6214 -0.1993 -0.3062
 6303SOL    HW130368   3.484   0.058   6.809  0.8049  0.0635  1.9416
 6303SOL    HW230369   3.594   4.679   6.858 -0.4408 -3.2528 -1.3886
 6304SOL     OW30370   1.742   3.195   1.379  0.1357 -0.1509  0.0943
 6304SOL    HW130371   1.731   3.286   1.350  1.3548  0.3029  1.0863
 6304SOL    HW230372   1.814   3.168   1.323  0.2020 -0.5823  0.3938
 6305SOL     OW30373   4.701   2.000   7.548 -0.3780  0.6452  0.2206
 6305SOL    HW130374   4.637   1.977   7.615  0.6811 -2.5056  0.1728
 6305SOL    HW230375   0.039   2.057   7.599  0.9758  0.0931 -0.6811
 6306SOL     OW30376   0.963   4.040   2.070  0.1724  0.2428 -0.3085
 6306SOL    HW130377   0.881   3.997   2.044  0.9298 -0.3722 -1.6955
 6306SOL    HW230378   0.936   4.089   2.147 -0.2052 -0.9808  0.3466
 6307SOL     OW30379   0.463   0.995   7.857 -0.2431 -0.0538  0.0941
 6307SOL    HW130380   0.369   1.010   7.846 -0.4771 -2.5969 -1.6122
 6307SOL    HW230381   0.468   1.018   7.949  0.3337 -0.4617  0.1622
 6308SOL     OW30382   3.906   2.249   6.345  0.3195  0.5008  0.1178
 6308SOL    HW130383   3.971   2.248   6.416 -0.0500 -1.2909  0.4225
 6308SOL    HW230384   3.826   2.254   6.397  0.1307  2.8902 -0.3599
 6309SOL     OW30385   2.048   3.992   6.322 -0.3594  0.3940  0.1254
 6309SOL    HW130386   2.093   3.994   6.407 -4.2081 -1.1666  2.1768
 6309SOL    HW230387   1.993   3.914   6.324  1.0078 -0.5357  1.5677
 6310SOL     OW30388   2.173   3.810   8.971 -0.2600 -0.0710 -0.2921
 6310SOL    HW130389   2.248   3.759   9.003 -1.2880  0.2146  2.5483
 6310SOL    HW230390   2.131   3.853   9.045  1.4155  0.7300  0.2024
 6311SOL     OW30391   1.919   4.463   7.450  0.4863  0.0951  0.2365
 6311SOL    HW130392   1.831   4.444   7.482 -0.2836  1.1675 -1.2551
 6311SOL    HW230393   1.921   4.391   7.387  2.2226 -2.2064  2.9284
 6312SOL     OW30394   3.954   2.821   0.818 -0.3170 -0.4444 -0.4158
 6312SOL    HW130395   3.984   2.777   0.739  0.4915  0.0493 -0.3796
 6312SOL    HW230396   4.009   2.899   0.817 -0.6500 -0.2039  0.4760
 6313SOL     OW30397   2.798   2.247  10.640  0.4715  0.0010 -0.1267
 6313SOL    HW130398   2.875   2.279  10.593 -0.4900  0.5418 -1.3449
 6313SOL    HW230399   2.753   2.184  10.583  0.2520  0.3652 -0.3587
 6314SOL     OW30400   2.631   2.077   3.535 -0.2964  0.9460 -0.4123
 6314SOL    HW130401   2.660   2.040   3.618 -0.7973  1.3950 -0.0396
 6314SOL    HW230402   2.708   2.071   3.479  1.7151  1.7787  2.2809
 6315SOL     OW30403   2.556   4.321  10.425  0.2289  0.2639 -0.6028
 6315SOL    HW130404   2.494   4.356  10.489  2.9158  1.8331  1.0761
 6315SOL    HW230405   2.607   4.395  10.393 -0.0093 -0.0864 -1.8109
 6316SOL     OW30406   0.608   1.278   8.874  0.6713 -0.2205  0.2549
 6316SOL    HW130407   0.700   1.299   8.854  0.4859 -0.9761 -1.4065
 6316SOL    HW230408   0.592   1.307   8.964  1.1349 -3.0698  1.2482
 6317SOL     OW30409   2.788   1.001   9.169  0.0517  0.0834 -0.4570
 6317SOL    HW130410   2.832   0.931   9.217 -0.1156 -1.8132 -3.0517
 6317SOL    HW230411   2.737   0.945   9.111 -0.3797  3.7615 -3.6033
 6318SOL     OW30412   1.559   2.077   9.281  1.2623 -0.9117 -0.2693
 6318SOL    HW130413   1.574   2.156   9.228  2.9113 -0.1458  1.3443
 6318SOL    HW230414   1.641   2.033   9.259  1.6645 -1.2718  1.9256
 6319SOL     OW30415   3.707   2.664   7.181 -0.4593 -1.1032  0.1041
 6319SOL    HW130416   3.757   2.708   7.250 -0.6165 -2.9727  1.4358
 6319SOL    HW230417   3.777   2.605   7.152  0.1286 -0.3363 -0.0100
 6320SOL     OW30418   3.030   4.611   3.309 -0.2067  0.2351 -0.2273
 6320SOL    HW130419   3.109   4.575   3.348 -0.8662 -0.5038  0.4259
 6320SOL    HW230420   3.066   4.649   3.229  0.8384 -0.3644 -0.0432
 6321SOL     OW30421   2.035   4.448   4.785  0.6438 -0.4818  0.0144
 6321SOL    HW130422   2.080   4.529   4.806 -1.2856  1.3044 -2.7214
 6321SOL    HW230423   2.107   4.392   4.754  1.0910 -0.0985  0.3821
 6322SOL     OW30424   1.607   3.300  14.409 -0.0155 -0.3636 -0.3372
 6322SOL    HW130425   1.515   3.312  14.432 -0.4183 -1.3450 -1.4209
 6322SOL    HW230426   1.633   3.213  14.438  1.1305  0.0239 -0.2005
 6323SOL     OW30427   1.061   1.282  15.502 -0.2588 -0.7735 -0.1352
 6323SOL    HW130428   1.142   1.251  15.541 -0.2085  1.2864  1.3700
 6323SOL    HW230429   1.031   1.348  15.564  0.4863 -0.5932  0.0293
 6324SOL     OW30430   0.465   1.278   3.976  0.0277 -0.0542 -0.0577
 6324SOL    HW130431   0.478   1.284   3.881 -4.3191 -0.6250 -0.7120
 6324SOL    HW230432   0.549   1.312   4.007 -0.7393  2.3174 -0.5617
 6325SOL     OW30433   3.284   1.914   8.559  0.2612  0.6178  0.3471
 6325SOL    HW130434   3.244   1.961   8.631 -1.4427 -0.6453  0.2408
 6325SOL    HW230435   3.270   1.820   8.572  1.6309  0.3452 -0.1431
 6326SOL     OW30436   4.490   0.739  11.304  0.8169 -0.2589  0.4307
 6326SOL    HW130437   4.422   0.675  11.322  0.9364 -0.6880 -0.6736
 6326SOL    HW230438   4.476   0.758  11.211  1.5173 -1.2960  0.1120
 6327SOL     OW30439   3.595   3.981  12.647 -0.2182  0.0945 -0.3524
 6327SOL    HW130440   3.531   4.006  12.714  0.5887  0.0772  0.4234
 6327SOL    HW230441   3.547   3.905  12.614  0.5878 -0.5048 -0.1411
 6328SOL     OW30442   0.693   1.977   3.616  0.5248  0.0202 -0.0939
 6328SOL    HW130443   0.718   1.886   3.598 -0.1847 -0.2565  0.3434
 6328SOL    HW230444   0.774   2.028   3.606  0.3845 -0.3332 -2.9533
 6329SOL     OW30445   4.395   3.804   7.436 -0.0274  0.4745  0.3422
 6329SOL    HW130446   4.460   3.854   7.485 -0.3799  2.1453 -0.9136
 6329SOL    HW230447   4.395   3.718   7.479  2.0163 -0.2590 -1.1199
 6330SOL     OW30448   2.138   4.355   0.261 -0.1836  0.0010 -0.6863
 6330SOL    HW130449   2.102   4.442   0.278 -0.2148 -0.0367 -0.5630
 6330SOL    HW230450   2.194   4.335   0.336  1.4189  1.7399 -1.4037
 6331SOL     OW30451   2.733   4.571  12.893 -0.4497 -0.1981 -0.0161
 6331SOL    HW130452   2.816   4.551  12.849  0.9453  3.5072  0.9347
 6331SOL    HW230453   2.768   4.601  12.977 -0.5616  1.1719 -0.4533
 6332SOL     OW30454   4.444   2.282  17.433  0.6900  0.0245  0.1420
 6332SOL    HW130455   4.435   2.293  17.338  1.4411 -0.0136  0.0724
 6332SOL    HW230456   4.359   2.245  17.457 -0.0409  0.1476 -2.2244
 6333SOL     OW30457   1.382   1.592   3.924  0.3513  0.4925 -0.2036
 6333SOL    HW130458   1.466   1.620   3.960  0.8445 -1.2043  0.0056
 6333SOL    HW230459   1.379   1.505   3.965  0.7418  0.3756 -0.4190
 6334SOL     OW30460   3.782   3.591   7.096 -0.0556  0.1805  0.0255
 6334SOL    HW130461   3.738   3.565   7.015 -0.3650  2.1177 -0.4348
 6334SOL    HW230462   3.767   3.512   7.149  0.4658 -0.5854 -0.9670
 6335SOL     OW30463   1.760   2.750   2.054  0.3617  0.3487 -0.2881
 6335SOL    HW130464   1.767   2.819   1.988  0.1138  0.6423 -0.0129
 6335SOL    HW230465   1.839   2.760   2.108  1.9684  0.0357 -2.6087
 6336SOL     OW30466   1.633   2.576   5.911  0.0379  0.2193 -0.4283
 6336SOL    HW130467   1.647   2.671   5.903  4.9982 -0.3959  0.9611
 6336SOL    HW230468   1.583   2.569   5.992 -1.3910  0.4525 -1.3019
 6337SOL     OW30469   1.031   3.375   8.497  0.4031  0.5848 -0.3188
 6337SOL    HW130470   1.124   3.394   8.508  0.9004  0.2013 -3.7644
 6337SOL    HW230471   1.011   3.385   8.403 -0.4329 -1.5251 -0.3510
 6338SOL     OW30472   2.889   2.730   7.463 -0.6042 -0.3548  0.1987
 6338SOL    HW130473   2.816   2.788   7.484  0.1718 -0.0065  1.8956
 6338SOL    HW230474   2.868   2.654   7.517 -0.1668 -0.9573 -0.4894
 6339SOL     OW30475   4.160   2.111   4.666  0.4727  0.2577 -0.3507
 6339SOL    HW130476   4.100   2.118   4.591  1.9192  1.7251 -1.3735
 6339SOL    HW230477   4.184   2.019   4.661 -0.1605  0.0801 -0.1059
 6340SOL     OW30478   3.341   1.200   3.983 -0.1871 -0.2936 -0.0560
 6340SOL    HW130479   3.388   1.234   3.907 -0.8584  0.2953 -0.2028
 6340SOL    HW230480   3.267   1.260   3.992  1.1815  1.2921  0.6398
 6341SOL     OW30481   3.364   0.470   6.188  0.4186 -0.5769  0.1433
 6341SOL    HW130482   3.304   0.419   6.134 -0.3040  1.6864 -1.2203
 6341SOL    HW230483   3.350   0.562   6.165 -3.4954 -0.7402  1.8251
 6342SOL     OW30484   1.557   0.012  15.914 -0.1465  0.2467 -0.3760
 6342SOL    HW130485   1.560   4.635  15.917  1.3638  0.3378  1.2232
 6342SOL    HW230486   1.626   0.018  15.848  2.4301 -0.0688  2.2490
 6343SOL     OW30487   3.068   0.248   5.218  0.6546 -0.7162  0.3667
 6343SOL    HW130488   2.990   0.295   5.248  0.3500 -0.0355 -1.4513
 6343SOL    HW230489   3.116   0.329   5.197  2.0245 -1.1298  1.9321
 6344SOL     OW30490   2.163   3.871   3.231  0.0908  0.1523 -0.0386
 6344SOL    HW130491   2.076   3.874   3.270 -0.2932  0.2176 -0.8992
 6344SOL    HW230492   2.167   3.780   3.199  0.2988  0.7213 -1.6528
 6345SOL     OW30493   1.555   3.669  16.605  0.6455  0.4836  0.2570
 6345SOL    HW130494   1.610   3.746  16.590 -0.7187  2.0635  3.4212
 6345SOL    HW230495   1.482   3.703  16.657  1.9815  0.1267  2.3511
 6346SOL     OW30496   4.701   2.073  14.522  0.0154  0.5613 -0.3985
 6346SOL    HW130497   0.061   2.056  14.471 -0.1615  0.3296 -0.5944
 6346SOL    HW230498   0.010   2.050  14.611 -0.2645 -1.8670 -0.9168
 6347SOL     OW30499   3.264   2.656   5.198  0.3172  0.6096  0.1011
 6347SOL    HW130500   3.252   2.723   5.266  1.6673 -0.9315  1.8836
 6347SOL    HW230501   3.323   2.695   5.133 -1.7106  1.3324 -1.3030
 6348SOL     OW30502   0.001   0.120   3.329  0.1392 -0.4202  0.4710
 6348SOL    HW130503   4.631   0.088   3.316  0.6102 -2.0699  1.1996
 6348SOL    HW230504   4.714   0.215   3.328 -0.5771 -0.4694  0.2397
 6349SOL     OW30505   0.471   4.504   6.352 -0.0806  0.5652 -0.4038
 6349SOL    HW130506   0.414   4.467   6.421  0.4155  0.5828  0.0196
 6349SOL    HW230507   0.405   4.539   6.293 -3.0310 -2.4126  1.0791
 6350SOL     OW30508   0.605   1.299   6.854  0.3666 -0.1881  0.2323
 6350SOL    HW130509   0.645   1.269   6.772 -1.4797 -1.1525 -0.3309
 6350SOL    HW230510   0.513   1.295   6.827  0.5596  1.5988 -0.6824
 6351SOL     OW30511   1.361   3.913   7.765 -0.8541  0.1958 -0.4795
 6351SOL    HW130512   1.437   3.950   7.720 -0.5895  0.7102  0.3724
 6351SOL    HW230513   1.348   3.975   7.838 -1.2558  1.7921 -1.9019
 6352SOL     OW30514   0.102   1.366  11.283  0.3460 -0.0732 -0.0798
 6352SOL    HW130515   0.120   1.460  11.283 -1.3084  0.2348 -1.2350
 6352SOL    HW230516   0.036   1.360  11.215 -0.8920  2.6411  0.8950
 6353SOL     OW30517   3.908   3.909   1.397 -0.7055 -0.0544 -0.2138
 6353SOL    HW130518   3.817   3.891   1.421  0.1087 -1.2530  1.9866
 6353SOL    HW230519   3.920   4.003   1.415  0.5377 -0.1394 -0.6189
 6354SOL     OW30520   1.302   0.228   0.104  0.5687 -0.2131 -0.0235
 6354SOL    HW130521   1.253   0.163   0.154  0.1421  0.1161 -0.0121
 6354SOL    HW230522   1.253   0.224   0.022 -0.2108  0.8434  0.3912
 6355SOL     OW30523   3.428   0.164   3.369  0.5404  0.3515 -0.4442
 6355SOL    HW130524   3.393   0.112   3.296  0.4390 -0.2071 -0.0000
 6355SOL    HW230525   3.519   0.176   3.340  0.9985  0.1876  0.9319
 6356SOL     OW30526   2.522   1.689  10.795 -0.5613 -0.2125  0.2005
 6356SOL    HW130527   2.505   1.610  10.846 -0.5563 -1.3883 -1.6285
 6356SOL    HW230528   2.495   1.668  10.706 -0.0418  0.5629 -0.1446
 6357SOL     OW30529   0.906   0.610   8.142 -0.1323  0.7757 -0.1084
 6357SOL    HW130530   0.904   0.523   8.101  0.0409  1.2821 -1.2039
 6357SOL    HW230531   0.833   0.586   8.200  0.7463  0.6201  0.9220
 6358SOL     OW30532   3.400   3.439   7.740 -0.0983 -0.6983 -0.1227
 6358SOL    HW130533   3.477   3.477   7.697  0.5676 -2.1189 -0.1896
 6358SOL    HW230534   3.336   3.503   7.707 -0.5124 -0.9235  0.2421
 6359SOL     OW30535   4.666   3.626   2.534  0.4854 -0.5338  0.2134
 6359SOL    HW130536   4.627   3.688   2.596 -2.1187 -1.1400 -0.8206
 6359SOL    HW230537   0.039   3.622   2.559  0.9579  2.1204 -1.1928
 6360SOL     OW30538   2.040   0.898   3.253 -0.3954  1.8045 -0.1104
 6360SOL    HW130539   2.131   0.927   3.252 -0.4195  1.8713 -0.5992
 6360SOL    HW230540   1.997   0.972   3.210  0.8416  1.3642 -2.0987
 6361SOL     OW30541   4.683   2.208   4.034 -0.4927  0.2348  0.3387
 6361SOL    HW130542   0.057   2.217   4.014 -0.6228  0.4364 -0.1935
 6361SOL    HW230543   4.695   2.225   4.127  0.2725  0.8036  0.1360
 6362SOL     OW30544   2.979   1.092   4.057  0.7600  0.7894 -0.5637
 6362SOL    HW130545   2.917   1.020   4.046  2.1244 -0.0739 -2.5031
 6362SOL    HW230546   2.979   1.147   3.979 -0.8448  0.7398 -0.5997
 6363SOL     OW30547   2.614   3.244   4.757  0.2058  0.2672  0.1544
 6363SOL    HW130548   2.579   3.273   4.841 -1.5563 -0.0695 -0.4601
 6363SOL    HW230549   2.615   3.331   4.716 -0.0396 -0.7946 -2.0571
 6364SOL     OW30550   0.847   3.871  10.821  0.2481  0.2678  0.5016
 6364SOL    HW130551   0.908   3.809  10.861  0.3744 -0.8903 -1.4895
 6364SOL    HW230552   0.792   3.817  10.765  1.2037  0.9179 -1.0496
 6365SOL     OW30553   3.120   1.421   7.270  0.3518 -0.0110 -0.4385
 6365SOL    HW130554   3.064   1.498   7.263 -1.2127 -1.1902 -1.1076
 6365SOL    HW230555   3.203   1.468   7.278  0.3204 -0.4541  2.5656
 6366SOL     OW30556   4.693   2.910  10.603 -0.0167  0.1746  0.1188
 6366SOL    HW130557   0.030   2.861  10.663  0.3633  1.4440  0.8004
 6366SOL    HW230558   4.641   2.837  10.567  1.4739 -0.9593  0.2549
 6367SOL     OW30559   3.478   0.160   9.543  0.2532 -0.4518 -0.0618
 6367SOL    HW130560   3.397   0.178   9.590  0.4692 -1.2501  0.6188
 6367SOL    HW230561   3.538   0.199   9.606 -2.1582 -0.1790  2.0460
 6368SOL     OW30562   1.467   3.300  16.326 -0.7578  0.3159  0.5138
 6368SOL    HW130563   1.557   3.283  16.354 -1.0197  1.0091  1.8146
 6368SOL    HW230564   1.465   3.395  16.336  2.0761  0.2234  1.8712
 6369SOL     OW30565   0.903   1.288   2.917  0.0616 -0.3262  0.2319
 6369SOL    HW130566   0.958   1.214   2.939  1.0018 -0.0901 -1.3762
 6369SOL    HW230567   0.817   1.276   2.958 -0.7421  2.0505 -0.7383
 6370SOL     OW30568   1.404   2.240   8.327  0.0355 -0.2137 -0.4623
 6370SOL    HW130569   1.393   2.328   8.364  2.4104 -0.9181  1.9013
 6370SOL    HW230570   1.496   2.234   8.350  0.1896  0.0560 -1.0105
 6371SOL     OW30571   2.684   0.435  15.645 -0.0949  0.3930 -0.8471
 6371SOL    HW130572   2.648   0.522  15.665 -0.3907 -0.2390  1.3607
 6371SOL    HW230573   2.615   0.412  15.582  0.0596 -0.5846 -0.6662
 6372SOL     OW30574   3.726   4.020   8.516  0.1804 -0.0470 -0.2662
 6372SOL    HW130575   3.808   4.048   8.475  0.4172 -1.8871 -0.9999
 6372SOL    HW230576   3.724   3.926   8.504 -1.5802  0.1103 -1.1030
 6373SOL     OW30577   1.304   4.322  15.230  0.9848 -0.4327 -0.5322
 6373SOL    HW130578   1.356   4.383  15.177 -0.4778 -0.6286 -2.2108
 6373SOL    HW230579   1.366   4.279  15.288 -1.9855 -1.6367  1.7355
 6374SOL     OW30580   0.214   0.686  11.577  0.6904  0.0376 -0.2820
 6374SOL    HW130581   0.220   0.655  11.487 -0.3796  2.7814 -1.3187
 6374SOL    HW230582   0.121   0.668  11.592  0.9514 -2.1974 -1.3915
 6375SOL     OW30583   0.769   2.323   7.005  0.6762  0.3399 -0.0421
 6375SOL    HW130584   0.761   2.379   7.082 -0.9779 -1.2002  0.9150
 6375SOL    HW230585   0.752   2.235   7.040 -2.3811  0.6483 -0.7302
 6376SOL     OW30586   3.942   1.356   4.344 -0.7023 -0.3969  0.2349
 6376SOL    HW130587   3.850   1.375   4.363 -0.6290  0.3640 -0.1421
 6376SOL    HW230588   3.937   1.267   4.310 -0.1345 -0.8699  1.3849
 6377SOL     OW30589   4.304   3.215   4.347 -0.1931  0.1384 -0.6686
 6377SOL    HW130590   4.358   3.191   4.422 -0.1826 -1.3545 -1.1507
 6377SOL    HW230591   4.296   3.309   4.359  5.3872  0.5532  0.2351
 6378SOL     OW30592   0.668   0.219   9.523  0.0934 -0.0759  0.0424
 6378SOL    HW130593   0.736   0.257   9.578  0.6263 -2.3832  0.9747
 6378SOL    HW230594   0.605   0.289   9.539 -0.9007 -1.1343  0.8479
 6379SOL     OW30595   2.648   4.571   4.832  0.2985 -0.0463  0.0005
 6379SOL    HW130596   2.618   4.606   4.916 -1.6946 -1.3415 -0.1632
 6379SOL    HW230597   2.703   4.503   4.870 -0.4635 -0.3558  0.5453
 6380SOL     OW30598   4.209   2.446  15.618  0.0402 -0.1561  0.1178
 6380SOL    HW130599   4.122   2.454  15.659  0.4289 -1.8506  1.2792
 6380SOL    HW230600   4.227   2.535  15.586 -2.2297  0.4345  0.4189
 6381SOL     OW30601   4.682   4.000   6.927  0.3387 -0.2521  0.1668
 6381SOL    HW130602   4.631   3.930   6.885 -0.5408  1.2055 -1.1884
 6381SOL    HW230603   0.055   3.991   6.903  0.2237 -1.1000  0.0383
 6382SOL     OW30604   3.572   1.397   5.052  0.5951 -0.3790  0.5718
 6382SOL    HW130605   3.664   1.418   5.068  0.4556 -1.0954  2.3170
 6382SOL    HW230606   3.541   1.488   5.050  1.9541  0.1000  1.3217
 6383SOL     OW30607   1.349   1.862   8.901 -0.4538 -0.0443 -0.1788
 6383SOL    HW130608   1.287   1.853   8.974 -1.6765 -1.1839 -1.3533
 6383SOL    HW230609   1.345   1.773   8.865 -1.5268  0.2098 -0.6711
 6384SOL     OW30610   0.576   2.677  11.967  0.2362  0.4778 -0.7184
 6384SOL    HW130611   0.669   2.695  11.952  0.6355  0.4522  1.7229
 6384SOL    HW230612   0.557   2.726  12.047 -2.3303 -1.1933 -0.3179
 6385SOL     OW30613   1.555   0.791   7.935 -0.3241  0.1774 -0.2735
 6385SOL    HW130614   1.560   0.709   7.983  2.0573  0.5667  0.1730
 6385SOL    HW230615   1.636   0.839   7.954  1.3808 -2.8534  0.1026
 6386SOL     OW30616   3.890   1.599   9.079  0.1987 -0.6066 -0.5119
 6386SOL    HW130617   3.817   1.659   9.095 -0.5947 -0.7341 -3.6250
 6386SOL    HW230618   3.955   1.655   9.120 -1.1499  0.9503 -0.4990
 6387SOL     OW30619   1.155   2.806   2.446  0.7297  0.3432 -0.0712
 6387SOL    HW130620   1.129   2.756   2.369 -1.0534 -0.3104  0.9396
 6387SOL    HW230621   1.101   2.761   2.511  0.4060 -1.6956 -1.7708
 6388SOL     OW30622   3.259   4.047   6.239  0.0625 -0.0015 -0.6988
 6388SOL    HW130623   3.187   4.110   6.229  0.7537  0.8321 -0.5111
 6388SOL    HW230624   3.251   3.981   6.171 -1.3733  1.0063 -1.5102
 6389SOL     OW30625   2.445   4.318   8.882 -0.3556 -0.5201  0.4889
 6389SOL    HW130626   2.487   4.347   8.801  0.5698 -3.1638 -0.0055
 6389SOL    HW230627   2.432   4.224   8.866 -0.5807 -0.1845 -1.3180
 6390SOL     OW30628   1.982   0.167  12.465 -0.7127 -0.5295 -0.7028
 6390SOL    HW130629   1.957   0.239  12.522 -1.0754 -3.2803  2.5750
 6390SOL    HW230630   2.033   0.217  12.401 -0.5728  0.1137 -0.0875
 6391SOL     OW30631   0.786   4.001   4.246  0.2729 -0.9291  0.2130
 6391SOL    HW130632   0.835   3.953   4.312 -0.9040 -0.8512  1.1544
 6391SOL    HW230633   0.762   4.079   4.296  0.8177 -0.5077 -0.1850
 6392SOL     OW30634   2.895   4.152  10.120  0.0522 -0.6888  0.5992
 6392SOL    HW130635   2.894   4.138  10.214  1.9650 -1.4048  0.5264
 6392SOL    HW230636   2.901   4.061  10.091 -1.2354 -1.0505  1.5035
 6393SOL     OW30637   1.567   3.749   8.984 -0.1904 -0.5068 -0.7016
 6393SOL    HW130638   1.635   3.700   9.031  0.6124  0.2987 -1.0324
 6393SOL    HW230639   1.604   3.836   8.971 -0.7424  0.2476  2.6791
 6394SOL     OW30640   0.410   0.990   6.811 -0.2710  0.2910 -0.9480
 6394SOL    HW130641   0.503   0.977   6.825 -0.0818 -0.2871 -2.6848
 6394SOL    HW230642   0.372   0.961   6.894  1.4474 -0.8437 -0.5647
 6395SOL     OW30643   2.739   0.519  16.814 -0.0323  0.6371 -0.7052
 6395SOL    HW130644   2.674   0.580  16.850 -0.9018 -0.0709 -1.0617
 6395SOL    HW230645   2.819   0.570  16.804  1.0278 -0.7065  0.9933
 6396SOL     OW30646   0.409   0.391  15.122 -0.2100 -0.5198  0.3829
 6396SOL    HW130647   0.481   0.394  15.184 -0.3808 -1.9581  0.6581
 6396SOL    HW230648   0.342   0.343  15.170 -0.0479 -0.2453  0.8845
 6397SOL     OW30649   4.209   4.287  13.131 -0.4585 -0.2965  0.2683
 6397SOL    HW130650   4.178   4.378  13.122 -1.5768 -0.4786  2.1767
 6397SOL    HW230651   4.131   4.243  13.165 -1.2212  1.2906  0.6003
 6398SOL     OW30652   1.501   3.663   5.914 -0.5766  0.2903 -0.0140
 6398SOL    HW130653   1.408   3.643   5.929 -0.3784 -0.7203 -0.0849
 6398SOL    HW230654   1.509   3.748   5.956  0.1298 -0.5880  1.6313
 6399SOL     OW30655   1.122   3.689  11.202 -0.0431 -0.4992  0.0765
 6399SOL    HW130656   1.069   3.737  11.266  0.5422 -0.6577  0.6826
 6399SOL    HW230657   1.208   3.727  11.215  0.6410 -0.8426 -3.5513
 6400SOL     OW30658   3.653   2.996  14.860  0.0253  0.2238  0.0901
 6400SOL    HW130659   3.620   3.030  14.943 -0.3579 -2.0493  0.8664
 6400SOL    HW230660   3.571   3.004  14.811  0.6810  0.7529 -0.9256
 6401SOL     OW30661   0.536   1.383   7.132 -0.1396 -0.0520 -0.4642
 6401SOL    HW130662   0.588   1.309   7.164  0.9718  0.3349 -1.3654
 6401SOL    HW230663   0.542   1.370   7.037  1.7228  0.1876 -0.3758
 6402SOL     OW30664   1.502   1.163   7.665  0.2203 -0.4248 -0.3407
 6402SOL    HW130665   1.593   1.145   7.688 -0.3038 -0.8493  1.3480
 6402SOL    HW230666   1.484   1.111   7.586  0.8866 -2.9324  1.1692
 6403SOL     OW30667   4.007   0.658   7.521 -0.1094 -0.4813  0.2028
 6403SOL    HW130668   4.077   0.710   7.482  0.4162 -1.5438 -0.2883
 6403SOL    HW230669   4.049   0.572   7.529 -0.4978 -0.7326 -0.4363
 6404SOL     OW30670   0.895   3.098   6.676  0.1683 -0.2293  0.0068
 6404SOL    HW130671   0.990   3.101   6.684  0.2225  1.1353 -0.9856
 6404SOL    HW230672   0.872   3.189   6.656  1.7637  0.3738  0.9572
 6405SOL     OW30673   0.024   2.877   1.538  1.1214  0.3657  0.3855
 6405SOL    HW130674   4.699   2.935   1.600 -1.2462 -0.0790 -0.8939
 6405SOL    HW230675   0.063   2.810   1.595 -3.5784 -0.7902  2.2554
 6406SOL     OW30676   1.511   0.786   4.511  0.4192 -0.2705 -0.0117
 6406SOL    HW130677   1.553   0.716   4.561 -0.3640 -0.1245  0.8738
 6406SOL    HW230678   1.459   0.831   4.578  0.3868  0.2810 -0.4069
 6407SOL     OW30679   0.135   3.305  16.788  0.5144  0.4607  0.6223
 6407SOL    HW130680   0.163   3.284  16.877  2.0431  0.4231  0.1159
 6407SOL    HW230681   0.145   3.220  16.745  0.5036  0.4006  0.7375
 6408SOL     OW30682   0.257   2.350   8.917 -0.4336 -0.3926  0.0677
 6408SOL    HW130683   0.300   2.393   8.991 -2.5096  0.4495  0.7884
 6408SOL    HW230684   0.225   2.264   8.945  1.0018 -0.7022  0.7656
 6409SOL     OW30685   0.556   4.356   4.569  0.5969 -0.4835 -0.3434
 6409SOL    HW130686   0.517   4.373   4.655 -0.7675 -1.2538 -0.7973
 6409SOL    HW230687   0.478   4.350   4.513  2.3961 -1.7005 -2.6867
 6410SOL     OW30688   0.997   3.795   8.057 -0.1234 -0.0882  0.1695
 6410SOL    HW130689   1.036   3.732   7.996  0.5515 -0.4105  0.9480
 6410SOL    HW230690   1.076   3.829   8.098  1.0245 -0.1088 -2.0351
 6411SOL     OW30691   4.504   1.917  14.370  0.6643  0.4786 -0.3950
 6411SOL    HW130692   4.512   2.007  14.336  1.0574 -0.6377 -3.2694
 6411SOL    HW230693   4.555   1.921  14.451  0.7506  0.7435 -0.4615
 6412SOL     OW30694   2.987   4.645   2.027 -0.2535  0.1087 -0.0981
 6412SOL    HW130695   2.980   4.565   2.079 -0.3424 -0.3129 -0.7649
 6412SOL    HW230696   2.894   4.665   2.016 -0.3766 -0.2537  0.2594
 6413SOL     OW30697   1.197   1.716  14.466 -0.5462  0.0398 -0.3643
 6413SOL    HW130698   1.196   1.787  14.530 -1.4803 -0.6186  0.3592
 6413SOL    HW230699   1.128   1.656  14.495 -0.4811  0.5533  0.8505
 6414SOL     OW30700   0.491   4.068   4.699  0.4172 -0.0806 -0.2860
 6414SOL    HW130701   0.578   4.104   4.720  0.1079 -0.4641  1.6851
 6414SOL    HW230702   0.445   4.144   4.664  0.8343  0.8475  1.1768
 6415SOL     OW30703   2.638   3.642   8.770 -0.1305  1.1010  0.0650
 6415SOL    HW130704   2.621   3.734   8.751 -0.0337  1.3050  1.0004
 6415SOL    HW230705   2.607   3.601   8.689  2.0058 -0.2127 -0.0586
 6416SOL     OW30706   0.341   1.296  11.628 -0.4406 -0.6333  0.2286
 6416SOL    HW130707   0.382   1.215  11.661 -2.7171 -0.2528  3.9539
 6416SOL    HW230708   0.391   1.357  11.681  1.1298 -1.6114 -0.1136
 6417SOL     OW30709   0.940   1.739   7.792 -0.4178  0.0865 -0.0527
 6417SOL    HW130710   1.020   1.687   7.786  1.0098  2.0506  2.4147
 6417SOL    HW230711   0.912   1.691   7.871 -1.0375  1.1143  0.3549
 6418SOL     OW30712   2.441   2.010   7.414  0.4413 -0.2998 -0.1632
 6418SOL    HW130713   2.421   2.100   7.389 -4.1553 -1.8266 -2.0332
 6418SOL    HW230714   2.532   2.003   7.385  1.0760  0.3438  1.6641
 6419SOL     OW30715   4.460   4.345   4.632  0.0209  0.6749  0.4957
 6419SOL    HW130716   4.431   4.436   4.632  0.3969  0.7990 -0.4956
 6419SOL    HW230717   4.392   4.304   4.578  0.3265 -0.1831  0.7561
 6420SOL     OW30718   2.077   2.298   8.856  0.2588 -0.0390  0.7267
 6420SOL    HW130719   2.037   2.238   8.793 -0.0572 -0.8698  1.7208
 6420SOL    HW230720   2.100   2.380   8.811  1.4571 -0.5225  0.4596
 6421SOL     OW30721   2.753   4.263  17.430 -0.2660  0.0451 -0.5941
 6421SOL    HW130722   2.668   4.221  17.418 -0.6995  0.5756  0.7399
 6421SOL    HW230723   2.733   4.356  17.436  0.7672  0.2184  0.1473
 6422SOL     OW30724   3.606   1.864   7.954  0.6001 -0.2292  0.1223
 6422SOL    HW130725   3.616   1.853   8.049 -3.0423 -1.3078  0.3957
 6422SOL    HW230726   3.680   1.920   7.932  2.0212 -1.9087  0.6427
 6423SOL     OW30727   4.526   2.832   0.461 -0.0833  0.3876  0.2251
 6423SOL    HW130728   4.509   2.812   0.369 -1.2664 -1.0345  0.7447
 6423SOL    HW230729   4.583   2.757   0.480  2.4035  1.8283 -1.5307
 6424SOL     OW30730   0.971   4.714   4.815  0.0771  0.2706  0.2932
 6424SOL    HW130731   1.037   0.047   4.769  1.4619 -1.8266 -0.1221
 6424SOL    HW230732   0.984   4.620   4.800 -1.5507  0.0638  0.2091
 6425SOL     OW30733   0.119   1.872   2.281  0.4152 -0.0765 -0.0393
 6425SOL    HW130734   0.034   1.887   2.324  0.1901  1.5958 -1.0261
 6425SOL    HW230735   0.157   1.960   2.292 -0.5898  0.1252  1.7826
 6426SOL     OW30736   0.740   4.530   3.673  0.1152  0.3609  0.1624
 6426SOL    HW130737   0.735   4.451   3.618  2.7121 -3.3264  5.1866
 6426SOL    HW230738   0.808   4.578   3.625 -0.1977  1.5010  0.8621
 6427SOL     OW30739   1.360   3.360   2.812 -0.2756 -0.2276 -0.0693
 6427SOL    HW130740   1.387   3.399   2.729  0.2331 -3.5763 -1.4305
 6427SOL    HW230741   1.367   3.269   2.785  2.2279 -0.0603  0.0366
 6428SOL     OW30742   1.442   2.764   3.269  0.1260  0.7160 -0.3856
 6428SOL    HW130743   1.373   2.724   3.322  0.6445  0.0821 -0.1856
 6428SOL    HW230744   1.394   2.832   3.222  1.2926  1.4780 -0.4491
 6429SOL     OW30745   2.755   0.566   3.904 -0.2433 -0.9307  0.3878
 6429SOL    HW130746   2.696   0.585   3.830 -1.3731 -0.6957  1.3482
 6429SOL    HW230747   2.811   0.505   3.855  1.7239  0.6396  0.6936
 6430SOL     OW30748   0.605   2.510   9.776  0.1297  0.2732  0.1297
 6430SOL    HW130749   0.560   2.448   9.718 -0.5255 -1.3826  2.3973
 6430SOL    HW230750   0.578   2.591   9.733  0.1650  0.8253  1.1547
 6431SOL     OW30751   3.254   4.174  10.193  0.0322  0.1087 -0.0679
 6431SOL    HW130752   3.220   4.180  10.104 -0.5303 -2.8540 -0.0534
 6431SOL    HW230753   3.190   4.225  10.242  0.3181  1.4608 -1.1285
 6432SOL     OW30754   1.878   0.416   0.689  0.0353  0.5881 -0.2026
 6432SOL    HW130755   1.832   0.332   0.692  0.2158  0.4763 -0.6406
 6432SOL    HW230756   1.810   0.474   0.654 -1.1309 -0.6467  0.0119
 6433SOL     OW30757   0.723   4.322   3.484 -0.5226 -0.3789 -0.1324
 6433SOL    HW130758   0.715   4.386   3.414 -0.7590  0.9209  1.0792
 6433SOL    HW230759   0.768   4.251   3.438 -0.3150 -0.0780 -0.3851
 6434SOL     OW30760   0.501   4.428   4.281  0.1976  0.2525 -0.2597
 6434SOL    HW130761   0.484   4.362   4.213 -0.6340  0.5511 -0.3416
 6434SOL    HW230762   0.560   4.493   4.243  1.1355 -0.6545 -0.3328
 6435SOL     OW30763   3.838   1.400  17.251  0.3311 -0.7872 -0.8397
 6435SOL    HW130764   3.826   1.328  17.189 -0.1463 -1.2226 -0.2392
 6435SOL    HW230765   3.783   1.385  17.328  0.6261  1.5097 -0.1963
 6436SOL     OW30766   0.254   2.314   4.096 -0.3278 -0.6121 -0.6383
 6436SOL    HW130767   0.343   2.339   4.069  0.4940 -3.6153 -0.7922
 6436SOL    HW230768   0.257   2.345   4.187  2.3426  1.4172 -1.4166
 6437SOL     OW30769   2.373   3.791   4.037 -0.2785  0.5212 -0.1801
 6437SOL    HW130770   2.353   3.781   4.130  1.4358 -1.1102  0.0225
 6437SOL    HW230771   2.296   3.758   3.991 -0.6971  0.0742  0.8584
 6438SOL     OW30772   0.767   4.140   6.048  0.6054 -0.2371  0.1645
 6438SOL    HW130773   0.708   4.195   5.997 -0.0763 -1.4635 -0.3669
 6438SOL    HW230774   0.852   4.179   6.026  0.2081  1.0208  0.8726
 6439SOL     OW30775   4.310   3.237   0.714  0.1279  0.0642 -0.0270
 6439SOL    HW130776   4.368   3.188   0.655  0.3176  2.0546 -1.4793
 6439SOL    HW230777   4.231   3.188   0.691  0.4702 -1.1154  1.2878
 6440SOL     OW30778   0.807   3.411  16.681  0.0050  0.1317 -0.3943
 6440SOL    HW130779   0.741   3.381  16.743  0.6403 -1.9629 -0.7200
 6440SOL    HW230780   0.886   3.368  16.713  0.8560  1.1518 -1.1130
 6441SOL     OW30781   3.310   0.407   8.316 -0.1077 -0.2494 -0.8065
 6441SOL    HW130782   3.368   0.332   8.332 -0.5256  0.0850  2.2614
 6441SOL    HW230783   3.238   0.363   8.270  0.1687 -2.8088  1.1758
 6442SOL     OW30784   1.760   3.921   6.028  0.5523 -0.1478  0.2946
 6442SOL    HW130785   1.767   3.834   6.065  0.0914 -1.2541 -2.2009
 6442SOL    HW230786   1.671   3.924   5.992  1.2271 -1.1599 -1.4558
 6443SOL     OW30787   2.731   2.602   6.648 -0.2590 -0.5321  0.2200
 6443SOL    HW130788   2.639   2.603   6.622 -0.3660  2.4563  0.6453
 6443SOL    HW230789   2.733   2.548   6.726  0.6010  0.1950  0.7076
 6444SOL     OW30790   0.991   2.499   4.542  0.6031  0.4924  0.4761
 6444SOL    HW130791   0.904   2.460   4.553  0.4451  1.1748  1.6154
 6444SOL    HW230792   1.021   2.498   4.633  0.8555  1.7594  0.4107
 6445SOL     OW30793   1.791   1.944   0.092  0.4174 -0.4045  0.3525
 6445SOL    HW130794   1.817   2.032   0.067 -1.6431 -0.2361 -1.1618
 6445SOL    HW230795   1.752   1.901   0.016  0.8919  0.0946 -0.1708
 6446SOL     OW30796   0.874   1.567   7.985  0.3402  0.2385  0.2115
 6446SOL    HW130797   0.911   1.479   7.989  0.7080  0.3578 -0.5114
 6446SOL    HW230798   0.882   1.598   8.075 -1.2343 -2.2799  1.2340
 6447SOL     OW30799   4.458   4.098   6.406 -0.6027  0.1615 -0.5002
 6447SOL    HW130800   4.390   4.040   6.370 -1.1351 -0.5314  1.6458
 6447SOL    HW230801   4.402   4.165   6.445 -0.3221  1.0599 -1.6350
 6448SOL     OW30802   3.464   1.853   7.319 -0.2535 -0.2585  0.3893
 6448SOL    HW130803   3.521   1.863   7.395 -0.5729 -0.3616  0.6394
 6448SOL    HW230804   3.527   1.824   7.253 -0.1194  1.5345 -0.2941
 6449SOL     OW30805   0.682   3.825   7.259 -0.0800  0.0857  0.5804
 6449SOL    HW130806   0.619   3.896   7.255 -2.6775 -2.3062 -0.7765
 6449SOL    HW230807   0.756   3.867   7.304  1.7365 -2.1450 -0.2670
 6450SOL     OW30808   4.021   0.424  15.238  0.0352 -0.5045  0.7170
 6450SOL    HW130809   4.057   0.335  15.242 -0.4930 -0.6905  1.4115
 6450SOL    HW230810   3.928   0.411  15.256 -0.2242 -0.5213 -0.6121
 6451SOL     OW30811   2.194   2.738   3.625  0.4154  0.1286  0.9227
 6451SOL    HW130812   2.237   2.823   3.633  2.9012 -0.9526 -1.0372
 6451SOL    HW230813   2.262   2.677   3.596  1.2741  1.0139  1.0690
 6452SOL     OW30814   2.153   0.053   4.475  0.3452 -0.5387  0.5713
 6452SOL    HW130815   2.065   0.042   4.510 -0.4672  1.5006 -0.8399
 6452SOL    HW230816   2.177   0.142   4.501 -3.1803 -0.2875  2.8873
 6453SOL     OW30817   0.383   3.772   8.498  0.1986  0.5222 -0.6158
 6453SOL    HW130818   0.312   3.709   8.505  1.4832 -0.8763 -0.0966
 6453SOL    HW230819   0.455   3.712   8.477  0.2768  0.9504 -1.6107
 6454SOL     OW30820   2.966   0.119   8.402 -0.2999  0.1854  0.3869
 6454SOL    HW130821   3.040   0.069   8.437  1.1035  0.3274 -2.3297
 6454SOL    HW230822   2.885   0.092   8.445 -0.2104  0.8344  0.9546
 6455SOL     OW30823   4.393   2.919   7.049 -0.6132 -0.1527  0.0288
 6455SOL    HW130824   4.464   2.921   7.114  1.0891 -1.1997 -1.7769
 6455SOL    HW230825   4.355   3.006   7.043  1.4755  0.7646 -0.1297
 6456SOL     OW30826   1.169   0.246  17.549  0.2836  0.2515  0.2303
 6456SOL    HW130827   1.151   0.250  17.455 -0.2323 -2.5394  0.2071
 6456SOL    HW230828   1.128   0.327  17.579  0.1401 -0.2523  1.3969
 6457SOL     OW30829   2.308   1.917  15.007 -0.1776 -0.0340  0.1309
 6457SOL    HW130830   2.389   1.875  15.035 -0.0224  0.2325  0.0797
 6457SOL    HW230831   2.341   1.996  14.964  1.3816 -1.6623 -1.6509
 6458SOL     OW30832   3.641   1.046   3.315  1.1675 -0.1856 -0.3485
 6458SOL    HW130833   3.679   0.991   3.247  0.0294 -0.0592 -1.0745
 6458SOL    HW230834   3.591   1.117   3.274  3.1572 -0.2645 -2.9169
 6459SOL     OW30835   0.792   3.859   1.339 -0.2794  0.1693  0.1267
 6459SOL    HW130836   0.778   3.769   1.367  3.4954 -0.2135  0.8360
 6459SOL    HW230837   0.753   3.900   1.416 -0.5161 -1.6615  0.9758
 6460SOL     OW30838   1.885   2.670   8.872  0.3763 -0.1470 -0.0727
 6460SOL    HW130839   1.796   2.704   8.864  1.7876  4.1826  2.9079
 6460SOL    HW230840   1.938   2.748   8.886 -0.4543  0.4356 -0.1804
 6461SOL     OW30841   3.073   0.821  10.502  0.6331  0.2686  0.4345
 6461SOL    HW130842   3.006   0.764  10.541  1.5703 -0.7218  0.5951
 6461SOL    HW230843   3.101   0.783  10.419  0.6407  2.2289 -0.4537
 6462SOL     OW30844   2.756   2.224   1.744 -0.9240 -0.2038  0.0326
 6462SOL    HW130845   2.829   2.167   1.769 -1.4066 -1.0229 -0.4261
 6462SOL    HW230846   2.740   2.251   1.835 -2.3832 -0.6796 -0.0903
 6463SOL     OW30847   2.886   3.152   4.734 -0.4191  0.0067 -0.0075
 6463SOL    HW130848   2.892   3.105   4.818 -2.0974 -1.9573 -0.9965
 6463SOL    HW230849   2.791   3.156   4.725 -0.4780  0.7505  0.8648
 6464SOL     OW30850   1.214   3.477   3.734  0.1077 -0.9316 -0.1751
 6464SOL    HW130851   1.254   3.467   3.821  1.2179  0.7870 -0.4992
 6464SOL    HW230852   1.293   3.503   3.688  0.5293  0.7803  1.4981
 6465SOL     OW30853   1.336   2.378   1.297  0.0107  0.5783  0.0090
 6465SOL    HW130854   1.299   2.464   1.315  0.8108  0.5978  1.5784
 6465SOL    HW230855   1.283   2.359   1.219  0.2811 -0.9265  0.1935
 6466SOL     OW30856   3.890   0.862   2.477 -0.5888  0.1950 -0.3178
 6466SOL    HW130857   3.865   0.797   2.412  0.8039  0.2188 -0.8831
 6466SOL    HW230858   3.986   0.864   2.472 -0.5822  0.5669 -0.0921
 6467SOL     OW30859   0.388   3.615  16.815  0.9436 -0.3273  0.1571
 6467SOL    HW130860   0.430   3.529  16.809  1.0890 -0.2664  0.3094
 6467SOL    HW230861   0.406   3.648  16.727 -1.2480  1.1597  0.2845
 6468SOL     OW30862   2.550   3.125   7.912  0.2648 -0.5539 -0.0032
 6468SOL    HW130863   2.640   3.092   7.921  1.6673  3.7035  1.5758
 6468SOL    HW230864   2.516   3.122   8.001  1.9614  2.0935  0.7475
 6469SOL     OW30865   4.282   2.225   9.772 -0.3169 -0.4168  0.4976
 6469SOL    HW130866   4.350   2.292   9.780 -0.8138  0.1270  0.1066
 6469SOL    HW230867   4.305   2.171   9.848 -1.4485  2.4344  2.8740
 6470SOL     OW30868   0.881   2.512   3.854  0.1601  0.1284 -0.2910
 6470SOL    HW130869   0.795   2.525   3.814 -0.0957 -2.6012 -0.6413
 6470SOL    HW230870   0.896   2.418   3.849 -0.1338  0.0015  1.0412
 6471SOL     OW30871   3.452   2.348   6.070  0.4944 -0.0964  0.1833
 6471SOL    HW130872   3.383   2.353   6.136 -0.4086 -1.2958 -0.6871
 6471SOL    HW230873   3.526   2.366   6.129  0.2616  1.5380 -0.0225
 6472SOL     OW30874   4.225   3.744   5.527 -0.2700 -0.5669  0.5040
 6472SOL    HW130875   4.145   3.777   5.568  0.8858  2.6562  0.1553
 6472SOL    HW230876   4.279   3.745   5.606 -1.1397 -0.7600  1.1072
 6473SOL     OW30877   0.035   3.228   7.844  0.0210  0.5318 -0.8399
 6473SOL    HW130878   0.033   3.279   7.763 -0.9199  1.4686 -0.2155
 6473SOL    HW230879   4.663   3.228   7.871  0.1192 -0.4445 -0.5023
 6474SOL     OW30880   3.886   3.613   7.678  0.3050 -0.3263 -0.1889
 6474SOL    HW130881   3.891   3.607   7.774 -0.4168  1.9822 -0.0104
 6474SOL    HW230882   3.964   3.561   7.658  1.5089  2.1312 -1.9101
 6475SOL     OW30883   2.797   1.982   7.956  0.0139  0.0445 -0.1948
 6475SOL    HW130884   2.849   1.924   8.011 -0.4414 -1.2132 -1.1126
 6475SOL    HW230885   2.753   2.042   8.017  1.5347  0.8281  0.1322
 6476SOL     OW30886   2.636   1.034   6.060  0.5166 -0.1005  0.3516
 6476SOL    HW130887   2.545   1.060   6.070  1.0057  1.1994  1.5076
 6476SOL    HW230888   2.632   0.980   6.139  0.7402  0.0294  0.4528
 6477SOL     OW30889   0.850   2.046   3.910  0.0001  0.0144 -0.1103
 6477SOL    HW130890   0.923   2.101   3.938 -0.8759  1.2369 -0.2286
 6477SOL    HW230891   0.818   2.081   3.827 -1.8367  1.7618  1.3305
 6478SOL     OW30892   0.557   4.556   8.763 -0.2905 -0.6885 -0.0961
 6478SOL    HW130893   0.636   4.502   8.760 -0.9438 -1.6779  0.5736
 6478SOL    HW230894   0.575   4.628   8.703 -2.7686  1.3638  1.6389
 6479SOL     OW30895   0.856   4.159   3.313  0.4356  0.3640  0.0638
 6479SOL    HW130896   0.935   4.212   3.311  0.4557  0.2313 -2.2670
 6479SOL    HW230897   0.831   4.168   3.221 -1.8533 -1.8280  0.4654
 6480SOL     OW30898   2.301   3.600  10.259  0.5618 -0.1685 -0.0523
 6480SOL    HW130899   2.302   3.572  10.351 -1.6079 -1.1392 -0.3244
 6480SOL    HW230900   2.394   3.604  10.237  0.5281  1.0372  0.0116
 6481SOL     OW30901   4.420   3.723  17.155 -0.2627  0.2980 -0.4532
 6481SOL    HW130902   4.331   3.744  17.182  0.2103  0.6464  0.8595
 6481SOL    HW230903   4.398   3.658  17.088  2.0976  0.7781 -1.6975
 6482SOL     OW30904   3.317   4.604  10.246  0.3424  0.7558  0.3538
 6482SOL    HW130905   3.399   4.567  10.280  1.3441  2.9713  0.3649
 6482SOL    HW230906   3.326   4.564  10.160 -1.5677  0.1379  0.4307
 6483SOL     OW30907   2.599   3.757  10.896 -0.5042  0.1068 -0.1740
 6483SOL    HW130908   2.586   3.797  10.982  1.3058  3.2161 -1.3349
 6483SOL    HW230909   2.626   3.825  10.833  0.3959 -0.2695 -0.1956
 6484SOL     OW30910   4.530   2.966  13.740 -0.0036  0.1421  0.4303
 6484SOL    HW130911   4.471   2.943  13.812 -0.8693  0.7986 -0.0761
 6484SOL    HW230912   4.463   2.935  13.680 -1.3768  1.5392  1.2551
 6485SOL     OW30913   2.783   1.312   3.871 -0.3245  0.6533 -0.0323
 6485SOL    HW130914   2.714   1.377   3.859 -0.8867 -0.2631 -1.6018
 6485SOL    HW230915   2.771   1.296   3.965 -0.9400  2.3406  0.1817
 6486SOL     OW30916   3.565   2.136   8.173  0.4759  0.2377 -0.2065
 6486SOL    HW130917   3.620   2.166   8.101  0.7988 -0.8572 -0.4202
 6486SOL    HW230918   3.593   2.206   8.231 -2.6985  1.5937 -0.3024
 6487SOL     OW30919   2.578   2.330  10.942  0.5500 -0.5557 -0.0579
 6487SOL    HW130920   2.603   2.389  10.870  2.6570 -0.1940  0.9700
 6487SOL    HW230921   2.483   2.332  10.935  0.5166  2.0063  1.4214
 6488SOL     OW30922   2.879   3.850   7.154 -0.1036  0.2728 -0.0080
 6488SOL    HW130923   2.931   3.916   7.108 -1.1626 -0.2057 -1.8859
 6488SOL    HW230924   2.930   3.774   7.124  0.6277  1.3856 -1.6165
 6489SOL     OW30925   3.850   2.963   2.171 -0.2489  0.0062  0.2272
 6489SOL    HW130926   3.926   2.967   2.113 -1.1804  0.6500 -0.9379
 6489SOL    HW230927   3.846   2.878   2.215  2.7652 -0.7835 -1.0044
 6490SOL     OW30928   0.078   4.410   3.655 -0.2196  0.0379 -0.0809
 6490SOL    HW130929   0.010   4.397   3.721 -1.1858  1.7027 -0.7418
 6490SOL    HW230930   0.150   4.417   3.717 -0.3435  0.9658 -0.0418
 6491SOL     OW30931   0.031   0.711   6.199 -0.1329 -0.1090  0.9422
 6491SOL    HW130932   0.079   0.774   6.145 -0.6943  0.5049  1.1568
 6491SOL    HW230933   0.112   0.661   6.211  0.0116 -0.8409 -3.1008
 6492SOL     OW30934   1.402   2.235   6.133 -0.0150  0.0041 -0.4077
 6492SOL    HW130935   1.346   2.313   6.137 -0.8425 -0.6682  1.6946
 6492SOL    HW230936   1.378   2.192   6.215 -1.6904 -1.5780 -1.7248
 6493SOL     OW30937   1.343   3.922   9.137 -0.1197 -0.8095 -0.5331
 6493SOL    HW130938   1.354   3.853   9.071 -1.6803  0.7839 -2.4464
 6493SOL    HW230939   1.257   3.960   9.122  0.1730  0.9390  2.3103
 6494SOL     OW30940   0.463   3.757  14.195  0.4459  0.4486  0.3603
 6494SOL    HW130941   0.423   3.700  14.129 -2.1210  1.3586  1.0981
 6494SOL    HW230942   0.386   3.767  14.252 -1.7137  1.1178 -2.6349
 6495SOL     OW30943   1.691   3.448  13.718  0.0692 -0.9213  0.0492
 6495SOL    HW130944   1.664   3.519  13.776  0.6607 -1.2665  0.7503
 6495SOL    HW230945   1.609   3.398  13.718 -0.5974  0.1861  0.3951
 6496SOL     OW30946   1.893   2.349   8.228 -0.3548 -0.7287 -0.1383
 6496SOL    HW130947   1.909   2.413   8.159 -2.1012 -0.9853 -0.7825
 6496SOL    HW230948   1.981   2.317   8.247  0.3758 -0.0913 -2.4339
 6497SOL     OW30949   0.120   0.201   4.073 -0.1440  0.4590 -0.2070
 6497SOL    HW130950   0.154   0.215   3.985  3.0810 -0.4857  0.8739
 6497SOL    HW230951   0.202   0.163   4.104  0.6394  1.2600 -1.3155
 6498SOL     OW30952   3.978   3.604   2.136  0.0296 -0.0782 -0.0089
 6498SOL    HW130953   3.984   3.666   2.063 -0.2325  1.7971  1.5669
 6498SOL    HW230954   4.010   3.529   2.086  0.5969  0.3169 -0.2300
 6499SOL     OW30955   3.724   4.345  16.817  0.1809 -0.2742  0.3252
 6499SOL    HW130956   3.706   4.375  16.906  1.0026 -0.7978  0.6687
 6499SOL    HW230957   3.684   4.410  16.759 -2.4980 -1.1488  1.1978
 6500SOL     OW30958   3.238   0.891  10.735 -0.4787 -0.1534  0.5603
 6500SOL    HW130959   3.297   0.818  10.718 -0.1733  0.3528 -0.5647
 6500SOL    HW230960   3.167   0.866  10.676  0.9595 -0.4066 -1.0949
 6501SOL     OW30961   0.355   0.065   0.935 -0.1135  0.1277 -0.2023
 6501SOL    HW130962   0.286   0.124   0.966 -1.2063 -0.5989 -1.2511
 6501SOL    HW230963   0.349   4.712   0.997  1.9789  0.2471  0.1327
 6502SOL     OW30964   4.416   2.323  17.170 -0.2728  0.2194 -0.1366
 6502SOL    HW130965   4.408   2.243  17.118  1.1712 -0.7769  1.1745
 6502SOL    HW230966   4.379   2.387  17.109 -0.8700 -0.1600 -0.1749
 6503SOL     OW30967   0.483   0.289   5.962  0.4171  0.4597 -0.1176
 6503SOL    HW130968   0.396   0.328   5.958  0.2773  0.3258  1.7450
 6503SOL    HW230969   0.526   0.329   5.886  0.2168  0.5225 -0.1972
 6504SOL     OW30970   2.320   2.964   3.691  0.2745  0.6997  0.0212
 6504SOL    HW130971   2.349   3.012   3.769 -2.2542 -0.6061  1.7615
 6504SOL    HW230972   2.401   2.965   3.642  0.5023  2.3700  0.4117
 6505SOL     OW30973   0.467   2.993   8.003 -0.0053 -0.1970 -0.7750
 6505SOL    HW130974   0.387   3.041   7.984 -0.2059 -0.4660 -0.6045
 6505SOL    HW230975   0.505   3.051   8.069  2.6523  0.4390 -2.8638
 6506SOL     OW30976   2.216   2.886   6.408  0.4156  0.5432 -0.8163
 6506SOL    HW130977   2.230   2.857   6.318  1.5027 -0.4550 -0.3104
 6506SOL    HW230978   2.130   2.847   6.426  0.3269  0.2185 -1.9555
 6507SOL     OW30979   0.940   3.819   8.337  0.5610 -0.5290 -0.0439
 6507SOL    HW130980   0.977   3.781   8.257  1.1605  0.2829 -0.1498
 6507SOL    HW230981   1.012   3.808   8.400  0.6207  0.3475  0.0347
 6508SOL     OW30982   3.621   4.604   2.291  0.2340 -0.5010 -0.3500
 6508SOL    HW130983   3.684   4.675   2.292 -1.4873  1.0177  0.3173
 6508SOL    HW230984   3.663   4.541   2.232  0.6048 -0.3376 -0.2570
 6509SOL     OW30985   0.293   3.857   5.268  0.2049 -0.3474  0.8788
 6509SOL    HW130986   0.388   3.856   5.266  0.1860  0.7333 -0.1162
 6509SOL    HW230987   0.266   3.793   5.202  1.1250  0.4809 -0.2849
 6510SOL     OW30988   4.415   4.559  13.170 -0.0071  0.2671  0.3687
 6510SOL    HW130989   4.409   4.487  13.107 -0.3407  0.2177  0.4578
 6510SOL    HW230990   4.359   4.620  13.122  0.1519  0.9178  1.0172
 6511SOL     OW30991   2.220   3.708   8.597 -0.2782  0.3336  0.0661
 6511SOL    HW130992   2.141   3.760   8.584 -0.4640  0.3506  1.2402
 6511SOL    HW230993   2.281   3.744   8.533 -1.5355  0.1666 -1.2258
 6512SOL     OW30994   0.936   2.325   3.091  0.2042  0.3057 -0.1677
 6512SOL    HW130995   1.002   2.394   3.103  0.4267  0.4552 -2.3343
 6512SOL    HW230996   0.985   2.247   3.065 -1.8906 -0.8534 -0.6354
 6513SOL     OW30997   4.592   3.140   1.251 -0.2991 -0.0371 -0.4309
 6513SOL    HW130998   4.670   3.163   1.301 -1.8534  0.7952  1.6189
 6513SOL    HW230999   4.528   3.200   1.289 -3.4022 -2.5049 -1.7191
 6514SOL     OW31000   0.333   0.285   7.114  0.2805 -0.0318  0.6319
 6514SOL    HW131001   0.383   0.221   7.164  0.4194 -0.4898 -0.0946
 6514SOL    HW231002   0.325   0.231   7.035 -0.0661 -2.4369  2.3149
 6515SOL     OW31003   2.366   1.531   9.475  0.2572  0.4558 -0.1144
 6515SOL    HW131004   2.397   1.482   9.399 -2.0081 -1.2834  0.0699
 6515SOL    HW231005   2.433   1.599   9.477 -1.8207  2.4369  1.9186
 6516SOL     OW31006   3.672   1.774  17.590  0.2432 -0.1839  0.4176
 6516SOL    HW131007   3.631   1.821  17.518 -0.3520  0.8012  1.4028
 6516SOL    HW231008   3.742   1.839  17.588  0.7898 -0.7815  0.2290
 6517SOL     OW31009   0.514   0.063   3.576 -0.1232  0.3222 -0.2949
 6517SOL    HW131010   0.535   0.156   3.583  2.3679 -0.1913 -0.9477
 6517SOL    HW231011   0.562   0.035   3.654 -0.8946  1.4944  0.6089
 6518SOL     OW31012   1.204   2.312   4.902 -0.5273 -0.4129 -0.4770
 6518SOL    HW131013   1.162   2.308   4.987  1.0608 -2.0769  0.2326
 6518SOL    HW231014   1.185   2.221   4.878 -0.7429 -0.9207  1.6622
 6519SOL     OW31015   3.769   4.331   5.447  0.0739 -0.0692 -0.0011
 6519SOL    HW131016   3.840   4.392   5.464 -0.9450  1.9519 -3.0416
 6519SOL    HW231017   3.805   4.251   5.486  1.5591  1.5241  1.9118
 6520SOL     OW31018   3.266   2.081   3.332 -0.2263  0.2464  0.3045
 6520SOL    HW131019   3.255   2.170   3.298  1.3333  0.7919  1.2188
 6520SOL    HW231020   3.178   2.047   3.315  0.0123 -0.1254 -0.1867
 6521SOL     OW31021   2.561   1.418   0.629 -0.6457 -0.3989  0.4671
 6521SOL    HW131022   2.624   1.392   0.562  0.1785 -0.5807  1.3145
 6521SOL    HW231023   2.538   1.505   0.594 -0.7662 -0.8084 -0.4662
 6522SOL     OW31024   1.833   3.502  17.346  0.1449 -0.2557 -0.9639
 6522SOL    HW131025   1.800   3.416  17.371 -1.5686  1.0644  1.3528
 6522SOL    HW231026   1.875   3.533  17.426 -1.6140 -0.7436  0.1459
 6523SOL     OW31027   4.667   2.407   5.161  1.0966  0.0573 -0.2768
 6523SOL    HW131028   4.580   2.429   5.130  1.0278  3.4346  2.4184
 6523SOL    HW231029   0.002   2.460   5.102  2.3426  0.1853  0.9681
 6524SOL     OW31030   0.844   2.168   5.064  0.5997 -0.3969  0.3386
 6524SOL    HW131031   0.804   2.190   4.980  0.4847  1.0433  0.7742
 6524SOL    HW231032   0.833   2.248   5.115  1.9739 -0.9500  1.5193
 6525SOL     OW31033   0.891   2.443   9.764  0.4387  0.3058 -0.2801
 6525SOL    HW131034   0.935   2.516   9.719 -1.4483  1.0959 -0.8563
 6525SOL    HW231035   0.800   2.467   9.748  0.4663 -0.5331 -1.7005
 6526SOL     OW31036   1.687   3.177   4.668  0.1845  0.3496 -0.4320
 6526SOL    HW131037   1.698   3.121   4.745 -3.1843 -1.4683 -1.3008
 6526SOL    HW231038   1.770   3.155   4.626 -0.4541 -0.0085 -1.4887
 6527SOL     OW31039   0.724   4.112   9.155 -0.1775 -0.4649  0.3283
 6527SOL    HW131040   0.639   4.121   9.113 -1.3555 -0.9534  2.6330
 6527SOL    HW231041   0.765   4.038   9.110  1.2942  0.1402  0.6516
 6528SOL     OW31042   0.874   2.486   7.710  0.0282 -0.2573 -0.3346
 6528SOL    HW131043   0.898   2.398   7.739  2.8631 -0.5899 -3.6047
 6528SOL    HW231044   0.948   2.501   7.651 -0.0734 -2.4801 -1.0064
 6529SOL     OW31045   2.729   3.047   3.763 -0.0910  0.3538 -0.3950
 6529SOL    HW131046   2.819   3.047   3.731  0.2133  0.0213  0.4480
 6529SOL    HW231047   2.684   3.109   3.705  0.8309  0.2351 -1.2297
 6530SOL     OW31048   3.849   4.335  10.729  0.1860  0.6004 -0.5876
 6530SOL    HW131049   3.844   4.378  10.814  1.1365 -0.9863  0.2672
 6530SOL    HW231050   3.945   4.334  10.734 -0.0358 -2.1255  3.1636
 6531SOL     OW31051   0.833   3.180   7.405 -0.0536  0.2041  0.1984
 6531SOL    HW131052   0.834   3.255   7.346  1.8743 -0.4347 -0.5813
 6531SOL    HW231053   0.745   3.189   7.441 -0.9616 -1.1154 -1.7616
 6532SOL     OW31054   0.072   3.498   8.127 -0.4634  0.1392  0.4583
 6532SOL    HW131055   0.021   3.422   8.156 -1.8274  1.0415  0.4364
 6532SOL    HW231056   0.003   3.564   8.121 -1.5339 -0.8511  1.7047
 6533SOL     OW31057   3.056   1.353  10.196 -0.1920  0.4844 -0.0218
 6533SOL    HW131058   3.131   1.365  10.255 -0.6678  0.2582  0.6366
 6533SOL    HW231059   3.097   1.383  10.115  0.9049  1.0682  0.7461
 6534SOL     OW31060   2.085   2.548   8.708  0.2568 -0.0333  0.0871
 6534SOL    HW131061   2.019   2.570   8.772  0.2145  0.7634 -0.2363
 6534SOL    HW231062   2.036   2.562   8.627  3.3201 -1.7717 -2.0997
 6535SOL     OW31063   2.691   0.266   0.345  0.6316 -0.0314 -0.1050
 6535SOL    HW131064   2.732   0.327   0.406  2.4556  0.4294 -1.7721
 6535SOL    HW231065   2.762   0.203   0.359  1.1832  0.5910 -0.0387
 6536SOL     OW31066   4.440   3.691   4.186  0.3756  0.0019 -0.2522
 6536SOL    HW131067   4.457   3.723   4.097  0.4100 -0.1453 -0.2977
 6536SOL    HW231068   4.425   3.769   4.241  0.4151 -0.7985  0.8814
 6537SOL     OW31069   1.908   0.737  16.944 -0.5125 -0.4050  0.2672
 6537SOL    HW131070   1.912   0.711  16.852  1.3595 -0.1694  0.2904
 6537SOL    HW231071   1.857   0.661  16.971 -0.9151  0.4473  1.8917
 6538SOL     OW31072   4.076   0.768   3.739  0.5961 -0.5001 -0.3632
 6538SOL    HW131073   4.074   0.807   3.651 -0.8603 -2.0428 -1.0162
 6538SOL    HW231074   3.987   0.732   3.737  0.1006  0.7555 -1.3395
 6539SOL     OW31075   0.390   1.222   0.218  0.3119  0.3097  0.1506
 6539SOL    HW131076   0.381   1.230   0.313 -3.4684 -0.9762 -0.0959
 6539SOL    HW231077   0.395   1.129   0.198 -0.7507  0.1761  0.4838
 6540SOL     OW31078   4.078   3.906   5.709 -0.2714  0.1695 -0.2236
 6540SOL    HW131079   4.162   3.894   5.754  0.6654  2.1583 -1.4258
 6540SOL    HW231080   4.032   3.945   5.783 -0.1316  0.1594 -0.1321
 6541SOL     OW31081   0.452   3.991  11.128 -1.4625  0.0343 -0.3423
 6541SOL    HW131082   0.505   3.998  11.208 -2.0799 -1.3429  0.1799
 6541SOL    HW231083   0.510   3.946  11.067  1.0162  3.1697 -0.3380
 6542SOL     OW31084   1.860   4.238   2.251 -0.2377  0.5925 -0.0696
 6542SOL    HW131085   1.920   4.212   2.181 -0.7839  0.1705 -0.3812
 6542SOL    HW231086   1.910   4.211   2.329  0.2198  0.5864 -0.3663
 6543SOL     OW31087   0.489   3.362  16.796  0.4273  0.2170  0.4111
 6543SOL    HW131088   0.453   3.308  16.866  0.4840  0.9079  0.9706
 6543SOL    HW231089   0.480   3.297  16.726 -0.5200 -0.3177  1.0229
 6544SOL     OW31090   1.403   2.465   3.087  0.2366 -0.1542  0.1005
 6544SOL    HW131091   1.447   2.500   3.010 -0.7378  0.3375 -0.2301
 6544SOL    HW231092   1.324   2.456   3.034  1.2761  1.7892 -1.7911
 6545SOL     OW31093   2.396   1.576   5.841 -0.4796 -0.1186 -0.4512
 6545SOL    HW131094   2.481   1.617   5.856 -2.2032  3.7278 -1.2171
 6545SOL    HW231095   2.372   1.548   5.929  0.0047 -2.0614 -0.9310
 6546SOL     OW31096   1.657   2.323   2.566  0.0901 -0.0199 -0.4692
 6546SOL    HW131097   1.609   2.241   2.578 -0.3961  0.5139  1.2386
 6546SOL    HW231098   1.741   2.288   2.537  0.6448 -0.1284  1.2431
 6547SOL     OW31099   3.454   0.600   8.210  0.1013 -0.1431  0.5679
 6547SOL    HW131100   3.403   0.539   8.262 -0.3838  0.4193  0.7462
 6547SOL    HW231101   3.387   0.644   8.158  1.2633 -1.3086 -1.9002
 6548SOL     OW31102   2.355   2.224  16.233 -0.0587 -0.4623  0.1864
 6548SOL    HW131103   2.370   2.296  16.172  1.1788 -0.3700  0.5999
 6548SOL    HW231104   2.320   2.262  16.314 -1.7270 -2.1653  0.2347
 6549SOL     OW31105   2.461   2.175   1.844  0.7760 -0.6145 -0.1054
 6549SOL    HW131106   2.456   2.263   1.806 -0.9557  0.9235  3.6444
 6549SOL    HW231107   2.480   2.210   1.930 -1.5639 -0.8659  0.5252
 6550SOL     OW31108   1.762   3.483   2.183 -0.0393  0.0898 -0.1539
 6550SOL    HW131109   1.855   3.495   2.205 -0.9299  1.5059  2.8000
 6550SOL    HW231110   1.776   3.418   2.114  1.7942  0.5534 -0.2309
 6551SOL     OW31111   2.069   3.610   2.629  0.2053 -0.2541  0.5288
 6551SOL    HW131112   2.003   3.569   2.573 -0.2165  2.0183 -0.6720
 6551SOL    HW231113   2.068   3.550   2.703  0.4781 -0.7508  0.1301
 6552SOL     OW31114   0.610   1.272   4.312 -0.3391  0.0576 -0.0589
 6552SOL    HW131115   0.567   1.194   4.277 -0.5438  0.8895 -1.7071
 6552SOL    HW231116   0.669   1.295   4.240  0.8823 -0.9877  0.6145
 6553SOL     OW31117   2.481   2.973   3.254  0.6216  0.1958 -0.6636
 6553SOL    HW131118   2.543   2.944   3.187 -0.8072 -0.2214 -1.8173
 6553SOL    HW231119   2.448   3.050   3.208  0.7298 -0.4402 -1.8134
 6554SOL     OW31120   4.469   4.489   9.189  0.0358  0.2708 -0.1071
 6554SOL    HW131121   4.438   4.550   9.123 -0.7112 -0.1383 -0.1423
 6554SOL    HW231122   4.424   4.414   9.149 -1.2075  0.2142  1.4116
 6555SOL     OW31123   3.134   3.876  16.928  0.2930 -0.1661 -0.5522
 6555SOL    HW131124   3.051   3.871  16.975 -0.9184 -0.6974 -2.7083
 6555SOL    HW231125   3.106   3.946  16.870 -0.6988 -0.8698 -0.9279
 6556SOL     OW31126   2.019   1.419   1.093 -0.1924  0.3973 -0.0880
 6556SOL    HW131127   2.002   1.380   1.007 -0.7391  1.0275 -0.2635
 6556SOL    HW231128   2.038   1.508   1.064  0.8117 -0.7205 -2.8529
 6557SOL     OW31129   1.162   1.788   0.841 -0.2651 -0.6602  0.1019
 6557SOL    HW131130   1.235   1.741   0.881 -0.4304  0.0238  1.2120
 6557SOL    HW231131   1.205   1.854   0.786  1.3139 -1.8465 -0.0861
 6558SOL     OW31132   0.477   1.209   4.724  0.0098  0.2435 -0.5661
 6558SOL    HW131133   0.545   1.164   4.773  1.6145  2.4468 -0.7752
 6558SOL    HW231134   0.475   1.163   4.639  1.9105 -0.8223 -0.0221
 6559SOL     OW31135   3.709   1.133   2.165 -0.0819 -0.0656 -0.4279
 6559SOL    HW131136   3.767   1.186   2.220 -0.9523 -0.2874  0.6948
 6559SOL    HW231137   3.726   1.174   2.080 -0.1621 -0.6033 -0.7044
 6560SOL     OW31138   0.153   3.244   3.038  0.2002  0.2080 -0.0578
 6560SOL    HW131139   0.123   3.222   2.950  0.9752 -3.3594  0.5529
 6560SOL    HW231140   0.076   3.294   3.064 -0.0894 -1.0255  1.4747
 6561SOL     OW31141   0.731   2.674  12.745 -0.1697 -0.1877 -0.0215
 6561SOL    HW131142   0.643   2.702  12.721 -0.3963 -1.8236 -1.0904
 6561SOL    HW231143   0.775   2.738  12.801 -1.6425  2.9485 -2.4959
 6562SOL     OW31144   2.909   3.662  16.113 -0.3763  0.6285 -0.4403
 6562SOL    HW131145   2.943   3.572  16.108 -1.4682  0.3589 -3.3675
 6562SOL    HW231146   2.967   3.706  16.050  1.0108  0.6822  0.8669
 6563SOL     OW31147   3.462   1.177   5.919 -0.1067  0.0887  0.3969
 6563SOL    HW131148   3.515   1.257   5.922  0.9632 -0.5370 -2.4105
 6563SOL    HW231149   3.492   1.151   5.832  0.8362 -1.1470  1.0882
 6564SOL     OW31150   2.214   0.704  13.140 -0.1549  0.6528 -0.0162
 6564SOL    HW131151   2.132   0.738  13.174 -0.5533 -1.1665  0.8444
 6564SOL    HW231152   2.213   0.742  13.052  1.3304  0.1505 -0.2495
 6565SOL     OW31153   1.162   3.136   7.403 -0.3197 -0.7234  0.3831
 6565SOL    HW131154   1.241   3.127   7.455 -0.9322 -5.9852  0.4643
 6565SOL    HW231155   1.094   3.135   7.471 -0.4748  3.8055  0.3026
 6566SOL     OW31156   3.444   3.898  14.552 -0.4830  0.2211 -0.2736
 6566SOL    HW131157   3.447   3.803  14.547 -1.6909  0.1475  0.3140
 6566SOL    HW231158   3.379   3.905  14.622  0.2563  1.4104  0.2927
 6567SOL     OW31159   2.648   4.460   7.273  0.7833 -0.3858  0.1797
 6567SOL    HW131160   2.654   4.399   7.346 -0.6402  0.3471  0.9227
 6567SOL    HW231161   2.702   4.536   7.297  1.2913 -2.3186  5.0784
 6568SOL     OW31162   2.387   1.184   4.006  0.1555  0.2913  0.0541
 6568SOL    HW131163   2.329   1.132   3.951  0.2332  2.6271 -2.2246
 6568SOL    HW231164   2.465   1.172   3.952 -0.2401  1.8853 -0.8646
 6569SOL     OW31165   0.626   0.662   7.977 -1.0100 -0.0923  0.2433
 6569SOL    HW131166   0.700   0.690   7.922 -0.5269 -1.0001  0.4447
 6569SOL    HW231167   0.564   0.729   7.946  1.2444  0.9428 -1.9898
 6570SOL     OW31168   1.737   2.252   0.384 -0.3102  0.0165 -0.5183
 6570SOL    HW131169   1.727   2.168   0.428  2.0899 -0.9691 -1.8723
 6570SOL    HW231170   1.706   2.312   0.452 -0.0406 -0.4759  0.0378
 6571SOL     OW31171   3.528   0.626   4.887  0.0635 -0.4280 -0.0199
 6571SOL    HW131172   3.443   0.583   4.872 -1.5552  2.0901  1.9067
 6571SOL    HW231173   3.510   0.704   4.834 -0.7073  0.7401  1.9912
 6572SOL     OW31174   2.963   4.559   2.921  0.3661  0.0733 -0.5285
 6572SOL    HW131175   2.918   4.543   2.838 -0.7948 -0.3111  0.1705
 6572SOL    HW231176   2.917   4.639   2.948  0.5030 -0.3299  0.8533
 6573SOL     OW31177   3.912   3.827  15.332 -0.1391  0.4470  0.1061
 6573SOL    HW131178   3.988   3.826  15.390 -0.2791  1.8180  0.2950
 6573SOL    HW231179   3.866   3.745  15.351  1.7478 -0.6368  0.0603
 6574SOL     OW31180   0.888   1.312  14.136  0.4258 -0.0989 -0.1152
 6574SOL    HW131181   0.936   1.330  14.055  0.6084 -1.1577 -0.2414
 6574SOL    HW231182   0.958   1.312  14.201  0.6909  2.8858 -0.3920
 6575SOL     OW31183   4.365   2.373   3.921 -0.2315 -0.7046  0.2512
 6575SOL    HW131184   4.297   2.358   3.986  1.4913 -2.3672  1.6897
 6575SOL    HW231185   4.303   2.399   3.853  0.6928  0.0076 -0.3129
 6576SOL     OW31186   2.767   4.503  13.704 -0.4424  0.2188 -0.2782
 6576SOL    HW131187   2.826   4.506  13.628  0.5185  2.9128  0.5515
 6576SOL    HW231188   2.680   4.525  13.670 -0.5049 -1.4387 -1.1713
 6577SOL     OW31189   4.233   3.221   2.739 -0.1709 -0.2603 -0.3066
 6577SOL    HW131190   4.169   3.151   2.755 -0.3000  0.0802  0.6823
 6577SOL    HW231191   4.175   3.290   2.707 -2.3534 -1.8678  0.1001
 6578SOL     OW31192   3.487   0.299   1.188 -0.0466 -0.1409 -0.5020
 6578SOL    HW131193   3.551   0.250   1.240 -0.8241 -2.9580 -2.1881
 6578SOL    HW231194   3.538   0.358   1.132  0.3689  1.0565  1.1136
 6579SOL     OW31195   0.238   1.531   4.182  0.3912 -0.7279  0.0556
 6579SOL    HW131196   0.327   1.529   4.217 -0.0256  1.2961  1.2208
 6579SOL    HW231197   0.200   1.457   4.229  1.3299  0.7028  3.0660
 6580SOL     OW31198   4.012   1.305   2.580  0.1343 -0.1227 -0.4023
 6580SOL    HW131199   4.023   1.296   2.674 -2.2416  0.3843 -0.0924
 6580SOL    HW231200   3.991   1.398   2.571 -0.3490 -0.2863 -1.0163
 6581SOL     OW31201   3.595   1.761   2.085 -0.3791  0.0779  0.5004
 6581SOL    HW131202   3.687   1.759   2.062 -0.3028 -0.3588  0.8462
 6581SOL    HW231203   3.585   1.697   2.156 -0.1964 -0.0091  0.4465
 6582SOL     OW31204   1.997   4.579   3.732  0.3206 -0.0872  0.1326
 6582SOL    HW131205   1.922   4.559   3.677  0.6626 -2.8895  0.6771
 6582SOL    HW231206   1.992   4.508   3.796 -1.3866  0.5107  0.6609
 6583SOL     OW31207   0.347   1.331   5.785 -0.8813  0.2098 -0.3188
 6583SOL    HW131208   0.390   1.248   5.767 -0.6337  0.0375  1.0880
 6583SOL    HW231209   0.305   1.352   5.701 -0.6167 -0.5596 -0.6405
 6584SOL     OW31210   3.428   0.062   7.577 -0.7223  0.3458  0.3204
 6584SOL    HW131211   3.397   4.693   7.554  1.8539 -0.7050  0.8721
 6584SOL    HW231212   3.394   0.128   7.518  0.7858  0.1932 -0.7078
 6585SOL     OW31213   2.304   2.863   0.956 -0.0575 -0.6506  0.6714
 6585SOL    HW131214   2.308   2.807   1.034 -1.9761  0.8409  1.8512
 6585SOL    HW231215   2.316   2.802   0.884 -0.7877  0.3376 -0.2881
 6586SOL     OW31216   4.674   1.535   0.270 -0.6854  0.1366 -0.7029
 6586SOL    HW131217   4.630   1.492   0.196  1.1433 -1.8998 -0.5815
 6586SOL    HW231218   4.654   1.477   0.343 -0.3832  1.7104  0.6357
 6587SOL     OW31219   3.555   3.433   3.190 -0.0191 -0.1136  0.3405
 6587SOL    HW131220   3.505   3.372   3.244 -1.4760  0.3599 -0.4937
 6587SOL    HW231221   3.499   3.509   3.205 -1.3040 -1.1196  0.6171
 6588SOL     OW31222   2.349   0.725  16.280 -0.0165 -0.0786  0.6233
 6588SOL    HW131223   2.312   0.693  16.198 -0.9360  1.6492  0.3603
 6588SOL    HW231224   2.442   0.707  16.266 -0.5938 -0.2121 -2.9759
 6589SOL     OW31225   3.880   1.205  12.717 -0.0532 -0.2883  0.1490
 6589SOL    HW131226   3.893   1.247  12.802  0.2190 -2.1615  1.0327
 6589SOL    HW231227   3.973   1.184  12.705 -0.0157  0.7696 -1.5336
 6590SOL     OW31228   2.657   0.508  16.496  0.4019 -0.2404 -0.0011
 6590SOL    HW131229   2.676   0.581  16.437 -0.0550  0.4357  0.6973
 6590SOL    HW231230   2.728   0.530  16.556  1.9216 -2.0458 -1.1113
 6591SOL     OW31231   0.548   0.591   8.846  0.7120 -0.1538 -0.3515
 6591SOL    HW131232   0.614   0.522   8.849  1.1894  0.2875 -0.7632
 6591SOL    HW231233   0.577   0.662   8.904 -2.8846  1.3953 -0.4454
 6592SOL     OW31234   1.093   3.229  16.390 -0.3007 -0.5407  0.5451
 6592SOL    HW131235   1.141   3.259  16.313 -1.7067 -1.9025 -0.8551
 6592SOL    HW231236   1.022   3.187  16.342  0.9472 -3.3024  1.0807
 6593SOL     OW31237   2.777   0.755   9.569 -0.1304 -0.3594  0.1264
 6593SOL    HW131238   2.709   0.813   9.604  0.2681  1.1486 -1.6386
 6593SOL    HW231239   2.858   0.796   9.598 -0.1848 -0.5518  0.5583
 6594SOL     OW31240   0.678   1.779   7.604  0.4055  0.1468 -0.5063
 6594SOL    HW131241   0.761   1.821   7.626  0.1380  0.5135 -0.1825
 6594SOL    HW231242   0.682   1.711   7.671  1.2920 -1.9914 -2.7617
 6595SOL     OW31243   1.755   1.927  14.684  0.2916 -0.5098 -0.3531
 6595SOL    HW131244   1.810   1.880  14.747  1.2522 -1.1485 -1.6644
 6595SOL    HW231245   1.718   1.847  14.647 -2.4976 -0.0720  1.4448
 6596SOL     OW31246   0.607   1.658  11.300 -0.0511  0.5859  0.0229
 6596SOL    HW131247   0.609   1.578  11.353  0.5193 -0.7719 -2.0479
 6596SOL    HW231248   0.535   1.708  11.338 -1.2446  1.0840 -2.9634
 6597SOL     OW31249   3.524   4.196  10.151  0.1531  0.1865  0.0220
 6597SOL    HW131250   3.534   4.117  10.097 -0.9847  0.7796 -1.0516
 6597SOL    HW231251   3.435   4.188  10.183  0.6048 -0.2425  1.1644
 6598SOL     OW31252   0.420   1.219   1.874  0.3098  0.7011  0.1875
 6598SOL    HW131253   0.482   1.154   1.840 -1.2560 -0.3902 -0.5508
 6598SOL    HW231254   0.439   1.191   1.964  0.5644  1.1135  0.2639
 6599SOL     OW31255   3.532   0.183  12.306 -0.2662 -0.2582  0.0174
 6599SOL    HW131256   3.481   0.253  12.346  0.7584  1.0114 -0.9112
 6599SOL    HW231257   3.596   0.241  12.264 -1.6708 -2.3714 -5.1002
 6600SOL     OW31258   0.270   3.670   6.104 -0.0929  0.3254  0.0536
 6600SOL    HW131259   0.363   3.651   6.103  0.0347  0.9303  0.2646
 6600SOL    HW231260   0.265   3.744   6.165  0.8280  1.8159 -1.6778
 6601SOL     OW31261   0.720   2.760   7.045  1.2510 -0.4439  0.7357
 6601SOL    HW131262   0.639   2.782   6.999  1.5962 -1.3454 -0.3037
 6601SOL    HW231263   0.693   2.684   7.096 -0.4970  0.2591  0.8617
 6602SOL     OW31264   0.475   2.900  17.430 -0.5304  0.6411  0.4346
 6602SOL    HW131265   0.466   2.954  17.351 -0.8016  0.5739  0.4190
 6602SOL    HW231266   0.547   2.844  17.401 -1.5231 -1.4449  1.9928
 6603SOL     OW31267   2.006   3.535  11.210  0.0354 -0.4785  0.6649
 6603SOL    HW131268   1.961   3.498  11.134 -0.3624 -2.7427  2.0064
 6603SOL    HW231269   1.948   3.558  11.282  0.2252 -1.2545  1.0631
 6604SOL     OW31270   2.099   4.476   2.267  0.1805 -0.0289 -0.0941
 6604SOL    HW131271   2.035   4.476   2.195 -0.6830 -0.3437  0.6667
 6604SOL    HW231272   2.160   4.407   2.241  0.1464 -0.3386  0.6621
 6605SOL     OW31273   2.235   0.057   8.956 -0.4698 -0.1653 -0.0749
 6605SOL    HW131274   2.193   0.023   9.034 -3.0850 -1.0734 -1.8742
 6605SOL    HW231275   2.243   4.684   8.930  1.4883  0.5007 -1.8574
 6606SOL     OW31276   3.317   2.323   7.462 -0.2134 -0.8763 -0.4167
 6606SOL    HW131277   3.263   2.307   7.384  0.0799 -1.7054 -0.4568
 6606SOL    HW231278   3.297   2.241   7.507  0.5879  0.0266  1.5512
 6607SOL     OW31279   2.502   4.510   6.891 -0.0589 -0.0302 -0.5821
 6607SOL    HW131280   2.576   4.466   6.934  1.4595  1.3712 -1.7399
 6607SOL    HW231281   2.520   4.602   6.908 -0.2735  0.0380 -0.7321
 6608SOL     OW31282   4.093   1.069   5.686 -0.3625 -0.4867  0.2061
 6608SOL    HW131283   4.119   1.084   5.595 -0.1070 -0.4027  0.2936
 6608SOL    HW231284   4.093   0.974   5.678 -0.7348 -0.4769  0.0702
 6609SOL     OW31285   2.838   0.981   3.597  1.1641 -1.0172  0.6393
 6609SOL    HW131286   2.787   0.951   3.672 -1.8600 -0.7234 -1.2952
 6609SOL    HW231287   2.798   1.066   3.578  2.7835 -0.6617 -1.1831
 6610SOL     OW31288   2.871   1.807   1.169  0.2629  0.1645 -0.0300
 6610SOL    HW131289   2.865   1.897   1.135 -1.0074  0.7900  1.8462
 6610SOL    HW231290   2.808   1.808   1.241  1.3119  3.5537  0.8271
 6611SOL     OW31291   3.379   4.029  15.504 -0.0046 -0.6213  0.4728
 6611SOL    HW131292   3.341   3.952  15.547 -1.8894  1.0770  1.8220
 6611SOL    HW231293   3.439   4.054  15.575 -0.3629 -1.2903  1.0176
 6612SOL     OW31294   3.331   2.649   8.420  0.6016 -0.0214 -0.0220
 6612SOL    HW131295   3.239   2.624   8.406 -0.1067  1.2270  2.4631
 6612SOL    HW231296   3.347   2.592   8.495 -1.1331  0.1733  0.4849
 6613SOL     OW31297   1.444   4.240   9.745  0.3740 -0.0420 -0.1788
 6613SOL    HW131298   1.506   4.182   9.789  0.2769 -0.2361 -0.3016
 6613SOL    HW231299   1.462   4.222   9.653  2.4068 -1.2643  0.4522
 6614SOL     OW31300   1.479   2.873   7.970 -0.5252  0.7662 -0.3159
 6614SOL    HW131301   1.485   2.778   7.976 -2.2469  0.6315 -0.7319
 6614SOL    HW231302   1.561   2.901   8.011  0.2035 -0.4327 -0.9837
 6615SOL     OW31303   0.027   2.866   4.126  0.6130  0.6213 -0.7282
 6615SOL    HW131304   4.659   2.897   4.103  0.3813 -0.4723 -1.2958
 6615SOL    HW231305   0.012   2.783   4.170 -1.9914 -0.2859 -3.3714
 6616SOL     OW31306   2.159   0.899  13.649 -0.7411 -0.1333  0.3378
 6616SOL    HW131307   2.198   0.813  13.634 -2.0028 -0.8259  1.0096
 6616SOL    HW231308   2.212   0.956  13.593 -1.4893  0.7194  0.5031
 6617SOL     OW31309   0.163   1.670   4.435 -0.2901 -0.2381 -0.0446
 6617SOL    HW131310   0.181   1.591   4.383  0.8776 -0.0844  0.1380
 6617SOL    HW231311   0.147   1.730   4.362 -1.7330 -0.3471  0.1760
 6618SOL     OW31312   2.534   3.836   4.728  0.1510 -0.1003  0.0093
 6618SOL    HW131313   2.530   3.855   4.635 -0.3495 -0.1794  0.0144
 6618SOL    HW231314   2.553   3.922   4.766 -3.2914  0.1562  1.1959
 6619SOL     OW31315   0.287   0.226   8.516 -0.0976 -0.3790 -0.3459
 6619SOL    HW131316   0.204   0.259   8.549  0.2411  0.8550 -0.7386
 6619SOL    HW231317   0.325   0.195   8.598 -2.7649 -2.2090  0.2017
 6620SOL     OW31318   4.114   0.560  10.341  0.4383  0.2178  0.3738
 6620SOL    HW131319   4.057   0.494  10.381  0.3872 -0.7032 -1.1888
 6620SOL    HW231320   4.168   0.582  10.416  1.1323  1.4378 -0.4827
 6621SOL     OW31321   2.360   1.634  10.549  0.4830 -0.1687 -0.3486
 6621SOL    HW131322   2.436   1.640  10.490 -0.8063 -1.5657 -2.1477
 6621SOL    HW231323   2.301   1.690  10.498 -0.0127  0.9752  1.5108
 6622SOL     OW31324   0.419   2.351  14.630 -0.5781 -0.3132  0.5038
 6622SOL    HW131325   0.353   2.418  14.609 -0.9968 -1.7474 -2.7708
 6622SOL    HW231326   0.498   2.406  14.626 -0.5194 -0.4099  0.3367
 6623SOL     OW31327   2.499   0.930   8.827 -0.4270 -0.0992  0.5914
 6623SOL    HW131328   2.498   0.893   8.739 -2.3757  0.5790  0.3213
 6623SOL    HW231329   2.503   1.023   8.802 -1.4078  0.4539  2.4186
 6624SOL     OW31330   2.122   1.178  15.442  0.4954  0.2436 -0.0214
 6624SOL    HW131331   2.125   1.249  15.507  0.6808  0.8538 -0.6959
 6624SOL    HW231332   2.140   1.102  15.497  0.3142 -1.1301 -1.8635
 6625SOL     OW31333   4.355   3.767  14.674 -0.7693 -0.5682  0.1726
 6625SOL    HW131334   4.416   3.790  14.745  1.0366 -1.1162 -1.2046
 6625SOL    HW231335   4.425   3.739  14.615 -0.9408  2.0951 -1.3285
 6626SOL     OW31336   2.858   2.614   8.811 -0.1918 -0.7325 -0.1303
 6626SOL    HW131337   2.766   2.599   8.830  0.4362 -2.0056  1.8354
 6626SOL    HW231338   2.886   2.652   8.894  2.0017 -0.1213 -1.1490
 6627SOL     OW31339   0.233   2.753   3.725 -0.2799 -0.1064 -0.0223
 6627SOL    HW131340   0.304   2.778   3.666  1.0834 -1.6880  0.9516
 6627SOL    HW231341   0.178   2.692   3.676  0.0344  0.1687 -0.7129
 6628SOL     OW31342   3.597   4.284   6.555  0.3933 -0.2377  0.0285
 6628SOL    HW131343   3.567   4.302   6.466  0.0890  0.2763  0.2328
 6628SOL    HW231344   3.537   4.333   6.612  0.7412  1.6985 -1.2437
 6629SOL     OW31345   4.169   1.623   0.521 -0.2960  0.2060  0.4600
 6629SOL    HW131346   4.228   1.596   0.451 -1.0387  0.9218 -0.4299
 6629SOL    HW231347   4.087   1.641   0.477 -0.0860 -1.3884 -0.5751
 6630SOL     OW31348   4.007   2.758   6.130  0.4863  0.1853 -0.1159
 6630SOL    HW131349   4.102   2.759   6.144 -0.0054  1.2156  3.2243
 6630SOL    HW231350   3.972   2.698   6.196  0.0460  2.2009  1.4991
 6631SOL     OW31351   2.913   3.041   5.011  0.1044 -0.0477  0.2332
 6631SOL    HW131352   2.860   3.100   5.065 -0.3475 -1.2457  1.1052
 6631SOL    HW231353   2.952   2.986   5.078  3.2450  1.9076  0.0179
 6632SOL     OW31354   3.449   3.126   8.077 -0.1829  0.0389  0.7935
 6632SOL    HW131355   3.386   3.172   8.021  1.8064  0.5164 -1.0430
 6632SOL    HW231356   3.387   3.104   8.146  0.3638 -0.5459  1.0967
 6633SOL     OW31357   3.728   0.574   9.079 -0.0095  0.2171  0.0222
 6633SOL    HW131358   3.771   0.587   8.994 -2.1662 -0.9625 -1.2667
 6633SOL    HW231359   3.648   0.625   9.064 -0.6872 -1.5710 -2.4079
 6634SOL     OW31360   3.044   1.733   9.316  0.2412  0.0863  0.0338
 6634SOL    HW131361   3.112   1.781   9.270  1.1271 -0.5167  0.7249
 6634SOL    HW231362   2.991   1.701   9.243 -0.1510 -1.1466  0.8401
 6635SOL     OW31363   0.915   0.138   5.645  0.5704 -0.4691 -0.2723
 6635SOL    HW131364   0.835   0.088   5.661  1.1831 -0.8326  1.5969
 6635SOL    HW231365   0.911   0.180   5.731 -0.1457 -0.5317 -0.2737
 6636SOL     OW31366   0.558   1.206  12.610  0.1223 -0.1830  0.0603
 6636SOL    HW131367   0.603   1.198  12.694  1.2352 -1.3254 -0.6567
 6636SOL    HW231368   0.518   1.293  12.615 -0.8616 -0.6955  1.1243
 6637SOL     OW31369   2.099   1.403   7.278  0.4845 -0.2729 -0.3322
 6637SOL    HW131370   2.143   1.322   7.303  0.0214 -1.2107 -2.5351
 6637SOL    HW231371   2.115   1.452   7.358  2.4270  0.1463 -0.9642
 6638SOL     OW31372   0.373   4.345   8.444 -0.3908 -0.1453 -0.2320
 6638SOL    HW131373   0.361   4.438   8.463 -1.3755  0.2930 -3.0817
 6638SOL    HW231374   0.454   4.329   8.492  0.2372 -1.7182 -1.8181
 6639SOL     OW31375   3.730   3.888   9.009  0.1341  0.1373 -0.1275
 6639SOL    HW131376   3.788   3.827   9.054  0.2449  1.1971  1.1759
 6639SOL    HW231377   3.668   3.822   8.979  1.5625 -1.4402  0.3837
 6640SOL     OW31378   1.033   4.675   9.479 -0.1623 -0.2190 -0.2796
 6640SOL    HW131379   0.953   4.627   9.498 -1.3217  1.2808 -1.4695
 6640SOL    HW231380   1.099   4.605   9.474  1.9030  1.6728  0.5852
 6641SOL     OW31381   3.397   0.737   0.693  0.2630  0.7407  0.3894
 6641SOL    HW131382   3.482   0.781   0.696 -0.2342  1.7770 -0.6185
 6641SOL    HW231383   3.372   0.791   0.618 -0.6212 -0.2812 -0.0630
 6642SOL     OW31384   3.181   0.724   8.112  0.2805  0.1653 -0.1940
 6642SOL    HW131385   3.159   0.690   8.026  0.6341 -0.5346 -0.0015
 6642SOL    HW231386   3.126   0.669   8.168 -2.7340  1.8474 -1.4687
 6643SOL     OW31387   1.585   0.246   6.736  0.3983  0.8268  0.0670
 6643SOL    HW131388   1.665   0.273   6.781  1.6722 -0.3039 -1.4958
 6643SOL    HW231389   1.552   0.335   6.724 -0.6078  0.2215 -1.7311
 6644SOL     OW31390   4.221   1.478   6.111  0.5639  0.2735 -0.2395
 6644SOL    HW131391   4.168   1.421   6.055  1.9245 -0.9757 -0.2495
 6644SOL    HW231392   4.296   1.499   6.056  1.2269 -0.7424  0.2840
 6645SOL     OW31393   4.213   2.150   6.841 -0.2805  0.8754  0.0858
 6645SOL    HW131394   4.249   2.067   6.809  1.9414  1.9645 -0.2340
 6645SOL    HW231395   4.273   2.160   6.915  0.3430  1.7823 -0.5296
 6646SOL     OW31396   2.543   1.873   2.286  0.6203  0.1086  0.0697
 6646SOL    HW131397   2.610   1.804   2.293  0.3497  0.1243  3.1006
 6646SOL    HW231398   2.554   1.892   2.193 -2.5020  2.7027  0.2641
 6647SOL     OW31399   0.136   0.308  11.170  0.1233 -0.6316 -0.5590
 6647SOL    HW131400   0.086   0.281  11.247 -2.3583 -2.8619 -2.9470
 6647SOL    HW231401   0.169   0.220  11.154 -0.8097 -1.3760  1.6828
 6648SOL     OW31402   4.518   4.478   6.876 -0.1941 -0.0674  0.1207
 6648SOL    HW131403   4.461   4.401   6.865  1.3918 -0.9576 -1.9128
 6648SOL    HW231404   4.600   4.428   6.868 -0.4021 -0.5165  0.8016
 6649SOL     OW31405   2.422   1.336   8.243  0.1787 -0.7539 -0.1738
 6649SOL    HW131406   2.481   1.261   8.250  1.6016  0.1289 -2.7387
 6649SOL    HW231407   2.445   1.385   8.322  1.6454 -0.9441 -0.4906
 6650SOL     OW31408   0.167   0.916   4.640 -0.4604  0.3666 -0.4930
 6650SOL    HW131409   0.146   0.824   4.624  2.6571 -0.0122 -2.4100
 6650SOL    HW231410   0.129   0.964   4.566 -1.1275  0.0272 -0.3659
 6651SOL     OW31411   3.123   1.119   7.353 -0.0243  0.1813 -0.0680
 6651SOL    HW131412   3.064   1.102   7.426 -1.6259 -1.7540 -1.8142
 6651SOL    HW231413   3.187   1.170   7.403 -3.3861  3.3005  0.9949
 6652SOL     OW31414   2.776   2.958   1.190  0.7838 -0.3860 -0.0037
 6652SOL    HW131415   2.698   2.930   1.142  1.2293  2.0123 -2.1585
 6652SOL    HW231416   2.836   2.948   1.116  1.3515  0.0302  0.4081
 6653SOL     OW31417   1.947   4.176   2.496 -0.2281  0.1729  0.4162
 6653SOL    HW131418   1.901   4.176   2.580 -2.5460 -1.8171 -0.8606
 6653SOL    HW231419   2.037   4.152   2.515  0.1327  1.1972  0.0425
 6654SOL     OW31420   0.313   4.633   8.881  0.5541 -0.5706 -0.1184
 6654SOL    HW131421   0.380   4.594   8.826 -0.0943  0.6756 -1.7741
 6654SOL    HW231422   0.362   4.627   8.963 -1.0410 -0.2263  0.8706
 6655SOL     OW31423   3.455   0.250   5.888  0.6189 -0.1607  0.1872
 6655SOL    HW131424   3.471   0.226   5.979 -0.1293 -0.8405  0.1413
 6655SOL    HW231425   3.414   0.168   5.861  1.0675 -0.5962  0.8188
 6656SOL     OW31426   0.062   3.008   6.792 -0.4561  0.1581 -0.2838
 6656SOL    HW131427   0.046   3.021   6.886  0.7361  1.3223 -0.2438
 6656SOL    HW231428   0.158   3.010   6.789 -0.4868  0.6270 -0.9171
 6657SOL     OW31429   2.808   0.999   8.693  0.0170  0.0926 -0.2773
 6657SOL    HW131430   2.778   1.078   8.647 -1.8709 -2.1232 -2.8461
 6657SOL    HW231431   2.752   1.010   8.770  3.3157 -1.3061  2.2925
 6658SOL     OW31432   1.168   0.682   4.804  0.0136 -0.3715 -0.0745
 6658SOL    HW131433   1.210   0.745   4.746 -0.4228 -1.2245 -1.3390
 6658SOL    HW231434   1.208   0.695   4.890  0.6543  3.0921 -0.9300
 6659SOL     OW31435   0.785   2.888   6.087 -0.1410  0.2670  0.3491
 6659SOL    HW131436   0.812   2.980   6.094 -0.5890  0.5610 -1.8807
 6659SOL    HW231437   0.690   2.903   6.081 -0.0292  2.1572  3.3352
 6660SOL     OW31438   1.732   1.444  11.044 -0.0005 -0.1045  0.0111
 6660SOL    HW131439   1.770   1.492  11.117  1.2027  1.2797 -1.5411
 6660SOL    HW231440   1.647   1.487  11.041  0.1041  0.1505  0.7082
 6661SOL     OW31441   0.827   4.011  15.221  0.0654  0.3032  0.3839
 6661SOL    HW131442   0.764   3.943  15.199 -0.3327  0.3293  1.4428
 6661SOL    HW231443   0.862   4.015  15.132  0.4550  0.8421  0.5627
 6662SOL     OW31444   3.899   1.278   2.299  0.0319  0.4798  0.1560
 6662SOL    HW131445   3.921   1.272   2.392 -0.5770 -0.4581  0.2409
 6662SOL    HW231446   3.984   1.256   2.261 -1.3676 -1.8146 -1.6198
 6663SOL     OW31447   3.033   3.460   9.614 -0.3110  0.0444  0.0300
 6663SOL    HW131448   3.058   3.441   9.524  1.8290 -1.3436  0.9188
 6663SOL    HW231449   3.076   3.387   9.659  0.3263 -0.1981 -0.9653
 6664SOL     OW31450   1.104   1.915   3.564  0.0671 -0.2823 -0.1840
 6664SOL    HW131451   1.070   1.923   3.475  1.5484 -0.0766 -0.7234
 6664SOL    HW231452   1.176   1.853   3.558  0.9395  0.5207  1.8831
 6665SOL     OW31453   3.768   1.870   3.805 -0.2026 -0.3480 -0.4074
 6665SOL    HW131454   3.682   1.841   3.774 -0.2013 -2.0893  1.2393
 6665SOL    HW231455   3.756   1.964   3.789  1.0360  0.1338  1.5676
 6666SOL     OW31456   3.107   0.456  15.554  0.0281 -0.4871 -0.3501
 6666SOL    HW131457   3.112   0.376  15.606  0.1946 -0.1975  0.0775
 6666SOL    HW231458   3.199   0.482  15.550 -0.0876  0.0606  0.5325
 6667SOL     OW31459   0.532   1.174   2.513 -0.0491 -0.1569 -0.3778
 6667SOL    HW131460   0.452   1.132   2.483 -0.5879  1.9681 -1.9250
 6667SOL    HW231461   0.590   1.180   2.437 -2.0418 -1.0448 -1.9724
 6668SOL     OW31462   0.794   2.409   6.153 -0.2282 -0.3412 -0.1082
 6668SOL    HW131463   0.770   2.475   6.088 -1.2684 -0.0745  0.5438
 6668SOL    HW231464   0.713   2.358   6.156  0.5702 -1.6990 -1.5153
 6669SOL     OW31465   1.328   1.128  15.133  0.1456  0.3480 -0.1660
 6669SOL    HW131466   1.255   1.142  15.193  1.0308 -1.1749  1.2467
 6669SOL    HW231467   1.327   1.215  15.093  1.0665 -0.3390 -1.6763
 6670SOL     OW31468   2.809   2.569   2.359  0.3975  0.2256  0.0537
 6670SOL    HW131469   2.728   2.540   2.319  0.9903 -2.0833  0.5082
 6670SOL    HW231470   2.846   2.481   2.370 -2.0175 -0.6118  1.5458
 6671SOL     OW31471   0.427   1.635   0.225  0.1055  0.0640 -0.4448
 6671SOL    HW131472   0.340   1.611   0.257 -0.0032 -0.7383 -1.3500
 6671SOL    HW231473   0.407   1.724   0.197  1.5410 -0.1448 -2.1634
 6672SOL     OW31474   3.478   1.819   0.571  0.4896  0.0082 -0.9736
 6672SOL    HW131475   3.460   1.744   0.628  0.1253  1.7227  1.1826
 6672SOL    HW231476   3.557   1.857   0.609  0.3380 -1.9787  1.3799
 6673SOL     OW31477   1.908   1.236  15.713  0.7612 -0.4675  0.1814
 6673SOL    HW131478   1.948   1.274  15.635 -1.4773  0.2696 -0.6218
 6673SOL    HW231479   1.939   1.310  15.764  0.0885  0.3516 -0.6133
 6674SOL     OW31480   1.397   0.963   8.912  0.2423 -0.0170 -0.1357
 6674SOL    HW131481   1.425   1.050   8.886  1.2826  0.1133  1.4499
 6674SOL    HW231482   1.302   0.958   8.902 -0.1889  0.0020  4.0739
 6675SOL     OW31483   0.919   0.458   7.000 -0.5131 -0.4329  0.2103
 6675SOL    HW131484   0.993   0.456   7.060  2.1527  2.1629 -2.9909
 6675SOL    HW231485   0.894   0.545   7.031  0.5190 -0.4925  1.2131
 6676SOL     OW31486   3.555   1.954  16.291 -0.3903  0.4118  0.2298
 6676SOL    HW131487   3.544   2.002  16.208  0.6756 -0.6068 -0.5037
 6676SOL    HW231488   3.617   2.014  16.333  0.6153  0.0614 -0.7399
 6677SOL     OW31489   1.182   0.525  16.486 -0.5423 -0.9295 -0.1244
 6677SOL    HW131490   1.231   0.593  16.439  0.8463  0.1151  2.8420
 6677SOL    HW231491   1.125   0.578  16.542 -0.4866 -1.3244  0.3028
 6678SOL     OW31492   0.982   3.207   3.220  0.7564 -0.3400 -0.9697
 6678SOL    HW131493   0.896   3.191   3.183 -0.7374  1.5138  1.6848
 6678SOL    HW231494   1.037   3.168   3.153  1.8662 -0.2838 -0.0925
 6679SOL     OW31495   3.507   1.960   3.400 -0.4015 -0.5896 -0.0695
 6679SOL    HW131496   3.462   1.920   3.325 -0.5991 -1.2565  0.4017
 6679SOL    HW231497   3.471   2.048   3.388 -1.4671 -0.5538  3.2347
 6680SOL     OW31498   1.323   4.137   3.202  0.4569  0.0682 -0.2477
 6680SOL    HW131499   1.354   4.227   3.209  1.2275 -0.2456  0.3475
 6680SOL    HW231500   1.245   4.145   3.257  0.4947 -2.4847  0.1944
 6681SOL     OW31501   3.362   2.473   7.794 -0.2519 -0.0401  0.0032
 6681SOL    HW131502   3.400   2.464   7.882  1.0714 -0.6781 -0.6155
 6681SOL    HW231503   3.350   2.379   7.779 -0.9942  0.4883 -2.6280
 6682SOL     OW31504   0.544   2.535   6.288 -0.0333 -0.4740 -0.3979
 6682SOL    HW131505   0.593   2.492   6.358  1.0779  1.0547 -0.2455
 6682SOL    HW231506   0.531   2.462   6.227  0.5606 -0.9411  0.0264
 6683SOL     OW31507   3.313   0.136   0.536  0.4101  0.4860  0.2879
 6683SOL    HW131508   3.280   0.177   0.616  1.8631  0.6070  0.8252
 6683SOL    HW231509   3.289   0.201   0.470  0.2266 -0.0442 -0.1686
 6684SOL     OW31510   0.377   2.622  13.152 -0.1561  0.3435 -0.0302
 6684SOL    HW131511   0.411   2.543  13.193 -0.7440 -0.0696 -0.3464
 6684SOL    HW231512   0.283   2.608  13.163  0.2452 -2.0201  0.3549
 6685SOL     OW31513   0.621   3.459   5.045  0.1078 -0.2815  0.0611
 6685SOL    HW131514   0.560   3.485   5.115  2.8936  1.2988  1.9030
 6685SOL    HW231515   0.609   3.531   4.983 -0.2819 -0.1479  0.2910
 6686SOL     OW31516   3.015   2.119   2.613 -0.1343 -0.0593  0.0433
 6686SOL    HW131517   3.057   2.176   2.548  2.0596 -1.3635  0.3179
 6686SOL    HW231518   3.092   2.064   2.628 -0.9473 -0.8453  1.2801
 6687SOL     OW31519   0.826   2.637  15.367  0.8309  0.6621 -0.7791
 6687SOL    HW131520   0.811   2.715  15.314 -1.2172  1.0464  0.3546
 6687SOL    HW231521   0.766   2.567  15.339 -0.3946  0.7225  1.7389
 6688SOL     OW31522   1.200   0.190   3.872  0.2461  0.6254 -0.3223
 6688SOL    HW131523   1.281   0.147   3.844 -1.8871 -2.8750 -0.9943
 6688SOL    HW231524   1.232   0.280   3.881  0.1725  0.7681 -1.5536
 6689SOL     OW31525   4.496   0.204  14.958 -0.0907 -0.1787  0.4953
 6689SOL    HW131526   4.516   0.231  14.869  0.4163 -1.5692  0.1855
 6689SOL    HW231527   4.456   0.285  14.990  0.9731  1.4921 -2.4797
 6690SOL     OW31528   3.395   1.023  10.462 -0.8762  0.6078  0.0738
 6690SOL    HW131529   3.488   1.012  10.443 -0.8374 -2.5828  2.2258
 6690SOL    HW231530   3.403   1.102  10.515  1.5596  0.5120 -0.1707
 6691SOL     OW31531   1.424   4.200  16.050  0.1161 -0.3663  0.1435
 6691SOL    HW131532   1.397   4.141  16.120  1.7830 -0.0969  1.0185
 6691SOL    HW231533   1.343   4.242  16.022  1.1014  1.0994 -0.5257
 6692SOL     OW31534   3.286   4.473   7.516  0.3703  0.1281 -0.2188
 6692SOL    HW131535   3.281   4.382   7.543  0.5557  0.3918  0.7046
 6692SOL    HW231536   3.322   4.468   7.427  0.1941 -1.1398 -0.2056
 6693SOL     OW31537   2.995   2.295   4.050  0.4025 -0.7153 -0.6285
 6693SOL    HW131538   2.960   2.370   4.002  1.6805 -0.0051 -0.4516
 6693SOL    HW231539   2.944   2.290   4.131 -0.3378  0.1342 -1.0500
 6694SOL     OW31540   4.182   2.050   5.430 -0.2578  0.0491  0.1264
 6694SOL    HW131541   4.266   2.088   5.454 -0.6229  0.8150  0.2223
 6694SOL    HW231542   4.137   2.048   5.515  2.2501 -3.2534  1.3336
 6695SOL     OW31543   1.139   2.535   7.286  0.4756  0.4809 -0.1532
 6695SOL    HW131544   1.104   2.462   7.235  1.2714 -0.2099  0.3021
 6695SOL    HW231545   1.234   2.524   7.279  0.2207 -0.1917 -2.8176
 6696SOL     OW31546   4.202   1.668   5.806  0.8730  0.6684 -0.6171
 6696SOL    HW131547   4.169   1.718   5.880 -0.6064  0.2792 -1.0001
 6696SOL    HW231548   4.295   1.678   5.823 -0.1508  1.6755  4.3434
 6697SOL     OW31549   4.013   1.948   1.628  0.0899  0.6103  0.0878
 6697SOL    HW131550   4.049   1.919   1.545  1.0891 -0.0654  0.7536
 6697SOL    HW231551   4.078   1.917   1.692 -0.5083 -0.1384  0.3275
 6698SOL     OW31552   2.156   0.683   6.480 -0.4715  0.3429 -0.2121
 6698SOL    HW131553   2.168   0.745   6.552  0.8797  1.1195 -1.1074
 6698SOL    HW231554   2.075   0.636   6.500 -0.4017  0.7817  1.0990
 6699SOL     OW31555   1.404   1.362   4.066 -0.0673 -0.3446  0.6569
 6699SOL    HW131556   1.364   1.276   4.079  0.1065 -0.4527  0.4664
 6699SOL    HW231557   1.452   1.372   4.149  1.1344 -1.4745  0.0914
 6700SOL     OW31558   3.905   2.898  13.531 -0.0319  0.0595 -0.1459
 6700SOL    HW131559   3.867   2.828  13.584  0.8315 -1.2758 -1.2717
 6700SOL    HW231560   3.831   2.902  13.470 -2.4120  0.7422  2.7721
 6701SOL     OW31561   1.546   4.046  15.580  0.5998  0.5065 -0.0595
 6701SOL    HW131562   1.490   3.972  15.605  1.8352 -0.2891  0.3556
 6701SOL    HW231563   1.555   4.086  15.666  1.6729  1.3694 -0.5822
 6702SOL     OW31564   4.193   2.993   4.198 -0.3358 -0.0575 -0.4132
 6702SOL    HW131565   4.160   2.939   4.269 -0.1162 -0.6201 -0.7360
 6702SOL    HW231566   4.212   3.077   4.240  0.7465 -0.7233  0.4193
 6703SOL     OW31567   0.111   2.678  15.487 -0.4646 -0.1985  0.1127
 6703SOL    HW131568   0.192   2.627  15.492  0.5458  1.3105 -0.7227
 6703SOL    HW231569   0.100   2.706  15.578  1.2864  1.9110 -0.3285
 6704SOL     OW31570   3.261   4.246   7.711  0.5462  0.4629 -0.2918
 6704SOL    HW131571   3.351   4.280   7.707  0.7870  0.0474  1.3519
 6704SOL    HW231572   3.280   4.155   7.687  1.9567  1.1253 -1.6503
 6705SOL     OW31573   1.875   1.481   8.307  0.1365 -1.1175 -0.1462
 6705SOL    HW131574   1.887   1.574   8.325 -1.5012 -0.8474 -0.4037
 6705SOL    HW231575   1.962   1.442   8.312  0.1838 -0.9835  0.0799
 6706SOL     OW31576   1.446   1.034   6.864 -0.0233  0.2684  0.0694
 6706SOL    HW131577   1.494   1.004   6.941 -1.6324 -1.5240  0.3998
 6706SOL    HW231578   1.360   0.992   6.870  0.8434 -1.9590 -2.7602
 6707SOL     OW31579   0.066   2.807   5.625 -0.2121  0.3027  0.4057
 6707SOL    HW131580   0.096   2.898   5.621 -2.7041  1.1872  1.8452
 6707SOL    HW231581   4.716   2.799   5.559  0.2249 -1.1080  0.1116
 6708SOL     OW31582   2.837   2.985  17.082  0.3295 -0.2308 -0.1272
 6708SOL    HW131583   2.832   2.891  17.064 -3.3273  0.0705 -0.6304
 6708SOL    HW231584   2.928   3.002  17.060  0.3774  0.2289  0.4294
 6709SOL     OW31585   1.466   3.547   1.127 -0.5371 -0.0290 -0.3570
 6709SOL    HW131586   1.453   3.467   1.077  0.1669 -0.9815  0.9787
 6709SOL    HW231587   1.464   3.607   1.052 -0.9709  0.2742 -0.1077
 6710SOL     OW31588   2.251   2.785   8.740  0.3480  0.3168  0.0544
 6710SOL    HW131589   2.194   2.709   8.727 -0.1228  0.7875 -0.6729
 6710SOL    HW231590   2.227   2.800   8.831  1.3918  1.0043  0.2130
 6711SOL     OW31591   4.629   0.015  12.296 -0.2013 -0.2223 -0.1243
 6711SOL    HW131592   4.660   0.082  12.358  1.4252 -0.4090 -0.7317
 6711SOL    HW231593   4.578   4.667  12.341  2.0631 -1.1086  1.0939
 6712SOL     OW31594   3.157   3.651   4.132 -0.0193  0.5041  0.1298
 6712SOL    HW131595   3.123   3.607   4.054 -0.2465 -0.5321  0.8167
 6712SOL    HW231596   3.161   3.578   4.194 -0.1588  0.6252  0.2806
 6713SOL     OW31597   0.471   3.817   1.883  0.3229  0.0371  0.2111
 6713SOL    HW131598   0.389   3.855   1.915  0.5050  1.6597 -1.2481
 6713SOL    HW231599   0.521   3.834   1.963 -0.3804 -0.6062  0.7947
 6714SOL     OW31600   0.781   2.621   1.930 -0.5915  0.0372 -0.1809
 6714SOL    HW131601   0.697   2.583   1.907 -0.7947 -0.7194  1.7888
 6714SOL    HW231602   0.844   2.549   1.935  0.1123  0.7756  1.7820
 6715SOL     OW31603   3.758   0.316  15.337 -0.3756 -0.3633  0.8029
 6715SOL    HW131604   3.799   0.271  15.263  0.2140 -0.6401  1.3031
 6715SOL    HW231605   3.703   0.247  15.374 -0.6507  0.3273  1.6785
 6716SOL     OW31606   4.178   1.755  11.630  0.3616 -0.3868  0.1562
 6716SOL    HW131607   4.172   1.718  11.718 -1.0580 -0.4889  0.0102
 6716SOL    HW231608   4.093   1.793  11.609  0.4410 -0.6041 -0.5709
 6717SOL     OW31609   0.039   0.487   7.520 -1.2412  0.0693  0.4950
 6717SOL    HW131610   4.665   0.474   7.537 -1.2010 -0.2253  0.4735
 6717SOL    HW231611   0.075   0.404   7.551 -0.3768 -0.5791 -2.1873
 6718SOL     OW31612   3.474   4.297   2.373  0.5244  0.2181  0.0147
 6718SOL    HW131613   3.402   4.234   2.376  0.7330 -0.1393 -2.3899
 6718SOL    HW231614   3.474   4.314   2.278  0.3899  0.2860  0.0264
 6719SOL     OW31615   3.407   1.793   2.877 -0.1505  0.1272 -0.6992
 6719SOL    HW131616   3.352   1.715   2.887 -1.2315  1.0087  0.2625
 6719SOL    HW231617   3.366   1.831   2.799 -0.3396  1.5933  0.1186
 6720SOL     OW31618   3.926   0.127   5.913 -0.0690  0.4178 -0.3946
 6720SOL    HW131619   3.946   0.197   5.975  2.1141  0.3609 -1.0336
 6720SOL    HW231620   3.933   0.052   5.973 -0.0396  0.5934 -0.1821
 6721SOL     OW31621   3.690   0.811   4.148  0.2199  0.0153 -0.9512
 6721SOL    HW131622   3.629   0.812   4.221  0.0645 -1.7253 -1.0724
 6721SOL    HW231623   3.723   0.898   4.172  0.1293  0.1249 -1.2254
 6722SOL     OW31624   1.126   2.064   8.820 -0.6219 -0.5835 -0.6981
 6722SOL    HW131625   1.116   1.977   8.782  2.7290  0.1531 -3.2628
 6722SOL    HW231626   1.048   2.109   8.789 -0.6560 -0.0715  0.1202
 6723SOL     OW31627   1.126   4.093  15.184 -0.3531  0.4587 -0.1831
 6723SOL    HW131628   1.190   4.164  15.182  1.0218 -0.7855 -0.1142
 6723SOL    HW231629   1.114   4.064  15.275 -0.4360 -0.0492 -0.3563
 6724SOL     OW31630   1.802   2.055   5.491 -0.6469 -0.1664  0.2203
 6724SOL    HW131631   1.839   2.008   5.416  0.4738  1.4824 -0.2743
 6724SOL    HW231632   1.708   2.045   5.476 -0.2216  0.5538 -2.9654
 6725SOL     OW31633   3.031   2.208   1.455  0.5799  0.6236 -0.3811
 6725SOL    HW131634   3.088   2.147   1.501  1.4625  0.6181 -1.4873
 6725SOL    HW231635   3.059   2.195   1.364 -0.0673 -2.3190 -0.1703
 6726SOL     OW31636   3.822   2.136   1.640  0.1677  0.0304 -0.2933
 6726SOL    HW131637   3.886   2.065   1.645 -0.4844 -0.6783 -2.0977
 6726SOL    HW231638   3.740   2.096   1.613  1.5530 -2.1358 -1.3080
 6727SOL     OW31639   1.892   3.826   2.288  0.1181  0.0214 -0.1082
 6727SOL    HW131640   1.809   3.779   2.295 -0.4390  1.1875  1.1532
 6727SOL    HW231641   1.867   3.877   2.211 -0.7613 -0.4970 -0.1730
 6728SOL     OW31642   0.742   1.980   0.477  0.0729 -0.6780 -0.8967
 6728SOL    HW131643   0.658   2.020   0.495  1.0473  0.7329  0.4433
 6728SOL    HW231644   0.737   1.913   0.545 -2.1290  0.7244  0.2820
 6729SOL     OW31645   2.464   0.393   2.287  0.0353  0.6507  0.4187
 6729SOL    HW131646   2.438   0.459   2.223  0.8544 -0.0553 -0.6447
 6729SOL    HW231647   2.494   0.321   2.232  2.1419  2.0007 -0.2171
 6730SOL     OW31648   2.763   2.633   8.436 -0.1834  0.5674  0.4362
 6730SOL    HW131649   2.690   2.667   8.383  0.8240 -0.3742 -1.5632
 6730SOL    HW231650   2.793   2.710   8.483  0.8701 -0.8124  2.0123
 6731SOL     OW31651   4.526   0.386   7.059  0.0207 -0.0661  0.6312
 6731SOL    HW131652   4.496   0.314   7.003  1.2187 -0.0991  0.0292
 6731SOL    HW231653   4.451   0.446   7.061 -0.7113 -0.9305 -0.3821
 6732SOL     OW31654   3.909   0.093  17.248 -0.5353  0.2603  0.2637
 6732SOL    HW131655   3.846   0.021  17.239  0.3274 -0.5281  0.5948
 6732SOL    HW231656   3.917   0.102  17.343 -0.9919 -0.7922  0.4058
 6733SOL     OW31657   4.008   1.647  15.463  0.7621  0.1010  0.7357
 6733SOL    HW131658   3.983   1.708  15.533 -1.2144  1.7305 -1.4163
 6733SOL    HW231659   4.102   1.633  15.477  1.4154  2.0034 -1.6415
 6734SOL     OW31660   0.873   1.024   5.723  0.8620  0.1626  0.5450
 6734SOL    HW131661   0.805   1.089   5.704  2.2072  1.5449  0.4348
 6734SOL    HW231662   0.944   1.060   5.670  0.5426  0.9425  0.6402
 6735SOL     OW31663   0.111   2.399   7.034 -0.1628  0.3317  0.3287
 6735SOL    HW131664   0.132   2.386   7.126  2.8019 -1.3778 -0.6099
 6735SOL    HW231665   0.183   2.457   7.008  0.2402  0.1696  1.0786
 6736SOL     OW31666   2.112   2.198   7.156  0.1359 -0.3598 -0.4807
 6736SOL    HW131667   2.123   2.113   7.198 -2.2332  0.0747  1.0546
 6736SOL    HW231668   2.182   2.200   7.091  2.6199 -0.5107  2.1781
 6737SOL     OW31669   1.181   0.040  14.535 -0.5342 -0.1253 -0.1634
 6737SOL    HW131670   1.199   0.051  14.442 -2.4549 -1.2461 -0.6886
 6737SOL    HW231671   1.207   0.128  14.561  1.5669 -1.1279  1.1006
 6738SOL     OW31672   1.634   1.729   6.262  0.4602 -0.5270 -0.3685
 6738SOL    HW131673   1.729   1.731   6.271  0.4201 -0.3375  0.0159
 6738SOL    HW231674   1.633   1.733   6.166 -4.6275  1.3799 -0.2446
 6739SOL     OW31675   2.054   0.718   7.461 -0.4820 -0.8704 -0.2233
 6739SOL    HW131676   2.091   0.649   7.516  1.0926 -0.5232 -0.8521
 6739SOL    HW231677   2.125   0.721   7.398  0.8712 -0.5161  1.3103
 6740SOL     OW31678   1.329   4.551   2.975 -0.1784 -0.2879 -0.2386
 6740SOL    HW131679   1.259   4.576   2.915 -0.3823 -3.2805 -1.2512
 6740SOL    HW231680   1.379   4.501   2.911 -0.1624  2.4855 -2.4165
 6741SOL     OW31681   3.362   4.178   8.039  0.6516 -0.2174  0.2630
 6741SOL    HW131682   3.390   4.229   8.115 -2.1425  0.7356  0.6200
 6741SOL    HW231683   3.274   4.155   8.067  0.3165  1.3328  0.4726
 6742SOL     OW31684   0.334   0.105   6.919 -0.0200 -0.0260  0.0380
 6742SOL    HW131685   0.318   0.015   6.948 -1.7439  0.2803  0.0679
 6742SOL    HW231686   0.295   0.085   6.834  2.6606  1.2710 -1.4512
 6743SOL     OW31687   3.227   1.874   2.665 -1.1138 -0.4056 -0.1277
 6743SOL    HW131688   3.250   1.784   2.640 -0.6160  0.0435 -1.2644
 6743SOL    HW231689   3.180   1.896   2.585  0.1475  1.1969 -0.4170
 6744SOL     OW31690   3.951   4.363   7.368  0.2906  0.5400  0.4093
 6744SOL    HW131691   3.984   4.358   7.278 -1.2974  2.1872 -0.2741
 6744SOL    HW231692   4.027   4.328   7.414 -1.0826 -1.8084  0.8525
 6745SOL     OW31693   1.815   3.471  11.045  0.3903  0.2098 -0.3239
 6745SOL    HW131694   1.753   3.469  11.118  0.3249  1.4788 -0.3486
 6745SOL    HW231695   1.765   3.416  10.985  1.4882  2.1385 -2.9828
 6746SOL     OW31696   4.466   2.369   7.271 -0.5297 -0.0305  0.4225
 6746SOL    HW131697   4.474   2.322   7.188  0.1038 -1.7411  1.4705
 6746SOL    HW231698   4.555   2.355   7.303 -1.1926 -0.9145  1.8435
 6747SOL     OW31699   3.825   2.407   7.090  0.4841  0.3269 -0.1568
 6747SOL    HW131700   3.758   2.419   7.023 -0.2178  2.7325  0.9629
 6747SOL    HW231701   3.904   2.395   7.037  1.1666 -0.3562  0.9874
 6748SOL     OW31702   2.664   2.447   7.528  0.1890  0.2671  0.0081
 6748SOL    HW131703   2.751   2.481   7.550  0.8807 -0.3724 -1.6916
 6748SOL    HW231704   2.652   2.399   7.609 -1.5660  0.0359 -0.3947
 6749SOL     OW31705   3.714   1.643  16.401  0.4643  0.1522 -0.5512
 6749SOL    HW131706   3.660   1.598  16.466  2.9887  0.0893  1.5019
 6749SOL    HW231707   3.686   1.604  16.318 -1.0620 -0.1859  0.1213
 6750SOL     OW31708   4.432   3.446  17.351  0.3865  0.0235 -0.5383
 6750SOL    HW131709   4.457   3.442  17.259 -2.7385 -0.6189 -1.3729
 6750SOL    HW231710   4.519   3.447  17.390  0.4327 -0.3276 -0.6301
 6751SOL     OW31711   4.362   3.938   4.351  0.3056 -0.1147 -0.4151
 6751SOL    HW131712   4.352   3.938   4.255 -1.0715  0.0365 -0.2690
 6751SOL    HW231713   4.273   3.904   4.367  0.6402 -1.1039 -0.6193
 6752SOL     OW31714   2.427   3.319  10.183  0.2942  0.3352  0.0207
 6752SOL    HW131715   2.405   3.372  10.106  1.6222 -0.1857 -0.7130
 6752SOL    HW231716   2.501   3.372  10.211 -0.9841  1.9774  0.2978
 6753SOL     OW31717   0.536   3.326   8.862 -0.3839  0.4683  0.3290
 6753SOL    HW131718   0.460   3.326   8.920 -0.8694 -0.6428 -0.3198
 6753SOL    HW231719   0.609   3.317   8.923  0.1944  0.1995 -0.4050
 6754SOL     OW31720   1.097   3.296   6.175 -0.3605  0.1706 -0.3476
 6754SOL    HW131721   1.134   3.208   6.170  1.2459  0.9152 -1.8111
 6754SOL    HW231722   1.073   3.311   6.084  0.2661 -3.1752 -1.0428
 6755SOL     OW31723   2.372   0.885   4.985  0.3630 -0.4630  0.0667
 6755SOL    HW131724   2.404   0.799   5.010  1.0988 -0.8177 -2.1124
 6755SOL    HW231725   2.322   0.861   4.907 -3.3193  1.7983  1.7144
 6756SOL     OW31726   2.516   2.659   7.256  0.1578  0.0667 -0.3250
 6756SOL    HW131727   2.543   2.728   7.316  1.7677 -0.2556 -0.6763
 6756SOL    HW231728   2.593   2.642   7.201 -0.2760  2.6440 -1.7090
 6757SOL     OW31729   4.480   3.250   4.030 -0.5569  0.3924  0.6477
 6757SOL    HW131730   4.477   3.338   3.992 -0.9172  0.0616 -0.0732
 6757SOL    HW231731   4.564   3.220   3.996 -1.3669  0.8884 -1.8047
 6758SOL     OW31732   2.383   3.254   1.571 -0.4718  0.2293 -0.1056
 6758SOL    HW131733   2.367   3.262   1.665  2.7070  0.1245  0.4557
 6758SOL    HW231734   2.416   3.164   1.570  1.5202  0.9617  0.1503
 6759SOL     OW31735   1.181   2.898   7.290 -0.0242 -0.5394  0.0956
 6759SOL    HW131736   1.258   2.883   7.345  0.2754  0.2955 -0.1066
 6759SOL    HW231737   1.152   2.987   7.308 -3.3284 -1.6146  0.2440
 6760SOL     OW31738   4.293   1.401   2.323  0.4970 -0.1009 -0.7018
 6760SOL    HW131739   4.361   1.335   2.309 -1.0390 -1.6057 -1.1189
 6760SOL    HW231740   4.277   1.447   2.240 -1.0845 -0.0885 -0.4028
 6761SOL     OW31741   1.637   1.695   9.073 -0.4156  0.2147  0.4438
 6761SOL    HW131742   1.551   1.691   9.116 -0.7693 -2.2769 -0.4605
 6761SOL    HW231743   1.629   1.625   9.008  0.7468  0.6808 -0.1947
 6762SOL     OW31744   1.745   2.922   9.214 -0.2411 -0.6706  0.0332
 6762SOL    HW131745   1.751   2.850   9.276 -1.5600  0.2240  1.2033
 6762SOL    HW231746   1.814   2.895   9.154 -1.8886 -1.6158 -1.4065
 6763SOL     OW31747   3.776   1.557   5.501  0.0133  0.2513  0.3832
 6763SOL    HW131748   3.835   1.578   5.428  0.5549  2.7647  1.5588
 6763SOL    HW231749   3.816   1.590   5.582  2.9884 -0.4440 -0.8089
 6764SOL     OW31750   0.743   0.781  13.069  0.3524 -0.3860  0.0458
 6764SOL    HW131751   0.771   0.698  13.031 -0.7200 -1.0741  0.7842
 6764SOL    HW231752   0.663   0.755  13.114  0.5744  0.5195  0.9767
 6765SOL     OW31753   4.481   0.871   6.873 -0.1391 -0.2441  0.7452
 6765SOL    HW131754   4.427   0.950   6.883  0.2583  0.2289 -0.8231
 6765SOL    HW231755   4.415   0.837   6.813  1.0377 -2.4005  0.6808
 6766SOL     OW31756   4.225   4.008   7.316  0.6146  0.6150  0.1906
 6766SOL    HW131757   4.294   3.943   7.330 -0.8976 -1.4952 -2.2646
 6766SOL    HW231758   4.161   3.973   7.378 -0.5316  1.3193 -0.6143
 6767SOL     OW31759   1.244   2.110   3.694 -0.0401 -0.1240  0.0021
 6767SOL    HW131760   1.303   2.087   3.766  0.3759 -1.4808 -0.7731
 6767SOL    HW231761   1.220   2.024   3.659  1.6749 -0.6503  0.0884
 6768SOL     OW31762   2.066   0.318  11.406  0.0782 -0.8821  0.0884
 6768SOL    HW131763   2.044   0.409  11.384 -0.9081 -1.4359 -1.2466
 6768SOL    HW231764   2.076   0.289  11.315 -2.3497  0.6552 -0.6733
 6769SOL     OW31765   3.817   1.338  14.175  0.3390 -0.1194  0.0952
 6769SOL    HW131766   3.912   1.341  14.187  0.4511  0.1039 -0.8869
 6769SOL    HW231767   3.774   1.348  14.260  0.9305  2.1115  0.1258
 6770SOL     OW31768   2.999   3.859   3.155 -0.0488 -0.5200  0.4430
 6770SOL    HW131769   3.083   3.874   3.111 -0.7433  0.5389 -0.5367
 6770SOL    HW231770   3.015   3.861   3.249  3.2040 -1.0199 -0.0876
 6771SOL     OW31771   0.203   2.918  10.104  0.3677  0.4662  0.1159
 6771SOL    HW131772   0.243   2.905  10.191 -1.7398  0.7322  1.1260
 6771SOL    HW231773   0.183   2.827  10.085 -1.1992  0.3666  2.1846
 6772SOL     OW31774   3.400   4.363   2.040  0.1209 -0.6476 -0.3122
 6772SOL    HW131775   3.442   4.423   1.978 -1.1206  0.4112 -0.1429
 6772SOL    HW231776   3.379   4.288   1.984  1.0889 -2.2253  1.4541
 6773SOL     OW31777   4.000   3.204   2.903 -0.8282  0.0720  0.3208
 6773SOL    HW131778   4.029   3.137   2.964  0.2277 -0.5497 -0.8761
 6773SOL    HW231779   3.923   3.157   2.871 -0.8667  0.7847 -0.6442
 6774SOL     OW31780   0.548   3.593   8.387 -0.3140 -0.8768  0.1060
 6774SOL    HW131781   0.480   3.527   8.402 -1.6498  0.5441  0.3131
 6774SOL    HW231782   0.613   3.540   8.341  0.8868  0.3525  0.3658
 6775SOL     OW31783   0.004   4.648   2.451 -0.2182  0.1827 -0.1749
 6775SOL    HW131784   0.005   4.584   2.522  0.3438  0.0466 -0.3006
 6775SOL    HW231785   4.693   0.011   2.489 -3.2751  0.4438 -3.2424
 6776SOL     OW31786   2.890   0.964   7.933 -0.0763 -0.6020  0.0599
 6776SOL    HW131787   2.877   0.875   7.965 -0.4131  0.4092  2.7430
 6776SOL    HW231788   2.871   1.022   8.007  0.6376  1.2233 -1.1968
 6777SOL     OW31789   1.599   3.865  14.228 -0.1058  0.1300 -0.0166
 6777SOL    HW131790   1.645   3.881  14.146  0.3307  1.6638  0.5152
 6777SOL    HW231791   1.614   3.772  14.245  1.0183  0.4460  0.7705
 6778SOL     OW31792   3.893   3.961  17.254  0.8874 -0.0571 -0.1013
 6778SOL    HW131793   3.867   3.943  17.164  1.8759  2.8979 -1.0053
 6778SOL    HW231794   3.811   3.996  17.288  1.0168  2.5222 -2.4508
 6779SOL     OW31795   3.344   0.256   7.430  0.1745 -0.9065 -0.1335
 6779SOL    HW131796   3.288   0.334   7.430  1.1939 -0.1713  0.4190
 6779SOL    HW231797   3.396   0.260   7.349  1.8867  1.1955  1.0561
 6780SOL     OW31798   2.414   4.670  13.910  0.6045 -0.6984  0.6847
 6780SOL    HW131799   2.387   4.618  13.985  1.6202 -2.9416 -0.5221
 6780SOL    HW231800   2.501   4.696  13.940 -0.0365 -0.1613  2.1124
 6781SOL     OW31801   1.685   0.615   7.581 -0.6344 -0.4725  0.2902
 6781SOL    HW131802   1.635   0.645   7.657 -1.4266 -0.2748 -0.3226
 6781SOL    HW231803   1.665   0.521   7.577 -0.4404 -0.5549  1.1547
 6782SOL     OW31804   4.223   0.642   4.597  0.3893  0.4168  0.1314
 6782SOL    HW131805   4.224   0.734   4.572  0.6103  0.6121  0.8590
 6782SOL    HW231806   4.212   0.604   4.510  1.5968  1.7906 -0.6103
 6783SOL     OW31807   4.385   0.634   1.410  0.7180  0.1567 -0.3223
 6783SOL    HW131808   4.417   0.723   1.418  1.6563 -0.3418  1.3521
 6783SOL    HW231809   4.461   0.577   1.420  0.2567 -0.0889  1.8143
 6784SOL     OW31810   3.913   4.375   1.647 -0.4265  0.3618  0.9140
 6784SOL    HW131811   3.860   4.302   1.617  1.4443 -1.5246  2.2212
 6784SOL    HW231812   3.858   4.395   1.723 -1.4306 -1.6325  0.7027
 6785SOL     OW31813   2.740   3.696   7.574 -0.1837  0.1714  0.0121
 6785SOL    HW131814   2.832   3.720   7.584  0.0001  0.0984 -1.4136
 6785SOL    HW231815   2.724   3.732   7.487  2.0852  1.4749  0.1245
 6786SOL     OW31816   1.514   2.661   3.580  0.4171  0.1702 -0.2090
 6786SOL    HW131817   1.590   2.718   3.592 -1.3130  2.0766  1.7133
 6786SOL    HW231818   1.466   2.675   3.662 -0.6063 -0.8532 -0.6383
 6787SOL     OW31819   4.232   4.438  12.515 -0.4621  0.3177 -0.5890
 6787SOL    HW131820   4.234   4.348  12.482 -0.3319  0.2782 -0.4713
 6787SOL    HW231821   4.209   4.424  12.607  0.9186  1.7424 -0.0449
 6788SOL     OW31822   3.278   3.810   3.641 -0.6815  0.3796 -0.4268
 6788SOL    HW131823   3.218   3.761   3.697  0.0131 -1.2173 -1.1001
 6788SOL    HW231824   3.354   3.755   3.659 -1.1404  0.3702  1.5460
 6789SOL     OW31825   1.372   1.648  16.274 -0.0110 -0.1598 -0.7656
 6789SOL    HW131826   1.394   1.555  16.271 -1.1691 -0.5078  1.0818
 6789SOL    HW231827   1.277   1.655  16.284  0.1195 -3.6602  3.4069
 6790SOL     OW31828   0.670   3.945  14.312  0.0938  0.0769  0.1150
 6790SOL    HW131829   0.635   3.982  14.394 -1.9910  0.2950 -0.8617
 6790SOL    HW231830   0.639   4.013  14.252  0.7228  0.2644  0.0044
 6791SOL     OW31831   2.522   2.712   3.624  0.2651  0.2040  0.0665
 6791SOL    HW131832   2.556   2.800   3.610  2.5798 -0.8960 -1.0507
 6791SOL    HW231833   2.554   2.666   3.547 -0.7402  0.3271 -0.4284
 6792SOL     OW31834   2.618   2.474   3.413  0.6892 -0.4453 -0.3555
 6792SOL    HW131835   2.676   2.463   3.488  1.1094 -3.3553 -1.1171
 6792SOL    HW231836   2.667   2.520   3.346  0.3749  0.2310 -0.1218
 6793SOL     OW31837   3.193   3.298  11.317  0.0019  0.1246  0.1745
 6793SOL    HW131838   3.104   3.299  11.282 -0.1212 -1.6241  0.4464
 6793SOL    HW231839   3.179   3.323  11.408  2.7549 -0.0459  0.6561
 6794SOL     OW31840   4.660   0.092  14.489  0.2767  0.2746 -0.2817
 6794SOL    HW131841   0.016   0.150  14.477  1.2257 -1.3219 -2.0555
 6794SOL    HW231842   4.601   0.113  14.416 -1.0435 -0.2953  0.6090
 6795SOL     OW31843   4.244   1.583   5.264  0.0181 -0.1435 -0.1053
 6795SOL    HW131844   4.278   1.628   5.342 -0.7170 -1.0906  0.7611
 6795SOL    HW231845   4.275   1.498   5.295  0.0655 -0.1299 -0.1146
 6796SOL     OW31846   0.786   4.569   9.545  0.3906 -0.3524  0.1332
 6796SOL    HW131847   0.705   4.611   9.572 -0.1408  0.1039 -2.1454
 6796SOL    HW231848   0.827   4.540   9.626  2.3335 -0.3434 -0.8500
 6797SOL     OW31849   1.973   0.083   0.440 -0.3895 -0.2684 -0.3373
 6797SOL    HW131850   2.033   0.084   0.515  0.1631 -2.3873 -0.7792
 6797SOL    HW231851   2.007   0.162   0.396  0.7216 -0.2509  0.5295
 6798SOL     OW31852   3.417   0.230   9.257  0.3201  0.2044 -0.2646
 6798SOL    HW131853   3.438   0.186   9.340 -2.4110  0.4933  0.5658
 6798SOL    HW231854   3.392   0.316   9.291 -0.2150 -0.5543  1.2592
 6799SOL     OW31855   2.886   3.789   9.815 -0.2508  0.1439 -0.0799
 6799SOL    HW131856   2.933   3.753   9.740 -1.3034  0.4787 -0.8918
 6799SOL    HW231857   2.887   3.883   9.795  1.8254  0.0756 -0.2993
 6800SOL     OW31858   4.402   0.144   9.706  0.1233 -0.0250 -0.2804
 6800SOL    HW131859   4.491   0.120   9.731 -0.5895  0.0895  2.3873
 6800SOL    HW231860   4.382   0.066   9.655 -0.6192 -0.3639  0.5331
 6801SOL     OW31861   1.004   2.337   3.518 -0.3902 -0.0489  0.1190
 6801SOL    HW131862   1.056   2.372   3.446 -0.3176 -0.8384 -0.2089
 6801SOL    HW231863   1.046   2.383   3.591 -0.1453 -0.9389  0.5369
 6802SOL     OW31864   3.502   0.448   7.160 -0.0178  0.0895  0.0683
 6802SOL    HW131865   3.554   0.504   7.102  1.7212 -0.6233  0.9422
 6802SOL    HW231866   3.494   0.374   7.100 -0.2863 -0.0774  0.3091
 6803SOL     OW31867   3.453   3.707   8.589  0.0722  0.1336  0.1183
 6803SOL    HW131868   3.368   3.675   8.617 -0.2741  1.3110  0.4199
 6803SOL    HW231869   3.495   3.621   8.586 -0.1659 -0.0188  1.2766
 6804SOL     OW31870   3.949   3.418   5.232 -0.3803  0.2844 -0.2772
 6804SOL    HW131871   3.994   3.382   5.308  1.2377  1.0609 -0.8783
 6804SOL    HW231872   4.003   3.494   5.210 -0.4336  0.4372  0.1336
 6805SOL     OW31873   4.597   1.121   1.704  0.0981 -0.4413  0.1332
 6805SOL    HW131874   4.571   1.200   1.658  1.4833 -1.5066 -2.4729
 6805SOL    HW231875   4.673   1.151   1.754  0.6693  0.2941 -1.1794
 6806SOL     OW31876   3.223   1.068   7.110 -0.8001 -0.5613 -0.3685
 6806SOL    HW131877   3.307   1.113   7.125  0.3010 -3.0539  0.9917
 6806SOL    HW231878   3.188   1.078   7.198  0.9754 -1.3935  0.4465
 6807SOL     OW31879   1.537   3.546   8.625  0.4319  0.0914  0.2328
 6807SOL    HW131880   1.601   3.610   8.594  0.1111 -0.5444 -1.7965
 6807SOL    HW231881   1.469   3.598   8.667 -0.3507 -1.6407  1.1254
 6808SOL     OW31882   4.389   0.029   7.420  0.0138 -0.6044 -0.4383
 6808SOL    HW131883   4.470   4.718   7.380  1.1037  0.8839  0.6659
 6808SOL    HW231884   4.409   0.061   7.508  1.7776 -3.0368  0.0596
 6809SOL     OW31885   2.200   0.738   5.859 -0.4051 -0.5550  0.1721
 6809SOL    HW131886   2.134   0.669   5.849 -2.2888  1.0785  1.2975
 6809SOL    HW231887   2.276   0.700   5.901 -0.4872  1.7899  2.4505
 6810SOL     OW31888   1.817   4.709   2.133  0.2955 -0.4455  0.4478
 6810SOL    HW131889   1.839   4.618   2.147 -1.7379 -1.0768 -0.3956
 6810SOL    HW231890   1.852   0.036   2.209 -0.3824  1.9023 -0.6386
 6811SOL     OW31891   2.526   0.616   0.169 -0.0041  0.0473 -0.1873
 6811SOL    HW131892   2.453   0.606   0.231  0.1214 -0.5797 -0.1383
 6811SOL    HW231893   2.504   0.542   0.113 -1.8531 -0.2980  0.9787
 6812SOL     OW31894   1.507   1.592   2.647  0.1102 -0.1268 -0.0840
 6812SOL    HW131895   1.499   1.688   2.649  0.4747 -0.0980  0.1627
 6812SOL    HW231896   1.478   1.578   2.557  0.5785 -2.1629  0.0775
 6813SOL     OW31897   1.160   3.370  16.171  0.2752 -0.1830  0.1084
 6813SOL    HW131898   1.160   3.454  16.218 -1.2381  0.3099 -0.7435
 6813SOL    HW231899   1.241   3.359  16.123  0.1589 -1.2582  0.1714
 6814SOL     OW31900   3.224   0.974  15.158  0.0821  0.1271 -0.1021
 6814SOL    HW131901   3.216   1.056  15.206  1.3466 -1.1497  2.2397
 6814SOL    HW231902   3.144   0.925  15.174  0.2265  0.5102  1.7166
 6815SOL     OW31903   0.935   4.551   2.642  0.2452  0.9104  0.4577
 6815SOL    HW131904   0.993   4.577   2.570  0.3174  0.1796  0.2539
 6815SOL    HW231905   0.978   4.470   2.668  1.9009  1.6418  0.0342
 6816SOL     OW31906   3.475   0.251   3.887 -0.3954 -0.0245  0.0684
 6816SOL    HW131907   3.478   0.161   3.921  0.5157 -0.2873 -0.7266
 6816SOL    HW231908   3.410   0.251   3.817 -0.5972  0.1667  0.2536
 6817SOL     OW31909   4.162   4.145  10.372  0.3349 -0.0058  0.0361
 6817SOL    HW131910   4.172   4.064  10.321 -1.1678  0.2625 -0.6540
 6817SOL    HW231911   4.235   4.201  10.345  1.0327 -1.4590 -1.1450
 6818SOL     OW31912   2.938   1.577   4.355  0.3040 -0.1883  0.6944
 6818SOL    HW131913   2.929   1.622   4.271 -0.6060  2.2328  2.0857
 6818SOL    HW231914   2.866   1.625   4.397 -0.0169 -0.0185 -0.0321
 6819SOL     OW31915   4.319   3.424   0.421  0.2938 -0.0653 -0.6112
 6819SOL    HW131916   4.339   3.491   0.356  0.4352 -1.1521 -1.6998
 6819SOL    HW231917   4.224   3.421   0.409  0.0915  1.1898  0.6778
 6820SOL     OW31918   1.807   3.987   9.000  0.2638 -0.7574  0.1674
 6820SOL    HW131919   1.871   4.056   8.981 -1.3194  0.8783  0.7237
 6820SOL    HW231920   1.780   4.016   9.087 -3.0977 -2.5076 -0.3282
 6821SOL     OW31921   1.979   2.637   0.246  0.1809  0.2596  0.1977
 6821SOL    HW131922   2.059   2.629   0.297 -0.2356 -1.7430  0.5574
 6821SOL    HW231923   2.007   2.717   0.203 -1.1583  0.6291  0.0201
 6822SOL     OW31924   0.399   3.806  13.116 -0.4216 -0.1251 -0.2145
 6822SOL    HW131925   0.389   3.760  13.199  1.1253  0.4721  0.3003
 6822SOL    HW231926   0.468   3.751  13.080 -1.2730 -1.6673  0.5056
 6823SOL     OW31927   4.427   2.135   5.475  0.9164  0.0677 -0.2888
 6823SOL    HW131928   4.510   2.180   5.460  1.7151 -1.3441 -0.0476
 6823SOL    HW231929   4.411   2.174   5.561  0.3627 -0.4951 -0.1392
 6824SOL     OW31930   4.203   4.042   1.585  0.1023  0.1167 -0.3896
 6824SOL    HW131931   4.275   3.978   1.591 -0.6335 -0.7099 -0.4020
 6824SOL    HW231932   4.246   4.114   1.539  0.7965  0.4173  0.7358
 6825SOL     OW31933   3.977   4.167   5.568 -0.3368 -0.5934  0.0070
 6825SOL    HW131934   4.038   4.099   5.596 -2.0559 -0.7842  3.2267
 6825SOL    HW231935   3.899   4.113   5.553  0.0261 -0.9539 -0.5908
 6826SOL     OW31936   3.023   0.221   1.344  0.1530  0.2333  0.2476
 6826SOL    HW131937   2.997   0.198   1.255 -1.7506 -1.1455  1.1724
 6826SOL    HW231938   3.034   0.134   1.382  0.8522  0.8683  1.4675
 6827SOL     OW31939   3.955   0.252   2.357 -0.2250  0.1093 -0.4313
 6827SOL    HW131940   3.958   0.346   2.375 -0.3216  0.0437 -0.0680
 6827SOL    HW231941   4.019   0.246   2.287 -0.1043  1.3900 -0.4390
 6828SOL     OW31942   4.064   0.247   5.128  0.1628  0.8362 -0.2747
 6828SOL    HW131943   4.062   0.152   5.124  0.0397  0.8221  0.1631
 6828SOL    HW231944   4.012   0.276   5.052 -1.4709  0.1190  0.5726
 6829SOL     OW31945   3.724   0.355   5.760 -0.0144  0.4813 -0.1035
 6829SOL    HW131946   3.755   0.392   5.842  1.7400 -2.9545  0.8162
 6829SOL    HW231947   3.728   0.265   5.792 -0.5518  0.7525  0.7231
 6830SOL     OW31948   3.556   0.322  10.734  0.5640  0.1142  0.2439
 6830SOL    HW131949   3.575   0.355  10.646 -2.6841 -0.2482 -0.5758
 6830SOL    HW231950   3.591   0.398  10.781 -1.5404  1.0879  0.2316
 6831SOL     OW31951   0.654   0.317   4.307  0.1066 -0.1079 -0.0549
 6831SOL    HW131952   0.717   0.315   4.234  2.0826  2.2730  1.5840
 6831SOL    HW231953   0.596   0.244   4.287  0.3321 -0.3969  0.3368
 6832SOL     OW31954   0.895   4.243   7.325  0.2454 -0.2927 -0.0763
 6832SOL    HW131955   0.848   4.259   7.243 -0.8179 -0.6475  0.4750
 6832SOL    HW231956   0.873   4.322   7.374  1.2419 -1.3586  2.1049
 6833SOL     OW31957   3.760   3.153   5.357 -0.3388  0.3626 -0.5057
 6833SOL    HW131958   3.691   3.191   5.412 -1.0067  0.9582 -1.7420
 6833SOL    HW231959   3.837   3.197   5.391 -0.3855  0.3307 -0.3601
 6834SOL     OW31960   4.610   0.121  10.229 -0.1311 -0.5225 -0.1654
 6834SOL    HW131961   4.688   0.162  10.266  0.0597 -0.8912 -0.1556
 6834SOL    HW231962   4.593   0.197  10.174 -2.1529 -0.7206  0.1698
 6835SOL     OW31963   0.748   0.021   2.913  0.5073 -0.2683  0.0420
 6835SOL    HW131964   0.696   0.084   2.863  0.1847  1.3594  2.4158
 6835SOL    HW231965   0.687   4.700   2.975  0.1897 -0.3517 -0.3240
 6836SOL     OW31966   1.089   2.107  12.475  0.1194 -0.1177 -0.3827
 6836SOL    HW131967   1.038   2.175  12.519  0.5509 -0.7980  1.1585
 6836SOL    HW231968   1.178   2.129  12.502  0.4177 -0.8024 -0.8147
 6837SOL     OW31969   2.970   4.323   1.054  0.2354 -0.2845  0.2717
 6837SOL    HW131970   3.050   4.295   1.099  0.0276  0.8259  1.3292
 6837SOL    HW231971   2.904   4.272   1.101 -1.5074  1.0128 -0.8009
 6838SOL     OW31972   2.691   0.573   7.502 -0.3918 -1.3022 -0.1740
 6838SOL    HW131973   2.669   0.618   7.421 -0.7631  0.9033  1.1339
 6838SOL    HW231974   2.632   0.498   7.495  0.2020 -1.6736 -1.1271
 6839SOL     OW31975   1.387   2.780   4.547 -0.0057 -0.2229  0.2008
 6839SOL    HW131976   1.348   2.696   4.523 -0.4647 -0.5819  2.2488
 6839SOL    HW231977   1.310   2.836   4.537 -1.0242 -1.8741 -1.2590
 6840SOL     OW31978   4.656   2.106   1.268 -0.2935  0.2833 -0.0717
 6840SOL    HW131979   0.004   2.173   1.254 -1.2613  1.5494  1.3682
 6840SOL    HW231980   4.578   2.152   1.236 -0.0839  1.6038  1.3115
 6841SOL     OW31981   2.955   0.463   9.071 -0.2375 -0.3929 -0.4404
 6841SOL    HW131982   3.033   0.441   9.122  0.0257 -1.1528 -1.1876
 6841SOL    HW231983   2.998   0.532   9.020  0.9106  0.3429  1.4973
 6842SOL     OW31984   2.956   0.090   9.058  0.4214  0.4340 -0.2971
 6842SOL    HW131985   2.914   0.028   9.118  0.0101 -1.3314 -2.4194
 6842SOL    HW231986   2.931   0.050   8.974 -0.6137  0.3592  0.0481
 6843SOL     OW31987   3.642   3.816   1.480  0.5818 -0.5448 -0.2890
 6843SOL    HW131988   3.592   3.825   1.561 -0.4847 -2.2125 -0.7774
 6843SOL    HW231989   3.568   3.790   1.425 -1.1441  1.3457  1.1501
 6844SOL     OW31990   0.239   2.679  14.942 -0.2900 -0.0327 -0.5678
 6844SOL    HW131991   0.243   2.758  14.889 -1.2592  0.2416 -0.2319
 6844SOL    HW231992   0.311   2.625  14.911  0.0485 -0.9947  1.9279
 6845SOL     OW31993   3.813   3.833   7.572 -0.3757  0.0783 -0.2299
 6845SOL    HW131994   3.829   3.808   7.481  2.2797  1.3147 -0.1120
 6845SOL    HW231995   3.865   3.768   7.619 -1.0772  0.8779  1.6647
 6846SOL     OW31996   3.648   3.396  11.382  0.3474 -0.5776  1.1785
 6846SOL    HW131997   3.702   3.329  11.422  3.6658  0.8846 -0.8287
 6846SOL    HW231998   3.584   3.417  11.450 -0.0453 -2.3185  1.3344
 6847SOL     OW31999   2.380   2.538  11.921 -0.0754 -0.1423 -0.0443
 6847SOL    HW132000   2.359   2.447  11.944  0.8089 -0.1978  0.5301
 6847SOL    HW232001   2.420   2.534  11.835  0.4948 -3.5702  0.3811
 6848SOL     OW32002   4.638   1.759   8.410  0.2060 -0.3769  0.6862
 6848SOL    HW132003   4.549   1.728   8.425 -0.2824  1.3111  1.3019
 6848SOL    HW232004   4.683   1.675   8.420 -3.1178 -2.5756 -3.0786
 6849SOL     OW32005   2.602   4.377   5.856 -0.2823  0.0326  0.0184
 6849SOL    HW132006   2.651   4.440   5.803 -0.3046  2.0932  2.4721
 6849SOL    HW232007   2.669   4.341   5.914  0.4028  0.2170 -0.6592
 6850SOL     OW32008   4.161   4.603  11.375 -0.0205 -0.2398  0.0341
 6850SOL    HW132009   4.126   4.527  11.422 -0.3407 -0.0125  0.1673
 6850SOL    HW232010   4.084   4.627  11.323  0.7766  2.0982 -0.0629
 6851SOL     OW32011   1.733   4.092   4.658  0.8072  0.4488  0.3273
 6851SOL    HW132012   1.821   4.059   4.637  0.7038 -0.7647  1.8007
 6851SOL    HW232013   1.719   4.039   4.737  0.2997 -0.6437 -0.4858
 6852SOL     OW32014   2.796   4.104   2.119  0.1988  0.5487 -0.9932
 6852SOL    HW132015   2.890   4.118   2.109 -0.0304  1.4309 -1.8413
 6852SOL    HW232016   2.786   4.008   2.121 -2.1211  0.8091  0.1737
 6853SOL     OW32017   2.575   2.184   7.048 -0.0613 -0.0662 -0.4161
 6853SOL    HW132018   2.572   2.220   7.137 -0.9434  2.6339 -1.5288
 6853SOL    HW232019   2.552   2.258   6.992  0.8411  1.2757  1.0008
 6854SOL     OW32020   2.652   4.178   6.220 -0.2705 -0.6024  0.1138
 6854SOL    HW132021   2.626   4.267   6.246  0.4209 -0.5845  0.7378
 6854SOL    HW232022   2.575   4.161   6.166 -0.7277 -1.1221  0.9345
 6855SOL     OW32023   4.012   0.718  13.221 -0.3631 -0.0309  0.2008
 6855SOL    HW132024   4.086   0.739  13.278  0.3353 -0.3548 -0.5877
 6855SOL    HW232025   4.026   0.624  13.210 -0.4517  0.0862 -0.8519
 6856SOL     OW32026   3.054   0.746   6.181 -0.0476 -0.2023  0.2285
 6856SOL    HW132027   3.135   0.776   6.141  0.0471 -0.4984  0.1998
 6856SOL    HW232028   2.989   0.785   6.122  0.7116  1.2810  0.3648
 6857SOL     OW32029   3.513   1.896   3.680  0.5384 -0.4219 -0.3281
 6857SOL    HW132030   3.505   1.918   3.587 -0.5992  1.7264  0.2834
 6857SOL    HW232031   3.527   1.802   3.669 -2.3024 -1.4075  4.5381
 6858SOL     OW32032   3.078   4.571   4.873 -0.9167 -0.4027 -0.0535
 6858SOL    HW132033   2.998   4.595   4.826 -0.7457 -1.3057 -0.8092
 6858SOL    HW232034   3.128   4.652   4.883 -3.0606  0.7944  0.9686
 6859SOL     OW32035   2.734   1.498   8.251  0.2834  0.4764 -0.8335
 6859SOL    HW132036   2.672   1.550   8.301  0.3845 -0.4599  0.2683
 6859SOL    HW232037   2.791   1.565   8.213  1.1646  1.5708  2.4296
 6860SOL     OW32038   0.082   3.533  14.405  0.2383 -0.1014 -0.3127
 6860SOL    HW132039   0.048   3.452  14.443 -0.6907  0.0546 -0.7977
 6860SOL    HW232040   0.166   3.496  14.379 -0.8920 -1.2765 -2.2316
 6861SOL     OW32041   3.365   1.969   5.024  0.6354 -0.2219  0.3816
 6861SOL    HW132042   3.355   2.057   4.987  0.9648 -0.6115 -0.6167
 6861SOL    HW232043   3.460   1.967   5.031  0.6810  1.4698  0.3366
 6862SOL     OW32044   1.614   2.217   6.709  0.6497  0.2941 -0.0700
 6862SOL    HW132045   1.637   2.237   6.800 -2.1775  1.6262  0.3506
 6862SOL    HW232046   1.690   2.168   6.678  0.0269 -0.4762 -0.3847
 6863SOL     OW32047   0.610   0.678  10.628  0.2173  0.6588  0.5178
 6863SOL    HW132048   0.557   0.758  10.626  0.5204  0.8047 -1.7047
 6863SOL    HW232049   0.611   0.657  10.721 -2.6194 -0.1432  0.3709
 6864SOL     OW32050   3.747   3.361  17.178  0.1465  0.1802 -0.6174
 6864SOL    HW132051   3.704   3.346  17.094 -2.8878  1.8439  0.6468
 6864SOL    HW232052   3.735   3.454  17.192  1.3529  0.2273  0.1597
 6865SOL     OW32053   3.668   2.938   7.384 -0.7905  0.0606  0.0069
 6865SOL    HW132054   3.589   2.889   7.360 -1.8592  1.8130 -0.0298
 6865SOL    HW232055   3.698   2.983   7.305 -2.1793  2.5912  0.9325
 6866SOL     OW32056   1.788   0.001  15.795 -0.4970  0.2431  0.7862
 6866SOL    HW132057   1.830   0.081  15.764  0.5614 -0.2435  0.9793
 6866SOL    HW232058   1.857   4.653  15.792 -1.4400 -0.7835  2.1711
 6867SOL     OW32059   2.237   4.089   4.282 -0.0134 -0.3602 -0.6238
 6867SOL    HW132060   2.153   4.134   4.271  0.3345  1.1631  2.9781
 6867SOL    HW232061   2.304   4.158   4.279 -1.3985  0.9498 -1.3018
 6868SOL     OW32062   3.260   1.611  10.339 -0.3441 -0.7409 -0.6496
 6868SOL    HW132063   3.305   1.586  10.258 -2.3232 -3.3061 -0.9834
 6868SOL    HW232064   3.229   1.700  10.323  2.0021 -0.0863 -1.6419
 6869SOL     OW32065   0.954   2.035   6.814  0.0720 -0.4290 -0.1433
 6869SOL    HW132066   1.003   2.096   6.760  0.7598 -0.5137  0.3904
 6869SOL    HW232067   0.989   2.060   6.899 -0.8347 -0.2471  0.1779
 6870SOL     OW32068   4.715   2.389  15.523 -0.3971 -0.0382  0.0697
 6870SOL    HW132069   0.055   2.314  15.520  2.6793  2.3865  0.7282
 6870SOL    HW232070   0.060   2.459  15.527  0.5099 -0.7007 -3.1119
 6871SOL     OW32071   0.482   4.124   6.905  0.4536 -0.2389 -0.1229
 6871SOL    HW132072   0.538   4.061   6.860  1.4049 -0.5583  1.4929
 6871SOL    HW232073   0.552   4.182   6.936  0.9771 -1.5108  1.1078
 6872SOL     OW32074   0.578   3.652  12.169 -0.1381  0.1621  0.2932
 6872SOL    HW132075   0.535   3.573  12.135  0.4656 -0.3804  0.7695
 6872SOL    HW232076   0.653   3.646  12.109  1.1548 -1.4913  2.0582
 6873SOL     OW32077   3.964   1.813   7.320 -0.1888  0.3189 -0.0965
 6873SOL    HW132078   3.932   1.903   7.314  0.8386  0.7259  0.6292
 6873SOL    HW232079   3.882   1.764   7.329 -0.2099  0.1473 -1.1651
 6874SOL     OW32080   3.737   2.078  10.302 -0.3576  0.2336  0.0873
 6874SOL    HW132081   3.792   2.045  10.374 -0.9499 -0.0936  0.3915
 6874SOL    HW232082   3.676   2.124  10.360 -1.6679  0.2918 -1.3641
 6875SOL     OW32083   4.266   4.378   6.196 -0.5783 -0.2661  0.5178
 6875SOL    HW132084   4.338   4.441   6.193  0.1035 -0.9955  1.2388
 6875SOL    HW232085   4.268   4.365   6.291 -1.9606 -0.2301  0.5411
 6876SOL     OW32086   1.240   1.509  15.947 -0.5281 -0.2783  0.3764
 6876SOL    HW132087   1.184   1.432  15.938  1.7355 -1.6549 -1.7759
 6876SOL    HW232088   1.322   1.482  15.906  0.6171  0.1829  2.3818
 6877SOL     OW32089   2.900   2.902   4.400  0.5065  0.4359  0.2908
 6877SOL    HW132090   2.893   2.829   4.337 -1.3465 -0.3810  1.4498
 6877SOL    HW232091   2.811   2.934   4.383  0.1220  0.0851  1.6347
 6878SOL     OW32092   0.316   0.165   1.277 -0.0967 -0.1622  0.2399
 6878SOL    HW132093   0.257   0.195   1.346 -2.1452 -1.0679 -1.1062
 6878SOL    HW232094   0.269   0.189   1.196  0.5986 -0.6810 -0.3158
 6879SOL     OW32095   0.205   1.977   2.642  0.4877  0.1797 -0.0887
 6879SOL    HW132096   0.290   1.939   2.619 -0.4081 -1.9375  0.0860
 6879SOL    HW232097   0.153   1.897   2.653  0.7683  0.1785  1.2190
 6880SOL     OW32098   1.891   4.389   2.700  0.3501 -0.4019  0.3540
 6880SOL    HW132099   1.924   4.409   2.787  1.2979  1.7250 -0.4866
 6880SOL    HW232100   1.970   4.400   2.648  0.3790  0.4599  0.5853
 6881SOL     OW32101   0.564   2.781   3.732 -0.3972 -0.0865  0.3202
 6881SOL    HW132102   0.551   2.876   3.734 -2.5759 -0.3923  0.4460
 6881SOL    HW232103   0.535   2.754   3.645 -1.8230  1.1762  0.4117
 6882SOL     OW32104   3.960   0.589   9.772 -0.7237  0.2635 -0.5934
 6882SOL    HW132105   3.889   0.564   9.713 -3.5550 -0.2855  3.0651
 6882SOL    HW232106   4.032   0.562   9.716  0.5526  0.5301  0.9263
 6883SOL     OW32107   3.272   1.277   2.585 -0.1216  0.4567  0.0163
 6883SOL    HW132108   3.224   1.315   2.511  1.2182  1.0427 -0.5648
 6883SOL    HW232109   3.269   1.190   2.547  3.1735  0.2753  0.1646
 6884SOL     OW32110   1.454   4.452  12.962 -0.4509  0.0353 -0.8552
 6884SOL    HW132111   1.497   4.371  12.936 -0.2822  0.1519 -0.9371
 6884SOL    HW232112   1.489   4.454  13.051 -1.1331 -2.5585 -0.5510
 6885SOL     OW32113   4.511   0.296  11.175  0.4621 -0.3730  0.2880
 6885SOL    HW132114   4.547   0.235  11.239  1.7212  0.7314  0.6162
 6885SOL    HW232115   4.443   0.342  11.225  0.3901  0.0134 -0.1686
 6886SOL     OW32116   3.365   2.603  14.391 -0.0868  0.0266  0.3347
 6886SOL    HW132117   3.419   2.637  14.320  0.2276 -0.9440  0.1113
 6886SOL    HW232118   3.278   2.640  14.375 -0.3678 -0.5999  0.3936
 6887SOL     OW32119   0.822   0.536  13.008  0.1453 -0.4507 -0.7399
 6887SOL    HW132120   0.871   0.460  12.975  0.3235  0.1582 -1.8918
 6887SOL    HW232121   0.803   0.510  13.098  0.7433  2.5801  0.2533
 6888SOL     OW32122   3.012   4.179   2.821 -0.4563  0.2051 -0.3323
 6888SOL    HW132123   2.962   4.119   2.876  0.8068 -0.5042  0.0546
 6888SOL    HW232124   2.959   4.188   2.742  3.1679 -2.1147 -3.0321
 6889SOL     OW32125   0.651   4.435   5.573 -0.4151 -0.6720 -0.0144
 6889SOL    HW132126   0.607   4.518   5.554  0.9681 -0.1040 -0.7770
 6889SOL    HW232127   0.681   4.411   5.485  2.5968  0.7183  0.6077
 6890SOL     OW32128   1.186   2.444   3.324  0.3084  0.1409 -0.2673
 6890SOL    HW132129   1.212   2.478   3.238 -0.7338  0.6966 -0.3567
 6890SOL    HW232130   1.220   2.512   3.381 -0.8123 -0.3272  0.9539
 6891SOL     OW32131   3.930   0.094  16.052  0.2404 -0.3576  0.3232
 6891SOL    HW132132   3.870   0.132  16.117  2.6316  0.3371  2.1123
 6891SOL    HW232133   3.862   0.096  15.984  0.8435  2.7556 -0.2130
 6892SOL     OW32134   3.802   4.675  16.316 -0.6709 -0.5125  0.1559
 6892SOL    HW132135   3.811   0.049  16.293  0.9465 -0.4012  1.2695
 6892SOL    HW232136   3.785   4.681  16.410 -2.1015 -0.5901 -0.0852
 6893SOL     OW32137   2.583   1.050   7.130  0.2028  0.1422  0.1430
 6893SOL    HW132138   2.521   0.978   7.121  0.4359 -0.3218  2.2729
 6893SOL    HW232139   2.631   1.036   7.048  0.2613  1.9622 -0.1463
 6894SOL     OW32140   1.884   4.613   7.801 -0.0996 -0.3847  0.0436
 6894SOL    HW132141   1.969   4.639   7.767 -0.0001  0.1089  0.6644
 6894SOL    HW232142   1.893   4.614   7.896  2.4169 -0.3083 -0.2140
 6895SOL     OW32143   4.237   2.348   2.398  0.9981 -0.1885 -0.3555
 6895SOL    HW132144   4.313   2.292   2.416  1.0266 -0.1830 -0.4578
 6895SOL    HW232145   4.269   2.411   2.333  0.2969  1.5654  1.0358
 6896SOL     OW32146   3.145   3.442   3.941 -0.6248 -0.3927  0.3035
 6896SOL    HW132147   3.082   3.370   3.942  0.4375 -1.3038  2.1671
 6896SOL    HW232148   3.219   3.383   3.955 -2.2200 -2.1714  1.1977
 6897SOL     OW32149   4.117   2.618  15.968 -0.1339 -0.9443 -0.0737
 6897SOL    HW132150   4.022   2.620  15.961 -0.2797  1.8238  2.6869
 6897SOL    HW232151   4.134   2.528  15.996  0.6040 -1.5158 -2.3272
 6898SOL     OW32152   0.739   2.490  11.519 -0.1411 -0.0205  0.5589
 6898SOL    HW132153   0.769   2.456  11.434 -1.2648 -0.5281  0.3655
 6898SOL    HW232154   0.824   2.499  11.562 -0.9555 -0.1910  2.1871
 6899SOL     OW32155   2.316   2.859   6.145  0.3997  0.0772 -0.4375
 6899SOL    HW132156   2.255   2.789   6.122  0.6033 -0.6151  1.1901
 6899SOL    HW232157   2.391   2.803   6.163  0.3127 -0.8442 -2.9052
 6900SOL     OW32158   4.143   4.235   3.014  0.1778 -0.6993 -0.4772
 6900SOL    HW132159   4.086   4.172   3.057  1.0892 -0.9614  0.3405
 6900SOL    HW232160   4.230   4.215   3.047  1.1307  1.6184 -1.5438
 6901SOL     OW32161   4.662   2.815  10.309  0.1350 -0.2383  0.3451
 6901SOL    HW132162   4.610   2.745  10.270 -2.3196  0.9223  1.5526
 6901SOL    HW232163   0.004   2.758  10.355  0.8823  1.2381  1.1695
 6902SOL     OW32164   3.874   2.754  16.268  0.1731  0.3045 -0.4275
 6902SOL    HW132165   3.859   2.695  16.194 -1.4919  1.3497 -0.9137
 6902SOL    HW232166   3.914   2.822  16.214 -0.5755  1.1127  0.0302
 6903SOL     OW32167   4.065   4.131   4.773 -0.2275  0.0966 -0.0258
 6903SOL    HW132168   4.031   4.140   4.684  1.0119  2.7879 -0.2041
 6903SOL    HW232169   4.063   4.035   4.778  0.5662  0.0722 -0.1735
 6904SOL     OW32170   2.928   3.307   3.633  0.6343 -0.5418 -0.3570
 6904SOL    HW132171   2.926   3.395   3.596 -0.7367  0.0677  1.1800
 6904SOL    HW232172   2.841   3.300   3.672  1.2596  0.8560  1.2740
 6905SOL     OW32173   3.761   3.750  16.584 -0.7431 -0.2360  0.4895
 6905SOL    HW132174   3.827   3.791  16.640 -0.0023  0.7107 -1.0579
 6905SOL    HW232175   3.690   3.805  16.617 -0.3633  1.2051 -1.0874
 6906SOL     OW32176   2.067   0.752   1.479  0.3685 -0.2626 -0.3099
 6906SOL    HW132177   2.071   0.821   1.545  1.8074 -2.7128  2.1497
 6906SOL    HW232178   1.987   0.785   1.437 -0.0565  1.2961  1.7007
 6907SOL     OW32179   2.561   1.170   5.402  0.3258  0.1540 -0.0247
 6907SOL    HW132180   2.582   1.261   5.385 -0.8873  1.0858  3.4241
 6907SOL    HW232181   2.521   1.152   5.317 -1.0751  0.7103  0.5136
 6908SOL     OW32182   2.299   0.257   1.749 -0.7247 -0.1046  0.2904
 6908SOL    HW132183   2.249   0.319   1.697 -0.1775 -0.0157 -0.1275
 6908SOL    HW232184   2.380   0.306   1.763  0.2712 -0.5198 -3.9785
 6909SOL     OW32185   0.588   2.714   2.882  0.1502 -0.0080  0.0874
 6909SOL    HW132186   0.524   2.654   2.843 -1.8537  1.9937  0.2868
 6909SOL    HW232187   0.561   2.801   2.851  0.4663  0.0528 -0.0222
 6910SOL     OW32188   4.369   1.586   6.524 -0.0238  0.3903  0.2252
 6910SOL    HW132189   4.457   1.620   6.504 -0.8807  2.8677  0.5786
 6910SOL    HW232190   4.318   1.632   6.457  0.1441  0.3874  0.0951
 6911SOL     OW32191   0.655   0.258  12.955 -0.2640  0.3225  0.1055
 6911SOL    HW132192   0.652   0.333  12.896  1.2149  0.1045 -0.2351
 6911SOL    HW232193   0.622   0.188  12.899  0.2916  1.0403 -1.1110
 6912SOL     OW32194   3.532   0.671   2.321 -0.4718  0.0437 -0.3005
 6912SOL    HW132195   3.525   0.595   2.380  1.9681  1.4234  1.7484
 6912SOL    HW232196   3.597   0.627   2.266 -0.0153  2.3997 -1.6380
 6913SOL     OW32197   3.209   4.430   9.175 -0.2285  0.1840 -0.4833
 6913SOL    HW132198   3.240   4.519   9.157 -0.6552  0.6296  0.9558
 6913SOL    HW232199   3.253   4.380   9.107 -0.7898  1.2125 -1.5996
 6914SOL     OW32200   2.820   0.647   8.561  0.1506 -0.2402 -0.0214
 6914SOL    HW132201   2.830   0.701   8.639  3.0328 -1.9540  0.8100
 6914SOL    HW232202   2.897   0.590   8.565  1.5354  1.6221 -0.1424
 6915SOL     OW32203   4.561   4.393   5.322 -0.5005 -0.5423  0.1589
 6915SOL    HW132204   4.494   4.423   5.261 -2.5577 -1.9818  1.7110
 6915SOL    HW232205   4.574   4.304   5.290  1.4627 -0.6892  1.3016
 6916SOL     OW32206   0.227   1.478  11.962 -0.6605 -0.1982  0.3057
 6916SOL    HW132207   0.282   1.517  12.030 -0.2012 -0.6240  0.1792
 6916SOL    HW232208   0.183   1.407  12.009  2.5632 -2.1087  0.5177
 6917SOL     OW32209   3.331   1.763   0.945 -0.1933  0.0451 -0.2506
 6917SOL    HW132210   3.303   1.732   1.032  3.2801  0.2184  0.8979
 6917SOL    HW232211   3.335   1.858   0.954  1.7872 -0.0152 -0.7347
 6918SOL     OW32212   1.233   3.962  15.772  0.2368 -0.3123 -0.2333
 6918SOL    HW132213   1.197   4.045  15.741  2.1967  1.5322  2.3290
 6918SOL    HW232214   1.299   3.952  15.703  0.4700  0.5758 -0.1479
 6919SOL     OW32215   4.465   0.027  15.907 -1.0532 -0.1309 -0.6619
 6919SOL    HW132216   4.386   4.692  15.902 -1.8089  0.8714  0.4224
 6919SOL    HW232217   4.425   0.114  15.904  0.6638  0.6786 -0.2364
 6920SOL     OW32218   0.982   1.389   4.166  0.4138  0.1916  0.4655
 6920SOL    HW132219   0.948   1.401   4.077 -0.2111 -0.1552  0.6560
 6920SOL    HW232220   1.074   1.402   4.141 -0.2449  0.2155 -2.0183
 6921SOL     OW32221   0.993   4.522   8.471  0.0483 -0.3716  0.0098
 6921SOL    HW132222   0.981   4.613   8.443  1.1958 -0.5204 -0.9553
 6921SOL    HW232223   0.978   4.519   8.566  1.3351  1.2917  0.2744
 6922SOL     OW32224   1.761   0.997   3.806 -0.4625 -0.7642 -0.1514
 6922SOL    HW132225   1.719   1.082   3.813  0.3158 -0.4975  1.4232
 6922SOL    HW232226   1.848   1.014   3.844 -0.4458  0.6651 -0.8284
 6923SOL     OW32227   2.162   4.590   5.597 -0.4049  0.3732 -0.1695
 6923SOL    HW132228   2.131   4.573   5.509 -1.3519  0.8083  0.0847
 6923SOL    HW232229   2.233   4.525   5.600 -0.9107 -0.2061 -0.9268
 6924SOL     OW32230   0.493   3.742   7.949  0.0262 -0.4619  0.3441
 6924SOL    HW132231   0.550   3.820   7.946 -1.4790  0.6455  0.8099
 6924SOL    HW232232   0.564   3.680   7.929 -0.6857 -0.4441 -2.1883
 6925SOL     OW32233   0.170   1.858   7.802 -0.3874 -0.1699 -0.2159
 6925SOL    HW132234   0.226   1.912   7.857  0.2724 -0.0695 -0.9870
 6925SOL    HW232235   0.223   1.843   7.724  2.4642 -0.3609  1.7844
 6926SOL     OW32236   0.766   2.371   3.331  0.2347  0.8123 -0.0912
 6926SOL    HW132237   0.803   2.332   3.252  1.0995  0.5812  0.4251
 6926SOL    HW232238   0.839   2.353   3.390  0.0067  2.4405  0.6803
 6927SOL     OW32239   4.196   0.637   2.975 -0.0305 -0.0980 -0.0047
 6927SOL    HW132240   4.172   0.592   2.893 -0.8825  0.2212  0.0778
 6927SOL    HW232241   4.108   0.634   3.011 -0.0722 -1.0787 -0.1925
 6928SOL     OW32242   0.513   2.386  13.213 -0.6462  0.2668  0.1902
 6928SOL    HW132243   0.602   2.414  13.233  0.0241 -2.0954  0.5355
 6928SOL    HW232244   0.536   2.299  13.180  1.8136  2.3684 -3.5875
 6929SOL     OW32245   0.925   4.078  14.674  0.3775 -0.2998  0.2136
 6929SOL    HW132246   0.983   4.144  14.636  1.6343 -0.7229  1.3881
 6929SOL    HW232247   0.943   3.998  14.625  4.1435 -0.4719  1.9058
 6930SOL     OW32248   2.436   2.812  16.058  0.2075 -0.3152  0.4014
 6930SOL    HW132249   2.364   2.864  16.024 -0.2253 -1.0085  0.2549
 6930SOL    HW232250   2.498   2.883  16.074 -1.0060  0.5730  1.0625
 6931SOL     OW32251   2.057   3.408   9.324 -0.0400  0.1451 -0.7030
 6931SOL    HW132252   2.005   3.333   9.296  1.0647 -0.6288 -0.6775
 6931SOL    HW232253   2.094   3.438   9.240  0.0816  0.6279 -0.4781
 6932SOL     OW32254   4.251   4.243   4.513  0.2790 -0.6153 -0.0348
 6932SOL    HW132255   4.161   4.212   4.498  0.2324 -0.2661 -0.4959
 6932SOL    HW232256   4.288   4.212   4.430  0.0135  2.8825 -1.4625
 6933SOL     OW32257   3.681   3.510   8.925 -0.5765  0.4299 -0.1884
 6933SOL    HW132258   3.641   3.596   8.932  1.4906  1.4002 -0.3781
 6933SOL    HW232259   3.729   3.499   9.007  0.6631  1.8241 -0.7395
 6934SOL     OW32260   3.206   0.025   1.033  0.0482  0.0374 -0.4725
 6934SOL    HW132261   3.172   4.667   0.988  0.2881 -1.0968  1.3175
 6934SOL    HW232262   3.280   4.705   1.080 -1.0807 -0.7649  0.6181
 6935SOL     OW32263   0.418   0.400  10.296  0.1652 -0.4270  0.4580
 6935SOL    HW132264   0.340   0.444  10.263 -0.1509  0.3911  2.3099
 6935SOL    HW232265   0.388   0.391  10.386  1.6169 -2.1690  0.7554
 6936SOL     OW32266   3.846   3.919  14.700  0.5674  0.3330 -0.4379
 6936SOL    HW132267   3.901   3.958  14.632  2.5446 -0.6205  0.6215
 6936SOL    HW232268   3.917   3.870  14.741  0.7059  2.1792  1.5252
 6937SOL     OW32269   3.452   3.643   4.310 -0.1135 -0.0630  0.7117
 6937SOL    HW132270   3.509   3.718   4.325  1.0434 -0.5836 -1.0728
 6937SOL    HW232271   3.370   3.659   4.358  0.3216  1.6079  0.9154
 6938SOL     OW32272   2.785   3.518   9.682 -0.5237  0.9550  0.4487
 6938SOL    HW132273   2.747   3.493   9.599  2.3997 -2.4070  0.1457
 6938SOL    HW232274   2.880   3.501   9.679 -0.9282 -1.5095  1.9481
 6939SOL     OW32275   4.400   3.955  11.111  0.3744 -0.3073  0.4399
 6939SOL    HW132276   4.305   3.951  11.097  0.6137  1.4576 -1.7371
 6939SOL    HW232277   4.412   3.904  11.190 -0.1708  0.0948  0.7821
 6940SOL     OW32278   0.805   2.583   4.845 -0.3910  0.4486 -0.7736
 6940SOL    HW132279   0.896   2.555   4.849 -0.4259  0.7980  2.3376
 6940SOL    HW232280   0.804   2.632   4.763  0.0322  0.6236 -0.6718
 6941SOL     OW32281   3.552   1.301   8.878  0.3674  0.4123 -0.6780
 6941SOL    HW132282   3.468   1.258   8.891 -0.3118  1.9756  0.1241
 6941SOL    HW232283   3.513   1.383   8.847  0.0368 -0.5152 -2.7214
 6942SOL     OW32284   0.104   0.975  11.519 -0.2061  0.0323 -0.2789
 6942SOL    HW132285   0.109   1.071  11.513  0.5434 -0.0813 -1.3983
 6942SOL    HW232286   0.198   0.958  11.518 -0.0228  1.0128  0.2404
 6943SOL     OW32287   2.967   4.408   2.181 -0.7465  0.0758  0.0991
 6943SOL    HW132288   2.995   4.317   2.189  0.9373  0.4162 -1.8777
 6943SOL    HW232289   2.892   4.409   2.241  0.1029  0.9388  1.1585
 6944SOL     OW32290   3.620   1.543   8.449 -0.3627 -0.2552 -0.0786
 6944SOL    HW132291   3.588   1.633   8.443  3.2035  1.1995  2.1983
 6944SOL    HW232292   3.683   1.555   8.520  0.7435 -2.5991 -0.6472
 6945SOL     OW32293   0.911   3.169   4.055 -0.2392 -0.0806  0.1933
 6945SOL    HW132294   0.930   3.229   3.983  1.3829  1.3351  1.8201
 6945SOL    HW232295   0.995   3.125   4.066  0.2727  1.3782  2.0090
 6946SOL     OW32296   0.602   1.772   1.604  0.0441  0.5114 -0.5394
 6946SOL    HW132297   0.560   1.756   1.688  1.0202 -0.5146 -0.2490
 6946SOL    HW232298   0.610   1.682   1.571  0.5301 -0.3437  1.9067
 6947SOL     OW32299   4.691   1.228   4.607  1.1118  0.4458  0.2420
 6947SOL    HW132300   4.600   1.223   4.636  0.3746  0.3540 -2.0602
 6947SOL    HW232301   0.014   1.260   4.686  0.7432 -2.3762  1.5627
 6948SOL     OW32302   1.409   2.636   2.318 -0.5549  0.3206  0.3043
 6948SOL    HW132303   1.493   2.603   2.349 -0.1547  0.7999 -0.2719
 6948SOL    HW232304   1.372   2.560   2.274  0.7451  0.8494 -1.7202
 6949SOL     OW32305   1.387   3.080   0.800  0.9662  0.0881  0.6925
 6949SOL    HW132306   1.292   3.066   0.807  0.4894  1.7439 -2.4138
 6949SOL    HW232307   1.422   3.063   0.887  1.4920  1.7525  0.7967
 6950SOL     OW32308   0.485   3.314   2.842 -0.0225  0.3715  0.4253
 6950SOL    HW132309   0.544   3.297   2.915 -1.5155  1.6299  1.9188
 6950SOL    HW232310   0.407   3.269   2.875  0.6671 -0.3191  1.0943
 6951SOL     OW32311   3.426   0.166  15.695 -0.1028  0.0476 -0.0413
 6951SOL    HW132312   3.496   0.136  15.753  0.7075  1.2263 -0.4010
 6951SOL    HW232313   3.383   0.229  15.753  0.8815  0.4181  0.2970
 6952SOL     OW32314   0.516   0.824   8.494 -0.3775  0.0611 -0.1689
 6952SOL    HW132315   0.456   0.811   8.568 -0.0900  0.7288  0.1779
 6952SOL    HW232316   0.605   0.806   8.522 -0.3551 -2.1083 -1.6014
 6953SOL     OW32317   0.908   3.257  10.472 -0.7217 -0.0761 -0.1967
 6953SOL    HW132318   0.924   3.329  10.533  1.6947 -0.1332 -0.7666
 6953SOL    HW232319   0.929   3.182  10.527  2.8699 -0.5448 -2.2205
 6954SOL     OW32320   2.772   2.637   1.098 -0.1687 -0.0074  0.1057
 6954SOL    HW132321   2.748   2.664   1.186 -1.3012 -0.3352 -0.1091
 6954SOL    HW232322   2.852   2.688   1.082  0.7073 -1.6319 -0.7454
 6955SOL     OW32323   1.509   1.168  11.379  0.8394 -0.4458  0.1893
 6955SOL    HW132324   1.517   1.234  11.310 -2.2296  1.1409  1.3781
 6955SOL    HW232325   1.539   1.225  11.450  1.4519 -1.3150  0.6240
 6956SOL     OW32326   4.240   2.452  10.176 -0.4090  0.1966  0.1894
 6956SOL    HW132327   4.311   2.476  10.235 -0.8870  1.3921  0.2732
 6956SOL    HW232328   4.248   2.357  10.168  0.6084  0.0341  3.3137
 6957SOL     OW32329   0.223   0.219   0.380  0.5870  0.1878  0.1550
 6957SOL    HW132330   0.210   0.178   0.295  1.4643 -0.3270  0.2761
 6957SOL    HW232331   0.313   0.248   0.365 -0.1445  2.3758 -0.1108
 6958SOL     OW32332   1.922   1.624   7.714  0.1237  0.1996 -0.3770
 6958SOL    HW132333   1.870   1.558   7.761  1.2063  0.4127  1.0801
 6958SOL    HW232334   1.862   1.647   7.643 -0.9516  0.8435  0.7502
 6959SOL     OW32335   1.897   0.161   4.675 -0.5073  0.4203  0.7757
 6959SOL    HW132336   1.922   0.247   4.639 -2.1568  0.5130 -0.1549
 6959SOL    HW232337   1.935   0.166   4.762 -0.2253  0.9580  0.6254
 6960SOL     OW32338   0.208   3.870   2.578 -0.4368  0.2114 -0.0045
 6960SOL    HW132339   0.194   3.864   2.483  1.1014 -1.8918 -0.1056
 6960SOL    HW232340   0.116   3.884   2.600 -0.4113  0.8754 -0.3242
 6961SOL     OW32341   4.023   3.965   2.656  0.5705  0.1209 -0.0136
 6961SOL    HW132342   4.088   3.951   2.725  0.4920 -0.3613 -0.0346
 6961SOL    HW232343   4.056   4.045   2.617 -0.8301  0.3168 -0.8050
 6962SOL     OW32344   1.219   2.387  12.313 -0.2999 -0.3848  0.4439
 6962SOL    HW132345   1.140   2.346  12.350 -2.0486  2.4484 -0.1677
 6962SOL    HW232346   1.272   2.308  12.307 -0.0092 -0.2685  1.5027
 6963SOL     OW32347   3.590   2.958   1.685  0.1884 -0.2739  0.1766
 6963SOL    HW132348   3.555   2.930   1.770 -3.1428 -3.3184 -2.2281
 6963SOL    HW232349   3.646   3.030   1.715 -2.2291  1.3559  0.7733
 6964SOL     OW32350   2.451   1.519  14.955  0.3835  0.2083 -0.6361
 6964SOL    HW132351   2.500   1.601  14.947 -0.9327  0.8412 -2.1437
 6964SOL    HW232352   2.507   1.455  14.910 -0.2066  0.0800 -1.1757
 6965SOL     OW32353   0.695   0.102   1.724 -0.4267 -0.1315 -0.4783
 6965SOL    HW132354   0.756   0.172   1.704  1.6194 -2.2493 -1.5963
 6965SOL    HW232355   0.681   0.064   1.638  0.1464 -1.5448  0.0498
 6966SOL     OW32356   3.599   3.322   5.501  0.3556  0.5941 -0.1128
 6966SOL    HW132357   3.550   3.358   5.428  0.1776 -0.0336 -0.3084
 6966SOL    HW232358   3.558   3.377   5.567 -1.0582  0.2916 -0.7451
 6967SOL     OW32359   1.051   1.048   7.995  0.1392 -0.1247 -0.5041
 6967SOL    HW132360   1.130   1.067   7.945  1.0167 -0.0117  0.9322
 6967SOL    HW232361   1.070   0.958   8.021  2.2021  0.1487 -1.0864
 6968SOL     OW32362   1.068   1.546   6.826 -0.0818  0.2650 -0.1698
 6968SOL    HW132363   1.029   1.632   6.842 -0.7476  0.4041 -2.4093
 6968SOL    HW232364   1.007   1.491   6.875  1.4717  1.7341  3.3492
 6969SOL     OW32365   2.838   1.355  10.398  0.7263 -0.3850 -0.3935
 6969SOL    HW132366   2.750   1.348  10.360  0.4199 -1.7412  0.5610
 6969SOL    HW232367   2.895   1.308  10.338  0.2980  0.4934 -1.4886
 6970SOL     OW32368   4.573   1.421  11.904  0.4974 -0.3093  0.2081
 6970SOL    HW132369   4.635   1.480  11.947 -1.5279  0.9441  1.3673
 6970SOL    HW232370   4.575   1.459  11.816  1.4656 -1.7780 -0.4153
 6971SOL     OW32371   1.966   2.760   6.448 -0.1555 -0.5886  0.1213
 6971SOL    HW132372   1.955   2.699   6.520  1.8144 -2.4943 -1.1716
 6971SOL    HW232373   1.875   2.766   6.422  0.2895 -0.2518 -1.3641
 6972SOL     OW32374   1.615   0.790  15.867 -0.2012  0.0665  0.0508
 6972SOL    HW132375   1.615   0.695  15.851 -0.2453  0.7866 -4.1343
 6972SOL    HW232376   1.673   0.789  15.944 -0.1334  0.1847  0.0007
 6973SOL     OW32377   1.643   0.216   1.709  0.6933  0.1648 -0.1206
 6973SOL    HW132378   1.679   0.254   1.629  0.3675  0.3016 -0.2001
 6973SOL    HW232379   1.725   0.181   1.744  0.0322  0.4831  1.7121
 6974SOL     OW32380   2.070   2.794  17.087  0.6223 -0.1641  0.1007
 6974SOL    HW132381   2.099   2.789  16.996  0.6232 -0.4159  0.1140
 6974SOL    HW232382   2.060   2.702  17.113  0.4927  0.3818  2.0055
 6975SOL     OW32383   2.733   4.410   6.718  0.5888 -0.0670 -0.2738
 6975SOL    HW132384   2.757   4.404   6.811 -1.0088  1.0254  0.2057
 6975SOL    HW232385   2.773   4.334   6.676  1.6557  1.0681 -1.3043
 6976SOL     OW32386   2.398   0.115   5.070  0.1456  0.0438  0.1755
 6976SOL    HW132387   2.363   0.124   5.159  0.2434  1.4297  0.0665
 6976SOL    HW232388   2.398   0.019   5.061  0.3008 -0.3017  3.9918
 6977SOL     OW32389   3.677   2.851   5.854  0.1607  0.0520 -0.4346
 6977SOL    HW132390   3.678   2.762   5.890  2.1313 -1.0486 -3.1692
 6977SOL    HW232391   3.757   2.858   5.803  0.0775  0.1592 -0.5509
 6978SOL     OW32392   1.414   0.161  13.289 -0.4608  0.2783 -0.6151
 6978SOL    HW132393   1.397   0.092  13.352  4.5425 -0.0207  0.4434
 6978SOL    HW232394   1.507   0.146  13.269 -0.3379  1.1406 -0.6977
 6979SOL     OW32395   3.633   3.113  11.974  0.1105  0.2476  0.0775
 6979SOL    HW132396   3.653   3.046  11.908 -0.0622 -1.5933  1.9208
 6979SOL    HW232397   3.716   3.160  11.981  0.5110 -0.4724  0.1691
 6980SOL     OW32398   2.397   0.092   6.675 -0.4586 -0.6551 -0.3630
 6980SOL    HW132399   2.336   0.019   6.681 -0.6307 -0.2413  2.7732
 6980SOL    HW232400   2.481   0.045   6.683  1.1255  1.8109 -2.5070
 6981SOL     OW32401   0.139   4.133   8.940  0.0598 -0.0135  0.7714
 6981SOL    HW132402   0.169   4.174   8.859 -0.3531  0.6555  0.9475
 6981SOL    HW232403   0.069   4.073   8.915 -0.7422  1.4165 -0.4832
 6982SOL     OW32404   1.660   0.500  15.897  0.1699 -0.1081 -0.1578
 6982SOL    HW132405   1.664   0.414  15.939  0.7292  0.9492  1.9463
 6982SOL    HW232406   1.749   0.503  15.861  0.5147 -0.2927  0.6721
 6983SOL     OW32407   4.364   4.422   5.136  0.0400  0.0182 -0.1858
 6983SOL    HW132408   4.346   4.466   5.053  1.6816 -0.0700 -0.5850
 6983SOL    HW232409   4.275   4.427   5.172  0.1258 -0.5465  0.1085
 6984SOL     OW32410   3.616   1.939  14.098 -0.4007 -0.5356 -0.5119
 6984SOL    HW132411   3.703   1.903  14.114 -0.6002 -0.5815  0.4276
 6984SOL    HW232412   3.583   1.887  14.024  0.0352  0.2799 -1.2854
 6985SOL     OW32413   0.864   1.024   2.629  0.3907  0.5934  0.0479
 6985SOL    HW132414   0.885   1.004   2.538 -0.8220  0.8279 -0.2912
 6985SOL    HW232415   0.909   0.953   2.674  0.2954  0.7836  0.4383
 6986SOL     OW32416   0.065   3.669   7.935 -0.1954  0.0022 -0.3891
 6986SOL    HW132417   0.139   3.730   7.937 -0.3793  0.1714  1.4699
 6986SOL    HW232418   0.108   3.594   7.976  1.2851  0.1495 -1.6772
 6987SOL     OW32419   2.885   1.262   8.292 -0.4555 -0.2138 -0.0794
 6987SOL    HW132420   2.868   1.273   8.386  0.3854 -1.4698  0.2229
 6987SOL    HW232421   2.837   1.337   8.258  0.4011  0.2700 -0.2189
 6988SOL     OW32422   4.599   0.148   8.732 -0.2983  0.1153 -0.0850
 6988SOL    HW132423   4.528   0.147   8.796  0.4569 -0.2147  0.7610
 6988SOL    HW232424   4.661   0.081   8.762 -0.5246  0.1064  0.3717
 6989SOL     OW32425   2.681   3.454   2.531 -0.4531 -0.1356  0.0546
 6989SOL    HW132426   2.713   3.416   2.449  0.9124  2.9841 -0.9014
 6989SOL    HW232427   2.745   3.522   2.555  0.4891 -1.2150  0.5971
 6990SOL     OW32428   2.638   0.049   2.697  0.1408  0.2469  0.8227
 6990SOL    HW132429   2.572   0.118   2.691 -0.6010 -0.5341 -0.0565
 6990SOL    HW232430   2.720   0.096   2.686 -0.3793  0.7798 -0.9023
 6991SOL     OW32431   2.028   1.976   2.500 -0.1756 -0.4861  0.1706
 6991SOL    HW132432   1.951   2.003   2.451 -0.0943 -0.7664 -0.1146
 6991SOL    HW232433   2.084   1.961   2.424  0.3516  0.6446  0.3385
 6992SOL     OW32434   4.509   1.896   7.748 -0.4869  0.1304  0.3860
 6992SOL    HW132435   4.442   1.831   7.728  0.5915 -0.9720  0.3823
 6992SOL    HW232436   4.558   1.858   7.820 -0.1040  1.9471  1.0824
 6993SOL     OW32437   3.483   0.891   8.424  0.3791  0.1912  0.0544
 6993SOL    HW132438   3.415   0.938   8.377  1.5871  2.0299  0.1739
 6993SOL    HW232439   3.445   0.805   8.441  0.3114  0.1297 -0.4102
 6994SOL     OW32440   0.621   1.536   3.857  0.3574 -0.7580  0.6239
 6994SOL    HW132441   0.543   1.562   3.906 -0.9925 -1.6625 -1.0774
 6994SOL    HW232442   0.670   1.618   3.865  0.7331 -1.0385  1.1784
 6995SOL     OW32443   0.155   1.084   2.158  0.1006  0.0284 -0.2243
 6995SOL    HW132444   0.084   1.084   2.094 -0.1732  0.9588  0.0839
 6995SOL    HW232445   0.223   1.106   2.094  0.6733 -0.2558  0.2892
 6996SOL     OW32446   1.091   1.890  16.838  0.2105  0.3121  0.3546
 6996SOL    HW132447   1.065   1.815  16.891  1.5993 -1.2276 -1.1520
 6996SOL    HW232448   1.032   1.952  16.881  0.6641  0.1287  1.2303
 6997SOL     OW32449   1.809   2.021   7.987  0.4015 -0.4702 -0.4497
 6997SOL    HW132450   1.801   1.926   7.998  1.8205 -0.3414  1.7046
 6997SOL    HW232451   1.854   2.047   8.068 -0.2179  0.0895 -0.2841
 6998SOL     OW32452   0.003   2.376  12.687 -0.3093 -0.8901 -0.3918
 6998SOL    HW132453   4.629   2.357  12.684 -0.1824 -1.1034 -3.1897
 6998SOL    HW232454   0.015   2.417  12.601  2.7471 -1.0249 -0.0207
 6999SOL     OW32455   3.419   3.284   3.391 -0.4346  0.1488 -0.3094
 6999SOL    HW132456   3.433   3.191   3.373 -0.6410 -0.0976  0.8114
 6999SOL    HW232457   3.404   3.293   3.485  0.6207  1.4105 -0.2553
 7000SOL     OW32458   2.893   1.976   6.209 -0.3532  0.7613  0.4201
 7000SOL    HW132459   2.803   2.002   6.225 -0.2569  0.4979  1.4213
 7000SOL    HW232460   2.938   2.059   6.196  0.2637  0.0360 -2.0759
 7001SOL     OW32461   1.944   3.615   7.655  0.2180  0.2735  0.2251
 7001SOL    HW132462   1.939   3.642   7.564 -2.9748 -2.0561 -0.2885
 7001SOL    HW232463   2.005   3.672   7.701 -1.8118 -0.0779  3.3399
 7002SOL     OW32464   3.949   4.477   4.919 -0.1735 -0.1521  0.3103
 7002SOL    HW132465   4.040   4.469   4.890 -0.0293 -0.7256  0.9111
 7002SOL    HW232466   3.950   4.570   4.940 -1.5361 -0.4150  1.5397
 7003SOL     OW32467   0.989   4.331  13.752  0.1231  0.2348 -0.2351
 7003SOL    HW132468   0.894   4.339  13.748  0.0397 -0.4109  0.4230
 7003SOL    HW232469   1.006   4.401  13.815  1.6028  0.8379 -1.3027
 7004SOL     OW32470   1.717   3.667   3.112 -0.4080 -0.6140 -0.1990
 7004SOL    HW132471   1.637   3.696   3.156 -0.4698  0.9333 -1.3716
 7004SOL    HW232472   1.680   3.591   3.067  0.3008 -0.8459 -0.3885
 7005SOL     OW32473   0.897   0.177   8.789  0.0071 -0.1019  0.2436
 7005SOL    HW132474   0.856   0.104   8.835  2.2205 -0.2140  2.0203
 7005SOL    HW232475   0.825   0.239   8.804 -0.2356 -1.0652  3.1173
 7006SOL     OW32476   0.367   1.132  14.494 -0.4507 -0.0795  0.4923
 7006SOL    HW132477   0.455   1.120  14.458 -0.6443 -0.9470  0.2982
 7006SOL    HW232478   0.317   1.063  14.450 -1.3088  1.7854 -1.4686
 7007SOL     OW32479   4.125   3.612   5.222 -0.7277 -0.4423 -0.5099
 7007SOL    HW132480   4.196   3.639   5.164  1.6218 -3.7824  0.8186
 7007SOL    HW232481   4.153   3.651   5.305  1.1716 -0.4133 -1.1724
 7008SOL     OW32482   1.310   3.202   7.158 -0.1173 -0.1899  0.3788
 7008SOL    HW132483   1.325   3.117   7.117  0.4309 -0.4108  1.0408
 7008SOL    HW232484   1.320   3.174   7.249  2.3427 -0.1197  0.1229
 7009SOL     OW32485   0.569   1.992   4.621 -0.0614 -0.0896  0.1069
 7009SOL    HW132486   0.511   2.014   4.694  1.5884 -1.0130  1.6583
 7009SOL    HW232487   0.541   1.900   4.617 -0.9629  0.2310 -1.2806
 7010SOL     OW32488   0.785   3.840  11.746 -0.1173 -0.1847 -0.4379
 7010SOL    HW132489   0.741   3.919  11.779  2.5916  1.2319 -0.2606
 7010SOL    HW232490   0.872   3.856  11.781 -0.0624 -1.0716 -0.1790
 7011SOL     OW32491   2.331   1.877   2.449  0.0444 -0.3989  0.1747
 7011SOL    HW132492   2.395   1.877   2.379  1.0163 -1.0640  1.0650
 7011SOL    HW232493   2.255   1.916   2.406  1.4409  2.2151  0.1021
 7012SOL     OW32494   3.351   2.437   6.601 -0.0671 -0.1155 -0.1994
 7012SOL    HW132495   3.343   2.382   6.523  0.0915  0.1008 -0.3658
 7012SOL    HW232496   3.361   2.372   6.671 -2.1806 -0.1700  0.0556
 7013SOL     OW32497   3.788   1.100   8.629  0.2370 -0.1002  0.9098
 7013SOL    HW132498   3.874   1.142   8.628 -0.6570  1.7737  2.1863
 7013SOL    HW232499   3.778   1.049   8.549 -2.5203  1.6440  0.1164
 7014SOL     OW32500   0.286   3.594   2.593  0.3224  0.2204 -0.1816
 7014SOL    HW132501   0.278   3.689   2.588  1.4525  0.3466  0.3365
 7014SOL    HW232502   0.350   3.572   2.525  1.7196 -1.8304  1.8235
 7015SOL     OW32503   0.607   4.504   7.175  1.0953  0.2933 -0.0825
 7015SOL    HW132504   0.581   4.595   7.191  1.4913  0.0613  1.8921
 7015SOL    HW232505   0.679   4.492   7.237  0.9789  2.4797  0.4955
 7016SOL     OW32506   0.262   3.662   7.264 -0.4200 -0.1769 -0.1252
 7016SOL    HW132507   0.223   3.604   7.198  0.8189  1.1243 -2.0044
 7016SOL    HW232508   0.218   3.747   7.256 -0.3076 -0.0748  0.3649
 7017SOL     OW32509   3.818   1.440   6.388  0.1119 -0.2458 -0.4253
 7017SOL    HW132510   3.789   1.426   6.298 -0.7253  0.2231 -0.2271
 7017SOL    HW232511   3.897   1.385   6.385  1.0168  1.0662 -0.3629
 7018SOL     OW32512   1.507   0.957   4.092  0.3050 -0.3246  0.8921
 7018SOL    HW132513   1.593   0.939   4.054  0.7209  0.0705  1.6408
 7018SOL    HW232514   1.493   0.875   4.139 -1.9548 -1.0485 -1.0459
 7019SOL     OW32515   1.010   0.930   7.143  0.0210  0.3758 -0.3236
 7019SOL    HW132516   1.086   0.934   7.201  0.2928 -1.2693 -0.5433
 7019SOL    HW232517   0.977   1.019   7.155  0.1811  0.5715 -1.3105
 7020SOL     OW32518   0.970   4.567   5.860 -0.9981  0.1959  0.4745
 7020SOL    HW132519   0.880   4.543   5.838 -0.8732 -0.1982  0.3962
 7020SOL    HW232520   0.958   4.620   5.939  2.5992  0.7441  0.6468
 7021SOL     OW32521   2.577   3.260   1.134 -0.5485  0.2547  0.4843
 7021SOL    HW132522   2.631   3.271   1.055 -0.0924  0.7133  0.8631
 7021SOL    HW232523   2.539   3.175   1.112 -2.1999  1.6773 -2.1708
 7022SOL     OW32524   2.567   2.025  17.508 -0.0851 -0.4355  0.2606
 7022SOL    HW132525   2.617   2.073  17.574  2.4367 -0.8036 -1.4193
 7022SOL    HW232526   2.634   1.957  17.500  0.2599 -0.1025  0.3178
 7023SOL     OW32527   0.322   4.098   6.614 -0.5883 -0.0317  0.2241
 7023SOL    HW132528   0.320   4.165   6.546  3.4860 -0.1224  0.0045
 7023SOL    HW232529   0.284   4.146   6.688  1.1317  1.3595  0.2157
 7024SOL     OW32530   3.048   2.023   7.703 -0.1586  0.1957 -0.2265
 7024SOL    HW132531   2.990   1.981   7.767  2.0213 -1.9034  0.3870
 7024SOL    HW232532   2.996   2.011   7.624 -0.7470 -2.0258  0.4915
 7025SOL     OW32533   4.436   3.602  16.867  0.2662 -0.3526 -0.0584
 7025SOL    HW132534   4.464   3.562  16.785 -0.9345  4.0061 -2.6092
 7025SOL    HW232535   4.368   3.543  16.897  0.8939 -0.0544  1.9427
 7026SOL     OW32536   2.783   3.304   2.295 -0.1098  0.1593  0.1299
 7026SOL    HW132537   2.818   3.216   2.307 -0.7909 -0.3558 -1.5935
 7026SOL    HW232538   2.733   3.289   2.214 -1.5543 -0.7874  1.1888
 7027SOL     OW32539   0.930   3.126  14.218 -0.1760 -0.2159 -0.0897
 7027SOL    HW132540   0.871   3.135  14.293 -2.0699 -4.1852 -1.1004
 7027SOL    HW232541   0.947   3.032  14.212  0.2903 -0.1871  0.8248
 7028SOL     OW32542   2.472   0.957  14.055 -0.6381  0.2144 -0.2912
 7028SOL    HW132543   2.412   0.986  13.986 -0.6737  0.9889  0.0593
 7028SOL    HW232544   2.412   0.900  14.104 -1.6379  1.2949 -0.2487
 7029SOL     OW32545   3.041   1.896   6.436  0.0025 -0.0989 -0.2849
 7029SOL    HW132546   2.999   1.927   6.356 -0.0771 -0.5685 -0.4229
 7029SOL    HW232547   2.986   1.823   6.464  0.7429 -0.5963 -0.1287
 7030SOL     OW32548   1.203   1.695  12.025 -0.2070  0.0107 -0.1148
 7030SOL    HW132549   1.118   1.679  11.984  1.3176 -1.3833 -2.7150
 7030SOL    HW232550   1.199   1.639  12.103 -0.9775 -0.9688 -0.8604
 7031SOL     OW32551   4.654   4.710  10.568 -0.2240 -0.0441  0.2557
 7031SOL    HW132552   4.698   4.695  10.652 -0.1430 -1.8979 -0.0996
 7031SOL    HW232553   0.011   4.698  10.511  0.4221 -0.6427  1.2341
 7032SOL     OW32554   1.509   3.401   2.280 -0.2273 -0.5502  0.7937
 7032SOL    HW132555   1.458   3.350   2.216 -0.5907  0.9899 -0.1494
 7032SOL    HW232556   1.593   3.415   2.237 -1.6074  0.8206 -1.4443
 7033SOL     OW32557   2.551   0.349  12.280 -0.1820  0.7434 -0.3927
 7033SOL    HW132558   2.502   0.313  12.206 -0.5608 -1.1929  0.8163
 7033SOL    HW232559   2.492   0.324  12.351 -1.1611 -0.9591 -1.8133
 7034SOL     OW32560   2.236   2.967   2.150  0.2800 -0.5016  0.2821
 7034SOL    HW132561   2.207   3.018   2.226  0.4531  0.1993 -0.1298
 7034SOL    HW232562   2.252   2.878   2.183 -0.6578 -1.3661 -1.6639
 7035SOL     OW32563   0.292   1.369   2.282  0.0486  0.4466  0.8131
 7035SOL    HW132564   0.212   1.317   2.278  1.7507 -2.2541  1.5125
 7035SOL    HW232565   0.276   1.434   2.350  0.8473  0.7955  0.6723
 7036SOL     OW32566   4.485   3.870   7.133 -0.0972  0.1123 -0.7315
 7036SOL    HW132567   4.471   3.839   7.222  1.7110  0.4750 -0.3362
 7036SOL    HW232568   4.524   3.957   7.142 -2.0473  0.8524  0.5688
 7037SOL     OW32569   4.568   0.257  12.680  0.0530  0.1361 -0.4044
 7037SOL    HW132570   4.525   0.222  12.602 -0.1333 -0.0312 -0.2257
 7037SOL    HW232571   4.652   0.262  12.634  0.7086 -1.4959  0.6233
 7038SOL     OW32572   0.131   4.189  11.820  0.0629  0.4064  0.0754
 7038SOL    HW132573   0.138   4.214  11.728  0.1879 -0.2454 -0.0908
 7038SOL    HW232574   0.223   4.178  11.844 -0.2447 -2.0698  0.0891
 7039SOL     OW32575   3.741   0.888   9.205  0.4856  0.6312  0.3633
 7039SOL    HW132576   3.650   0.859   9.196  0.8167 -0.1668 -0.3808
 7039SOL    HW232577   3.732   0.980   9.228  0.8864  0.7211  0.1507
 7040SOL     OW32578   0.430   1.194   3.379 -0.0631  0.1325  0.1590
 7040SOL    HW132579   0.401   1.103   3.368 -1.0847  0.4339  0.3066
 7040SOL    HW232580   0.350   1.239   3.353 -0.5673 -1.4639 -1.0897
 7041SOL     OW32581   1.168   3.068   5.878  0.2240  0.0830  0.3586
 7041SOL    HW132582   1.261   3.088   5.875  0.1133  0.5802  0.0633
 7041SOL    HW232583   1.174   2.990   5.933 -1.1325 -0.1248  0.2065
 7042SOL     OW32584   4.439   1.402   2.756  0.2226 -0.2415 -0.4488
 7042SOL    HW132585   4.524   1.377   2.720  0.1601 -2.0772  0.6652
 7042SOL    HW232586   4.391   1.320   2.750  0.1676 -0.2314 -0.1695
 7043SOL     OW32587   4.048   1.682   3.065  0.1257 -0.0857  0.2267
 7043SOL    HW132588   4.104   1.753   3.098  1.3394 -1.0110  0.1599
 7043SOL    HW232589   4.000   1.730   2.998 -1.7403 -0.7396  1.0905
 7044SOL     OW32590   2.554   3.155   6.587  0.2018 -0.1252 -0.5255
 7044SOL    HW132591   2.603   3.081   6.550  0.0433 -0.8112  0.5989
 7044SOL    HW232592   2.507   3.180   6.508 -0.7589  0.9953  0.3895
 7045SOL     OW32593   2.666   0.831   9.020  0.2733 -0.4475  0.4920
 7045SOL    HW132594   2.613   0.861   8.947  0.8928 -2.2416 -0.7052
 7045SOL    HW232595   2.625   0.746   9.035 -0.7554  0.2535  1.6422
 7046SOL     OW32596   3.205   3.293   9.739  0.1746 -0.5860  0.0745
 7046SOL    HW132597   3.246   3.207   9.725  1.7648 -0.1045  1.6668
 7046SOL    HW232598   3.251   3.302   9.823 -1.3627  0.7045  0.7680
 7047SOL     OW32599   2.614   4.206  12.405 -0.0286 -0.4651  0.0858
 7047SOL    HW132600   2.532   4.244  12.438  1.0089  0.3376  1.7142
 7047SOL    HW232601   2.599   4.208  12.311 -0.8443  2.4805  0.2718
 7048SOL     OW32602   2.269   4.146   6.877  0.1138 -0.1409 -0.6450
 7048SOL    HW132603   2.331   4.073   6.882  0.8994  0.4431 -2.0112
 7048SOL    HW232604   2.299   4.205   6.946 -1.2115  2.2974 -2.1502
 7049SOL     OW32605   2.879   4.104  12.245 -0.1359  0.5284  0.0585
 7049SOL    HW132606   2.836   4.133  12.165 -1.1062  0.5659  0.6022
 7049SOL    HW232607   2.890   4.190  12.285 -0.4693  0.9319 -0.7149
 7050SOL     OW32608   2.872   4.630   8.862  0.2560  0.1291  0.0547
 7050SOL    HW132609   2.789   4.630   8.910  0.5734 -2.7587  0.6036
 7050SOL    HW232610   2.883   4.544   8.822 -2.9959 -0.9829  1.5928
 7051SOL     OW32611   4.237   3.410   2.226  0.2825 -0.3686 -0.1510
 7051SOL    HW132612   4.190   3.373   2.301 -0.7300  0.9182 -0.1476
 7051SOL    HW232613   4.185   3.380   2.151  0.1796  0.6685 -0.4951
 7052SOL     OW32614   2.422   2.587  12.202 -1.0989 -0.1492 -0.5762
 7052SOL    HW132615   2.371   2.578  12.282 -3.1963 -0.9365 -1.9955
 7052SOL    HW232616   2.350   2.572  12.140  0.6560 -1.2550 -2.3499
 7053SOL     OW32617   3.343   1.709   2.308  0.2604 -0.1691  0.4539
 7053SOL    HW132618   3.266   1.700   2.364 -1.1003 -0.3170 -1.4704
 7053SOL    HW232619   3.341   1.629   2.257  0.1825 -0.0478  0.2679
 7054SOL     OW32620   0.971   0.360   5.025  0.0508  0.5582 -0.3496
 7054SOL    HW132621   1.042   0.373   4.962  0.2329 -1.3193 -0.5321
 7054SOL    HW232622   0.897   0.412   4.992 -0.5219  0.2159  0.3868
 7055SOL     OW32623   0.428   2.534   5.465 -0.1707  0.1748 -0.3698
 7055SOL    HW132624   0.413   2.475   5.539  1.5357  0.5406  0.2604
 7055SOL    HW232625   0.404   2.614   5.511 -0.1907  0.4417 -0.8469
 7056SOL     OW32626   1.439   2.015   3.848 -0.5030 -0.1715  0.4457
 7056SOL    HW132627   1.511   1.961   3.814 -0.7156  0.0226 -0.3283
 7056SOL    HW232628   1.469   2.062   3.926 -0.8053  1.6043 -0.4917
 7057SOL     OW32629   1.237   0.751   9.209  0.0749  0.3618  0.6475
 7057SOL    HW132630   1.238   0.847   9.213 -2.0890  0.2892  2.7710
 7057SOL    HW232631   1.301   0.741   9.138  0.3152  1.5640  0.6863
 7058SOL     OW32632   4.261   3.663   2.305  1.1019  0.0967 -0.4107
 7058SOL    HW132633   4.188   3.684   2.363  2.7976  0.9989  1.3968
 7058SOL    HW232634   4.237   3.573   2.280  2.0326 -1.0003  2.6415
 7059SOL     OW32635   3.982   4.615  11.951  0.2620  0.3251  0.0663
 7059SOL    HW132636   3.894   4.650  11.937  1.1153  1.8140 -1.5223
 7059SOL    HW232637   3.963   4.552  12.020 -0.0671  0.7602  0.3742
 7060SOL     OW32638   2.514   0.401   1.807 -0.1885 -0.2383 -0.4511
 7060SOL    HW132639   2.567   0.321   1.805  0.8311  0.5037 -2.5506
 7060SOL    HW232640   2.582   0.468   1.801  1.3813 -1.7123  0.7242
 7061SOL     OW32641   0.825   1.140   2.022  0.2019 -0.1820  0.3769
 7061SOL    HW132642   0.917   1.166   2.016  0.1153  0.4680  1.7592
 7061SOL    HW232643   0.793   1.190   1.947  2.1415 -0.9956 -0.9746
 7062SOL     OW32644   1.145   0.513   7.160 -0.0404  0.1529  0.2015
 7062SOL    HW132645   1.128   0.560   7.241 -0.3255 -0.5381  0.5467
 7062SOL    HW232646   1.240   0.507   7.147  0.0234 -3.2658  2.0567
 7063SOL     OW32647   2.867   3.165   9.577  0.0287  0.1028  0.0429
 7063SOL    HW132648   2.947   3.118   9.556  0.9871  1.6210  0.2594
 7063SOL    HW232649   2.873   3.229   9.505  1.4435 -0.5421 -0.4031
 7064SOL     OW32650   2.700   3.097  16.816  0.5960  0.2180 -0.4744
 7064SOL    HW132651   2.700   3.028  16.883 -1.1627 -1.4714 -2.2311
 7064SOL    HW232652   2.794   3.116  16.822  0.9426 -1.6196  0.1230
 7065SOL     OW32653   1.313   2.290   5.525 -0.1475  0.1322 -0.3594
 7065SOL    HW132654   1.251   2.363   5.520  0.2547  0.4492 -0.8260
 7065SOL    HW232655   1.277   2.229   5.589 -1.5835  1.4547  0.1024
 7066SOL     OW32656   3.199   3.533   0.784  0.6623 -0.2632  0.2890
 7066SOL    HW132657   3.214   3.606   0.724 -0.4845 -0.7016 -0.5226
 7066SOL    HW232658   3.214   3.562   0.874 -2.9263  1.0419  0.4631
 7067SOL     OW32659   1.280   3.642   7.110  0.6715 -0.7317 -0.1869
 7067SOL    HW132660   1.187   3.637   7.133  0.2806 -0.1832 -1.7177
 7067SOL    HW232661   1.293   3.566   7.053 -1.0660 -0.0472 -1.4853
 7068SOL     OW32662   2.071   4.603   0.250 -0.1990  0.0025  0.8451
 7068SOL    HW132663   2.034   4.650   0.325 -2.9991  0.6935 -0.9917
 7068SOL    HW232664   2.007   4.608   0.179 -0.2763 -0.5918  0.8743
 7069SOL     OW32665   2.510   0.591  12.422 -0.1206 -0.2569 -0.4332
 7069SOL    HW132666   2.539   0.638  12.344  1.3506 -0.5892 -0.0900
 7069SOL    HW232667   2.538   0.501  12.402  0.4534 -0.3777  0.9423
 7070SOL     OW32668   2.956   0.366   4.641 -0.5495 -0.3813 -0.0383
 7070SOL    HW132669   2.914   0.432   4.695 -2.2435 -2.2779  0.9608
 7070SOL    HW232670   2.999   0.421   4.575  2.9018 -0.9792  1.7189
 7071SOL     OW32671   0.311   0.444   4.377 -0.3858 -0.4207  0.9234
 7071SOL    HW132672   0.387   0.473   4.327  1.0223 -1.9822  2.1521
 7071SOL    HW232673   0.246   0.429   4.308 -1.0917 -1.6348  1.8554
 7072SOL     OW32674   2.791   3.197  15.020  0.3699  0.5144  0.0519
 7072SOL    HW132675   2.711   3.216  14.971 -0.4286  1.9440  1.9014
 7072SOL    HW232676   2.783   3.111  15.061 -0.2190  1.2200  1.4293
 7073SOL     OW32677   1.005   3.894   3.345  0.2406 -0.3251  0.3585
 7073SOL    HW132678   0.989   3.939   3.263 -0.1622  0.6152  0.9562
 7073SOL    HW232679   0.949   3.816   3.334  0.0197 -0.0466 -0.4843
 7074SOL     OW32680   3.865   1.498   2.789  0.5170  0.2359  0.2357
 7074SOL    HW132681   3.923   1.447   2.845  2.9215  0.8043 -1.7444
 7074SOL    HW232682   3.926   1.545   2.732 -0.0884  0.4444 -0.2499
 7075SOL     OW32683   4.646   1.734   9.538  0.3578 -0.1379  0.1572
 7075SOL    HW132684   4.621   1.688   9.618 -1.0461 -0.3621 -0.4172
 7075SOL    HW232685   4.574   1.796   9.527 -1.4220 -2.7227 -2.5471
 7076SOL     OW32686   2.085   3.007  13.504  0.0117 -0.3898 -0.1360
 7076SOL    HW132687   2.135   2.926  13.491 -1.4165 -1.1186 -1.1043
 7076SOL    HW232688   2.058   2.999  13.596 -1.8728  0.0714 -0.6639
 7077SOL     OW32689   2.762   1.318   4.162 -0.5686 -0.3851 -0.1357
 7077SOL    HW132690   2.688   1.261   4.182  0.9178 -2.1075  0.4532
 7077SOL    HW232691   2.732   1.408   4.175  1.2397  0.1898  0.0128
 7078SOL     OW32692   0.699   3.892  13.785 -0.3590  0.5066  0.2526
 7078SOL    HW132693   0.661   3.961  13.731 -0.1935  1.3562  1.2323
 7078SOL    HW232694   0.751   3.843  13.721  2.4050  2.6425  0.8733
 7079SOL     OW32695   0.736   2.194   7.986 -0.1839 -0.2106 -0.3279
 7079SOL    HW132696   0.800   2.206   7.916 -0.2124  0.1256 -0.2933
 7079SOL    HW232697   0.738   2.098   7.992  1.5889 -0.0421  1.8906
 7080SOL     OW32698   0.643   0.315   8.188  0.0632  0.8208  0.4294
 7080SOL    HW132699   0.624   0.405   8.216  2.7511  1.6212 -0.2736
 7080SOL    HW232700   0.728   0.310   8.234  0.1820  1.3950  0.2705
 7081SOL     OW32701   2.612   3.733  11.316  0.0291  0.2074 -0.1010
 7081SOL    HW132702   2.642   3.722  11.406  0.0861 -1.4697 -0.3189
 7081SOL    HW232703   2.588   3.826  11.320  2.3344  0.6651  2.4854
 7082SOL     OW32704   2.119   4.207   3.475 -0.6799 -0.9054 -0.2378
 7082SOL    HW132705   2.183   4.197   3.405  0.9594 -0.7165  1.2254
 7082SOL    HW232706   2.045   4.153   3.448 -1.8549  0.5097  0.0980
 7083SOL     OW32707   1.644   2.949   2.234  0.4705  0.0564  0.5017
 7083SOL    HW132708   1.662   2.901   2.153 -0.1701 -0.6719  0.7962
 7083SOL    HW232709   1.733   2.950   2.270 -0.1815  0.0862  2.0904
 7084SOL     OW32710   0.207   3.247   6.169  0.4039 -0.2891  0.5207
 7084SOL    HW132711   0.231   3.158   6.194  1.1572 -0.5613 -1.1754
 7084SOL    HW232712   0.274   3.296   6.217  0.1038  1.8472 -1.2327
 7085SOL     OW32713   2.759   4.659   1.631 -0.3336  0.5134  0.2354
 7085SOL    HW132714   2.824   4.709   1.581  0.5670 -0.8798  0.0312
 7085SOL    HW232715   2.816   4.584   1.645 -1.3827 -0.3378 -0.0867
 7086SOL     OW32716   2.569   0.712  16.912 -0.5249  0.3249  0.3030
 7086SOL    HW132717   2.615   0.786  16.872 -0.8324 -0.4105 -1.4102
 7086SOL    HW232718   2.479   0.729  16.887 -0.7272 -1.4594 -0.2408
 7087SOL     OW32719   3.261   0.135   8.671  0.0777  0.0872 -0.7798
 7087SOL    HW132720   3.206   0.072   8.625  0.4952 -0.5633 -0.3895
 7087SOL    HW232721   3.218   0.140   8.757  0.0943  0.6477 -0.8042
 7088SOL     OW32722   1.332   1.333   6.874 -0.6955  0.2614 -0.2279
 7088SOL    HW132723   1.323   1.394   6.801 -4.2294  0.8022  0.6161
 7088SOL    HW232724   1.271   1.266   6.844 -2.0450  0.8626  1.1534
 7089SOL     OW32725   1.195   4.378   5.302 -0.1078  0.2899 -0.4147
 7089SOL    HW132726   1.171   4.453   5.357  0.5076  1.6423 -2.0105
 7089SOL    HW232727   1.185   4.296   5.351 -1.6047  0.3825 -0.5863
 7090SOL     OW32728   3.725   1.107  17.294 -0.0675 -0.0665  0.2322
 7090SOL    HW132729   3.791   1.039  17.281 -0.4248  0.3314 -3.5903
 7090SOL    HW232730   3.652   1.046  17.308 -0.5384  0.9587  2.2699
 7091SOL     OW32731   0.599   0.327   3.571 -0.1513 -0.3501 -0.6802
 7091SOL    HW132732   0.632   0.415   3.586 -0.3709 -0.5126  0.8095
 7091SOL    HW232733   0.631   0.337   3.482  1.9307  2.1381  0.3491
 7092SOL     OW32734   0.519   3.798   9.636 -0.1697  0.0565  0.1832
 7092SOL    HW132735   0.440   3.851   9.629  1.4756  2.6217  0.9172
 7092SOL    HW232736   0.484   3.710   9.649  0.6074 -0.3621 -0.5747
 7093SOL     OW32737   0.969   0.693  17.315 -0.1264  0.0926  0.2563
 7093SOL    HW132738   0.973   0.720  17.223  2.0300 -1.2208 -0.0383
 7093SOL    HW232739   0.882   0.722  17.339  1.2337  2.2177  2.6159
 7094SOL     OW32740   0.896   4.117   8.337 -0.2059 -0.2706 -0.4447
 7094SOL    HW132741   0.900   4.083   8.248  0.6808 -1.4317  0.0269
 7094SOL    HW232742   0.832   4.185   8.315  1.6105  1.4242 -0.4298
 7095SOL     OW32743   3.582   1.583   8.862 -0.1321  0.1803  0.4938
 7095SOL    HW132744   3.665   1.569   8.816 -1.8213  0.3398 -2.5799
 7095SOL    HW232745   3.599   1.553   8.951  1.0005  0.2126  0.2899
 7096SOL     OW32746   4.082   3.855   4.317 -0.2003  0.0025 -0.5004
 7096SOL    HW132747   4.012   3.879   4.378 -1.7963 -1.2051 -1.8671
 7096SOL    HW232748   4.079   3.761   4.335  2.3720 -0.2576 -1.4501
 7097SOL     OW32749   3.167   0.229   0.819 -0.0722 -0.0803  0.1898
 7097SOL    HW132750   3.212   0.183   0.891 -1.3349 -1.3117  0.1881
 7097SOL    HW232751   3.233   0.296   0.799 -0.2046 -0.3950 -1.3190
 7098SOL     OW32752   4.399   4.363   8.566 -0.3095 -0.0477  0.2048
 7098SOL    HW132753   4.420   4.447   8.524  0.4494  0.8657  2.3709
 7098SOL    HW232754   4.309   4.351   8.536 -0.0968 -1.5378  0.1688
 7099SOL     OW32755   2.047   3.824   0.980  0.2768  0.0926  0.7606
 7099SOL    HW132756   2.130   3.853   1.019  0.2334 -0.9232  1.6151
 7099SOL    HW232757   1.997   3.902   1.004 -0.6490 -0.1771 -0.2987
 7100SOL     OW32758   0.253   3.912   7.946  0.1309 -0.2939  0.4376
 7100SOL    HW132759   0.322   3.853   7.977 -0.9651 -1.1045  1.3101
 7100SOL    HW232760   0.301   3.995   7.950  0.1609 -0.3098  0.4115
 7101SOL     OW32761   2.211   3.157   6.904  0.0795 -0.4906 -0.0978
 7101SOL    HW132762   2.132   3.212   6.902  0.2184 -0.3033 -0.4852
 7101SOL    HW232763   2.282   3.220   6.890 -2.0368  1.1119 -3.8025
 7102SOL     OW32764   0.756   3.695  16.659 -0.4908 -0.2218  0.1510
 7102SOL    HW132765   0.675   3.684  16.610 -0.9382 -1.4553  1.1684
 7102SOL    HW232766   0.777   3.613  16.704 -0.0424 -1.6805 -2.6716
 7103SOL     OW32767   2.530   1.487  13.663  0.0172  0.4495  0.5905
 7103SOL    HW132768   2.464   1.485  13.732 -2.0977 -2.0164 -1.5033
 7103SOL    HW232769   2.578   1.562  13.697 -2.4541  1.8397  0.9620
 7104SOL     OW32770   3.338   2.147  12.117 -0.2904 -0.7040 -1.2505
 7104SOL    HW132771   3.307   2.076  12.061  0.5513 -1.6353 -0.5305
 7104SOL    HW232772   3.433   2.135  12.113 -0.6395 -3.3170 -1.3518
 7105SOL     OW32773   3.293   1.093   4.297 -0.1164 -0.0100  0.4993
 7105SOL    HW132774   3.235   1.164   4.270 -0.5808 -1.3856 -2.0867
 7105SOL    HW232775   3.275   1.015   4.244  0.2075 -0.4483  1.0296
 7106SOL     OW32776   1.843   0.014   6.200 -0.1932  0.5439 -0.1827
 7106SOL    HW132777   1.928   0.050   6.173 -0.0170 -0.0510 -0.4285
 7106SOL    HW232778   1.786   0.074   6.153 -0.4378  0.4721  0.0238
 7107SOL     OW32779   0.512   0.820  15.275 -0.8014  0.1779  0.1152
 7107SOL    HW132780   0.575   0.888  15.248 -2.0194  0.0117 -3.1821
 7107SOL    HW232781   0.444   0.830  15.208 -1.0335  0.7211  0.4356
 7108SOL     OW32782   2.244   1.406   5.366 -0.4170 -0.8449 -0.2547
 7108SOL    HW132783   2.256   1.494   5.330 -2.5064 -0.1914  0.7055
 7108SOL    HW232784   2.300   1.415   5.443 -2.0687  0.7359  0.7532
 7109SOL     OW32785   2.291   3.828   4.305 -0.5228  0.4866 -0.0360
 7109SOL    HW132786   2.214   3.785   4.342  0.0391 -0.3061  0.2138
 7109SOL    HW232787   2.255   3.913   4.281 -0.6303  0.3276 -0.4515
 7110SOL     OW32788   0.405   0.339  11.024 -0.6200 -0.4695 -0.4112
 7110SOL    HW132789   0.435   0.345  11.114 -0.7704  1.6840 -0.5161
 7110SOL    HW232790   0.312   0.319  11.038 -0.4976 -0.5734  0.2425
 7111SOL     OW32791   2.847   0.475   4.884 -0.4027 -0.0900  0.2643
 7111SOL    HW132792   2.937   0.507   4.878 -0.8935  0.9553 -1.9534
 7111SOL    HW232793   2.824   0.515   4.968 -1.1538 -0.4508  0.2318
 7112SOL     OW32794   1.358   1.418  13.635  0.2865  0.3087  0.2855
 7112SOL    HW132795   1.304   1.461  13.569 -0.1527  0.8470  0.9929
 7112SOL    HW232796   1.296   1.395  13.704  1.6090 -1.0396  1.0362
 7113SOL     OW32797   2.061   3.777   4.768 -0.3836  0.0368  0.1278
 7113SOL    HW132798   2.030   3.725   4.694  0.1082  1.8744 -1.3845
 7113SOL    HW232799   2.055   3.866   4.731  1.3372  0.1904  0.2462
 7114SOL     OW32800   4.072   0.490   2.436 -0.4432  0.5079  0.2845
 7114SOL    HW132801   4.159   0.484   2.397  0.8339 -0.7274  3.3372
 7114SOL    HW232802   4.086   0.521   2.525  0.5551 -1.3354  0.7636
 7115SOL     OW32803   4.032   2.306   1.455 -0.3854  0.2811 -0.6657
 7115SOL    HW132804   3.972   2.243   1.495  1.9942 -1.2843  0.4404
 7115SOL    HW232805   3.984   2.328   1.375  1.8400  0.4687 -1.9645
 7116SOL     OW32806   1.119   1.202   7.485  0.6968  0.3766 -0.0093
 7116SOL    HW132807   1.113   1.267   7.555  1.4120  0.0458  0.3554
 7116SOL    HW232808   1.172   1.132   7.524 -1.9481 -1.0971  0.9654
 7117SOL     OW32809   0.623   1.110   2.758  0.1741  0.4699 -0.0539
 7117SOL    HW132810   0.571   1.137   2.682 -2.3865 -1.0295  1.1526
 7117SOL    HW232811   0.699   1.069   2.715 -1.0205 -0.5217 -1.2392
 7118SOL     OW32812   1.773   2.164  17.370  0.2839  0.3029  0.1156
 7118SOL    HW132813   1.830   2.205  17.434  0.2275  1.7409 -0.7662
 7118SOL    HW232814   1.815   2.079  17.356  0.5742  0.3286  0.8337
 7119SOL     OW32815   1.417   2.496   4.545 -0.4607 -0.3971  0.0894
 7119SOL    HW132816   1.508   2.474   4.525  0.1446  0.4116  1.9942
 7119SOL    HW232817   1.411   2.505   4.640 -1.6602  1.4382 -0.1475
 7120SOL     OW32818   2.978   4.493   1.726  0.5887 -0.5112  0.3533
 7120SOL    HW132819   3.005   4.536   1.807 -0.8691 -1.0689  1.1376
 7120SOL    HW232820   3.064   4.476   1.689 -0.7104 -2.3197 -1.8470
 7121SOL     OW32821   3.370   1.227   5.076 -0.1854 -0.4052  0.0917
 7121SOL    HW132822   3.301   1.274   5.029  0.4189 -3.1667 -3.5372
 7121SOL    HW232823   3.437   1.293   5.061 -0.2886 -0.6942 -1.6449
 7122SOL     OW32824   1.723   2.147   3.500  0.1123 -0.2973 -0.1678
 7122SOL    HW132825   1.799   2.194   3.467  1.6225 -2.7461 -0.2120
 7122SOL    HW232826   1.650   2.209   3.502  0.2312 -0.1641  0.1405
 7123SOL     OW32827   3.767   0.297   2.009  0.4901 -0.0263 -0.5094
 7123SOL    HW132828   3.713   0.301   1.930  1.2052  1.7973 -0.9035
 7123SOL    HW232829   3.828   0.368   1.991  0.8452 -0.4571 -0.9996
 7124SOL     OW32830   1.253   3.121   8.671 -0.1441 -0.7018  0.0293
 7124SOL    HW132831   1.161   3.093   8.672 -0.0624 -1.0297 -1.0286
 7124SOL    HW232832   1.254   3.174   8.751 -1.5941  0.9975 -1.0615
 7125SOL     OW32833   3.218   4.662   9.416  0.0819 -0.3294  0.0251
 7125SOL    HW132834   3.167   0.008   9.464 -1.8555 -2.6334  1.0577
 7125SOL    HW232835   3.297   4.648   9.469 -0.4948  0.7134  1.1772
 7126SOL     OW32836   2.787   1.081  15.137  0.2112 -0.5399 -0.2276
 7126SOL    HW132837   2.850   1.130  15.083  1.3399 -2.5392 -0.7184
 7126SOL    HW232838   2.708   1.085  15.083  0.4635  1.0480 -0.4797
 7127SOL     OW32839   4.150   3.217   8.883 -0.0769 -0.3017  0.2255
 7127SOL    HW132840   4.239   3.245   8.861 -0.1779 -0.0334  0.1491
 7127SOL    HW232841   4.163   3.219   8.978  2.6411 -2.1271 -0.1212
 7128SOL     OW32842   3.024   3.147   7.320  0.7463 -0.1375  0.4673
 7128SOL    HW132843   3.071   3.228   7.299 -1.7695  0.6002 -2.3073
 7128SOL    HW232844   3.003   3.118   7.232  0.0859  4.6189 -0.9610
 7129SOL     OW32845   4.503   3.108   8.997 -0.7955 -0.3136 -0.5376
 7129SOL    HW132846   4.467   3.185   8.952 -0.1380 -0.3954 -1.2139
 7129SOL    HW232847   4.500   3.144   9.085  2.4023 -1.3125 -0.0265
 7130SOL     OW32848   0.367   1.969   7.298  0.6581 -0.1175  0.1097
 7130SOL    HW132849   0.451   1.924   7.292  0.0943 -1.1877  0.1480
 7130SOL    HW232850   0.310   1.898   7.327  0.6140 -0.9343 -1.9452
 7131SOL     OW32851   2.037   0.573   7.992 -1.0791  0.0441 -0.4172
 7131SOL    HW132852   1.956   0.566   8.041  0.7703  0.9723  2.7576
 7131SOL    HW232853   2.061   0.655   8.034 -0.2324 -1.0997  1.3249
 7132SOL     OW32854   0.106   1.866  12.136 -0.3099  0.0905 -0.0004
 7132SOL    HW132855   0.117   1.960  12.146  0.4594  0.2826 -2.4484
 7132SOL    HW232856   0.110   1.865  12.040  0.2330 -2.1034  0.0329
 7133SOL     OW32857   0.299   1.706   3.385 -0.0873 -0.3528 -0.4868
 7133SOL    HW132858   0.312   1.762   3.462 -1.2234 -1.4028  0.4667
 7133SOL    HW232859   0.208   1.677   3.386 -0.1797 -0.0893 -1.4685
 7134SOL     OW32860   1.817   2.285   1.451 -0.1533  0.3524  0.5173
 7134SOL    HW132861   1.865   2.367   1.459  0.9288 -0.1625 -0.6873
 7134SOL    HW232862   1.808   2.251   1.540  1.1283 -2.8192 -0.5585
 7135SOL     OW32863   3.564   3.895   4.326  0.2576  0.1507  0.1189
 7135SOL    HW132864   3.619   3.930   4.256 -0.5676  1.5226  0.1430
 7135SOL    HW232865   3.508   3.972   4.342  0.7659  0.6411 -0.4523
 7136SOL     OW32866   0.271   2.855   3.171 -0.2197 -0.2960  0.3630
 7136SOL    HW132867   0.201   2.866   3.235  1.4956  0.0489  2.1861
 7136SOL    HW232868   0.222   2.857   3.089 -1.1270 -2.3603  0.8638
 7137SOL     OW32869   4.704   0.400   7.965 -0.6965  0.3537 -0.9021
 7137SOL    HW132870   4.647   0.343   7.913 -2.0649  0.4804  0.4375
 7137SOL    HW232871   4.712   0.350   8.047 -1.7520 -1.1929 -1.7470
 7138SOL     OW32872   2.292   3.485  10.756  0.5785  0.8581  0.2917
 7138SOL    HW132873   2.226   3.547  10.787 -0.0215  0.7188 -0.7061
 7138SOL    HW232874   2.287   3.432  10.836  2.4446  0.2541  0.0029
 7139SOL     OW32875   4.708   2.768   1.934 -0.0098  0.3104  0.6066
 7139SOL    HW132876   4.713   2.864   1.929 -3.0894  0.4297  0.0842
 7139SOL    HW232877   0.035   2.743   2.015  2.3251  3.2552  0.1944
 7140SOL     OW32878   3.398   1.441   7.630 -0.0634  0.1219 -0.4962
 7140SOL    HW132879   3.331   1.508   7.620 -0.1659 -0.2308 -2.1352
 7140SOL    HW232880   3.472   1.483   7.674 -2.0501 -0.0159  3.0390
 7141SOL     OW32881   1.486   1.264   5.433  0.5536  0.7151 -0.2713
 7141SOL    HW132882   1.549   1.208   5.387 -0.4238 -1.2198  0.7125
 7141SOL    HW232883   1.462   1.213   5.511 -0.7101  1.5014 -0.1449
 7142SOL     OW32884   2.660   2.938   4.290  0.4494 -0.1502  0.4333
 7142SOL    HW132885   2.631   2.925   4.200  2.3374  0.3848 -0.2475
 7142SOL    HW232886   2.593   3.002   4.316  1.2138 -0.0620  2.1855
 7143SOL     OW32887   4.431   1.521  15.872 -0.7757  0.0428  0.2147
 7143SOL    HW132888   4.402   1.612  15.867 -0.5318  0.0992 -0.1791
 7143SOL    HW232889   4.348   1.475  15.875  0.4496 -2.2393 -0.7164
 7144SOL     OW32890   1.332   3.161   3.756  0.3057  0.1842  0.1830
 7144SOL    HW132891   1.359   3.165   3.664  0.4037  1.3406  0.2591
 7144SOL    HW232892   1.398   3.216   3.798  0.6892  0.6131 -0.9841
 7145SOL     OW32893   3.996   1.015  10.787 -0.2465 -0.1989  0.3658
 7145SOL    HW132894   3.947   1.000  10.868  0.1794 -0.8870  0.4890
 7145SOL    HW232895   4.082   1.045  10.813 -0.6060  0.3297  0.9382
 7146SOL     OW32896   2.741   0.666   4.163 -0.4690  0.3646  0.0794
 7146SOL    HW132897   2.715   0.604   4.231 -1.2353 -0.7309 -1.2193
 7146SOL    HW232898   2.721   0.627   4.079 -0.5793  1.6191 -0.4752
 7147SOL     OW32899   3.087   2.460  15.223  0.1867 -0.2958 -0.5260
 7147SOL    HW132900   3.006   2.410  15.230  0.7363 -1.1248 -0.0571
 7147SOL    HW232901   3.149   2.412  15.277  0.8133  2.3236  1.1195
 7148SOL     OW32902   2.142   3.654   3.944  0.0215  0.1451  0.0868
 7148SOL    HW132903   2.130   3.630   3.852 -1.4178  1.6854 -0.1194
 7148SOL    HW232904   2.160   3.569   3.985 -0.7049  0.2532  0.6130
 7149SOL     OW32905   1.326   4.154   8.606  0.3328  0.1910  0.0712
 7149SOL    HW132906   1.257   4.181   8.545  0.0402  0.0960  0.3571
 7149SOL    HW232907   1.374   4.236   8.614  0.6552 -0.1285  1.3105
 7150SOL     OW32908   0.984   2.819  17.401  0.1799  0.2504  0.6492
 7150SOL    HW132909   1.074   2.815  17.436  1.2260  0.0663 -2.0843
 7150SOL    HW232910   0.994   2.759  17.327 -2.3216  1.2373 -0.4835
 7151SOL     OW32911   4.103   0.601   2.687 -0.3845  0.1250 -0.1604
 7151SOL    HW132912   4.066   0.688   2.703  1.0808  0.8274 -0.6676
 7151SOL    HW232913   4.035   0.542   2.722 -0.2239 -0.3094 -0.5866
 7152SOL     OW32914   1.479   2.959   9.004 -0.1402  0.3250  0.5507
 7152SOL    HW132915   1.466   2.924   9.092 -1.4351 -0.8869 -0.1212
 7152SOL    HW232916   1.481   3.054   9.013  0.7490  0.0621  3.0704
 7153SOL     OW32917   3.314   3.911   0.949  0.4711 -0.5405  0.3377
 7153SOL    HW132918   3.251   3.939   1.016 -0.0222  1.6570 -1.0351
 7153SOL    HW232919   3.368   3.990   0.946 -1.2067  0.6451  1.2195
 7154SOL     OW32920   3.642   1.366  10.715  0.5352  0.3705 -0.1915
 7154SOL    HW132921   3.566   1.313  10.691  0.1131  2.2145 -2.9171
 7154SOL    HW232922   3.687   1.386  10.633 -1.3383  0.4670 -1.2015
 7155SOL     OW32923   3.291   4.300   5.715  0.6271 -0.1857 -0.0880
 7155SOL    HW132924   3.375   4.267   5.745  0.7910 -0.6029 -1.0206
 7155SOL    HW232925   3.255   4.212   5.706 -1.1535  0.5258  0.0488
 7156SOL     OW32926   0.689   1.626   8.922 -0.5588 -0.0123 -0.0195
 7156SOL    HW132927   0.771   1.630   8.972 -1.5857  0.6476  1.6110
 7156SOL    HW232928   0.714   1.666   8.839  2.6553 -1.3087  0.3170
 7157SOL     OW32929   1.146   4.253   8.061 -0.0943 -0.7261 -0.1013
 7157SOL    HW132930   1.089   4.259   7.985  1.1377 -2.1296 -1.1241
 7157SOL    HW232931   1.084   4.288   8.125 -1.4005 -1.0801 -1.1747
 7158SOL     OW32932   3.044   2.505   3.151  0.4913 -0.1205  0.5668
 7158SOL    HW132933   3.125   2.524   3.103  0.0929 -0.4119 -0.2329
 7158SOL    HW232934   3.070   2.480   3.239 -2.3379 -0.1228  1.3955
 7159SOL     OW32935   4.322   0.250   5.184  0.1444  0.6471 -0.1529
 7159SOL    HW132936   4.235   0.281   5.162  0.4367  0.6436 -1.3198
 7159SOL    HW232937   4.312   0.241   5.279 -1.3321  0.5250 -0.3220
 7160SOL     OW32938   3.148   0.058  12.962  0.3189 -0.7676 -0.1155
 7160SOL    HW132939   3.131   0.152  12.975 -0.9109 -0.9633 -0.2922
 7160SOL    HW232940   3.092   0.030  13.034  0.0967 -1.3208 -0.5008
 7161SOL     OW32941   3.270   0.501   2.554 -0.1691  0.8043 -0.4553
 7161SOL    HW132942   3.335   0.447   2.510 -1.3768 -1.0648  0.0048
 7161SOL    HW232943   3.327   0.561   2.602  2.3432 -0.7756 -1.4855
 7162SOL     OW32944   3.562   1.644  17.276 -0.0890 -0.0787 -0.8263
 7162SOL    HW132945   3.526   1.575  17.332  1.4956 -0.5972 -0.4504
 7162SOL    HW232946   3.480   1.690  17.256 -0.3957 -0.2893 -0.0533
 7163SOL     OW32947   2.492   1.876  12.658 -0.8182 -0.0129 -0.3118
 7163SOL    HW132948   2.554   1.948  12.657  0.2457 -0.9481 -1.8916
 7163SOL    HW232949   2.538   1.825  12.591 -0.2549  0.6294 -0.4145
 7164SOL     OW32950   2.235   0.763   9.743 -0.0098 -0.2532  0.2978
 7164SOL    HW132951   2.213   0.714   9.821  1.3005  0.1279  0.9086
 7164SOL    HW232952   2.309   0.705   9.723 -0.4002 -0.8162  0.5044
 7165SOL     OW32953   0.071   4.266   0.372  0.2165  0.0208  0.1511
 7165SOL    HW132954   0.071   4.193   0.310 -0.8347 -0.2210  0.4290
 7165SOL    HW232955   0.112   4.231   0.451  2.3476 -1.0414 -1.4243
 7166SOL     OW32956   3.269   0.776  12.083  0.9675 -0.4869  0.1193
 7166SOL    HW132957   3.271   0.818  11.997  2.1605  0.8093  0.7827
 7166SOL    HW232958   3.175   0.757  12.082  0.8877 -0.1034  0.3201
 7167SOL     OW32959   3.776   3.129   3.129 -0.0860  0.4607 -0.0904
 7167SOL    HW132960   3.770   3.216   3.168 -0.1841  1.7251 -2.9268
 7167SOL    HW232961   3.867   3.100   3.141  0.3611  1.2637 -1.4799
 7168SOL     OW32962   3.744   4.607   3.885 -0.3229 -0.3558  0.0378
 7168SOL    HW132963   3.798   4.529   3.881  0.1592  0.0200 -0.8225
 7168SOL    HW232964   3.772   4.659   3.810 -1.3414  0.5235  0.2664
 7169SOL     OW32965   0.826   3.437   6.112 -0.2486 -0.3056 -0.1816
 7169SOL    HW132966   0.885   3.509   6.089 -1.7638  0.3629 -1.9804
 7169SOL    HW232967   0.742   3.467   6.078 -0.3579  0.3777  0.7013
 7170SOL     OW32968   0.448   1.563  14.571  0.3699  0.6367 -0.5016
 7170SOL    HW132969   0.422   1.625  14.503 -0.1903  1.1054  0.1402
 7170SOL    HW232970   0.402   1.601  14.645 -0.4736 -1.7955  0.2351
 7171SOL     OW32971   4.018   2.999   3.088  0.7407 -0.7517 -0.2664
 7171SOL    HW132972   3.996   2.961   3.174 -0.9494  2.5554  0.7440
 7171SOL    HW232973   4.019   2.920   3.034 -2.2161 -1.2980  0.5015
 7172SOL     OW32974   1.913   3.309  17.606 -0.5867 -0.0032 -0.2059
 7172SOL    HW132975   1.848   3.279  17.541 -1.7634  1.6976  0.1945
 7172SOL    HW232976   1.918   3.404  17.607  2.6964 -0.1952  0.0203
 7173SOL     OW32977   4.667   0.577  11.477  0.5901  0.3821  0.1748
 7173SOL    HW132978   4.651   0.602  11.387 -0.5472 -1.4577 -0.1284
 7173SOL    HW232979   4.624   0.644  11.530 -0.5869  1.2232 -1.8760
 7174SOL     OW32980   4.352   3.825   5.773  0.3731 -0.1881  0.0545
 7174SOL    HW132981   4.420   3.767   5.807 -0.2193 -1.3895 -0.8445
 7174SOL    HW232982   4.397   3.906   5.747  2.7120 -1.7728 -0.8212
 7175SOL     OW32983   1.886   3.052  10.379  0.2582  0.3409 -0.0039
 7175SOL    HW132984   1.846   3.006  10.453 -1.3046 -1.0405 -1.7062
 7175SOL    HW232985   1.976   3.020  10.380  0.0890 -0.0280  3.3115
 7176SOL     OW32986   1.413   1.689   3.104  0.4939  0.0713  0.3517
 7176SOL    HW132987   1.466   1.707   3.182  1.7814  1.3427 -0.8032
 7176SOL    HW232988   1.329   1.721   3.137 -0.6950 -0.3002 -2.3080
 7177SOL     OW32989   1.986   1.215  11.649 -0.1757  0.1015 -0.0275
 7177SOL    HW132990   1.911   1.163  11.620  1.1438 -1.4188 -0.6980
 7177SOL    HW232991   2.045   1.152  11.690  0.9885  1.4964  0.4402
 7178SOL     OW32992   4.421   4.257   4.292  0.2589 -0.4520 -0.1734
 7178SOL    HW132993   4.354   4.256   4.224 -0.0246 -1.6305  0.1324
 7178SOL    HW232994   4.492   4.214   4.245 -0.4317  0.2293 -1.8773
 7179SOL     OW32995   2.410   2.364   8.068  0.2723 -0.1150  0.8073
 7179SOL    HW132996   2.362   2.446   8.057  0.5152  0.0852  1.2516
 7179SOL    HW232997   2.438   2.362   8.159 -1.9003  0.6498  1.4849
 7180SOL     OW32998   2.530   2.140   1.381 -0.5192 -0.1124  0.7290
 7180SOL    HW132999   2.543   2.130   1.475  3.2257  2.8430  0.5436
 7180SOL    HW233000   2.455   2.082   1.371 -0.4284 -0.2125  0.6319
 7181SOL     OW33001   3.712   1.490  10.059  0.4135 -0.6469 -0.2901
 7181SOL    HW133002   3.632   1.438  10.049 -2.4826  3.4532  1.4772
 7181SOL    HW233003   3.676   1.530  10.138 -0.9707 -0.2911 -1.1082
 7182SOL     OW33004   1.241   3.933   6.747  0.0136  0.5775 -0.0008
 7182SOL    HW133005   1.231   3.840   6.766  0.2654  0.3703 -0.9080
 7182SOL    HW233006   1.149   3.960   6.743  0.5860  2.4523 -0.4592
 7183SOL     OW33007   4.158   2.955   6.416 -0.3009 -0.2349  0.1076
 7183SOL    HW133008   4.104   3.020   6.371 -0.6847 -1.5143 -1.2533
 7183SOL    HW233009   4.244   2.976   6.379 -0.5468  0.8298  0.1320
 7184SOL     OW33010   3.288   4.712  16.014  0.0534  0.6383 -0.1204
 7184SOL    HW133011   3.237   4.643  16.056  1.8214 -1.3612 -1.2231
 7184SOL    HW233012   3.346   0.013  16.088  0.0807 -1.8238  0.5261
 7185SOL     OW33013   0.134   1.756  11.886  0.0637  0.3518 -0.5089
 7185SOL    HW133014   0.065   1.702  11.846  0.4111 -2.2476  2.3530
 7185SOL    HW233015   0.140   1.713  11.971  2.7494 -1.3027 -1.5403
 7186SOL     OW33016   3.711   4.228   4.218 -0.1858 -0.0202 -0.1453
 7186SOL    HW133017   3.674   4.155   4.169 -0.2590  0.3929 -0.7076
 7186SOL    HW233018   3.627   4.254   4.256  0.3171 -0.0503  0.9709
 7187SOL     OW33019   0.500   2.532   4.354 -0.0862  0.3848  0.2879
 7187SOL    HW133020   0.547   2.560   4.432 -0.8505  1.1334  0.4790
 7187SOL    HW233021   0.515   2.612   4.303 -1.9055  1.6162  1.6915
 7188SOL     OW33022   3.107   0.058   6.209 -0.1745  0.4693 -0.3189
 7188SOL    HW133023   3.144   0.132   6.161 -0.5209  0.1460 -1.0780
 7188SOL    HW233024   3.188   0.008   6.221  0.3805  1.3388 -0.4908
 7189SOL     OW33025   2.345   2.037   7.684 -1.0948  0.4602  0.0266
 7189SOL    HW133026   2.296   2.118   7.698  0.5269  1.5813 -0.8445
 7189SOL    HW233027   2.375   2.039   7.593 -0.0455  1.0391  0.3894
 7190SOL     OW33028   3.747   1.566  10.868  0.2858  0.0315  0.2680
 7190SOL    HW133029   3.704   1.628  10.810  2.0452  0.1418 -0.9330
 7190SOL    HW233030   3.714   1.489  10.822 -2.8161  1.6437 -0.1485
 7191SOL     OW33031   2.091   0.623  10.366 -0.0225  0.0059 -0.0722
 7191SOL    HW133032   2.134   0.680  10.303  0.7666  0.8839  1.2570
 7191SOL    HW233033   2.156   0.619  10.436 -0.3551  2.2060  0.3531
 7192SOL     OW33034   4.124   3.004  15.681  0.3010 -0.0729  0.3729
 7192SOL    HW133035   4.129   2.923  15.730  0.9884 -0.4350 -0.2890
 7192SOL    HW233036   4.031   3.026  15.677  0.0353 -0.9053  2.0242
 7193SOL     OW33037   1.902   2.683   9.156  0.0494  0.5550  0.3922
 7193SOL    HW133038   1.983   2.654   9.198  0.1596 -1.6724 -1.3565
 7193SOL    HW233039   1.900   2.646   9.068  1.1900  0.7133  0.3080
 7194SOL     OW33040   4.629   4.687   4.398 -0.5336 -0.4624  0.7594
 7194SOL    HW133041   4.702   4.719   4.451 -0.4213 -0.9822  0.9171
 7194SOL    HW233042   4.658   4.610   4.349 -1.2584 -0.4975  0.3960
 7195SOL     OW33043   3.574   4.155  15.307  0.0458 -0.1050 -0.0757
 7195SOL    HW133044   3.625   4.141  15.227  1.9591 -0.9021  1.2947
 7195SOL    HW233045   3.614   4.093  15.367 -0.4711 -1.2422 -0.9106
 7196SOL     OW33046   3.846   2.814   5.061 -0.1296 -0.6882  0.1669
 7196SOL    HW133047   3.751   2.803   5.067 -0.1027 -1.0101  0.0396
 7196SOL    HW233048   3.877   2.730   5.095 -0.0292 -1.0097 -0.7171
 7197SOL     OW33049   1.646   1.480  11.464  0.2493  0.3152  0.1922
 7197SOL    HW133050   1.690   1.525  11.391  0.0349  1.0400  0.5079
 7197SOL    HW233051   1.720   1.453  11.518 -0.9879 -1.5913  0.9310
 7198SOL     OW33052   2.941   2.455   7.181  0.4904  0.1172 -0.3626
 7198SOL    HW133053   2.947   2.426   7.090  0.3434 -0.4385 -0.1929
 7198SOL    HW233054   2.857   2.501   7.179  0.7851  0.8132  2.8538
 7199SOL     OW33055   0.687   0.735   6.579  0.4434 -0.5803 -0.0012
 7199SOL    HW133056   0.746   0.718   6.507  0.5073 -2.7650  0.5724
 7199SOL    HW233057   0.742   0.791   6.634  1.3428 -0.6398 -0.8551
 7200SOL     OW33058   2.567   3.330  10.549  0.3517 -0.0352 -0.7493
 7200SOL    HW133059   2.615   3.394  10.497 -0.8865  0.4561 -1.2841
 7200SOL    HW233060   2.607   3.352  10.633  0.2422 -3.1216  0.1399
 7201SOL     OW33061   1.200   2.878   0.334  0.1153 -0.1779  0.1507
 7201SOL    HW133062   1.127   2.939   0.332  0.8541  0.6912 -0.0955
 7201SOL    HW233063   1.275   2.930   0.363  0.5389 -1.0435  0.6337
 7202SOL     OW33064   2.941   1.148   4.311  0.2179 -0.0171 -0.0866
 7202SOL    HW133065   2.851   1.180   4.313  0.8032  1.7241 -1.5742
 7202SOL    HW233066   2.955   1.134   4.217  0.0102  0.9400 -0.2594
 7203SOL     OW33067   3.810   3.879   3.022  0.0049 -0.1361 -0.5423
 7203SOL    HW133068   3.748   3.815   3.058  1.0712 -1.1968 -0.5703
 7203SOL    HW233069   3.763   3.902   2.942  0.7837  1.1154 -0.6439
 7204SOL     OW33070   4.378   3.968   4.079 -0.0772  0.3886 -0.1063
 7204SOL    HW133071   4.412   4.025   4.011 -2.2105  1.1311 -0.5621
 7204SOL    HW233072   4.291   3.941   4.049  0.3412 -2.6525  1.4771
 7205SOL     OW33073   4.131   3.677   3.684  0.3623 -0.2266 -0.3902
 7205SOL    HW133074   4.108   3.619   3.756  0.0444  1.2345  0.6787
 7205SOL    HW233075   4.145   3.619   3.608 -0.1652 -0.9666  0.0848
 7206SOL     OW33076   2.512   2.833  15.217 -0.3255 -0.1089 -0.0549
 7206SOL    HW133077   2.431   2.820  15.268  0.9905 -3.6233  1.1605
 7206SOL    HW233078   2.475   2.826  15.129 -1.3024  0.0829  0.3390
 7207SOL     OW33079   4.626   2.083  15.577 -0.0815 -0.4483  0.5159
 7207SOL    HW133080   4.632   2.154  15.641 -0.6290  0.1270 -0.0618
 7207SOL    HW233081   4.622   2.128  15.492  0.7462  2.4995  2.0542
 7208SOL     OW33082   0.233   4.428   8.149 -0.2804  0.6636  0.4555
 7208SOL    HW133083   0.309   4.370   8.151 -0.4121  0.4341 -1.4871
 7208SOL    HW233084   0.264   4.517   8.164  1.4273 -0.2522  2.4186
 7209SOL     OW33085   1.290   3.228  11.179  0.3180  0.2902  0.1231
 7209SOL    HW133086   1.232   3.185  11.242 -0.9668  0.8942 -0.6595
 7209SOL    HW233087   1.293   3.316  11.217  0.9881 -0.8932  2.8432
 7210SOL     OW33088   4.362   2.295   7.537 -0.4785  0.2074  0.3096
 7210SOL    HW133089   4.375   2.342   7.455  1.7852  2.2865  1.8768
 7210SOL    HW233090   4.455   2.299   7.560 -1.0709  3.5337  2.1126
 7211SOL     OW33091   4.025   2.942   3.708 -0.1942  0.6441 -0.2613
 7211SOL    HW133092   4.066   2.967   3.791 -0.6729 -0.2647  0.2482
 7211SOL    HW233093   4.105   2.935   3.655 -0.5064  2.8116 -1.0010
 7212SOL     OW33094   3.488   1.449   2.663 -0.4651 -0.4539  0.2331
 7212SOL    HW133095   3.417   1.388   2.644 -0.7556  0.4481 -1.5741
 7212SOL    HW233096   3.516   1.459   2.572 -0.9753  0.2898  0.1591
 7213SOL     OW33097   3.060   2.274   0.196 -0.0053 -0.3024  0.2648
 7213SOL    HW133098   2.991   2.301   0.256 -0.5959  2.2682 -1.5722
 7213SOL    HW233099   3.086   2.186   0.225  1.3706 -0.2188 -0.7439
 7214SOL     OW33100   0.564   2.714   4.590  0.7488 -0.3374  0.5952
 7214SOL    HW133101   0.655   2.719   4.620 -0.0898 -0.5714  3.1878
 7214SOL    HW233102   0.531   2.650   4.653  0.5654 -0.4891  0.3446
 7215SOL     OW33103   0.955   4.489   9.780 -0.1198 -0.0518  0.0395
 7215SOL    HW133104   0.933   4.548   9.852 -0.3683  2.4554 -2.1038
 7215SOL    HW233105   1.030   4.442   9.815 -1.1881 -2.9719 -1.5965
 7216SOL     OW33106   1.961   3.488   6.631 -0.0053 -0.2777 -0.3139
 7216SOL    HW133107   2.030   3.537   6.586 -0.0760 -0.4033 -0.5625
 7216SOL    HW233108   1.912   3.565   6.661 -0.2582 -0.2001 -0.9220
 7217SOL     OW33109   2.641   1.219  13.318 -0.0821  0.1141 -0.1412
 7217SOL    HW133110   2.676   1.268  13.392 -1.9788  2.3420 -0.7157
 7217SOL    HW233111   2.721   1.204  13.268 -0.6174  3.2327 -1.8978
 7218SOL     OW33112   0.525   4.513  17.131  0.0715 -0.1549  0.0263
 7218SOL    HW133113   0.615   4.546  17.130 -0.4249  1.2056 -0.0267
 7218SOL    HW233114   0.520   4.458  17.209  0.9345 -1.6871 -0.9770
 7219SOL     OW33115   2.947   1.276  14.802  0.3024  0.0758 -0.0490
 7219SOL    HW133116   2.889   1.306  14.732  1.8834 -2.6121 -2.5148
 7219SOL    HW233117   3.024   1.328  14.779  0.4222 -0.0742  0.0084
 7220SOL     OW33118   1.571   1.407  10.249 -0.0658  0.3671 -0.2974
 7220SOL    HW133119   1.587   1.432  10.158  0.7511 -1.4404 -0.6406
 7220SOL    HW233120   1.509   1.336  10.259  0.4067  0.2646  2.0848
 7221SOL     OW33121   3.144   0.800   0.130  0.2464  0.5502 -0.1793
 7221SOL    HW133122   3.069   0.817   0.188 -0.6134 -1.9430 -0.5210
 7221SOL    HW233123   3.095   0.756   0.060 -1.1965  0.5756  0.8130
 7222SOL     OW33124   1.845   1.507   5.735 -0.3033 -0.2927 -0.1945
 7222SOL    HW133125   1.832   1.530   5.643 -3.7361  2.0160  0.8811
 7222SOL    HW233126   1.931   1.545   5.753 -1.0330  1.5705 -0.7057
 7223SOL     OW33127   4.235   4.661   5.914 -0.4721  0.1924  0.6203
 7223SOL    HW133128   4.173   4.598   5.952  0.0530 -0.6692  0.0627
 7223SOL    HW233129   4.291   4.593   5.877 -1.5678  0.8593 -2.2247
 7224SOL     OW33130   3.890   2.226   6.045 -0.5401  0.3188  0.3284
 7224SOL    HW133131   3.800   2.208   6.073 -0.7371 -1.3022 -1.3409
 7224SOL    HW233132   3.934   2.201   6.127 -1.2009 -0.9450  0.3057
 7225SOL     OW33133   2.210   1.973   7.274 -0.1474 -0.6760  0.4776
 7225SOL    HW133134   2.200   1.879   7.287  1.2177 -0.7210  1.2913
 7225SOL    HW233135   2.287   2.004   7.322  0.6912  0.1046 -1.4012
 7226SOL     OW33136   0.132   2.119   4.813  0.0296  0.4495 -0.0425
 7226SOL    HW133137   0.180   2.161   4.885 -1.0383 -0.5763  1.2812
 7226SOL    HW233138   0.195   2.047   4.808 -2.8273 -1.9144 -1.8838
 7227SOL     OW33139   2.172   1.142   6.193  0.0508 -0.3927 -0.3088
 7227SOL    HW133140   2.152   1.153   6.285 -1.1739 -2.0517 -0.3662
 7227SOL    HW233141   2.112   1.206   6.154 -0.2644 -0.7607 -0.4347
 7228SOL     OW33142   0.638   1.611   7.823  0.3376 -0.3710  0.0523
 7228SOL    HW133143   0.569   1.552   7.851 -1.9047  2.8388  1.3485
 7228SOL    HW233144   0.702   1.585   7.888 -0.4342 -1.9129  0.1796
 7229SOL     OW33145   4.602   0.145   2.682 -0.5098  0.4412 -0.4702
 7229SOL    HW133146   4.644   0.196   2.613  0.7549 -0.2316 -0.1977
 7229SOL    HW233147   4.578   0.214   2.744 -1.7096 -0.2362 -0.1785
 7230SOL     OW33148   3.342   4.046   5.284  0.0250  0.1140  0.4477
 7230SOL    HW133149   3.410   3.982   5.262  0.1760  0.3808  0.1396
 7230SOL    HW233150   3.387   4.130   5.275 -1.6460  0.7745 -1.5998
 7231SOL     OW33151   0.855   3.283   4.494  0.2653 -0.0360 -0.6416
 7231SOL    HW133152   0.820   3.195   4.480 -1.5542  0.5506  0.1769
 7231SOL    HW233153   0.878   3.306   4.404 -0.0974 -1.0970 -1.0060
 7232SOL     OW33154   1.221   1.907   8.536 -0.5323 -0.1365  0.0168
 7232SOL    HW133155   1.285   1.967   8.575  0.8960  0.6866 -3.5831
 7232SOL    HW233156   1.178   1.966   8.474  0.0528 -0.6986 -0.9286
 7233SOL     OW33157   2.287   0.898  11.686  0.3386 -0.1963  0.1358
 7233SOL    HW133158   2.225   0.954  11.732  2.3242  1.6052  0.6256
 7233SOL    HW233159   2.284   0.943  11.602  2.8313  0.3759  0.3433
 7234SOL     OW33160   1.750   3.150   5.778 -0.3000  0.1430 -0.5022
 7234SOL    HW133161   1.679   3.192   5.827 -0.2604 -2.5214  1.8350
 7234SOL    HW233162   1.719   3.157   5.687 -2.7495  0.9676  0.3815
 7235SOL     OW33163   0.556   2.077   3.854  0.2432 -0.1237 -0.8261
 7235SOL    HW133164   0.593   2.001   3.810  2.0471  1.4387 -1.9905
 7235SOL    HW233165   0.561   2.062   3.949 -1.9237 -0.4630 -0.7599
 7236SOL     OW33166   4.700   4.370   2.138 -0.0799  0.5732 -0.1508
 7236SOL    HW133167   4.608   4.342   2.135 -0.0185  0.0618  2.2130
 7236SOL    HW233168   4.697   4.454   2.092  0.2104 -0.4472 -2.0308
 7237SOL     OW33169   4.496   0.914   4.162  0.3463 -0.0238  0.6653
 7237SOL    HW133170   4.548   0.981   4.207 -1.4688  1.1042  1.0788
 7237SOL    HW233171   4.482   0.954   4.076 -0.6784 -1.7105  0.0418
 7238SOL     OW33172   1.398   3.153   7.563 -0.2886 -0.1214  0.2373
 7238SOL    HW133173   1.398   3.182   7.654  1.5420  0.9687 -0.1144
 7238SOL    HW233174   1.493   3.165   7.560 -0.0144 -2.2045  0.4162
 7239SOL     OW33175   1.955   1.764   5.963  0.6145  0.3388 -0.6334
 7239SOL    HW133176   2.013   1.699   5.923  1.6384  0.9788 -0.1692
 7239SOL    HW233177   2.016   1.823   6.006 -2.5229  3.1868 -0.0876
 7240SOL     OW33178   2.001   2.595   4.271 -0.2129  0.0774  0.0504
 7240SOL    HW133179   1.978   2.683   4.243 -0.8672 -0.3365 -0.7123
 7240SOL    HW233180   2.081   2.592   4.219  0.5218  0.1503  1.1633
 7241SOL     OW33181   1.764   3.070   5.112  0.4127 -0.0667  0.8069
 7241SOL    HW133182   1.716   3.023   5.045  1.6072  1.8319 -1.3715
 7241SOL    HW233183   1.846   3.082   5.063 -0.2463  1.9570  0.1866
 7242SOL     OW33184   4.417   0.216   6.874 -0.2423  0.7473 -0.2200
 7242SOL    HW133185   4.406   0.122   6.865 -4.1578  1.2248 -0.4751
 7242SOL    HW233186   4.434   0.238   6.782 -1.8040  1.0995 -0.4323
 7243SOL     OW33187   1.260   3.918  15.413  0.3194 -0.3653  0.2851
 7243SOL    HW133188   1.172   3.882  15.426  0.9394 -2.0451 -0.1223
 7243SOL    HW233189   1.315   3.865  15.472 -2.0401 -1.8643  1.1527
 7244SOL     OW33190   1.783   1.157   4.295  0.7179 -0.4067  0.0370
 7244SOL    HW133191   1.749   1.068   4.306 -1.1435  0.3571  0.2985
 7244SOL    HW233192   1.772   1.187   4.385  1.7700 -0.8640  0.3215
 7245SOL     OW33193   0.752   4.076   4.785 -0.2448  0.2417 -0.0970
 7245SOL    HW133194   0.837   4.044   4.816  0.1315  1.9639  0.6553
 7245SOL    HW233195   0.709   4.104   4.866 -0.1302 -3.3331  1.2022
 7246SOL     OW33196   3.538   2.014  10.505 -0.2123  0.0740  0.6614
 7246SOL    HW133197   3.583   2.096  10.523 -0.3809  0.2896  0.0945
 7246SOL    HW233198   3.452   2.043  10.476 -0.1016  0.4846  0.7363
 7247SOL     OW33199   2.034   3.774  14.153  0.1170  0.1445 -0.5227
 7247SOL    HW133200   2.045   3.681  14.170 -0.8893  0.0779 -0.1946
 7247SOL    HW233201   1.998   3.805  14.236  0.4357  1.6958 -0.9545
 7248SOL     OW33202   3.579   4.098   7.899 -0.2724  0.0813 -0.7341
 7248SOL    HW133203   3.491   4.103   7.935  0.6235  0.6018  1.4376
 7248SOL    HW233204   3.627   4.076   7.979 -1.8057 -1.0034 -0.1294
 7249SOL     OW33205   3.072   2.549   8.455  0.8181 -0.3734 -0.4025
 7249SOL    HW133206   2.996   2.601   8.430  0.2801 -0.7608  0.4016
 7249SOL    HW233207   3.050   2.519   8.543 -0.6053  1.5199 -0.1182
 7250SOL     OW33208   4.354   2.294   4.628  0.0447 -0.0294  0.3750
 7250SOL    HW133209   4.425   2.249   4.674 -0.8317 -2.1315 -0.3038
 7250SOL    HW233210   4.286   2.227   4.629 -1.3970  1.4503  1.1437
 7251SOL     OW33211   3.631   0.049  10.380  0.6424 -0.4284 -0.3508
 7251SOL    HW133212   3.710   4.716  10.375  0.5946 -0.4126 -1.3741
 7251SOL    HW233213   3.624   0.062  10.474  0.9505 -0.3017 -0.3459
 7252SOL     OW33214   3.160   2.188   1.177  0.1190  0.3385 -0.2336
 7252SOL    HW133215   3.137   2.140   1.097  0.3352  2.0224 -1.3161
 7252SOL    HW233216   3.086   2.249   1.173 -0.3089 -0.2748 -1.7379
 7253SOL     OW33217   3.940   0.730   7.114  0.0727  0.4554 -0.1154
 7253SOL    HW133218   3.998   0.654   7.114 -1.7022 -0.9004 -2.7320
 7253SOL    HW233219   3.961   0.766   7.200  1.8248 -0.0665 -0.3215
 7254SOL     OW33220   2.804   2.558   9.392 -0.1782 -0.0212 -0.5064
 7254SOL    HW133221   2.801   2.654   9.389 -1.2129 -0.0956 -2.2062
 7254SOL    HW233222   2.899   2.547   9.383 -0.3308 -1.3267 -0.5557
 7255SOL     OW33223   1.109   4.320   3.352 -0.0189 -0.4340 -0.7582
 7255SOL    HW133224   1.191   4.353   3.389 -0.2675 -0.3227 -0.3082
 7255SOL    HW233225   1.105   4.390   3.286  1.2375 -1.6811 -2.1612
 7256SOL     OW33226   0.833   4.544  13.337 -0.3157 -0.2780  0.4005
 7256SOL    HW133227   0.764   4.600  13.302 -2.2589 -2.4341  0.6721
 7256SOL    HW233228   0.908   4.578  13.289 -1.9717 -0.4313 -2.2786
 7257SOL     OW33229   2.585   2.229   5.732  0.0331  0.6200 -0.4301
 7257SOL    HW133230   2.680   2.226   5.741 -0.0061 -0.7866 -0.3702
 7257SOL    HW233231   2.565   2.320   5.712 -2.0307  0.1435 -0.5614
 7258SOL     OW33232   1.000   1.892   1.018 -0.1646  0.5441 -0.0490
 7258SOL    HW133233   1.069   1.933   1.071  0.8715  1.1649 -1.9043
 7258SOL    HW233234   1.056   1.853   0.951  0.1255 -0.4681  0.7650
 7259SOL     OW33235   2.245   0.997  16.333  0.1797 -0.3461 -0.2636
 7259SOL    HW133236   2.299   0.924  16.303  0.6029 -0.0996 -0.0963
 7259SOL    HW233237   2.211   1.033  16.251 -2.1025 -0.3946  0.6500
 7260SOL     OW33238   4.461   0.086  11.447  0.3991  0.2504 -0.1072
 7260SOL    HW133239   4.430   0.029  11.517  0.3167 -0.6340 -0.8616
 7260SOL    HW233240   4.417   0.057  11.367 -0.1866 -0.6804  0.5454
 7261SOL     OW33241   2.866   4.255   7.488 -0.1861  0.0728 -0.0121
 7261SOL    HW133242   2.959   4.235   7.479 -0.5690 -1.9049  0.4714
 7261SOL    HW233243   2.822   4.190   7.433 -1.9338  0.4400  0.9634
 7262SOL     OW33244   3.407   2.350   3.552  0.0834 -0.4976 -0.3799
 7262SOL    HW133245   3.397   2.382   3.463  1.7495 -1.7055 -0.9910
 7262SOL    HW233246   3.501   2.338   3.566 -0.1026  2.2176  3.0736
 7263SOL     OW33247   2.817   4.646   9.228 -0.2052  0.0402 -0.2646
 7263SOL    HW133248   2.896   4.593   9.234  0.1145  0.5634  0.0988
 7263SOL    HW233249   2.774   4.623   9.310  2.0151 -0.9846  0.6001
 7264SOL     OW33250   0.556   1.812   2.080 -1.3418 -0.5045 -0.2452
 7264SOL    HW133251   0.483   1.756   2.108 -1.5118  0.3259  0.9873
 7264SOL    HW233252   0.533   1.886   2.136 -2.4777 -2.1643  1.5146
 7265SOL     OW33253   4.498   4.190  11.114 -0.0717  0.2710  0.2225
 7265SOL    HW133254   4.435   4.213  11.183  0.8144 -0.1652  1.1673
 7265SOL    HW233255   4.480   4.096  11.118  1.0838 -0.1165 -3.4080
 7266SOL     OW33256   1.988   0.769   4.403 -0.5016 -0.1621 -0.3773
 7266SOL    HW133257   1.948   0.728   4.326 -0.0554  0.5142 -0.9755
 7266SOL    HW233258   1.910   0.811   4.439  1.0047  2.8497 -0.6589
 7267SOL     OW33259   1.301   3.696   8.961 -0.4565  0.3783  0.5028
 7267SOL    HW133260   1.394   3.689   8.981 -0.1532 -1.3881 -1.4939
 7267SOL    HW233261   1.289   3.666   8.871 -0.4579 -1.0233  0.9711
 7268SOL     OW33262   0.739   3.858   9.502  0.1256  0.7806 -0.0739
 7268SOL    HW133263   0.693   3.920   9.445 -1.3720 -1.2291 -1.0566
 7268SOL    HW233264   0.669   3.829   9.559  0.4148  0.9855  0.3809
 7269SOL     OW33265   3.220   2.489   8.833 -0.1718  0.6608  0.2735
 7269SOL    HW133266   3.144   2.444   8.795  0.5694  0.2064 -0.6953
 7269SOL    HW233267   3.222   2.570   8.782 -0.1658  0.3191 -0.2796
 7270SOL     OW33268   2.255   1.514   6.378  0.2227 -0.5406 -0.1193
 7270SOL    HW133269   2.175   1.471   6.347 -0.2394  2.1774 -2.7047
 7270SOL    HW233270   2.299   1.454   6.438 -0.5453  1.3873  2.3600
 7271SOL     OW33271   3.374   0.866   2.376  0.0308  0.2362 -0.3811
 7271SOL    HW133272   3.429   0.799   2.336  0.0301  0.4674 -0.7709
 7271SOL    HW233273   3.423   0.890   2.455 -1.1466 -2.5102  1.1755
 7272SOL     OW33274   2.431   3.062   9.061  0.2852  0.7027  0.1152
 7272SOL    HW133275   2.400   3.135   9.007  0.5589  0.9137  0.2409
 7272SOL    HW233276   2.524   3.086   9.066  0.9337 -1.5649 -0.8009
 7273SOL     OW33277   2.692   2.328   9.477  0.4528  0.0400  0.6447
 7273SOL    HW133278   2.780   2.306   9.507  0.7815 -1.1143 -1.1561
 7273SOL    HW233279   2.708   2.418   9.447 -0.7581  0.4359  1.2146
 7274SOL     OW33280   4.182   0.382   1.927  0.1224  0.2997  0.0057
 7274SOL    HW133281   4.162   0.336   2.008 -2.1204  0.3136 -0.5487
 7274SOL    HW233282   4.276   0.396   1.938  0.1005  1.1492 -0.8814
 7275SOL     OW33283   2.213   1.055  10.440 -0.3324  0.4432 -1.1105
 7275SOL    HW133284   2.164   0.980  10.407  0.4350 -1.0924  1.2460
 7275SOL    HW233285   2.145   1.120  10.459 -0.0083  0.5190 -0.1911
 7276SOL     OW33286   1.206   2.593   0.617  0.3858  0.2433  0.8780
 7276SOL    HW133287   1.268   2.640   0.562 -1.8042  1.0126 -0.9552
 7276SOL    HW233288   1.133   2.578   0.557  1.7816  2.4492 -1.3616
 7277SOL     OW33289   1.524   4.230  15.356 -0.2379  0.4832 -0.6219
 7277SOL    HW133290   1.603   4.283  15.368 -0.2872  0.6103 -0.8680
 7277SOL    HW233291   1.528   4.167  15.428  1.1289  3.4687  1.9417
 7278SOL     OW33292   2.584   4.217   5.153  0.1367 -0.3076 -0.3969
 7278SOL    HW133293   2.671   4.178   5.163 -0.3657 -1.4331 -0.3845
 7278SOL    HW233294   2.609   4.302   5.188 -0.5694 -0.5702  0.7288
 7279SOL     OW33295   2.843   4.338   9.728  0.5029 -0.2294  0.4759
 7279SOL    HW133296   2.842   4.361   9.821  2.5424  3.0938 -0.3301
 7279SOL    HW233297   2.923   4.376   9.692 -0.4786  0.2305 -1.2103
 7280SOL     OW33298   2.729   3.844   9.033 -0.6999 -0.1410 -0.1348
 7280SOL    HW133299   2.787   3.851   8.957 -0.3883 -0.4303  0.0812
 7280SOL    HW233300   2.730   3.749   9.037  0.5391 -0.1403 -0.5217
 7281SOL     OW33301   3.128   0.675   8.964  0.5026 -0.2823  0.1578
 7281SOL    HW133302   3.131   0.720   9.048 -0.5781  1.0987 -0.5327
 7281SOL    HW233303   3.170   0.739   8.907  1.3287 -0.1089  0.9607
 7282SOL     OW33304   2.415   3.343   6.872 -0.9109 -0.3012 -0.1979
 7282SOL    HW133305   2.498   3.333   6.824  0.7726  0.8075  2.5082
 7282SOL    HW233306   2.432   3.415   6.933 -2.2688  0.1375 -0.3389
 7283SOL     OW33307   2.557   1.148   4.537  0.0867  0.3462  0.2835
 7283SOL    HW133308   2.576   1.238   4.509  1.3691 -0.0256 -0.0414
 7283SOL    HW233309   2.529   1.166   4.626  3.1252  1.1562  1.0866
 7284SOL     OW33310   3.300   0.963   8.219 -0.4946 -0.1960  0.4995
 7284SOL    HW133311   3.250   0.886   8.191 -1.9633  0.5411  1.0750
 7284SOL    HW233312   3.339   0.988   8.135 -0.0326  0.5471  0.9444
 7285SOL     OW33313   2.419   0.031   3.063  0.2789 -0.0616 -0.7859
 7285SOL    HW133314   2.356   0.037   2.991 -2.2606 -0.3930  1.4161
 7285SOL    HW233315   2.506   0.022   3.025  0.3273 -2.5415 -0.0707
 7286SOL     OW33316   3.862   4.461  16.140 -0.3740  0.3448 -0.1882
 7286SOL    HW133317   3.823   4.494  16.059  0.6511  3.1095  0.4788
 7286SOL    HW233318   3.861   4.535  16.200  2.5378  1.2493 -1.2638
 7287SOL     OW33319   1.293   0.441   3.867  0.1630 -0.4009  0.1837
 7287SOL    HW133320   1.376   0.452   3.913 -0.8419  2.9648  1.1973
 7287SOL    HW233321   1.253   0.523   3.896  2.0151  0.7019 -0.3962
 7288SOL     OW33322   4.134   1.586   7.045  0.2839 -0.5781  0.1035
 7288SOL    HW133323   4.157   1.661   7.101 -0.5606 -0.1114 -0.1691
 7288SOL    HW233324   4.043   1.593   7.075 -0.0800  0.2397 -1.2166
 7289SOL     OW33325   3.400   2.775   9.145  0.0010 -0.4868 -0.3932
 7289SOL    HW133326   3.480   2.813   9.108  0.1219  1.0482  1.4516
 7289SOL    HW233327   3.334   2.826   9.098 -1.8891 -2.3465  0.2917
 7290SOL     OW33328   1.550   1.554   6.479 -0.6872  0.2390 -0.3404
 7290SOL    HW133329   1.592   1.476   6.442 -0.4139 -0.8619  2.3026
 7290SOL    HW233330   1.576   1.619   6.414  0.5749 -0.4247 -0.5079
 7291SOL     OW33331   3.215   0.530   9.576 -0.4924 -0.1749  0.4439
 7291SOL    HW133332   3.223   0.502   9.668 -0.6550  3.7163  1.6280
 7291SOL    HW233333   3.225   0.621   9.603 -0.3592 -0.1683  0.3725
 7292SOL     OW33334   3.675   4.114   4.898  0.1135 -0.5333  0.2159
 7292SOL    HW133335   3.652   4.203   4.924 -2.7610 -0.9365 -0.9194
 7292SOL    HW233336   3.769   4.120   4.883 -0.2399  1.1261 -1.3194
 7293SOL     OW33337   4.321   4.464  10.496 -0.2182 -0.1542  0.0404
 7293SOL    HW133338   4.250   4.514  10.457 -1.5719  0.7520  3.6652
 7293SOL    HW233339   4.331   4.405  10.421 -1.3972 -0.4266  0.1035
 7294SOL     OW33340   3.912   3.678   5.406 -0.8913 -0.0917  0.2444
 7294SOL    HW133341   3.887   3.611   5.343 -1.3681  0.2411  0.0837
 7294SOL    HW233342   3.906   3.637   5.492 -0.9410 -3.1260 -1.1943
 7295SOL     OW33343   3.625   0.668   6.379  0.1688  0.0299 -0.1261
 7295SOL    HW133344   3.576   0.734   6.329 -0.4822  1.1239  1.9382
 7295SOL    HW233345   3.571   0.653   6.457 -2.0063  1.0305 -1.4282
 7296SOL     OW33346   2.724   0.617   8.148 -0.0648  0.0856  0.9716
 7296SOL    HW133347   2.798   0.621   8.088 -2.7401  1.7452 -2.2074
 7296SOL    HW233348   2.719   0.527   8.180  2.0565  0.5163  2.5272
 7297SOL     OW33349   2.456   4.398  12.905  0.2145 -0.4917  0.4680
 7297SOL    HW133350   2.524   4.389  12.972  2.8124 -2.0193 -2.3477
 7297SOL    HW233351   2.391   4.447  12.955 -0.0899 -0.9969  0.5716
 7298SOL     OW33352   0.873   2.222   4.757  0.2620 -0.1960 -0.0945
 7298SOL    HW133353   0.967   2.209   4.771  0.2835 -1.0224 -0.9785
 7298SOL    HW233354   0.862   2.166   4.680 -2.1843 -1.3585  1.0592
 7299SOL     OW33355   3.193   1.873  10.297  0.7817  0.3006  0.5728
 7299SOL    HW133356   3.234   1.960  10.296 -3.5124  2.3022  1.2977
 7299SOL    HW233357   3.104   1.891  10.326  0.9673 -0.7645  1.7785
 7300SOL     OW33358   1.729   0.986  15.511 -0.1282  0.0985  0.2234
 7300SOL    HW133359   1.728   1.078  15.482 -0.2508 -0.0719 -0.3249
 7300SOL    HW233360   1.672   0.990  15.588 -1.3301 -0.6461 -0.6308
 7301SOL     OW33361   2.328   3.270   3.142 -0.3576  0.1657 -0.2590
 7301SOL    HW133362   2.313   3.362   3.120  0.9763  0.5984  0.6555
 7301SOL    HW233363   2.363   3.283   3.231  0.0848  2.1718 -0.7358
 7302SOL     OW33364   4.472   1.311  14.202 -0.0197 -1.0019  0.3571
 7302SOL    HW133365   4.466   1.287  14.295  0.4838 -1.1246  0.3566
 7302SOL    HW233366   4.457   1.404  14.217  1.1595 -0.4437 -1.9565
 7303SOL     OW33367   4.213   3.677   0.575 -0.1860  0.4097  0.6683
 7303SOL    HW133368   4.295   3.682   0.526  0.0754 -1.5990  0.8973
 7303SOL    HW233369   4.239   3.724   0.654 -2.1074  0.4240  1.2812
 7304SOL     OW33370   0.709   1.759   8.694 -0.4686 -1.0854 -0.0669
 7304SOL    HW133371   0.617   1.780   8.678 -0.0257  0.8518  0.0300
 7304SOL    HW233372   0.706   1.673   8.652 -0.0453 -0.8763 -0.5231
 7305SOL     OW33373   4.272   1.284   8.333  0.5324  0.2259 -0.1185
 7305SOL    HW133374   4.230   1.200   8.352 -1.1850  1.4354  1.3187
 7305SOL    HW233375   4.318   1.295   8.416  0.1645 -1.5508  0.3214
 7306SOL     OW33376   2.759   3.075   1.707  0.3391 -0.2518 -0.7165
 7306SOL    HW133377   2.708   2.997   1.729 -1.0507  1.1780  1.1743
 7306SOL    HW233378   2.828   3.074   1.773 -1.3773 -0.2913  1.0849
 7307SOL     OW33379   2.745   4.271   2.342 -0.0943 -0.9598 -0.4035
 7307SOL    HW133380   2.803   4.213   2.392  0.2290  0.1771  0.5472
 7307SOL    HW233381   2.748   4.219   2.262 -0.5893 -0.4568 -0.7467
 7308SOL     OW33382   2.438   1.187   1.789 -0.5812 -0.0590  0.2218
 7308SOL    HW133383   2.424   1.239   1.868  2.9262  0.1188  0.7060
 7308SOL    HW233384   2.441   1.098   1.822 -1.4901  0.1451  0.8711
 7309SOL     OW33385   3.596   0.034   5.284 -0.6924 -0.6844  0.6791
 7309SOL    HW133386   3.626   0.050   5.374 -0.6177 -1.2869  0.7658
 7309SOL    HW233387   3.682   0.024   5.243 -0.1062  2.8017  1.0554
 7310SOL     OW33388   1.634   3.038   5.361 -0.4050  0.0120 -0.3201
 7310SOL    HW133389   1.676   2.952   5.366 -2.1564 -0.8777 -1.0295
 7310SOL    HW233390   1.670   3.073   5.280  0.6374 -1.5153 -0.5307
 7311SOL     OW33391   1.061   2.435   5.120 -0.3594  0.6205  0.5209
 7311SOL    HW133392   0.971   2.433   5.155  0.3191 -1.8719  2.0651
 7311SOL    HW233393   1.100   2.509   5.167  3.2322 -1.2480  0.4736
 7312SOL     OW33394   0.212   1.275   8.098  0.0119  0.0454 -0.2436
 7312SOL    HW133395   0.301   1.251   8.069 -0.5205 -1.5735 -0.5331
 7312SOL    HW233396   0.196   1.221   8.175 -0.2979 -1.5121 -1.3729
 7313SOL     OW33397   2.465   1.995   8.107  0.1523 -0.5174  0.0123
 7313SOL    HW133398   2.488   1.946   8.028  0.6904 -0.6650  0.2656
 7313SOL    HW233399   2.382   2.040   8.090  0.2754 -0.9576 -1.7405
 7314SOL     OW33400   4.460   4.642  13.770 -0.2159  0.4396  0.7923
 7314SOL    HW133401   4.435   0.001  13.721 -0.5772  0.2859  0.7306
 7314SOL    HW233402   4.551   4.617  13.754 -0.8375 -0.7158 -0.9865
 7315SOL     OW33403   0.249   4.205   3.180 -0.1087 -0.3259 -0.0003
 7315SOL    HW133404   0.292   4.205   3.095  1.3410 -0.8237  0.7217
 7315SOL    HW233405   0.207   4.291   3.180  1.3483  0.3697  0.0934
 7316SOL     OW33406   0.238   1.262   6.627 -0.4728 -0.2368  0.6386
 7316SOL    HW133407   0.185   1.184   6.637  0.5092 -0.6456  2.4980
 7316SOL    HW233408   0.253   1.285   6.718 -0.4868 -0.5734  0.7230
 7317SOL     OW33409   2.953   0.115   1.117  0.5187 -0.0243  0.1766
 7317SOL    HW133410   2.911   0.143   1.036  1.5331 -0.7459 -0.6015
 7317SOL    HW233411   3.034   0.079   1.082 -0.3795  1.2895 -3.2026
 7318SOL     OW33412   1.961   2.234   5.922 -0.2548 -0.0490 -0.3080
 7318SOL    HW133413   1.976   2.215   5.830  1.8087 -0.3794  0.1036
 7318SOL    HW233414   1.869   2.258   5.931 -0.0019  0.7510  0.1314
 7319SOL     OW33415   2.137   1.670   2.743  0.0069 -0.0166 -0.3810
 7319SOL    HW133416   2.046   1.687   2.767  0.0362 -1.2798  0.6542
 7319SOL    HW233417   2.176   1.745   2.789  0.5223  0.2598 -1.2723
 7320SOL     OW33418   4.146   0.646   0.793 -0.1979 -0.2356 -0.5786
 7320SOL    HW133419   4.061   0.689   0.781 -0.4414 -0.3608  0.6490
 7320SOL    HW233420   4.184   0.654   0.706 -0.3402 -0.0521 -0.6235
 7321SOL     OW33421   2.681   2.350   2.933  0.0427  0.0171  0.0882
 7321SOL    HW133422   2.670   2.326   2.841  1.3318 -1.8291  0.4372
 7321SOL    HW233423   2.773   2.374   2.933  0.0100  0.1551  0.7998
 7322SOL     OW33424   1.335   0.871   9.845 -0.4002  0.0233  0.5999
 7322SOL    HW133425   1.414   0.900   9.890 -0.4091  0.2335  0.4826
 7322SOL    HW233426   1.318   0.787   9.887  0.0555 -0.0379  0.6522
 7323SOL     OW33427   2.819   3.576   4.514  0.4952 -0.1263 -0.2645
 7323SOL    HW133428   2.747   3.553   4.574 -1.0007 -0.1551 -2.0636
 7323SOL    HW233429   2.807   3.668   4.492  2.9438  0.7764  2.1892
 7324SOL     OW33430   2.183   1.899   6.052 -0.0854 -0.4949 -0.0046
 7324SOL    HW133431   2.275   1.922   6.045 -0.4197  0.7575 -0.2374
 7324SOL    HW233432   2.195   1.864   6.140 -1.0185 -0.5064  0.1185
 7325SOL     OW33433   1.816   3.613   5.451  0.0712 -0.5221  0.0532
 7325SOL    HW133434   1.839   3.610   5.544 -1.8990  1.1957  0.5853
 7325SOL    HW233435   1.723   3.591   5.447  0.3313 -1.8950  1.4327
 7326SOL     OW33436   2.405   2.330   6.631  0.3003 -0.1409 -0.2149
 7326SOL    HW133437   2.454   2.362   6.707 -2.7537  3.8829  0.0786
 7326SOL    HW233438   2.326   2.295   6.671  0.0774 -0.0953 -0.6170
 7327SOL     OW33439   3.613   1.556   7.696 -0.2473  0.1125 -0.3104
 7327SOL    HW133440   3.705   1.572   7.675  0.0969  0.2856  1.3625
 7327SOL    HW233441   3.618   1.575   7.790  2.9115 -2.5578  0.0555
 7328SOL     OW33442   0.652   2.846  17.053  0.6307  0.6420 -0.3822
 7328SOL    HW133443   0.661   2.760  17.013 -1.6181  0.3369 -0.2274
 7328SOL    HW233444   0.713   2.906  17.009  0.5965  0.5015 -0.6241
 7329SOL     OW33445   1.007   3.038  13.539  0.5578  0.1298 -0.7817
 7329SOL    HW133446   1.032   3.037  13.447  2.5105 -1.0086 -0.2514
 7329SOL    HW233447   0.920   2.999  13.543  0.8381 -0.3431  1.0683
 7330SOL     OW33448   3.373   2.479   7.010 -0.0208  0.3424  0.5337
 7330SOL    HW133449   3.411   2.549   7.063  2.4552  0.4727 -1.3904
 7330SOL    HW233450   3.383   2.402   7.066 -0.7025  0.9264  1.4446
 7331SOL     OW33451   4.717   0.992  14.184  0.3053 -0.7700 -0.3390
 7331SOL    HW133452   4.693   1.037  14.265 -1.1783 -0.1520 -1.1164
 7331SOL    HW233453   4.631   0.949  14.175 -0.1800  0.6416 -2.2744
 7332SOL     OW33454   0.621   1.794   8.146  0.5166  0.1523  0.1294
 7332SOL    HW133455   0.610   1.703   8.117 -0.7535  0.8461 -1.5487
 7332SOL    HW233456   0.566   1.785   8.224  0.4034  1.1809  0.1725
 7333SOL     OW33457   4.410   1.615   0.123 -0.0536  0.3345  0.0235
 7333SOL    HW133458   4.450   1.699   0.147  0.9815  0.3344 -1.6973
 7333SOL    HW233459   4.392   1.569   0.205 -1.3954 -1.6907 -1.4195
 7334SOL     OW33460   1.566   1.350   0.807 -0.5154  0.2249 -0.1970
 7334SOL    HW133461   1.535   1.419   0.748 -0.0231 -0.0856 -0.8145
 7334SOL    HW233462   1.597   1.278   0.753 -0.2616 -0.6631  1.1283
 7335SOL     OW33463   0.651   0.702   4.455 -0.1623  0.0898 -0.6757
 7335SOL    HW133464   0.695   0.722   4.538 -0.3292 -1.2995 -0.2399
 7335SOL    HW233465   0.660   0.607   4.464  1.6023  0.4569  1.3222
 7336SOL     OW33466   2.968   0.746  11.758 -0.2252 -0.6810  0.2446
 7336SOL    HW133467   3.050   0.761  11.711 -0.7679 -1.1423 -0.8382
 7336SOL    HW233468   2.923   0.713  11.680 -0.8601  0.0280  0.3093
 7337SOL     OW33469   3.377   1.226   5.597  0.2296  0.4763 -0.0393
 7337SOL    HW133470   3.405   1.312   5.629 -1.7506  0.8418  0.7089
 7337SOL    HW233471   3.412   1.235   5.508  0.4423  0.0028 -0.0009
 7338SOL     OW33472   3.157   1.373   3.991  0.6448 -0.1580 -0.2454
 7338SOL    HW133473   3.186   1.461   3.968  0.2768  0.7133  2.5509
 7338SOL    HW233474   3.109   1.336   3.917 -0.1409  1.5460 -0.5913
 7339SOL     OW33475   0.187   0.205   7.854  0.2728 -0.2512 -0.3059
 7339SOL    HW133476   0.113   0.144   7.844  0.1688 -0.0774 -0.6202
 7339SOL    HW233477   0.146   0.283   7.892 -0.1266 -1.1205  1.0369
 7340SOL     OW33478   3.945   2.053  12.663  0.1690  0.2196  0.1551
 7340SOL    HW133479   3.974   2.080  12.577 -0.4889 -1.7665 -0.6992
 7340SOL    HW233480   3.849   2.054  12.660  0.1334  0.0017  1.1779
 7341SOL     OW33481   2.996   3.199   4.341  0.4284  0.1740 -0.0450
 7341SOL    HW133482   3.018   3.153   4.422  2.7929  0.5764 -0.4684
 7341SOL    HW233483   2.987   3.121   4.286 -0.2918 -0.7099  1.3225
 7342SOL     OW33484   2.611   2.205  15.335  0.1596 -0.2458  0.0766
 7342SOL    HW133485   2.520   2.197  15.364  0.3221 -0.2735  0.5715
 7342SOL    HW233486   2.597   2.178  15.244 -1.3971  0.3205  0.1454
 7343SOL     OW33487   2.621   0.453   6.391  0.1574 -0.0672 -0.3738
 7343SOL    HW133488   2.585   0.416   6.471 -0.9107  2.0516  0.1284
 7343SOL    HW233489   2.714   0.446   6.413  0.7457  1.0389 -2.4558
 7344SOL     OW33490   4.433   1.053  12.983 -0.5670  0.1196  0.4349
 7344SOL    HW133491   4.367   0.984  12.978  0.6479 -0.9903 -0.2889
 7344SOL    HW233492   4.433   1.088  12.895 -0.1835  0.5424  0.6033
 7345SOL     OW33493   2.881   4.052   6.288 -0.7829  0.5213 -0.4121
 7345SOL    HW133494   2.927   4.102   6.220  2.1268  0.5888  1.5926
 7345SOL    HW233495   2.802   4.105   6.297 -0.6197  0.9035 -1.2585
 7346SOL     OW33496   3.665   2.580   7.910  0.5159 -0.0232 -0.2011
 7346SOL    HW133497   3.631   2.658   7.953 -1.0400  0.0946 -1.6154
 7346SOL    HW233498   3.654   2.520   7.984 -0.2367 -0.6837 -0.8426
 7347SOL     OW33499   2.612   2.528   6.208  0.2946  0.4423  0.4001
 7347SOL    HW133500   2.569   2.555   6.289  1.3266  3.1036  0.0544
 7347SOL    HW233501   2.599   2.610   6.159 -1.9643 -0.2241 -0.1243
 7348SOL     OW33502   2.798   0.378   2.466 -0.2917 -1.0498 -0.1814
 7348SOL    HW133503   2.870   0.440   2.451 -0.9630 -0.6086 -1.5754
 7348SOL    HW233504   2.778   0.356   2.375  2.5566 -0.5910 -0.9168
 7349SOL     OW33505   1.247   0.354  12.188 -0.4039  0.3382  0.1529
 7349SOL    HW133506   1.272   0.426  12.246 -2.4328  2.0469 -1.0970
 7349SOL    HW233507   1.168   0.318  12.229  0.5079 -1.4832  0.3123
 7350SOL     OW33508   3.469   3.789  10.480 -0.1853 -0.2934  0.0885
 7350SOL    HW133509   3.428   3.830  10.556  1.3821 -0.3656  0.9905
 7350SOL    HW233510   3.395   3.791  10.420  0.6760 -0.3019 -0.9730
 7351SOL     OW33511   1.184   3.916   4.094 -0.2750  0.4292 -0.6396
 7351SOL    HW133512   1.178   3.868   4.176 -0.3608  0.8860 -0.3754
 7351SOL    HW233513   1.247   3.978   4.132 -1.0852  1.6424 -1.2627
 7352SOL     OW33514   4.299   0.828  11.603 -0.2650  0.2051  0.0532
 7352SOL    HW133515   4.392   0.803  11.597 -0.7324 -1.7402  0.9955
 7352SOL    HW233516   4.305   0.912  11.556 -0.7969  0.6242  0.7377
 7353SOL     OW33517   0.143   4.218  17.358 -0.3694 -0.0890 -0.1117
 7353SOL    HW133518   0.118   4.310  17.353 -2.4641 -0.6754 -0.5607
 7353SOL    HW233519   0.220   4.221  17.302 -0.9531  0.9121 -0.8529
 7354SOL     OW33520   2.526   3.985  11.400  0.2150  0.5209  0.1366
 7354SOL    HW133521   2.530   4.079  11.416  1.3198  0.7079 -1.2745
 7354SOL    HW233522   2.432   3.969  11.392  0.5795 -0.0320 -3.0254
 7355SOL     OW33523   3.536   4.402   0.454  0.6159  0.2413 -0.2958
 7355SOL    HW133524   3.614   4.359   0.421  1.3037  1.7553 -0.6415
 7355SOL    HW233525   3.518   4.340   0.525 -1.1155  0.9493 -0.1164
 7356SOL     OW33526   4.529   2.421   6.591 -0.4315 -0.1438  0.3331
 7356SOL    HW133527   4.614   2.456   6.618 -1.0857  1.7317 -0.0807
 7356SOL    HW233528   4.544   2.327   6.599 -2.3393 -0.5667 -1.0479
 7357SOL     OW33529   3.438   3.634  13.060 -0.4253  0.1390 -0.2971
 7357SOL    HW133530   3.525   3.673  13.058 -0.4237  0.1844  0.9230
 7357SOL    HW233531   3.465   3.542  13.062  2.2983  0.9251 -0.7434
 7358SOL     OW33532   1.016   0.152   6.945  0.1726 -0.0712 -0.3211
 7358SOL    HW133533   1.100   0.199   6.942  0.9269 -1.4669 -1.4051
 7358SOL    HW233534   0.974   0.203   6.876 -0.1061  0.0067 -0.0887
 7359SOL     OW33535   1.440   3.224  16.056  0.5946  0.5942  0.4105
 7359SOL    HW133536   1.501   3.152  16.043  0.3371  0.5346 -0.4934
 7359SOL    HW233537   1.459   3.249  16.147  0.6010 -1.1777  0.8992
 7360SOL     OW33538   2.276   1.258  13.034  0.2030  0.1222  0.2082
 7360SOL    HW133539   2.300   1.180  12.984 -2.0811 -1.1538  1.0911
 7360SOL    HW233540   2.331   1.324  12.993  2.1887 -1.4169  0.3819
 7361SOL     OW33541   1.737   3.501  15.954 -1.0614 -0.3000 -0.0844
 7361SOL    HW133542   1.747   3.502  16.049 -0.4406 -2.3163 -0.1145
 7361SOL    HW233543   1.787   3.420  15.940 -0.5142  0.4245 -2.2514
 7362SOL     OW33544   4.370   1.748   8.563  0.2873 -0.4191  0.6097
 7362SOL    HW133545   4.404   1.707   8.642 -1.1433  1.2712  2.1064
 7362SOL    HW233546   4.359   1.837   8.597  1.3700  0.1350 -0.5076
 7363SOL     OW33547   2.850   3.498  15.010 -0.4820 -0.4354  0.2485
 7363SOL    HW133548   2.840   3.406  15.034 -1.0524 -1.0450 -2.3991
 7363SOL    HW233549   2.842   3.540  15.096 -0.9511  0.1455 -0.0726
 7364SOL     OW33550   0.252   3.104   2.774  0.5432  0.1225  0.1490
 7364SOL    HW133551   0.167   3.138   2.806 -0.0791  0.2464 -1.6486
 7364SOL    HW233552   0.269   3.172   2.709 -2.2421  0.8295  0.1201
 7365SOL     OW33553   3.680   1.900   8.236  0.5787 -0.1226 -0.4205
 7365SOL    HW133554   3.625   1.976   8.217  1.8647  1.0374  0.4471
 7365SOL    HW233555   3.625   1.862   8.305  1.1362  1.0013  0.6517
 7366SOL     OW33556   4.227   2.722   6.965 -0.0879 -0.3302 -0.3013
 7366SOL    HW133557   4.155   2.781   6.943  1.1909  1.2588 -0.2197
 7366SOL    HW233558   4.296   2.784   6.988 -0.2538 -0.8150  1.5538
 7367SOL     OW33559   4.199   2.487   8.308  0.8161 -1.2604 -0.5270
 7367SOL    HW133560   4.229   2.518   8.223 -2.5498  0.6715 -1.0188
 7367SOL    HW233561   4.139   2.418   8.278  2.4451 -3.1347  0.5275
 7368SOL     OW33562   1.201   0.814  17.413  0.3773  0.0138 -0.3544
 7368SOL    HW133563   1.251   0.743  17.454  1.6197 -0.0229 -1.8819
 7368SOL    HW233564   1.114   0.774  17.408  0.6740 -0.5450 -1.1528
 7369SOL     OW33565   0.202   0.943  15.366  0.0460 -0.4204  0.6675
 7369SOL    HW133566   0.239   1.030  15.379  2.7669 -1.6347  1.1742
 7369SOL    HW233567   0.204   0.911  15.456 -2.5930  1.9968  1.5684
 7370SOL     OW33568   3.037   3.692  15.888  0.8081 -1.3044 -0.0063
 7370SOL    HW133569   2.973   3.631  15.849 -0.1360 -0.5499  0.3523
 7370SOL    HW233570   3.104   3.689  15.820 -0.0069  0.8839 -0.8817
 7371SOL     OW33571   2.884   0.352   9.631 -0.0530 -0.1425 -0.6150
 7371SOL    HW133572   2.894   0.296   9.707  3.3609  0.0871 -0.8906
 7371SOL    HW233573   2.830   0.422   9.667  0.5361 -0.6511  1.2676
 7372SOL     OW33574   1.660   2.984   4.875  0.3033 -0.0969  0.1571
 7372SOL    HW133575   1.651   2.908   4.818 -0.1169 -2.2660  3.1847
 7372SOL    HW233576   1.578   2.980   4.925  0.3419  2.5249  0.4243
 7373SOL     OW33577   1.180   4.279  16.323  0.3000 -0.4311 -0.7437
 7373SOL    HW133578   1.265   4.291  16.364 -0.2345  1.0273 -0.0475
 7373SOL    HW233579   1.158   4.202  16.377 -0.2425  1.2864  1.4929
 7374SOL     OW33580   2.499   1.488   8.454  0.3408  0.7330  0.0511
 7374SOL    HW133581   2.446   1.560   8.419 -0.4707 -0.1685 -0.5571
 7374SOL    HW233582   2.476   1.482   8.547 -2.3308 -1.0436 -0.7262
 7375SOL     OW33583   0.697   1.467  12.301 -0.2829 -0.0440 -0.3065
 7375SOL    HW133584   0.706   1.560  12.284 -1.1034 -0.4701 -3.0366
 7375SOL    HW233585   0.773   1.427  12.257 -0.4426 -0.4372 -0.2291
 7376SOL     OW33586   1.214   3.140   4.027  0.1904  0.4901  0.1589
 7376SOL    HW133587   1.254   3.214   3.981 -0.1694  1.3665  1.2407
 7376SOL    HW233588   1.231   3.074   3.961 -2.5693 -0.6063  0.5693
 7377SOL     OW33589   4.146   0.344   8.154  0.1780 -0.1851 -0.2666
 7377SOL    HW133590   4.184   0.426   8.184 -0.0245 -0.1271 -0.1686
 7377SOL    HW233591   4.093   0.310   8.227 -0.6600  1.6815 -0.0177
 7378SOL     OW33592   0.864   0.382   8.006 -0.3609 -0.0093 -0.3928
 7378SOL    HW133593   0.846   0.451   7.943  0.8327 -0.5336 -1.3060
 7378SOL    HW233594   0.778   0.346   8.029 -0.3099  1.1947  1.7397
 7379SOL     OW33595   3.268   0.432   7.957  0.0710  0.1104  0.7496
 7379SOL    HW133596   3.177   0.407   7.975  0.4185 -0.1535  2.1645
 7379SOL    HW233597   3.309   0.360   8.005 -0.7590 -1.0351 -0.2598
 7380SOL     OW33598   4.355   3.233   4.995  0.7793  0.4461 -0.4077
 7380SOL    HW133599   4.351   3.248   5.089  1.3674  1.3061 -0.5093
 7380SOL    HW233600   4.446   3.203   4.990  1.4472  2.1690  1.1966
 7381SOL     OW33601   2.660   0.892   7.716  0.2676 -0.1928  0.5014
 7381SOL    HW133602   2.740   0.858   7.754  0.2184  1.1440  1.7804
 7381SOL    HW233603   2.594   0.826   7.742 -0.7306  0.3878 -0.5466
 7382SOL     OW33604   3.976   0.907   4.099 -0.4029 -0.4422  0.9083
 7382SOL    HW133605   4.040   0.840   4.125  1.6812  1.4886  0.8047
 7382SOL    HW233606   3.966   0.973   4.168  0.0151  0.5759 -0.0064
 7383SOL     OW33607   3.207   2.475   6.170  0.0916 -0.1071 -0.3025
 7383SOL    HW133608   3.195   2.543   6.103 -0.3832 -0.5068 -0.6303
 7383SOL    HW233609   3.201   2.539   6.241  0.2215 -1.1226  0.6172
 7384SOL     OW33610   0.261   0.814   8.034 -0.9006 -0.0594  0.1664
 7384SOL    HW133611   0.214   0.746   7.986 -2.0484 -0.5255  1.9298
 7384SOL    HW233612   0.235   0.900   8.002 -1.8872 -0.5447 -0.3433
 7385SOL     OW33613   1.770   2.567   6.185 -0.8556 -0.1217  0.0476
 7385SOL    HW133614   1.787   2.475   6.207  0.9119  0.5466  1.4753
 7385SOL    HW233615   1.768   2.564   6.090 -1.2561 -3.5526  0.1698
 7386SOL     OW33616   2.538   1.397  11.947 -0.2891 -0.5167  0.7391
 7386SOL    HW133617   2.534   1.315  11.897 -0.1753 -0.2309  0.2641
 7386SOL    HW233618   2.621   1.379  11.992  0.0305 -0.9607 -0.0312
 7387SOL     OW33619   3.651   4.084  14.687  0.6004 -0.6798 -0.1247
 7387SOL    HW133620   3.607   4.044  14.612 -0.5055  1.2101 -0.4807
 7387SOL    HW233621   3.712   4.011  14.700  0.9761 -0.8466 -2.7780
 7388SOL     OW33622   1.481   1.491   7.053  0.1941  0.3006  0.0884
 7388SOL    HW133623   1.427   1.432   6.999 -1.6330  0.8962  1.2595
 7388SOL    HW233624   1.554   1.524   7.002 -1.1809  0.5361 -1.7578
 7389SOL     OW33625   2.289   2.184   5.598  0.0703  0.0157 -0.6523
 7389SOL    HW133626   2.195   2.203   5.607 -0.0869 -1.0284 -0.0481
 7389SOL    HW233627   2.315   2.211   5.687 -1.0983  0.4270 -0.4330
 7390SOL     OW33628   2.528   3.642  15.287  0.0374  0.2226  0.6635
 7390SOL    HW133629   2.440   3.665  15.258  0.3004 -1.8760 -1.7347
 7390SOL    HW233630   2.526   3.680  15.375 -0.0072  0.1779  0.6816
 7391SOL     OW33631   0.589   3.178   8.173 -0.0855 -0.1408  0.2388
 7391SOL    HW133632   0.568   3.271   8.181  1.3767  0.2034 -0.0273
 7391SOL    HW233633   0.661   3.166   8.234  0.9665 -0.4775 -1.0738
 7392SOL     OW33634   2.855   0.788   9.315 -0.6582  0.0551  0.1319
 7392SOL    HW133635   2.867   0.696   9.290 -1.1262 -0.4011  1.6052
 7392SOL    HW233636   2.806   0.763   9.393 -1.0618  0.4259 -0.0007
 7393SOL     OW33637   2.487   4.377   6.578 -0.6341 -0.2344  0.8155
 7393SOL    HW133638   2.516   4.304   6.523 -0.5983  0.1462  0.3300
 7393SOL    HW233639   2.568   4.408   6.619 -2.1253  0.2148  3.3676
 7394SOL     OW33640   1.018   2.964   4.727  0.0821 -0.1811  0.0170
 7394SOL    HW133641   1.052   2.938   4.641 -0.3960 -1.5263  0.2496
 7394SOL    HW233642   1.043   3.057   4.721 -1.3113  0.0654 -2.1698
 7395SOL     OW33643   1.533   3.968   5.318 -0.2720  0.6908  0.1734
 7395SOL    HW133644   1.513   3.881   5.285 -0.2194  0.9497 -0.5481
 7395SOL    HW233645   1.501   3.956   5.407  0.7198  0.1185  0.4370
 7396SOL     OW33646   3.458   2.427  17.039  0.9308  0.2082 -0.3971
 7396SOL    HW133647   3.418   2.508  17.070 -1.0978 -0.3412 -1.5756
 7396SOL    HW233648   3.536   2.420  17.094 -0.6555  0.3833  1.8561
 7397SOL     OW33649   1.552   1.059   5.247 -0.5471  0.2181 -0.3991
 7397SOL    HW133650   1.489   0.988   5.257 -0.2921  0.3795  2.3333
 7397SOL    HW233651   1.626   1.032   5.301 -1.5754  0.2235  1.0186
 7398SOL     OW33652   1.395   1.447  13.003  0.2213 -0.0370 -0.4522
 7398SOL    HW133653   1.309   1.488  13.010  0.8013  0.9066  1.0021
 7398SOL    HW233654   1.376   1.353  12.999 -0.0626 -0.0500  1.2005
 7399SOL     OW33655   1.127   3.367   3.408  0.5085 -0.0438  0.4936
 7399SOL    HW133656   1.081   3.315   3.342  1.0533 -0.5069  0.4766
 7399SOL    HW233657   1.217   3.336   3.394 -0.2577 -1.3291 -1.5391
 7400SOL     OW33658   2.952   1.041   5.782  0.3888  0.2094 -0.0061
 7400SOL    HW133659   2.923   1.112   5.725 -2.6753 -0.3753  0.8654
 7400SOL    HW233660   3.025   1.079   5.832  0.3265 -1.2081  1.1418
 7401SOL     OW33661   3.457   1.148   7.209  0.2332 -0.2701  0.5681
 7401SOL    HW133662   3.523   1.080   7.195  0.9672  0.2211  1.5829
 7401SOL    HW233663   3.514   1.224   7.225 -0.3507  0.0392  1.1491
 7402SOL     OW33664   2.890   0.482  17.404  0.3688  0.2559  0.0996
 7402SOL    HW133665   2.921   0.478  17.314 -1.3278 -0.1044 -0.4643
 7402SOL    HW233666   2.796   0.474  17.389  0.1127  2.0682  0.7773
 7403SOL     OW33667   0.670   0.964   4.270 -0.2956 -0.5081 -0.0755
 7403SOL    HW133668   0.609   0.891   4.255  0.9113 -0.5364 -4.9259
 7403SOL    HW233669   0.747   0.918   4.305  0.1139  0.0755 -0.2189
 7404SOL     OW33670   0.563   3.915   3.983 -0.0714  0.5217 -0.3238
 7404SOL    HW133671   0.516   3.894   3.902 -1.4262  0.5577  0.4557
 7404SOL    HW233672   0.654   3.900   3.957  0.1981  2.7551 -0.6495
 7405SOL     OW33673   3.328   1.244   9.444 -0.3065 -0.2212 -0.0303
 7405SOL    HW133674   3.293   1.286   9.522 -0.6268  0.6935 -0.6726
 7405SOL    HW233675   3.415   1.284   9.448 -0.2826 -0.5627  2.3840
 7406SOL     OW33676   2.785   0.441  12.179  0.3014 -0.0470 -0.6327
 7406SOL    HW133677   2.828   0.357  12.194 -1.4034 -1.0050 -1.1747
 7406SOL    HW233678   2.692   0.420  12.187  0.2147  0.0085 -1.4910
 7407SOL     OW33679   1.948   2.075   6.142 -0.1804  0.0145  0.2229
 7407SOL    HW133680   1.957   2.121   6.059  1.9262 -2.2500 -0.8196
 7407SOL    HW233681   2.040   2.048   6.151 -0.2405 -0.6563 -1.1899
 7408SOL     OW33682   0.643   4.056   8.672  0.7546 -0.0344 -0.0919
 7408SOL    HW133683   0.596   3.974   8.654  0.0632  0.8608 -2.3830
 7408SOL    HW233684   0.733   4.034   8.648  1.1807  0.1802  1.3132
 7409SOL     OW33685   1.572   1.245  16.446 -0.0318 -0.0681 -0.3538
 7409SOL    HW133686   1.485   1.285  16.444  0.2391  0.4991 -0.9764
 7409SOL    HW233687   1.539   1.156  16.456 -0.1255 -0.0610 -0.6023
 7410SOL     OW33688   3.846   3.231  15.577  0.2321 -0.0332  0.0005
 7410SOL    HW133689   3.928   3.278  15.573 -1.0572  2.2900  1.1492
 7410SOL    HW233690   3.771   3.290  15.580  0.6494  0.5067 -0.3585
 7411SOL     OW33691   1.109   1.356   3.280  0.2399  0.0132 -0.2746
 7411SOL    HW133692   1.044   1.288   3.300 -0.4644  1.2890  1.7365
 7411SOL    HW233693   1.059   1.416   3.225 -0.6994  0.1859  0.7613
 7412SOL     OW33694   2.111   1.885   5.216 -0.4592  0.2645  0.0937
 7412SOL    HW133695   2.168   1.940   5.270 -0.7838  0.2814  0.4220
 7412SOL    HW233696   2.169   1.861   5.144 -2.5847 -1.2447 -1.1095
 7413SOL     OW33697   4.663   3.637   4.789 -0.3717  0.2125 -0.2562
 7413SOL    HW133698   0.013   3.659   4.727  1.1859 -0.2452  1.3156
 7413SOL    HW233699   4.603   3.707   4.763 -1.3325 -0.3142  0.5327
 7414SOL     OW33700   0.186   0.847  15.641 -0.4486 -0.5967  0.4150
 7414SOL    HW133701   0.254   0.790  15.678  0.3169 -0.6105 -1.0530
 7414SOL    HW233702   0.104   0.798  15.652  0.4397 -2.0398  0.7396
 7415SOL     OW33703   1.515   1.886   5.978 -0.4718 -0.4878  0.5728
 7415SOL    HW133704   1.578   1.815   5.990  0.2400 -0.1353 -1.0450
 7415SOL    HW233705   1.560   1.950   6.034  0.6973 -0.4589 -0.4002
 7416SOL     OW33706   1.110   3.054   0.754 -0.5126 -0.1633 -0.0317
 7416SOL    HW133707   1.052   3.005   0.813 -0.2707  0.6697  0.8887
 7416SOL    HW233708   1.082   3.143   0.775 -2.4785 -0.2438 -2.3531
 7417SOL     OW33709   3.403   4.113   3.785  0.6591 -0.2366  0.5453
 7417SOL    HW133710   3.497   4.125   3.797  0.7351  0.3186 -0.6940
 7417SOL    HW233711   3.383   4.189   3.731 -0.5480 -0.6974  0.3236
 7418SOL     OW33712   2.987   2.410   8.695  0.0490  0.3999  0.0949
 7418SOL    HW133713   2.919   2.465   8.734 -0.5928  0.1568 -0.6960
 7418SOL    HW233714   2.989   2.339   8.760  0.2567  2.3766  2.2736
 7419SOL     OW33715   1.156   3.482  15.012  0.1503  0.1905 -0.5195
 7419SOL    HW133716   1.193   3.524  15.090  0.7962 -0.0060 -0.7186
 7419SOL    HW233717   1.153   3.557  14.953  1.3881 -0.4700 -1.4189
 7420SOL     OW33718   3.676   3.251   5.103  0.0945 -0.2115  0.1397
 7420SOL    HW133719   3.608   3.184   5.097  1.2355 -1.2823 -0.9995
 7420SOL    HW233720   3.689   3.238   5.197 -0.8495  0.5978  0.3844
 7421SOL     OW33721   0.279   3.711   3.078 -0.1467 -0.8592 -0.1560
 7421SOL    HW133722   0.331   3.657   3.020  2.3995  2.3338 -0.8765
 7421SOL    HW233723   0.236   3.768   3.015 -0.4741 -1.2035 -0.2414
 7422SOL     OW33724   4.663   0.471   6.591  0.3494  0.1668  0.0526
 7422SOL    HW133725   4.610   0.480   6.671 -1.0498  0.4677 -0.9186
 7422SOL    HW233726   0.013   0.530   6.621 -1.0395  0.4706  2.6959
 7423SOL     OW33727   3.726   1.558  14.013  0.1304 -0.7521  0.5072
 7423SOL    HW133728   3.760   1.478  14.055 -4.0017 -2.3269  0.8201
 7423SOL    HW233729   3.772   1.623  14.066  0.2515  0.1126 -0.6573
 7424SOL     OW33730   4.583   0.789   3.141 -0.5618 -0.1961 -0.0622
 7424SOL    HW133731   4.639   0.864   3.125 -0.9323 -0.1970 -1.4100
 7424SOL    HW233732   4.587   0.744   3.056 -0.6097  0.4881 -0.4227
 7425SOL     OW33733   4.355   2.070  14.902  0.2645 -0.4671  0.0185
 7425SOL    HW133734   4.388   2.125  14.973 -2.1356  2.0510 -0.7956
 7425SOL    HW233735   4.288   2.026  14.955 -0.1672 -2.0227 -1.8524
 7426SOL     OW33736   2.403   4.451   7.522  0.8794 -0.3595  0.6483
 7426SOL    HW133737   2.491   4.462   7.558  0.6557  2.0138  0.4459
 7426SOL    HW233738   2.370   4.402   7.598  0.1264 -1.6571 -0.5149
 7427SOL     OW33739   0.124   0.895   4.122  0.5234  0.2435  0.4835
 7427SOL    HW133740   0.074   0.825   4.080  0.3612  0.0847  0.9480
 7427SOL    HW233741   0.193   0.900   4.056  0.2091 -0.4975  0.0886
 7428SOL     OW33742   1.305   1.086   3.784  0.4479  0.1854 -0.3506
 7428SOL    HW133743   1.372   1.126   3.840 -0.7560  1.8557 -0.1116
 7428SOL    HW233744   1.333   1.123   3.699  1.0509 -1.1056 -0.7152
 7429SOL     OW33745   3.137   4.615   2.529  0.0988 -0.1740 -0.0004
 7429SOL    HW133746   3.229   4.641   2.543 -0.0581  1.3117 -1.6158
 7429SOL    HW233747   3.105   4.690   2.479 -0.2472 -0.6842 -0.5318
 7430SOL     OW33748   0.110   2.947  13.841  0.1419 -1.0344  0.1518
 7430SOL    HW133749   0.018   2.969  13.828 -0.2405 -4.0214 -2.2500
 7430SOL    HW233750   0.102   2.852  13.853 -1.7539 -0.8535  0.2304
 7431SOL     OW33751   2.117   0.172   7.346 -0.2858  0.0630  0.4924
 7431SOL    HW133752   2.034   0.126   7.355 -0.6705  0.9021  1.2979
 7431SOL    HW233753   2.191   0.114   7.366 -1.2406 -0.4839  2.4511
 7432SOL     OW33754   3.189   0.765   2.173  0.2673 -0.2943  0.1224
 7432SOL    HW133755   3.249   0.738   2.242 -0.0285 -0.3381  0.3609
 7432SOL    HW233756   3.238   0.726   2.100  0.6785 -1.5642  1.0825
 7433SOL     OW33757   0.062   4.456  12.965 -0.4197  0.1755 -0.0444
 7433SOL    HW133758   0.085   4.478  13.055  0.0799  0.9053 -0.3501
 7433SOL    HW233759   0.100   4.371  12.942  0.3160  0.9709 -1.7977
 7434SOL     OW33760   1.636   1.249   3.562 -0.4465 -0.1356 -0.5184
 7434SOL    HW133761   1.651   1.337   3.596  3.0261 -0.4390 -1.2752
 7434SOL    HW233762   1.730   1.236   3.546 -0.5097 -0.7102 -0.4193
 7435SOL     OW33763   0.028   0.507   7.027  0.2462  0.5663 -0.3394
 7435SOL    HW133764   4.666   0.457   7.042  0.1445  0.5077 -1.0719
 7435SOL    HW233765   4.702   0.591   7.034 -0.1088  0.3415  0.0773
 7436SOL     OW33766   0.463   0.581  13.529 -0.4181  0.4471 -0.3234
 7436SOL    HW133767   0.445   0.488  13.544 -1.4484  0.4644 -1.5607
 7436SOL    HW233768   0.379   0.624  13.544 -1.5812 -1.4632 -1.4304
 7437SOL     OW33769   3.872   0.094   8.025  0.2097 -0.0488  0.6374
 7437SOL    HW133770   3.950   0.089   7.970 -2.0760  0.8100 -2.6494
 7437SOL    HW233771   3.890   0.175   8.072 -1.3673  0.9628 -0.4929
 7438SOL     OW33772   3.938   1.943   8.875 -0.3073 -0.0388 -0.1126
 7438SOL    HW133773   3.971   2.033   8.871 -1.3958  0.3568 -0.1151
 7438SOL    HW233774   3.924   1.941   8.969 -1.5845 -2.8593 -0.3864
 7439SOL     OW33775   0.942   2.690   4.377 -0.4746 -0.3495  0.0630
 7439SOL    HW133776   0.961   2.634   4.453 -2.3024  0.3301  1.0180
 7439SOL    HW233777   0.901   2.622   4.325  0.1658 -0.6676 -0.0301
 7440SOL     OW33778   2.028   2.228  11.036 -0.5916 -0.3408  0.0947
 7440SOL    HW133779   2.079   2.159  10.995  0.4663  0.3085  0.3065
 7440SOL    HW233780   2.056   2.235  11.128 -0.4430 -0.1026  0.0349
 7441SOL     OW33781   0.086   0.543   2.447  0.8723  0.0322  0.3209
 7441SOL    HW133782   0.166   0.499   2.477  1.6768 -0.1851 -2.1307
 7441SOL    HW233783   0.079   0.534   2.352 -0.1100 -0.2402  0.4193
 7442SOL     OW33784   4.488   2.257  12.693  0.0882 -0.3084 -0.1897
 7442SOL    HW133785   4.519   2.181  12.743 -3.3018 -0.8325  1.0986
 7442SOL    HW233786   4.428   2.213  12.634  0.7932 -4.7561  2.3621
 7443SOL     OW33787   1.806   0.630   8.411 -0.9260 -0.2743 -0.2085
 7443SOL    HW133788   1.744   0.702   8.423  0.5011  1.0659 -0.9162
 7443SOL    HW233789   1.822   0.607   8.503  0.2142 -1.6625 -0.7535
 7444SOL     OW33790   3.722   3.879   5.335 -0.2395 -0.1204  0.2740
 7444SOL    HW133791   3.671   3.849   5.260  0.9824  0.1703 -0.6646
 7444SOL    HW233792   3.794   3.816   5.337  1.4406  1.7479 -1.2124
 7445SOL     OW33793   2.046   1.680   8.758  0.5463  0.0734  0.6218
 7445SOL    HW133794   1.962   1.697   8.800  0.5206  0.9918  0.1838
 7445SOL    HW233795   2.084   1.768   8.760  0.5517  0.1306 -1.8968
 7446SOL     OW33796   2.578   1.418   4.404  0.1250 -0.2884  0.7022
 7446SOL    HW133797   2.584   1.476   4.328  0.3871 -1.1171  0.0934
 7446SOL    HW233798   2.559   1.339   4.355 -1.4219 -0.5653  1.7461
 7447SOL     OW33799   0.839   0.999  17.529  0.4027 -0.1937 -0.3482
 7447SOL    HW133800   0.869   1.085  17.500  0.7399  0.9345  3.2977
 7447SOL    HW233801   0.896   0.980  17.604  0.5655 -0.8542 -0.6394
 7448SOL     OW33802   4.098   3.542   4.303  0.2617 -0.2142 -0.2327
 7448SOL    HW133803   4.193   3.548   4.295  0.2961 -0.7435 -0.1871
 7448SOL    HW233804   4.091   3.567   4.395 -2.0247 -0.2666 -0.3917
 7449SOL     OW33805   1.721   3.574   4.871 -0.2386 -0.1275 -0.2137
 7449SOL    HW133806   1.798   3.618   4.907 -0.3031 -0.0187 -0.2100
 7449SOL    HW233807   1.760   3.516   4.805 -2.0343 -0.8462 -0.6568
 7450SOL     OW33808   1.353   2.390  15.696  0.1190  0.6424  0.0258
 7450SOL    HW133809   1.338   2.324  15.764  0.1160 -0.6600 -1.2546
 7450SOL    HW233810   1.441   2.361  15.672  0.0006  0.6556 -0.4183
 7451SOL     OW33811   3.148   4.234  11.713 -0.6570  0.3548 -0.4271
 7451SOL    HW133812   3.097   4.274  11.643 -1.9943 -0.5820  0.0227
 7451SOL    HW233813   3.155   4.310  11.771  2.1011  0.4717 -0.9012
 7452SOL     OW33814   2.532   2.184   4.050 -0.0198 -0.0427 -0.0398
 7452SOL    HW133815   2.568   2.158   4.135  0.3848  1.3265  0.2078
 7452SOL    HW233816   2.608   2.233   4.019 -0.1180 -0.7171 -1.3273
 7453SOL     OW33817   0.535   3.574   7.297 -0.3352  0.5345 -0.3707
 7453SOL    HW133818   0.610   3.629   7.277  0.6820 -0.8304 -0.2710
 7453SOL    HW233819   0.464   3.637   7.286 -0.6744 -0.0958 -1.7150
 7454SOL     OW33820   0.446   4.194   4.095 -0.2939 -0.0162  0.0013
 7454SOL    HW133821   0.536   4.213   4.070 -0.3466 -0.2468 -0.3629
 7454SOL    HW233822   0.453   4.120   4.155  2.6984  0.6291  0.4298
 7455SOL     OW33823   3.941   2.826   7.170  0.4530 -0.3442 -0.3791
 7455SOL    HW133824   3.900   2.804   7.086  0.1894 -1.5727  0.0674
 7455SOL    HW233825   4.019   2.873   7.141  0.4491 -1.4458 -2.2080
 7456SOL     OW33826   3.017   2.493   4.739  0.6964  0.1720 -0.0568
 7456SOL    HW133827   3.063   2.542   4.807 -0.3472  0.1980  0.6397
 7456SOL    HW233828   2.936   2.544   4.739 -0.1304 -1.1413 -0.0761
 7457SOL     OW33829   1.579   0.558   1.106  0.4647 -0.1537 -0.1555
 7457SOL    HW133830   1.579   0.522   1.194  1.9948 -2.0565 -0.9499
 7457SOL    HW233831   1.553   0.485   1.050 -2.1853  0.0111  0.8711
 7458SOL     OW33832   2.771   4.229   2.665 -0.5862 -0.0763  0.1725
 7458SOL    HW133833   2.691   4.190   2.632  1.0168 -1.0738 -2.5423
 7458SOL    HW233834   2.827   4.178   2.607 -0.3343  0.6958 -0.2762
 7459SOL     OW33835   3.039   3.264   9.964  0.0963 -0.4945  0.2984
 7459SOL    HW133836   3.070   3.279   9.874  1.7037 -1.3718  0.7033
 7459SOL    HW233837   2.953   3.225   9.954  0.4835 -1.4065  0.4982
 7460SOL     OW33838   1.099   3.793   0.242  0.4037  0.6295 -0.4865
 7460SOL    HW133839   1.157   3.724   0.209 -0.8668 -1.2065  1.1713
 7460SOL    HW233840   1.128   3.811   0.331  0.2465 -1.7622  0.0512
 7461SOL     OW33841   2.665   2.401   8.561  0.8415 -0.7811  0.0792
 7461SOL    HW133842   2.668   2.415   8.655  1.4787 -0.1095 -0.0389
 7461SOL    HW233843   2.715   2.475   8.527  1.8176 -1.9901 -1.1153
 7462SOL     OW33844   2.308   0.034   0.426 -0.4445 -0.3661  0.2523
 7462SOL    HW133845   2.259   0.086   0.362  1.9431  1.5300 -0.0427
 7462SOL    HW233846   2.272   0.069   0.508 -0.5678  3.3408 -1.3827
 7463SOL     OW33847   2.241   3.190  13.829 -0.5918  0.4566  1.0253
 7463SOL    HW133848   2.247   3.151  13.917 -4.5040  0.3148  1.2349
 7463SOL    HW233849   2.195   3.271  13.848 -0.8829  0.2757  1.0927
 7464SOL     OW33850   4.599   0.673   5.639 -0.2772 -0.2802  0.5352
 7464SOL    HW133851   4.522   0.722   5.667 -0.4934 -1.7761  2.5433
 7464SOL    HW233852   4.563   0.586   5.657 -0.4275 -0.8582 -2.4699
 7465SOL     OW33853   1.586   0.954   1.422 -0.1057 -0.6731 -0.4387
 7465SOL    HW133854   1.566   1.030   1.368 -0.6531 -1.4167 -1.2883
 7465SOL    HW233855   1.497   0.918   1.428  0.2450 -1.5039 -0.2789
 7466SOL     OW33856   2.651   2.966  11.661  0.0220 -0.2950  0.4058
 7466SOL    HW133857   2.620   3.055  11.645 -0.4321 -0.7241 -1.1440
 7466SOL    HW233858   2.709   2.963  11.585 -0.1929  0.2674  0.2226
 7467SOL     OW33859   2.730   1.768   7.793  0.6027  0.1262  0.3686
 7467SOL    HW133860   2.722   1.806   7.880  2.1751 -1.0946  1.0376
 7467SOL    HW233861   2.644   1.792   7.759  0.8394  0.2380 -0.1543
 7468SOL     OW33862   1.736   3.375   6.998  0.3442 -0.3806 -0.0337
 7468SOL    HW133863   1.646   3.349   7.017 -0.3340  2.2803  0.4247
 7468SOL    HW233864   1.711   3.466   7.014 -1.1846 -0.5123 -1.7828
 7469SOL     OW33865   1.832   4.247   5.429 -1.0530  0.1501  0.1298
 7469SOL    HW133866   1.900   4.258   5.496  0.4554  0.0274 -1.3582
 7469SOL    HW233867   1.890   4.225   5.355 -2.0182 -0.7291 -0.3764
 7470SOL     OW33868   0.771   2.544   8.855 -0.3302 -0.5354  0.3575
 7470SOL    HW133869   0.841   2.583   8.907 -1.0365 -0.7600  1.4671
 7470SOL    HW233870   0.733   2.474   8.907  0.9585 -0.4921  1.3565
 7471SOL     OW33871   1.376   0.470   4.514 -0.9431 -0.8626 -0.1784
 7471SOL    HW133872   1.308   0.537   4.526  0.1163  0.6520 -2.6678
 7471SOL    HW233873   1.343   0.411   4.446  1.9063 -1.3322 -1.1617
 7472SOL     OW33874   2.084   1.812   6.600 -0.0681 -0.6262 -0.2384
 7472SOL    HW133875   2.077   1.742   6.665 -2.1241  0.5992  0.8607
 7472SOL    HW233876   2.142   1.876   6.640 -0.2334  0.1144 -1.1884
 7473SOL     OW33877   2.565   3.219   8.441 -0.1836  0.1571 -0.1085
 7473SOL    HW133878   2.620   3.161   8.388  0.8515  1.3306 -0.3132
 7473SOL    HW233879   2.521   3.274   8.377 -3.8255 -2.2330  0.3535
 7474SOL     OW33880   0.917   1.674   8.244 -0.3967 -0.7312 -0.4614
 7474SOL    HW133881   0.833   1.716   8.263  0.2862  0.2175  0.4664
 7474SOL    HW233882   0.937   1.643   8.333 -0.6825  1.5071  0.3753
 7475SOL     OW33883   0.089   2.672  14.112  0.2652 -0.0666 -0.1122
 7475SOL    HW133884   0.041   2.753  14.095 -1.5711 -1.1148  0.1142
 7475SOL    HW233885   0.123   2.658  14.023 -2.1400 -0.8828 -0.8850
 7476SOL     OW33886   1.139   3.748   7.748 -0.3041 -0.1454  0.1821
 7476SOL    HW133887   1.185   3.676   7.704 -1.0758 -1.1935  1.1141
 7476SOL    HW233888   1.212   3.811   7.744 -1.2889  0.8273 -2.5080
 7477SOL     OW33889   1.655   2.101   6.071  0.3782 -0.0849 -0.1261
 7477SOL    HW133890   1.582   2.154   6.105 -0.0508 -0.6857 -0.1003
 7477SOL    HW233891   1.729   2.120   6.129 -0.0580 -0.7540  0.6607
 7478SOL     OW33892   2.774   0.376   1.377  0.5247 -0.0662  0.0572
 7478SOL    HW133893   2.805   0.385   1.287 -1.2009 -0.2728 -0.5630
 7478SOL    HW233894   2.686   0.412   1.367 -0.0420 -0.9280  1.8610
 7479SOL     OW33895   1.254   0.127   6.572 -0.2583 -0.5498 -0.6076
 7479SOL    HW133896   1.174   0.079   6.552 -0.7599 -0.2511  0.7474
 7479SOL    HW233897   1.217   0.215   6.577  2.5711  0.6077  0.1204
 7480SOL     OW33898   1.852   0.258   8.884  0.2516  0.0507  0.2715
 7480SOL    HW133899   1.846   0.171   8.925  2.6005 -0.4378 -0.4423
 7480SOL    HW233900   1.797   0.240   8.808  1.2839 -2.1632  0.0455
 7481SOL     OW33901   1.399   1.461  14.257  0.0583  0.1483  0.2579
 7481SOL    HW133902   1.362   1.545  14.230  1.4405  0.7281  0.1888
 7481SOL    HW233903   1.344   1.408  14.200  2.0608 -0.8677 -0.7310
 7482SOL     OW33904   1.924   3.844   2.574 -0.1348  0.4607  0.2405
 7482SOL    HW133905   1.915   3.831   2.480  0.4624 -0.7260  0.3365
 7482SOL    HW233906   1.985   3.775   2.602  0.5197  0.6193 -0.7773
 7483SOL     OW33907   2.391   3.455   5.242  0.4020  0.2771  0.6410
 7483SOL    HW133908   2.316   3.404   5.211  0.3648  1.0859 -0.6024
 7483SOL    HW233909   2.349   3.529   5.284  1.0622  0.2011  1.4254
 7484SOL     OW33910   1.467   1.529   8.340 -0.5220 -0.0419 -0.1500
 7484SOL    HW133911   1.394   1.529   8.278 -0.3115  0.3229 -0.3980
 7484SOL    HW233912   1.414   1.543   8.418 -0.6845 -0.1688 -0.2386
 7485SOL     OW33913   2.339   2.265  11.962  0.0742  0.0623 -0.2509
 7485SOL    HW133914   2.250   2.234  11.979  0.4808 -1.2498 -0.4512
 7485SOL    HW233915   2.380   2.211  12.030  0.4271  1.2548  0.4648
 7486SOL     OW33916   4.202   3.042   1.558  0.1834 -0.3252  0.2423
 7486SOL    HW133917   4.215   2.980   1.630 -0.5890  0.0776  0.7286
 7486SOL    HW233918   4.107   3.053   1.549  0.2192 -0.9537 -0.9206
 7487SOL     OW33919   2.626   4.183   7.597  0.5457 -0.2919  0.1742
 7487SOL    HW133920   2.706   4.214   7.556 -0.3910  2.1849  0.2421
 7487SOL    HW233921   2.612   4.094   7.565  0.6569 -1.3051  2.9362
 7488SOL     OW33922   3.313   2.801   5.403  0.0460 -0.6821  0.1276
 7488SOL    HW133923   3.348   2.765   5.484 -0.5027 -1.0683  0.1898
 7488SOL    HW233924   3.342   2.892   5.391 -1.1406 -0.0515  1.9901
 7489SOL     OW33925   1.411   1.036  16.470  0.2736  0.3568  0.2808
 7489SOL    HW133926   1.428   0.976  16.542 -0.5475 -0.8266 -0.5034
 7489SOL    HW233927   1.381   0.987  16.393 -1.7791  3.2466 -0.7491
 7490SOL     OW33928   0.348   1.437   8.324  0.8959 -0.2573  0.3878
 7490SOL    HW133929   0.266   1.389   8.334  2.1616 -2.5061  0.1132
 7490SOL    HW233930   0.381   1.433   8.414 -0.7876  0.1128  1.0108
 7491SOL     OW33931   4.124   3.892  16.001  0.1791 -0.4046  0.1213
 7491SOL    HW133932   4.087   3.844  16.074 -0.6840 -2.2050 -1.4991
 7491SOL    HW233933   4.136   3.821  15.938  0.5748  1.1742 -1.5929
 7492SOL     OW33934   4.547   1.208   7.011  0.0638  0.1470 -0.0170
 7492SOL    HW133935   4.563   1.150   7.085  0.7924 -0.1810 -0.4292
 7492SOL    HW233936   4.612   1.179   6.947  0.8354  1.0548  0.3483
 7493SOL     OW33937   0.464   1.818   7.777 -0.0068 -0.0271 -0.4586
 7493SOL    HW133938   0.416   1.768   7.711 -0.9100  0.0190  0.1481
 7493SOL    HW233939   0.530   1.758   7.812  0.8387  0.1535 -1.7628
 7494SOL     OW33940   4.177   1.531  13.401 -0.1440 -0.0383  0.4029
 7494SOL    HW133941   4.112   1.461  13.402 -0.8635  0.5804 -2.1534
 7494SOL    HW233942   4.142   1.596  13.340 -1.8105 -0.8827  0.4540
 7495SOL     OW33943   4.325   3.214   8.080 -0.6047  0.5187  0.0156
 7495SOL    HW133944   4.297   3.303   8.102 -1.2921  0.2021  0.4012
 7495SOL    HW233945   4.248   3.158   8.082  1.8547 -2.8286  0.9603
 7496SOL     OW33946   3.167   0.732   5.614 -0.5653  0.4548 -0.5569
 7496SOL    HW133947   3.253   0.692   5.598  0.1076  1.7951 -0.2032
 7496SOL    HW233948   3.183   0.812   5.664  3.9195 -0.9483  0.2780
 7497SOL     OW33949   0.993   0.264   3.344  0.3925 -0.5465  0.1925
 7497SOL    HW133950   0.999   0.170   3.325 -0.8509 -0.4714 -0.5299
 7497SOL    HW233951   1.083   0.297   3.341  1.4334 -3.3057  0.3023
 7498SOL     OW33952   3.065   2.082  16.909 -0.0118 -0.4642 -0.1209
 7498SOL    HW133953   3.025   2.086  16.822  0.5935 -0.4032 -0.3944
 7498SOL    HW233954   2.983   2.077  16.959 -0.4470 -1.2458 -0.9199
 7499SOL     OW33955   1.934   3.269   3.071  0.5474 -0.7471  0.3255
 7499SOL    HW133956   1.971   3.356   3.086 -1.5062  0.1837 -0.0603
 7499SOL    HW233957   1.862   3.284   3.133 -0.5606  0.0796 -1.1564
 7500SOL     OW33958   4.287   0.535  11.301  0.3002  0.0471 -0.2965
 7500SOL    HW133959   4.206   0.558  11.257  0.6529  0.1265 -0.8985
 7500SOL    HW233960   4.257   0.528  11.392  0.1344  0.3679 -0.3279
 7501SOL     OW33961   0.715   2.621   6.006 -1.0522 -0.2021  0.2557
 7501SOL    HW133962   0.681   2.643   5.920  2.2048 -2.7945 -1.6759
 7501SOL    HW233963   0.746   2.707   6.036  1.7792 -1.1691  0.1589
 7502SOL     OW33964   0.086   1.067  12.274 -0.5743  0.3455 -0.1515
 7502SOL    HW133965   0.043   1.121  12.208  0.1107 -0.0732 -0.9331
 7502SOL    HW233966   0.028   0.991  12.287 -0.3636  0.0965 -0.6700
 7503SOL     OW33967   1.343   3.337   0.366  0.3427  0.0229  0.0567
 7503SOL    HW133968   1.301   3.406   0.417 -1.9659 -1.5562  0.2758
 7503SOL    HW233969   1.290   3.326   0.287 -1.1602  0.0915  1.0655
 7504SOL     OW33970   2.333   3.981   8.437 -0.0072  0.0104 -0.2908
 7504SOL    HW133971   2.283   4.034   8.499 -0.4392 -0.9485  0.1863
 7504SOL    HW233972   2.317   4.039   8.363 -0.6414  3.0302  2.1844
 7505SOL     OW33973   3.198   1.044   8.492  0.0419  0.1288  0.5637
 7505SOL    HW133974   3.209   1.036   8.397 -0.4017  0.7929  0.4516
 7505SOL    HW233975   3.107   1.074   8.490 -0.7866 -2.3617  1.6178
 7506SOL     OW33976   2.221   3.520   8.191 -0.2456  0.6881 -0.2576
 7506SOL    HW133977   2.143   3.576   8.193 -0.0232  0.9708  0.3832
 7506SOL    HW233978   2.237   3.530   8.097 -1.7475  1.0112 -0.4774
 7507SOL     OW33979   0.421   2.802  12.181  0.0678  0.6117 -0.5310
 7507SOL    HW133980   0.465   2.803  12.266 -1.6923  0.5428  0.3820
 7507SOL    HW233981   0.353   2.738  12.202 -0.5167  1.0232 -1.1906
 7508SOL     OW33982   0.139   1.085   8.280 -0.3000 -0.2525  0.8555
 7508SOL    HW133983   0.060   1.134   8.300 -0.8845 -1.9629  2.7214
 7508SOL    HW233984   0.127   0.992   8.299  0.2218 -0.2978  0.9686
 7509SOL     OW33985   3.003   1.638   1.891  0.0903  0.3103  0.0070
 7509SOL    HW133986   3.010   1.543   1.899 -2.6152 -0.1564 -3.1401
 7509SOL    HW233987   2.920   1.656   1.934 -0.3558  1.0983 -1.1766
 7510SOL     OW33988   2.150   0.112   3.446  0.5529 -0.6408 -0.0999
 7510SOL    HW133989   2.165   0.078   3.534  3.1063  1.9452  0.4675
 7510SOL    HW233990   2.213   0.059   3.397  1.0613 -0.8176  0.7481
 7511SOL     OW33991   0.905   0.837   4.330  0.4234  0.0688 -0.5515
 7511SOL    HW133992   0.947   0.751   4.337 -1.6253 -0.7947  1.1784
 7511SOL    HW233993   0.967   0.888   4.278 -0.6754  0.0915 -1.8342
 7512SOL     OW33994   2.976   4.457   5.368 -0.3417 -0.0629  0.1432
 7512SOL    HW133995   2.995   4.364   5.377 -0.2831 -0.5465 -5.0987
 7512SOL    HW233996   3.002   4.489   5.455  0.3478 -1.7158  0.5394
 7513SOL     OW33997   3.574   3.892  16.686 -0.8257  0.4291  0.5600
 7513SOL    HW133998   3.526   3.957  16.634 -1.2445 -0.4886 -0.1953
 7513SOL    HW233999   3.508   3.854  16.745 -1.8727 -1.5862 -1.8846
 7514SOL     OW34000   3.239   2.950  14.836  0.3752  0.6636  0.9622
 7514SOL    HW134001   3.289   2.942  14.918  2.1106  0.0061 -0.1541
 7514SOL    HW234002   3.217   2.857  14.828  1.3056  0.6029 -0.7801
 7515SOL     OW34003   2.406   0.527  13.124 -0.2194 -0.5075  0.0335
 7515SOL    HW134004   2.425   0.589  13.053 -2.1938  2.0188  1.7033
 7515SOL    HW234005   2.323   0.561  13.157 -0.0509  0.0192 -0.0697
 7516SOL     OW34006   2.743   2.032   7.686  0.3827 -0.3333 -0.6142
 7516SOL    HW134007   2.756   1.991   7.772  0.6013  0.9047 -0.0581
 7516SOL    HW234008   2.698   2.108   7.722  1.2214 -1.1785  2.1924
 7517SOL     OW34009   1.220   3.476   2.252 -0.1843  0.0616  0.6724
 7517SOL    HW134010   1.262   3.557   2.281 -0.5253 -0.5846  2.9624
 7517SOL    HW234011   1.180   3.506   2.171 -0.8138  1.2653  1.4247
 7518SOL     OW34012   4.149   2.440   0.049  0.1444 -0.1013 -0.4243
 7518SOL    HW134013   4.100   2.516   0.017  0.6473  0.3435 -0.1148
 7518SOL    HW234014   4.146   2.387  17.649  1.4398 -1.8944  0.7423
 7519SOL     OW34015   1.470   4.257   9.474  0.2521 -0.6995 -0.5738
 7519SOL    HW134016   1.391   4.235   9.425  0.2814  1.9452 -1.8146
 7519SOL    HW234017   1.482   4.347   9.443  1.4763  0.0654  2.1002
 7520SOL     OW34018   4.496   2.001  10.389 -0.4980  0.0537  0.2005
 7520SOL    HW134019   4.445   2.073  10.427 -1.3104 -1.4931  2.0165
 7520SOL    HW234020   4.440   1.983  10.313  2.7355 -0.9169 -1.9340
 7521SOL     OW34021   4.280   0.716   3.479  0.0436  0.5392  0.3355
 7521SOL    HW134022   4.195   0.759   3.481 -0.4667 -0.4960  0.8546
 7521SOL    HW234023   4.281   0.671   3.394  0.2673 -2.8977  2.1490
 7522SOL     OW34024   4.656   4.209   7.523  0.2419  0.0047 -0.1114
 7522SOL    HW134025   4.574   4.252   7.547  0.0870  0.7601 -2.0505
 7522SOL    HW234026   4.711   4.213   7.602  1.4402 -2.8910 -0.7684
 7523SOL     OW34027   4.679   0.239   8.207  0.0955 -0.6754  0.2973
 7523SOL    HW134028   0.041   0.284   8.229  0.8470 -0.2841 -3.3252
 7523SOL    HW234029   4.610   0.266   8.268  0.1804  1.3184 -0.5003
 7524SOL     OW34030   2.049   4.650  14.670 -0.8218 -0.2130 -0.4979
 7524SOL    HW134031   2.119   4.588  14.650 -0.6188 -0.1620  0.0474
 7524SOL    HW234032   2.010   4.606  14.746 -1.8082  0.7699 -0.4289
 7525SOL     OW34033   0.475   2.505  12.927  0.3362 -0.2850 -0.1319
 7525SOL    HW134034   0.451   2.539  13.014 -0.4101 -1.7380  0.2277
 7525SOL    HW234035   0.564   2.541  12.921  1.2044 -2.2240  1.0757
 7526SOL     OW34036   1.780   3.049   0.663  0.0538 -0.2024 -0.2119
 7526SOL    HW134037   1.803   2.958   0.645  0.3854  0.2889 -2.2971
 7526SOL    HW234038   1.711   3.037   0.728  1.6999 -0.2330  1.5196
 7527SOL     OW34039   0.281   4.273   4.522  0.1316  0.3081  0.1125
 7527SOL    HW134040   0.259   4.272   4.615 -1.9935  2.2536 -0.3609
 7527SOL    HW234041   0.191   4.254   4.493 -0.5734  1.3186  1.6240
 7528SOL     OW34042   0.981   3.082   1.954  0.1060  0.3491 -0.3141
 7528SOL    HW134043   0.944   3.063   1.868 -2.6021  0.4077  0.8196
 7528SOL    HW234044   0.955   3.007   2.008 -0.0899 -1.1256 -2.4590
 7529SOL     OW34045   1.935   0.409   4.540  0.3908  0.2772 -0.0634
 7529SOL    HW134046   1.930   0.488   4.593  2.2584 -0.6975  1.5626
 7529SOL    HW234047   1.850   0.389   4.501  0.5625  0.3457 -0.4781
 7530SOL     OW34048   4.134   3.007   8.057  0.1026  0.3168 -0.0627
 7530SOL    HW134049   4.103   3.019   7.967  2.3142 -0.9767 -1.0020
 7530SOL    HW234050   4.133   2.912   8.074  1.5298  0.1824 -0.6753
 7531SOL     OW34051   3.344   1.179  14.910 -0.0893 -0.2388 -0.6723
 7531SOL    HW134052   3.397   1.232  14.850  0.2280  0.2830  0.0651
 7531SOL    HW234053   3.354   1.237  14.985  0.2612 -2.7746  1.2509
 7532SOL     OW34054   2.000   2.596   5.254  0.1768 -0.2354 -0.3293
 7532SOL    HW134055   1.989   2.681   5.296  0.6674 -0.0611 -0.5544
 7532SOL    HW234056   1.984   2.613   5.161 -0.9896  3.1709  0.4697
 7533SOL     OW34057   2.458   4.090   1.630 -0.2754  0.1782  0.4705
 7533SOL    HW134058   2.406   4.019   1.667  4.7420 -1.2019  4.7939
 7533SOL    HW234059   2.520   4.097   1.702  1.0557 -1.1238 -0.5503
 7534SOL     OW34060   0.656   0.883   0.150  0.5671 -0.5274 -0.2118
 7534SOL    HW134061   0.730   0.864   0.209  0.7204  2.2666  0.4923
 7534SOL    HW234062   0.585   0.893   0.213 -1.5087 -0.6857 -2.5512
 7535SOL     OW34063   3.493   1.400   3.442  0.1145 -0.1145  0.5601
 7535SOL    HW134064   3.534   1.435   3.363 -0.2148 -1.1108 -0.0489
 7535SOL    HW234065   3.451   1.475   3.485 -0.1573 -0.3466  0.7021
 7536SOL     OW34066   0.759   0.566   7.269 -0.0360  0.1522 -0.3641
 7536SOL    HW134067   0.783   0.649   7.227  0.7337 -0.2527 -0.7233
 7536SOL    HW234068   0.665   0.584   7.268  0.1939  1.4028  0.0551
 7537SOL     OW34069   1.594   3.806   4.799 -0.0474  0.6853 -0.8323
 7537SOL    HW134070   1.602   3.711   4.810 -0.0299  0.9168  1.2620
 7537SOL    HW234071   1.673   3.832   4.848  0.0999  2.1833 -1.8712
 7538SOL     OW34072   0.294   1.999   6.380 -0.2585  0.3148  0.2453
 7538SOL    HW134073   0.357   2.004   6.452 -0.9045  1.4018  0.7465
 7538SOL    HW234074   0.272   1.906   6.381  0.5483  0.1283  0.3127
 7539SOL     OW34075   1.111   2.469   5.498 -0.5281  0.7695  0.2139
 7539SOL    HW134076   1.147   2.529   5.433 -0.3713 -0.2674 -0.6619
 7539SOL    HW234077   1.038   2.431   5.450  1.5380  0.1179 -2.4338
 7540SOL     OW34078   1.203   4.195   9.367 -0.0441 -0.4089  0.0634
 7540SOL    HW134079   1.108   4.201   9.366 -0.0494 -0.2188  1.5041
 7540SOL    HW234080   1.223   4.104   9.390  1.8012 -0.4720 -1.8417
 7541SOL     OW34081   2.477   3.219   4.012 -0.0270 -0.5839 -0.0131
 7541SOL    HW134082   2.415   3.209   4.084  3.1427  0.4796  2.8538
 7541SOL    HW234083   2.421   3.265   3.950  0.3008  2.1259  1.7048
 7542SOL     OW34084   2.336   1.251   8.574 -0.4548 -0.1391 -0.4346
 7542SOL    HW134085   2.267   1.287   8.518  1.0961  3.3691 -0.1317
 7542SOL    HW234086   2.386   1.201   8.510  1.0642 -0.6372  1.1648
 7543SOL     OW34087   1.112   4.220   4.846 -0.0277 -0.1588 -0.1869
 7543SOL    HW134088   1.187   4.253   4.896  0.8410 -1.9975 -0.2365
 7543SOL    HW234089   1.062   4.299   4.828 -0.7728 -1.2881 -3.0837
 7544SOL     OW34090   1.162   4.085   4.606  0.5957 -0.2336  0.5786
 7544SOL    HW134091   1.127   4.131   4.683  1.2540  3.0972 -1.1150
 7544SOL    HW234092   1.237   4.044   4.648  0.2109  1.5849  3.0400
 7545SOL     OW34093   1.794   3.952  14.671 -0.1710 -0.4195 -0.3049
 7545SOL    HW134094   1.803   4.035  14.624 -2.2627  0.9659  1.7399
 7545SOL    HW234095   1.873   3.968  14.723  0.5502 -0.2069 -1.4718
 7546SOL     OW34096   3.939   2.556   5.131 -0.0062 -0.1975 -0.2850
 7546SOL    HW134097   4.018   2.514   5.166  0.6012 -0.2274 -1.7089
 7546SOL    HW234098   3.864   2.530   5.185 -0.2857  0.3893 -0.3930
 7547SOL     OW34099   0.079   0.014   9.288  0.4148 -0.0032 -0.0821
 7547SOL    HW134100   0.018   4.668   9.323  2.1347 -0.6962  1.6175
 7547SOL    HW234101   0.102   4.701   9.202  2.0782 -0.7200  0.6467
 7548SOL     OW34102   3.027   4.242   7.872 -0.0609 -0.1983  0.7893
 7548SOL    HW134103   3.020   4.150   7.897  0.3642 -0.4492 -0.0120
 7548SOL    HW234104   3.090   4.238   7.800 -0.1632  0.8790  0.6399
 7549SOL     OW34105   2.040   2.426   6.926 -0.2041  0.3498  0.2571
 7549SOL    HW134106   1.969   2.480   6.961  0.6723  0.6348  1.5626
 7549SOL    HW234107   2.073   2.390   7.008 -0.4634 -0.4161  0.0227
 7550SOL     OW34108   0.915   2.925   2.587  0.1563  0.1322 -0.0150
 7550SOL    HW134109   0.921   2.882   2.502  1.7146 -0.8766  0.5994
 7550SOL    HW234110   0.984   2.991   2.578 -0.9543  1.2819 -0.1978
 7551SOL     OW34111   2.755   0.897   8.442  0.4844 -0.7041  0.1248
 7551SOL    HW134112   2.787   0.807   8.447  1.0661 -0.5272 -0.4544
 7551SOL    HW234113   2.769   0.924   8.533  2.2335 -4.1801  0.8676
 7552SOL     OW34114   3.580   2.294   5.398 -0.2429 -0.1988  0.0401
 7552SOL    HW134115   3.529   2.235   5.342  0.5788 -0.9935  0.1427
 7552SOL    HW234116   3.500   2.345   5.414 -0.6993 -0.4546 -1.3699
 7553SOL     OW34117   4.715   2.175   2.626  0.1456 -0.5976  0.1484
 7553SOL    HW134118   0.068   2.113   2.637 -0.3476 -0.9807  1.3364
 7553SOL    HW234119   4.644   2.134   2.677 -0.4450  0.8232  0.4612
 7554SOL     OW34120   3.554   1.029   6.872  0.0753  0.4925  0.2199
 7554SOL    HW134121   3.599   0.979   6.940 -0.9608  0.1004  0.6170
 7554SOL    HW234122   3.615   1.025   6.799 -0.0815  0.5798  0.0850
 7555SOL     OW34123   0.384   2.387   1.052  0.4061  0.1807  0.0608
 7555SOL    HW134124   0.385   2.467   1.000  1.0029 -0.0664 -0.3111
 7555SOL    HW234125   0.458   2.337   1.018 -1.4942 -2.1495 -0.5969
 7556SOL     OW34126   0.111   3.589   3.255  0.2360 -0.1297 -0.3643
 7556SOL    HW134127   0.172   3.595   3.181 -0.2598 -1.9323 -0.9102
 7556SOL    HW234128   0.084   3.681   3.254  4.5004  1.1254  0.0326
 7557SOL     OW34129   4.254   1.839   4.732  0.0500  0.0757  0.0633
 7557SOL    HW134130   4.242   1.844   4.826 -1.3042 -0.8161 -0.0656
 7557SOL    HW234131   4.345   1.866   4.719  0.2050  0.2339  1.5221
 7558SOL     OW34132   2.610   0.495   6.110 -0.2268  0.8019  0.5996
 7558SOL    HW134133   2.641   0.461   6.194  2.0555  1.6078  0.0753
 7558SOL    HW234134   2.682   0.557   6.099  0.6233 -0.3025 -0.0425
 7559SOL     OW34135   4.060   3.469   1.198  0.2905 -0.7906  0.6026
 7559SOL    HW134136   4.049   3.412   1.121  0.5543 -0.9158  0.6554
 7559SOL    HW234137   4.149   3.496   1.174 -0.6720 -0.3721 -2.4894
 7560SOL     OW34138   3.154   1.579   6.148 -0.1490 -0.7216 -0.0712
 7560SOL    HW134139   3.178   1.670   6.166 -3.3397 -0.2898  2.0281
 7560SOL    HW234140   3.118   1.556   6.233 -0.8676 -1.7590 -0.6639
 7561SOL     OW34141   1.766   1.995   6.533  0.1837 -0.2927 -0.4942
 7561SOL    HW134142   1.794   1.934   6.465 -1.7811 -1.1988 -0.4881
 7561SOL    HW234143   1.834   2.061   6.522 -0.7391  0.6365 -0.6446
 7562SOL     OW34144   2.938   0.247   9.862  0.4701 -0.3437  0.8100
 7562SOL    HW134145   3.016   0.260   9.916  0.9923 -0.2056  0.0266
 7562SOL    HW234146   2.874   0.211   9.924 -0.4913 -0.9872 -0.5438
 7563SOL     OW34147   4.032   2.512   6.550  0.1119 -0.2788  0.0479
 7563SOL    HW134148   4.046   2.606   6.564  2.7654 -0.8896  1.5216
 7563SOL    HW234149   4.122   2.479   6.560 -0.5881 -1.3704  2.6303
 7564SOL     OW34150   1.322   3.166   8.411 -0.8031 -0.4947  0.3564
 7564SOL    HW134151   1.278   3.147   8.494  1.6203  0.8833  1.9537
 7564SOL    HW234152   1.317   3.261   8.421  0.2157 -0.3189 -0.7794
 7565SOL     OW34153   2.759   1.543   2.743  0.0485  0.2956 -0.0128
 7565SOL    HW134154   2.760   1.448   2.728 -1.4808  0.6718 -2.5696
 7565SOL    HW234155   2.786   1.547   2.834 -1.4885  0.8043  0.4289
 7566SOL     OW34156   2.310   2.243   8.332 -0.4333 -0.7988 -0.2968
 7566SOL    HW134157   2.244   2.311   8.343 -0.4923 -0.9496  0.3081
 7566SOL    HW234158   2.377   2.294   8.378 -1.3424  0.1025  0.0130
 7567SOL     OW34159   3.692   2.607   9.042 -0.3811  0.0163  0.9022
 7567SOL    HW134160   3.735   2.586   9.125 -1.4620  0.1574  1.4953
 7567SOL    HW234161   3.689   2.703   9.048 -1.0975  0.0478  0.0972
 7568SOL     OW34162   3.303   1.940   6.400 -0.4187  0.0838  0.3963
 7568SOL    HW134163   3.322   1.847   6.409  0.7753  0.3680  0.7366
 7568SOL    HW234164   3.213   1.942   6.435  0.1172 -1.6075  1.8618
 7569SOL     OW34165   3.383   3.105   8.798 -0.0873  0.6480  0.2816
 7569SOL    HW134166   3.464   3.072   8.761 -0.7456  2.6778 -2.9554
 7569SOL    HW234167   3.411   3.190   8.831  1.6904 -0.5229  1.8015
 7570SOL     OW34168   1.515   2.583   0.230 -0.1509  0.7276 -0.5478
 7570SOL    HW134169   1.538   2.632   0.310  0.8327 -0.6298 -0.0089
 7570SOL    HW234170   1.597   2.538   0.212 -0.5489 -0.0178 -0.4954
 7571SOL     OW34171   3.521   1.415   7.352  0.0080  0.4507 -0.3658
 7571SOL    HW134172   3.440   1.446   7.314  0.0179  0.4265 -0.4060
 7571SOL    HW234173   3.502   1.418   7.446  0.5816 -2.4508 -0.1520
 7572SOL     OW34174   3.307   1.315   8.189  0.2367  0.0690  0.3366
 7572SOL    HW134175   3.359   1.284   8.263  1.3076 -1.4901 -1.0531
 7572SOL    HW234176   3.350   1.280   8.110  0.9174 -1.0713  1.2155
 7573SOL     OW34177   3.401   0.665  17.410 -0.1075  0.2958  0.5204
 7573SOL    HW134178   3.404   0.643  17.504 -1.2568 -1.0425  0.2316
 7573SOL    HW234179   3.308   0.653  17.395  0.1751 -0.8617 -0.2884
 7574SOL     OW34180   3.448   1.909  15.910 -0.1946  0.6259 -0.2405
 7574SOL    HW134181   3.393   1.863  15.973  0.2616 -0.4996 -0.6601
 7574SOL    HW234182   3.482   1.984  15.959  0.3377  0.4895 -0.3999
 7575SOL     OW34183   3.845   3.833   6.786 -0.6788 -0.2731  0.5484
 7575SOL    HW134184   3.804   3.760   6.738  3.4203 -2.4197  0.3223
 7575SOL    HW234185   3.819   3.910   6.736  0.0111 -0.4174 -0.0249
 7576SOL     OW34186   2.305   4.533   6.711  0.2001  0.2992 -0.1814
 7576SOL    HW134187   2.361   4.539   6.789 -0.5149 -1.3351  0.4613
 7576SOL    HW234188   2.367   4.476   6.666 -0.3482 -1.7136  1.6466
 7577SOL     OW34189   0.311   4.549   4.445  0.4347  0.2799 -0.1485
 7577SOL    HW134190   0.266   4.487   4.502  0.3104 -1.0070 -1.6616
 7577SOL    HW234191   0.351   4.501   4.373  0.5806 -0.2618  0.2950
 7578SOL     OW34192   0.755   1.271   6.631  0.1598  0.1146 -0.6976
 7578SOL    HW134193   0.833   1.260   6.685  0.6369  3.4821 -0.7507
 7578SOL    HW234194   0.783   1.241   6.545 -2.3231  1.6200 -2.0058
 7579SOL     OW34195   1.127   2.144   4.240  1.0456 -0.0204  0.0622
 7579SOL    HW134196   1.058   2.086   4.272  0.6870  0.6454  0.4897
 7579SOL    HW234197   1.167   2.171   4.322  0.7993  0.5947 -0.0187
 7580SOL     OW34198   1.673   2.852   5.899  0.2905 -0.2802  0.2836
 7580SOL    HW134199   1.720   2.820   5.822  0.3651 -0.8189  0.5501
 7580SOL    HW234200   1.741   2.894   5.952 -0.3089  0.7213  0.2555
 7581SOL     OW34201   4.656   3.644   6.879 -0.5338 -0.0467 -0.1243
 7581SOL    HW134202   4.605   3.704   6.824 -2.0253  0.5132  1.8770
 7581SOL    HW234203   0.020   3.674   6.842 -0.4969 -0.5203 -0.4267
 7582SOL     OW34204   2.453   4.210   1.399 -0.5071 -0.1907  0.1586
 7582SOL    HW134205   2.452   4.167   1.484  1.1602  0.2172  0.3854
 7582SOL    HW234206   2.434   4.132   1.347  0.4225 -0.2396 -0.0995
 7583SOL     OW34207   3.340   2.104   5.990 -0.2887  0.0712  0.1793
 7583SOL    HW134208   3.398   2.179   5.985  1.1106 -0.8113  3.0249
 7583SOL    HW234209   3.401   2.034   6.014 -0.3441  0.3223  1.0340
 7584SOL     OW34210   0.221   0.945   1.696  0.4718 -0.2891  0.3965
 7584SOL    HW134211   0.232   1.038   1.672  0.8260  0.2346  2.5895
 7584SOL    HW234212   0.174   0.917   1.618 -0.5572  1.4737  0.3594
 7585SOL     OW34213   3.797   2.800   1.523  0.6464  0.0964  0.2540
 7585SOL    HW134214   3.746   2.779   1.444  1.7734 -2.2305  0.1273
 7585SOL    HW234215   3.808   2.710   1.553 -0.9703  0.2760  1.3702
 7586SOL     OW34216   3.453   3.332   4.624 -0.2328  0.3143  0.0559
 7586SOL    HW134217   3.403   3.278   4.685  0.3629  0.0716  0.3275
 7586SOL    HW234218   3.428   3.285   4.545  2.1962 -0.7673 -0.0844
 7587SOL     OW34219   1.324   0.907   8.536 -0.5395 -0.0922  0.1626
 7587SOL    HW134220   1.327   0.871   8.447  1.4637  0.3718  0.0435
 7587SOL    HW234221   1.391   0.856   8.581  0.2062  0.1665 -0.6623
 7588SOL     OW34222   1.935   3.593   5.685  0.4606 -0.1133 -0.2519
 7588SOL    HW134223   2.028   3.573   5.670  0.8752  1.8313 -0.2873
 7588SOL    HW234224   1.955   3.680   5.720 -0.4779  0.0781 -0.1999
 7589SOL     OW34225   2.980   3.685   8.438 -0.0175  0.2905  0.2967
 7589SOL    HW134226   2.897   3.724   8.468 -0.8670 -0.3261 -1.2631
 7589SOL    HW234227   3.046   3.753   8.450  1.3668 -0.9499 -0.3919
 7590SOL     OW34228   3.296   0.419  16.464  0.1945 -0.2311 -0.0898
 7590SOL    HW134229   3.345   0.363  16.524 -1.5378 -1.2459  0.3721
 7590SOL    HW234230   3.209   0.379  16.475  0.1855 -1.2912 -4.0160
 7591SOL     OW34231   4.532   4.096   5.286  0.3604 -0.5635 -0.2324
 7591SOL    HW134232   4.548   4.075   5.378  0.4629  0.4198 -0.0284
 7591SOL    HW234233   4.478   4.019   5.264  1.0930 -0.7661 -1.3397
 7592SOL     OW34234   1.061   3.246  10.855 -0.6382  0.5742 -0.5540
 7592SOL    HW134235   1.027   3.317  10.909 -1.3002 -0.7577  0.7804
 7592SOL    HW234236   1.004   3.174  10.883 -0.6634 -0.1825 -2.5673
 7593SOL     OW34237   1.636   3.536  15.310  0.2600  0.1899 -0.1531
 7593SOL    HW134238   1.559   3.525  15.254  0.1285  0.9251 -0.1119
 7593SOL    HW234239   1.708   3.557  15.250  0.7444 -3.5281 -0.8371
 7594SOL     OW34240   0.601   1.769   4.353  0.0967 -0.0338  0.3737
 7594SOL    HW134241   0.545   1.693   4.335 -0.2212  0.0504  1.0096
 7594SOL    HW234242   0.541   1.818   4.409 -1.1034 -1.1760  0.0996
 7595SOL     OW34243   2.612   1.549   4.167 -0.3781 -0.2914 -0.1133
 7595SOL    HW134244   2.623   1.644   4.170 -2.0897 -0.1106  0.4914
 7595SOL    HW234245   2.538   1.547   4.106 -1.0216  2.4759  0.5626
 7596SOL     OW34246   1.127   1.848  14.214  0.0966 -0.3112  0.6146
 7596SOL    HW134247   1.098   1.807  14.296  1.9286 -0.3526  1.2414
 7596SOL    HW234248   1.213   1.809  14.196 -0.5766 -1.6087  0.1574
 7597SOL     OW34249   3.146   1.345   8.930 -0.2280 -0.0955 -0.2213
 7597SOL    HW134250   3.173   1.431   8.898 -1.9122  0.3907 -0.3694
 7597SOL    HW234251   3.181   1.343   9.019 -0.7698 -0.0424 -0.0076
 7598SOL     OW34252   3.126   4.358   0.618 -0.9952 -0.8966  0.7903
 7598SOL    HW134253   3.183   4.426   0.581 -0.8576 -0.7166  1.3336
 7598SOL    HW234254   3.190   4.291   0.642 -1.2501 -1.6078 -0.5325
 7599SOL     OW34255   3.992   4.140  15.948  0.3804 -0.3350  0.0784
 7599SOL    HW134256   3.930   4.087  15.898 -1.9682  2.0446  0.4688
 7599SOL    HW234257   4.062   4.080  15.975 -1.0230 -1.7429  0.5439
 7600SOL     OW34258   1.313   2.922   3.071  0.4661 -0.0754 -0.1645
 7600SOL    HW134259   1.291   3.007   3.111 -0.3303  0.0792 -0.9186
 7600SOL    HW234260   1.386   2.951   3.016  0.1142 -0.9641 -1.1043
 7601SOL     OW34261   0.138   2.337   3.841 -0.4247  0.5214 -0.0632
 7601SOL    HW134262   0.202   2.399   3.806 -0.7144 -0.0824 -1.6217
 7601SOL    HW234263   0.178   2.332   3.928  0.1360  1.2096 -0.2803
 7602SOL     OW34264   1.576   2.095   3.137 -0.2116  0.2126  0.3423
 7602SOL    HW134265   1.636   2.021   3.128 -0.6056  0.0328 -0.8767
 7602SOL    HW234266   1.627   2.172   3.162 -0.3704  0.4606 -0.1067
 7603SOL     OW34267   3.516   0.344  16.825  0.3523  0.4344 -0.4402
 7603SOL    HW134268   3.494   0.358  16.917 -0.1811  2.2865 -0.8543
 7603SOL    HW234269   3.470   0.262  16.806  1.7038  0.5349 -4.2099
 7604SOL     OW34270   3.843   0.064   7.236 -0.2547 -0.1163 -0.0265
 7604SOL    HW134271   3.881   0.070   7.323  2.1819  2.5090 -1.2400
 7604SOL    HW234272   3.916   0.033   7.181 -0.9225 -1.6602 -0.0306
 7605SOL     OW34273   1.823   3.369   6.353 -0.3720  0.0693  0.1520
 7605SOL    HW134274   1.891   3.337   6.293  0.0855  0.3754  0.5032
 7605SOL    HW234275   1.856   3.453   6.384  2.6956 -1.1129  0.1832
 7606SOL     OW34276   1.000   2.704   9.700 -0.2505 -0.3158  0.5451
 7606SOL    HW134277   0.906   2.718   9.701 -0.0665  1.0017 -0.9283
 7606SOL    HW234278   1.035   2.759   9.630  0.5706 -0.1934  1.0419
 7607SOL     OW34279   2.499   2.334  16.624 -0.0400 -0.2433  0.3421
 7607SOL    HW134280   2.405   2.339  16.637 -0.5475 -3.7852 -1.9512
 7607SOL    HW234281   2.518   2.399  16.557  2.2590 -0.0591  1.1726
 7608SOL     OW34282   2.777   3.860   4.510  0.1812 -0.9454 -0.3285
 7608SOL    HW134283   2.800   3.940   4.463  0.9555  0.2233  2.0362
 7608SOL    HW234284   2.687   3.847   4.482  0.7613 -0.7244 -2.2614
 7609SOL     OW34285   1.995   0.138   5.606  0.0131  0.2796  0.5726
 7609SOL    HW134286   2.033   0.223   5.583  1.6143 -0.9028 -1.1424
 7609SOL    HW234287   2.023   0.078   5.536  1.3691 -1.5143  2.6748
 7610SOL     OW34288   2.995   3.116   6.211 -0.3165  0.0539  0.2872
 7610SOL    HW134289   2.919   3.167   6.183 -1.0584 -1.1129  0.2067
 7610SOL    HW234290   2.960   3.033   6.241 -1.3360  0.7437  0.9901
 7611SOL     OW34291   4.045   1.811   6.007  0.0366  0.5233 -0.5184
 7611SOL    HW134292   4.013   1.794   6.096 -0.8536 -3.1581 -1.5467
 7611SOL    HW234293   3.966   1.833   5.958 -0.2514 -0.9729 -0.7278
 7612SOL     OW34294   0.880   0.759   6.976 -0.2718  0.0777  0.1311
 7612SOL    HW134295   0.951   0.734   6.916 -0.6776 -0.8172  0.0226
 7612SOL    HW234296   0.933   0.814   7.035 -1.2331 -0.7110  1.7232
 7613SOL     OW34297   3.259   1.592   8.234 -0.6315 -0.1332  0.1034
 7613SOL    HW134298   3.297   1.584   8.147  0.5802 -0.8881  0.7078
 7613SOL    HW234299   3.258   1.498   8.246 -0.3966 -0.6975 -4.3448
 7614SOL     OW34300   1.742   1.714  16.069  0.0865  0.2994  0.2920
 7614SOL    HW134301   1.761   1.681  15.981 -2.4030  0.9574 -0.4915
 7614SOL    HW234302   1.698   1.640  16.110 -0.2884  1.2144  1.5450
 7615SOL     OW34303   3.761   2.730   4.467 -0.0544  0.0895  0.1949
 7615SOL    HW134304   3.840   2.699   4.424 -0.9899  1.0791 -2.2063
 7615SOL    HW234305   3.748   2.808   4.413  0.3534  0.2157  0.2834
 7616SOL     OW34306   1.495   2.795   7.658  0.0174 -0.1857  0.0964
 7616SOL    HW134307   1.484   2.700   7.648 -0.1956 -0.0218 -1.2205
 7616SOL    HW234308   1.591   2.796   7.666 -0.0487 -1.9933  1.2492
 7617SOL     OW34309   4.272   1.877   6.806 -0.6875  0.0440  0.3862
 7617SOL    HW134310   4.320   1.803   6.842 -1.1297  0.2156  1.3332
 7617SOL    HW234311   4.255   1.849   6.716 -1.4620  2.9956 -0.4047
 7618SOL     OW34312   4.432   3.372   6.640  0.3249  0.5488 -0.0618
 7618SOL    HW134313   4.382   3.291   6.643  2.0925 -0.5560 -0.1641
 7618SOL    HW234314   4.519   3.334   6.656 -0.7888 -0.7859  2.7275
 7619SOL     OW34315   0.578   1.059   7.495 -0.0634  0.8261 -0.0425
 7619SOL    HW134316   0.611   1.116   7.564 -0.4921  0.9100  0.0903
 7619SOL    HW234317   0.486   1.046   7.515  0.3701 -3.3087 -0.7133
 7620SOL     OW34318   0.064   2.126   5.885  0.4504  0.4357 -0.3411
 7620SOL    HW134319   0.107   2.207   5.914  1.4064  0.1397 -0.9172
 7620SOL    HW234320   0.037   2.141   5.794 -0.2608  0.4053 -0.1346
 7621SOL     OW34321   4.390   4.707  10.596  0.0810  0.1895 -0.1859
 7621SOL    HW134322   4.371   4.615  10.578  2.9797 -0.2761 -0.8727
 7621SOL    HW234323   4.482   4.712  10.569 -0.0319  2.3969 -0.1047
 7622SOL     OW34324   1.808   2.021   8.605 -0.3201 -0.1179 -0.0253
 7622SOL    HW134325   1.744   1.974   8.659  1.9414 -0.2231  2.5646
 7622SOL    HW234326   1.756   2.014   8.524  0.9988  0.5310 -0.9147
 7623SOL     OW34327   4.378   3.636   7.035  0.2241 -0.2460 -0.0157
 7623SOL    HW134328   4.381   3.729   7.056  2.1262 -0.2612 -0.2787
 7623SOL    HW234329   4.445   3.621   6.969  0.9416 -1.2125  0.9393
 7624SOL     OW34330   1.128   1.974  12.077 -0.3038  0.7761 -0.3454
 7624SOL    HW134331   1.131   2.013  11.989 -0.1764  1.5323  0.0025
 7624SOL    HW234332   1.212   1.929  12.075 -1.5170 -1.5822  1.9018
 7625SOL     OW34333   3.084   1.977  10.942 -0.6147  0.0731 -0.6897
 7625SOL    HW134334   3.178   1.984  10.958 -1.1360  2.9498  1.0578
 7625SOL    HW234335   3.099   1.959  10.849  0.6628 -2.6081  0.0534
 7626SOL     OW34336   1.878   2.646   7.064 -0.4150 -0.4756  0.6712
 7626SOL    HW134337   1.850   2.737   7.058 -0.4082 -0.6459 -1.9882
 7626SOL    HW234338   1.792   2.607   7.080 -0.3621 -0.9887 -0.2511
 7627SOL     OW34339   4.360   2.198   1.835 -0.6946  0.3170  0.5877
 7627SOL    HW134340   4.275   2.155   1.842 -1.2104  1.3687  0.7594
 7627SOL    HW234341   4.346   2.291   1.814 -0.9438  0.3769  1.0151
 7628SOL     OW34342   0.496   0.031   7.216 -0.0048  0.1098  0.2432
 7628SOL    HW134343   0.409   0.036   7.257 -0.5972  1.3683 -1.1941
 7628SOL    HW234344   0.540   0.108   7.253  4.1596 -1.9321 -0.4711
 7629SOL     OW34345   4.654   3.892   2.663  0.1899 -0.0754  0.0640
 7629SOL    HW134346   4.574   3.934   2.633  0.2383  0.1497  0.2481
 7629SOL    HW234347   4.683   3.965   2.718  3.7437 -1.7607  0.5042
 7630SOL     OW34348   0.893   4.206   2.265  0.0766 -0.6038 -0.0233
 7630SOL    HW134349   0.844   4.232   2.342  0.9252 -1.6051  0.8465
 7630SOL    HW234350   0.864   4.278   2.209  1.6037  0.4225  0.5058
 7631SOL     OW34351   3.826   4.134   8.945  0.3538  0.2892  0.3360
 7631SOL    HW134352   3.808   4.180   9.026 -0.9976 -0.8419  0.6895
 7631SOL    HW234353   3.780   4.054   8.972  1.4609 -0.7755 -0.9220
 7632SOL     OW34354   2.789   3.528  11.173  0.1940  0.0070  0.1447
 7632SOL    HW134355   2.882   3.552  11.168  0.4628 -0.8415  1.0154
 7632SOL    HW234356   2.771   3.561  11.261  0.2513 -0.4417  0.3287
 7633SOL     OW34357   3.672   0.976   7.198 -0.2408 -0.4554 -0.1236
 7633SOL    HW134358   3.737   0.983   7.268  1.8418  0.2678 -2.1331
 7633SOL    HW234359   3.725   0.938   7.127  0.6654  1.3800 -0.4259
 7634SOL     OW34360   3.975   2.458  17.180  0.2214 -0.2237 -0.2361
 7634SOL    HW134361   3.941   2.402  17.250  0.5091  0.6478  0.6138
 7634SOL    HW234362   4.057   2.412  17.164  0.0804 -0.1548 -1.1226
 7635SOL     OW34363   2.113   0.010   6.943 -0.1833 -0.1022 -0.0363
 7635SOL    HW134364   2.100   0.083   7.003  1.5910 -0.4634  0.7838
 7635SOL    HW234365   2.071   0.053   6.868  0.0697 -2.7058 -1.6682
 7636SOL     OW34366   2.820   0.287   7.551  0.3341 -0.0965 -0.0830
 7636SOL    HW134367   2.736   0.305   7.509 -0.2429 -0.6600  0.8221
 7636SOL    HW234368   2.858   0.371   7.526 -2.0502  0.7459 -0.8093
 7637SOL     OW34369   0.743   4.131  13.366 -0.5173 -0.1622  0.1923
 7637SOL    HW134370   0.828   4.105  13.404 -0.6351  0.7008  1.0586
 7637SOL    HW234371   0.746   4.093  13.278 -0.0464  1.4985 -0.4988
 7638SOL     OW34372   4.518   0.418   7.333 -0.2930  0.5789 -0.2974
 7638SOL    HW134373   4.614   0.412   7.337 -0.5331 -0.6986  2.9870
 7638SOL    HW234374   4.505   0.383   7.244 -3.6645 -0.1246  0.4976
 7639SOL     OW34375   4.207   1.896   6.507 -0.1106 -0.0725  0.6527
 7639SOL    HW134376   4.247   1.845   6.436 -1.6949 -0.4369  0.0142
 7639SOL    HW234377   4.119   1.906   6.470  0.1447 -2.7336 -0.6845
 7640SOL     OW34378   0.886   1.295   8.796  0.0339 -0.2113 -0.3980
 7640SOL    HW134379   0.885   1.218   8.739 -2.6758  0.4077 -1.1828
 7640SOL    HW234380   0.913   1.251   8.877 -0.9102 -0.1775 -0.0696
 7641SOL     OW34381   0.725   0.649   5.494  0.2842  0.3743 -0.1646
 7641SOL    HW134382   0.685   0.653   5.581  0.7440 -0.1634  0.0658
 7641SOL    HW234383   0.655   0.691   5.443  0.2246  0.7688  0.2409
 7642SOL     OW34384   3.434   4.312  11.565  0.1619 -0.2252  0.1861
 7642SOL    HW134385   3.373   4.377  11.531 -0.1183  0.2634  1.6401
 7642SOL    HW234386   3.395   4.225  11.556  0.4229 -0.1150 -2.1071
 7643SOL     OW34387   2.750   2.473   5.639 -0.2742  0.5223 -1.1913
 7643SOL    HW134388   2.769   2.523   5.719  1.3621 -1.1024 -0.5584
 7643SOL    HW234389   2.657   2.492   5.628 -0.6786 -0.1669  0.9786
 7644SOL     OW34390   1.801   4.288   4.355  0.0592 -0.0733  0.2348
 7644SOL    HW134391   1.827   4.315   4.443  1.3234 -0.8743  0.1074
 7644SOL    HW234392   1.860   4.351   4.314  1.2686 -0.3380  1.5441
 7645SOL     OW34393   2.772   0.714   6.604 -0.2433  0.0922 -0.3078
 7645SOL    HW134394   2.852   0.759   6.630  1.5096 -2.3932 -1.4240
 7645SOL    HW234395   2.774   0.720   6.508  0.4008  1.0108 -0.2359
 7646SOL     OW34396   4.678   1.755   2.789 -0.0281  0.4915  0.3764
 7646SOL    HW134397   4.629   1.763   2.707  0.2120 -0.9428  0.0933
 7646SOL    HW234398   0.043   1.724   2.759 -0.0723  0.7793 -0.0457
 7647SOL     OW34399   2.058   0.028  12.987 -0.2579  0.2389  0.3582
 7647SOL    HW134400   1.996   4.678  13.007  1.6512 -1.4712  0.4095
 7647SOL    HW234401   2.011   0.079  12.921  1.1765  0.5848 -0.4082
 7648SOL     OW34402   4.605   0.066   7.206  0.0683  0.5276 -0.2799
 7648SOL    HW134403   4.644   0.154   7.207  2.3603 -0.4925 -1.4341
 7648SOL    HW234404   4.624   0.035   7.118 -2.4605  0.8419 -0.9334
 7649SOL     OW34405   1.673   1.296   6.386 -0.1556 -0.4998 -0.9178
 7649SOL    HW134406   1.601   1.302   6.323  0.0406  0.2855 -1.0683
 7649SOL    HW234407   1.745   1.281   6.325  2.5824  1.7685  1.7440
 7650SOL     OW34408   2.419   4.462   3.535  0.1358  0.3786  0.2450
 7650SOL    HW134409   2.496   4.423   3.576  0.9485  2.3836  0.6535
 7650SOL    HW234410   2.467   4.526   3.483  0.6253 -0.0836  0.1264
 7651SOL     OW34411   4.564   1.941  17.519 -0.8300 -0.2740  0.1395
 7651SOL    HW134412   4.597   1.851  17.515  2.4748  0.8497  2.6491
 7651SOL    HW234413   4.469   1.935  17.503 -0.7143  1.0794 -1.1318
 7652SOL     OW34414   1.363   3.511  17.008  0.1252 -0.3796  0.6083
 7652SOL    HW134415   1.410   3.524  17.090  0.8309 -0.0106  0.1482
 7652SOL    HW234416   1.312   3.592  17.008  1.3947  0.4214 -2.6886
 7653SOL     OW34417   4.134   2.328   3.111  0.3960 -0.2068  0.7573
 7653SOL    HW134418   4.156   2.238   3.084 -0.1533 -0.7401  2.0864
 7653SOL    HW234419   4.143   2.320   3.206 -1.8459  0.3634  1.0204
 7654SOL     OW34420   2.293   3.176   1.933 -0.3757  0.1942 -0.3447
 7654SOL    HW134421   2.283   3.095   1.982 -0.6971  0.7921  0.5680
 7654SOL    HW234422   2.205   3.190   1.897 -0.9855 -0.7830  0.7884
 7655SOL     OW34423   1.644   1.318  15.699  0.2475 -0.5557  0.0631
 7655SOL    HW134424   1.671   1.290  15.612  1.0211 -0.0654  0.1472
 7655SOL    HW234425   1.726   1.299  15.745  0.8015  2.9736  0.5069
 7656SOL     OW34426   4.231   1.163   2.486 -0.3695 -0.0291 -0.6653
 7656SOL    HW134427   4.154   1.219   2.494  0.8378  1.7431 -1.4526
 7656SOL    HW234428   4.287   1.222   2.436 -0.4210 -1.6517 -2.6706
 7657SOL     OW34429   0.970   4.544  17.607 -0.2893  0.4372  0.3039
 7657SOL    HW134430   0.970   4.487  17.530 -0.4328  0.9844 -0.0978
 7657SOL    HW234431   1.050   4.507  17.645  0.4784  1.1077 -0.6763
 7658SOL     OW34432   4.497   0.214   5.858  0.4570  0.2251 -0.0117
 7658SOL    HW134433   4.488   0.130   5.814 -0.3345  0.9013 -1.1349
 7658SOL    HW234434   4.420   0.210   5.914  0.3795  1.0637 -0.0602
 7659SOL     OW34435   2.834   0.058   3.410  0.1148 -0.2899  0.4059
 7659SOL    HW134436   2.885   0.108   3.473  1.1735 -1.6851  0.6513
 7659SOL    HW234437   2.898   4.715   3.376  1.1266 -0.7512  3.1558
 7660SOL     OW34438   2.457   0.717   3.918  0.0582  0.3648  0.0488
 7660SOL    HW134439   2.420   0.714   4.006 -0.3994  0.5906 -0.1312
 7660SOL    HW234440   2.426   0.633   3.884  0.4273  0.4578 -0.5251
 7661SOL     OW34441   1.997   3.337   5.888 -0.5798 -0.2404 -0.1604
 7661SOL    HW134442   1.918   3.389   5.902 -0.2058  0.6547 -1.3845
 7661SOL    HW234443   1.995   3.310   5.796 -2.1638 -1.6398  0.2627
 7662SOL     OW34444   3.264   1.181   7.583  0.2443 -0.2621  0.2371
 7662SOL    HW134445   3.204   1.162   7.655  0.0942  0.9327  0.4198
 7662SOL    HW234446   3.314   1.259   7.606 -0.5976  0.1017  0.8284
 7663SOL     OW34447   1.092   0.350   8.248 -0.1583 -0.4597  0.0377
 7663SOL    HW134448   0.998   0.341   8.264 -0.8224  0.2403 -3.4003
 7663SOL    HW234449   1.138   0.325   8.328  1.3336  1.6824 -0.1490
 7664SOL     OW34450   2.680   1.892   6.491  1.2806 -0.1425  0.0495
 7664SOL    HW134451   2.744   1.852   6.550  2.3100  1.0570 -0.2625
 7664SOL    HW234452   2.616   1.822   6.474  2.0668 -0.5711 -1.1447
 7665SOL     OW34453   0.465   2.984   2.436 -0.4972  0.0235  0.6978
 7665SOL    HW134454   0.539   2.967   2.493 -0.5223 -1.2541  0.3474
 7665SOL    HW234455   0.438   3.071   2.466 -2.0175 -0.2180  0.0260
 7666SOL     OW34456   4.699   2.778  14.781  0.2298 -0.2558  0.7682
 7666SOL    HW134457   4.647   2.731  14.846 -1.8239  1.8414  0.6102
 7666SOL    HW234458   0.055   2.720  14.771 -0.8942 -1.2535 -1.7258
 7667SOL     OW34459   0.085   3.459  10.094 -0.2661  0.8150  0.0009
 7667SOL    HW134460   0.156   3.466  10.030  1.2570  1.2871  1.7305
 7667SOL    HW234461   0.076   3.364  10.092 -0.2804  0.8102  0.3450
 7668SOL     OW34462   3.128   0.818   9.887 -0.1536 -0.0190 -0.4256
 7668SOL    HW134463   3.081   0.893   9.851  0.9321  0.0171 -1.7983
 7668SOL    HW234464   3.214   0.862   9.887 -0.0466 -0.2349  1.2371
 7669SOL     OW34465   3.312   4.526   9.645  0.2777 -0.4614  0.3899
 7669SOL    HW134466   3.389   4.551   9.697  1.4657 -0.1626 -1.4901
 7669SOL    HW234467   3.350   4.482   9.569  1.3746  3.4979 -1.3936
 7670SOL     OW34468   0.961   2.506  11.705  0.0348  0.1366 -0.3388
 7670SOL    HW134469   0.977   2.414  11.724 -0.3845  0.2955  0.8052
 7670SOL    HW234470   1.038   2.522  11.651  1.5942 -2.8217  1.0541
 7671SOL     OW34471   0.572   1.887   4.911  0.0996  0.3291  0.0437
 7671SOL    HW134472   0.552   1.971   4.869  3.3627  1.7097  1.2097
 7671SOL    HW234473   0.486   1.867   4.949 -0.4810  3.0025  0.2127
 7672SOL     OW34474   3.625   0.936   2.853  0.6148 -0.2980 -0.1656
 7672SOL    HW134475   3.614   0.921   2.759 -0.8492 -0.5378  0.0406
 7672SOL    HW234476   3.667   1.022   2.857  0.9076 -0.4796  0.6765
 7673SOL     OW34477   2.927   2.503   7.603  0.3794  0.4864  1.2319
 7673SOL    HW134478   2.945   2.525   7.694  0.3022 -0.3066  1.4417
 7673SOL    HW234479   3.011   2.532   7.568  1.4167 -1.6157  1.9345
 7674SOL     OW34480   4.253   4.043   7.053  0.5650  0.0481  0.6128
 7674SOL    HW134481   4.258   4.037   7.148 -1.6693  1.5352  0.8429
 7674SOL    HW234482   4.161   4.016   7.047  0.6826 -0.3399  0.5613
 7675SOL     OW34483   0.962   3.723   3.967 -0.3734  0.0468  0.2821
 7675SOL    HW134484   0.892   3.674   4.010  1.0425 -1.4556  0.8178
 7675SOL    HW234485   0.916   3.716   3.883  1.4316  1.0604 -0.7868
 7676SOL     OW34486   3.323   1.267  10.278 -0.4965  0.0087  0.9783
 7676SOL    HW134487   3.277   1.185  10.295 -0.3543 -0.5522 -1.3334
 7676SOL    HW234488   3.340   1.296  10.368  0.6669  0.7533  0.5241
 7677SOL     OW34489   2.362   3.777   6.860 -0.1791 -0.2270  0.2012
 7677SOL    HW134490   2.401   3.852   6.905 -1.4817  0.0548  0.8489
 7677SOL    HW234491   2.383   3.700   6.913  2.4932  0.6752  0.4908
 7678SOL     OW34492   0.617   4.579   2.705 -0.1860  0.3930  0.1859
 7678SOL    HW134493   0.623   4.661   2.754 -1.2694  0.3310  0.4201
 7678SOL    HW234494   0.631   4.610   2.615  1.9943 -2.1675 -0.3799
 7679SOL     OW34495   3.987   0.296   9.968 -0.0578 -0.4125 -0.0308
 7679SOL    HW134496   4.022   0.376  10.008  1.4110 -1.1709  0.2315
 7679SOL    HW234497   4.069   0.258   9.935  1.0784  1.0491  1.0664
 7680SOL     OW34498   3.187   1.295  10.774  0.2491  0.1440 -0.2613
 7680SOL    HW134499   3.153   1.352  10.844  0.5621  2.3249 -1.8767
 7680SOL    HW234500   3.106   1.252  10.749 -0.3787 -0.0499  2.1009
 7681SOL     OW34501   4.541   2.327  13.466  0.6773  0.0269 -0.7579
 7681SOL    HW134502   4.517   2.277  13.544  1.3073  0.7949 -0.0699
 7681SOL    HW234503   4.604   2.264  13.432  0.2266 -0.9951  0.2993
 7682SOL     OW34504   3.019   2.644   3.620  0.1613  0.3126 -0.4092
 7682SOL    HW134505   3.091   2.602   3.666 -1.3768 -0.8439  0.9631
 7682SOL    HW234506   2.957   2.588   3.667  0.1634  1.0520  0.4802
 7683SOL     OW34507   1.617   3.567   6.548  0.7099  0.0186 -0.0745
 7683SOL    HW134508   1.672   3.639   6.518 -0.7770  1.3157  0.3343
 7683SOL    HW234509   1.677   3.499   6.580  0.1156  0.2090  1.4644
 7684SOL     OW34510   2.821   4.484   2.713  0.0235  0.4200 -0.3129
 7684SOL    HW134511   2.810   4.389   2.708  0.9840  0.3092 -0.3037
 7684SOL    HW234512   2.868   4.485   2.629  3.5561 -0.6696  1.6362
 7685SOL     OW34513   0.491   4.006   4.405  0.1886 -0.1559 -0.3606
 7685SOL    HW134514   0.486   3.949   4.482  0.5364  1.0298  0.5433
 7685SOL    HW234515   0.522   4.083   4.452 -0.8755  0.0494  0.0115
 7686SOL     OW34516   3.234   3.972   3.946  0.5697  0.2297 -0.3941
 7686SOL    HW134517   3.299   3.985   3.877  1.7132  0.7049  0.7809
 7686SOL    HW234518   3.273   3.903   3.999  2.2682  1.5732  0.0912
 7687SOL     OW34519   3.414   1.927   1.286 -0.0484 -0.2021  0.4258
 7687SOL    HW134520   3.498   1.906   1.325  0.2960  1.2961  0.5121
 7687SOL    HW234521   3.432   2.019   1.265  0.3842 -0.8197 -1.8761
 7688SOL     OW34522   3.323   0.490   4.494 -1.0160 -0.4663  0.4145
 7688SOL    HW134523   3.415   0.462   4.493 -1.1765 -0.9731 -0.3231
 7688SOL    HW234524   3.305   0.499   4.401 -0.2642  0.4526  0.3709
 7689SOL     OW34525   0.277   1.777   7.559 -0.4901 -0.1946  0.2349
 7689SOL    HW134526   0.352   1.829   7.530 -0.0153 -1.6407 -1.1077
 7689SOL    HW234527   0.221   1.794   7.483 -1.1312  1.7890  1.1332
 7690SOL     OW34528   0.669   4.181   7.813 -0.5548  0.6790 -0.4061
 7690SOL    HW134529   0.646   4.088   7.803 -1.6099  0.6325  2.4773
 7690SOL    HW234530   0.584   4.222   7.828 -0.8500  0.5374 -1.6492
 7691SOL     OW34531   1.544   1.317   0.419 -0.4382 -0.1724  0.1136
 7691SOL    HW134532   1.607   1.354   0.480  0.1437  1.0372 -1.2074
 7691SOL    HW234533   1.583   1.331   0.333  2.9817 -3.7174  1.0793
 7692SOL     OW34534   4.675   1.696  17.471  0.2381 -0.3342 -1.1679
 7692SOL    HW134535   4.666   1.625  17.534 -0.1592 -0.1952 -1.0679
 7692SOL    HW234536   0.041   1.673  17.432  1.5607  1.8206  0.4642
 7693SOL     OW34537   0.802   1.420  12.875  0.3351  0.0657  0.7516
 7693SOL    HW134538   0.889   1.461  12.874  1.2123 -1.7759  0.1986
 7693SOL    HW234539   0.809   1.343  12.817 -1.7195 -0.0915  0.7291
 7694SOL     OW34540   3.846   3.253   9.976  0.1170 -0.0484  0.0351
 7694SOL    HW134541   3.929   3.215   9.945 -0.4047 -0.6513 -0.6210
 7694SOL    HW234542   3.876   3.315  10.042  1.5179  0.8582 -1.4520
 7695SOL     OW34543   0.061   0.227   6.139  0.2636 -0.4464 -0.2756
 7695SOL    HW134544   0.003   0.299   6.165  0.4937 -0.4683  0.2945
 7695SOL    HW234545   0.096   0.267   6.059  0.0357 -2.2589 -1.2811
 7696SOL     OW34546   3.639   1.927   5.045 -0.3597 -0.5341 -0.8211
 7696SOL    HW134547   3.716   1.981   5.064 -0.3266 -1.8561  2.7291
 7696SOL    HW234548   3.678   1.858   4.992  3.1155  1.6618 -1.1223
 7697SOL     OW34549   3.106   2.993   3.271  0.1677 -0.4587  0.6818
 7697SOL    HW134550   3.136   2.902   3.266 -0.8731 -0.7526 -0.3682
 7697SOL    HW234551   3.161   3.031   3.202  0.6085 -1.5866  0.4087
 7698SOL     OW34552   3.050   3.895   7.387  0.0969  0.6079 -0.1013
 7698SOL    HW134553   2.985   3.858   7.328  1.0694 -1.2130 -0.0193
 7698SOL    HW234554   3.127   3.877   7.333 -0.5326 -0.5925 -0.5938
 7699SOL     OW34555   2.456   2.766   5.062 -0.3201 -0.2203 -0.4295
 7699SOL    HW134556   2.461   2.748   4.968 -1.1530  0.1295 -0.5393
 7699SOL    HW234557   2.550   2.770   5.078 -0.0942 -0.4059 -1.6911
 7700SOL     OW34558   2.761   2.173   2.684  0.0191 -0.2967  0.6897
 7700SOL    HW134559   2.735   2.107   2.620 -1.1413  0.4402  0.3922
 7700SOL    HW234560   2.852   2.182   2.658 -0.3540  0.6562 -0.2901
 7701SOL     OW34561   1.792   0.500   6.194  0.0817  0.0063  0.3932
 7701SOL    HW134562   1.831   0.418   6.165 -0.7632 -0.3951  0.3933
 7701SOL    HW234563   1.863   0.556   6.228  1.1004  0.1208 -1.9631
 7702SOL     OW34564   1.721   2.809  16.577  0.0934  0.0914 -0.1896
 7702SOL    HW134565   1.796   2.780  16.630 -0.6197 -0.3056  0.6193
 7702SOL    HW234566   1.665   2.731  16.572 -0.4002  0.3465  1.3640
 7703SOL     OW34567   1.751   0.189   5.732 -1.0114 -0.0529  0.1104
 7703SOL    HW134568   1.837   0.189   5.691 -0.7948  2.5611  0.6061
 7703SOL    HW234569   1.696   0.201   5.655 -0.0065 -0.9957 -0.7599
 7704SOL     OW34570   0.994   0.069  14.050 -0.4196  0.5071 -0.3298
 7704SOL    HW134571   0.956   0.114  13.974  1.0747  0.2111 -1.2679
 7704SOL    HW234572   0.923   0.083  14.113 -0.9912 -0.6060 -0.7138
 7705SOL     OW34573   2.027   3.450   2.270  0.6683  0.4517  0.4817
 7705SOL    HW134574   2.048   3.541   2.288  0.2102  0.9914 -1.7375
 7705SOL    HW234575   2.093   3.431   2.203  1.0040 -2.4283  1.6051
 7706SOL     OW34576   0.711   0.976   6.873  0.6896  0.0606  0.1873
 7706SOL    HW134577   0.744   0.892   6.903 -2.5935 -0.9804  0.9625
 7706SOL    HW234578   0.759   0.991   6.791 -0.6279  1.1639 -0.3840
 7707SOL     OW34579   0.290   2.937   1.900  0.4138 -0.1143 -0.0278
 7707SOL    HW134580   0.195   2.947   1.896  0.3764 -1.4343 -2.7716
 7707SOL    HW234581   0.312   2.978   1.983  0.7457  1.0584 -0.6952
 7708SOL     OW34582   2.592   1.141   8.378 -0.0664  0.5034 -0.2688
 7708SOL    HW134583   2.666   1.202   8.385  0.5228 -0.0256 -1.8232
 7708SOL    HW234584   2.642   1.060   8.378 -0.6862  0.1271  1.4296
 7709SOL     OW34585   2.500   2.787   2.003 -0.0057  0.4668  0.4642
 7709SOL    HW134586   2.523   2.848   2.073  4.3198 -3.3294  2.3778
 7709SOL    HW234587   2.405   2.803   2.006  0.5077  3.5797 -0.1215
 7710SOL     OW34588   0.131   1.224  13.021 -0.0831 -0.1606 -0.9745
 7710SOL    HW134589   0.108   1.317  13.021  0.7178  0.0445  1.4903
 7710SOL    HW234590   0.226   1.233  13.011  0.2099 -1.5290  0.6827
 7711SOL     OW34591   3.214   1.857   3.556  0.4807 -0.1938 -0.3157
 7711SOL    HW134592   3.258   1.852   3.640 -0.1414 -0.8034 -0.0201
 7711SOL    HW234593   3.278   1.907   3.506  0.9534 -0.4303  0.0640
 7712SOL     OW34594   0.863   3.669   5.729 -0.3966  0.2875  0.2202
 7712SOL    HW134595   0.925   3.616   5.779 -0.9886 -0.2363  0.4078
 7712SOL    HW234596   0.919   3.743   5.707 -1.2582  0.6821 -0.6221
 7713SOL     OW34597   3.037   3.644   3.803  0.8737  0.3730 -0.7785
 7713SOL    HW134598   2.981   3.591   3.746 -0.2483  0.4472  0.2684
 7713SOL    HW234599   3.082   3.579   3.856  0.3508  0.6772  0.0339
 7714SOL     OW34600   0.685   0.082   5.764 -0.0928  0.5699 -0.3290
 7714SOL    HW134601   0.668   0.004   5.817 -1.3740 -0.6632 -2.5720
 7714SOL    HW234602   0.596   0.114   5.749  0.8029  3.2392  0.0786
 7715SOL     OW34603   4.474   0.673   7.431  0.4683 -0.0349 -0.3333
 7715SOL    HW134604   4.461   0.656   7.524  2.9359  0.4332  0.0943
 7715SOL    HW234605   4.486   0.583   7.399  0.0615  0.7480 -2.6686
 7716SOL     OW34606   4.315   0.171   6.039 -0.0002  0.1798  0.5713
 7716SOL    HW134607   4.279   0.182   6.127  2.3356 -0.3215  1.6121
 7716SOL    HW234608   4.291   0.078   6.034 -1.2260  0.5266  0.1779
 7717SOL     OW34609   4.593   1.875   2.077  0.0214  0.3407  0.4372
 7717SOL    HW134610   4.621   1.949   2.022  0.6126 -1.1732 -1.2887
 7717SOL    HW234611   4.672   1.820   2.079  0.6545  1.2841  1.4508
 7718SOL     OW34612   3.008   3.586  13.943  0.7421  0.1414 -0.0419
 7718SOL    HW134613   2.923   3.601  13.983  0.5881 -0.3650 -0.1752
 7718SOL    HW234614   2.986   3.581  13.850 -2.9528 -1.2934  0.9392
 7719SOL     OW34615   3.681   3.022   6.847 -0.1129 -0.1533  0.0955
 7719SOL    HW134616   3.607   3.041   6.788 -2.2051  0.9630  3.0812
 7719SOL    HW234617   3.729   3.104   6.832 -2.8909  1.3269 -0.8875
 7720SOL     OW34618   3.194   1.192   5.898 -0.2316  0.4286 -0.4553
 7720SOL    HW134619   3.289   1.201   5.908 -0.1451 -0.5782 -0.3727
 7720SOL    HW234620   3.172   1.285   5.888  0.7956  0.4360 -2.6617
 7721SOL     OW34621   2.751   3.181   1.335 -0.1419  0.0466 -0.3734
 7721SOL    HW134622   2.790   3.103   1.295  1.0707 -0.8046  2.5178
 7721SOL    HW234623   2.683   3.203   1.272 -1.2429 -0.8435  0.5213
 7722SOL     OW34624   4.272   1.002   4.343 -0.2729  0.4601 -0.4185
 7722SOL    HW134625   4.326   0.923   4.336 -0.1006  0.3745  1.6795
 7722SOL    HW234626   4.340   1.066   4.325  0.6431 -0.5396 -0.5433
 7723SOL     OW34627   0.003   0.388   4.941 -0.2305  0.1493 -0.0500
 7723SOL    HW134628   0.050   0.420   5.018  0.2426 -0.8483  0.0827
 7723SOL    HW234629   0.062   0.426   4.876 -0.4092 -2.2497 -1.6111
 7724SOL     OW34630   2.918   2.618   6.407 -0.3455 -0.1353  0.1242
 7724SOL    HW134631   2.860   2.640   6.479 -1.6323  0.9874 -1.2544
 7724SOL    HW234632   2.891   2.529   6.386  1.3274 -0.8052  0.8166
 7725SOL     OW34633   3.398   1.989   4.064 -0.2432  0.1967 -0.3463
 7725SOL    HW134634   3.323   1.995   4.005  0.6440 -3.7221 -1.9128
 7725SOL    HW234635   3.398   1.894   4.080 -0.2343  0.4657  1.2477
 7726SOL     OW34636   0.574   1.990  10.146 -0.6239  0.1480  0.1257
 7726SOL    HW134637   0.632   2.008  10.220 -0.8419 -2.4029  0.9407
 7726SOL    HW234638   0.520   2.069  10.145 -0.7953  0.0329  0.2141
 7727SOL     OW34639   0.145   2.807   7.688 -0.1114  0.0495  0.4386
 7727SOL    HW134640   0.208   2.823   7.758 -0.1522  0.3113  0.4157
 7727SOL    HW234641   0.105   2.723   7.709 -1.0984  1.4281  3.9561
 7728SOL     OW34642   1.385   1.909  12.337  0.4106 -0.1746 -0.2822
 7728SOL    HW134643   1.437   1.909  12.417 -0.4077 -1.3785  0.2458
 7728SOL    HW234644   1.372   2.003  12.327  1.9069 -0.0817 -1.3515
 7729SOL     OW34645   4.320   2.689   4.726 -0.3260 -0.1810  0.4327
 7729SOL    HW134646   4.286   2.683   4.815  0.7708  0.0125  0.8636
 7729SOL    HW234647   4.271   2.618   4.684 -2.2544  0.9404  0.8072
 7730SOL     OW34648   2.738   1.215   7.312 -0.2111 -0.0461  0.0046
 7730SOL    HW134649   2.685   1.165   7.249 -0.4929  1.7071 -1.1464
 7730SOL    HW234650   2.666   1.232   7.373 -0.0346  1.9911 -0.3573
 7731SOL     OW34651   4.707   0.071   1.210 -0.6546 -0.2956  0.2546
 7731SOL    HW134652   0.058   0.006   1.208  0.5725  0.9708  2.2570
 7731SOL    HW234653   4.640   0.020   1.256  0.7752 -2.2389  0.2104
 7732SOL     OW34654   3.828   2.807   8.672  0.3333  0.0481 -0.2300
 7732SOL    HW134655   3.863   2.857   8.598 -0.7616  0.6024 -0.3819
 7732SOL    HW234656   3.775   2.871   8.720  0.0499 -0.0967 -0.3478
 7733SOL     OW34657   3.047   2.200   8.112  0.1497  0.0864 -0.4515
 7733SOL    HW134658   2.969   2.180   8.164  0.3378  0.1978 -0.1274
 7733SOL    HW234659   3.111   2.196   8.183 -0.8709  0.1192  0.4635
 7734SOL     OW34660   2.865   4.355   4.405 -0.3761  0.4534 -0.2491
 7734SOL    HW134661   2.809   4.430   4.383 -0.3511  0.4263 -0.4063
 7734SOL    HW234662   2.941   4.366   4.347 -0.2975  0.1690 -0.1978
 7735SOL     OW34663   1.473   3.679   3.253 -0.0850 -0.3079 -0.2034
 7735SOL    HW134664   1.441   3.613   3.191 -0.1298 -1.2474  0.8245
 7735SOL    HW234665   1.393   3.707   3.298 -0.8658  0.5481 -2.0714
 7736SOL     OW34666   3.880   4.025   9.716 -0.1159  0.2128  0.3303
 7736SOL    HW134667   3.815   4.085   9.751 -1.2225 -0.9787  0.3572
 7736SOL    HW234668   3.921   3.993   9.796 -1.8336 -1.8980  0.3665
 7737SOL     OW34669   0.110   0.826   4.920  0.0042  0.6252 -0.3646
 7737SOL    HW134670   0.146   0.744   4.956 -1.6912  0.1463  0.2221
 7737SOL    HW234671   0.136   0.822   4.828  0.3583  0.8132 -0.2732
 7738SOL     OW34672   3.666   2.290   4.692 -0.4241 -0.4885  0.0406
 7738SOL    HW134673   3.716   2.365   4.660 -0.2849 -0.6474 -0.1088
 7738SOL    HW234674   3.655   2.242   4.610 -1.2638  0.2444 -0.2712
 7739SOL     OW34675   3.939   2.099   7.398 -0.6139  0.2559 -0.2616
 7739SOL    HW134676   3.962   2.030   7.460  1.7068  0.8167 -0.4697
 7739SOL    HW234677   3.991   2.171   7.436 -0.5849 -1.0991  2.2645
 7740SOL     OW34678   1.890   1.757   1.298 -0.2546 -0.2585  0.4240
 7740SOL    HW134679   1.859   1.744   1.388 -4.0675  0.5056 -0.7818
 7740SOL    HW234680   1.847   1.683   1.256 -1.5844  0.5976  0.2605
 7741SOL     OW34681   1.528   1.580   3.519  0.0499 -0.5883  0.2102
 7741SOL    HW134682   1.464   1.519   3.557  1.5925 -1.1200  1.9360
 7741SOL    HW234683   1.608   1.535   3.546 -1.3076 -1.2671  3.1896
 7742SOL     OW34684   3.970   0.688   1.716  0.2113 -0.3830  0.2020
 7742SOL    HW134685   3.995   0.761   1.659 -0.5908 -0.9912 -0.9240
 7742SOL    HW234686   4.033   0.626   1.681  1.5337  2.1422 -1.9490
 7743SOL     OW34687   4.660   3.930   6.153  0.2755  0.1615 -0.1454
 7743SOL    HW134688   4.702   3.875   6.087 -0.5090 -1.6617  0.8874
 7743SOL    HW234689   4.615   3.857   6.196  0.3857  0.8474  1.1437
 7744SOL     OW34690   4.489   2.652  10.206  0.2826  0.0048 -0.2050
 7744SOL    HW134691   4.491   2.609  10.121 -2.7749 -0.1688 -0.2051
 7744SOL    HW234692   4.457   2.579  10.259 -1.7517  2.2155  1.6300
 7745SOL     OW34693   3.943   0.712   9.234  0.1921  0.2578  0.3966
 7745SOL    HW134694   3.886   0.788   9.223 -0.6573 -0.5975 -1.1214
 7745SOL    HW234695   3.871   0.650   9.230 -1.8821  2.6398  0.4052
 7746SOL     OW34696   0.811   3.330   1.985 -0.8200  0.5001  0.4079
 7746SOL    HW134697   0.866   3.255   2.009 -2.2595 -0.4512  0.7412
 7746SOL    HW234698   0.746   3.336   2.055  0.4778  1.1163  1.5654
 7747SOL     OW34699   3.413   0.183   8.183 -0.4182  0.4796  0.3556
 7747SOL    HW134700   3.486   0.179   8.121  0.6734  0.5611  1.6376
 7747SOL    HW234701   3.376   0.095   8.185 -1.7022  1.0345  1.1839
 7748SOL     OW34702   0.079   2.918  15.966  0.4223  0.1646  0.4712
 7748SOL    HW134703   0.079   3.013  15.974 -1.2815  0.1775  0.2741
 7748SOL    HW234704   4.711   2.897  15.998  0.8701 -2.0107  0.2754
 7749SOL     OW34705   3.676   3.058  13.830 -0.2214  0.2032  0.3559
 7749SOL    HW134706   3.671   3.143  13.874  0.8982  0.8385 -0.7390
 7749SOL    HW234707   3.761   3.065  13.787 -0.1143 -0.0582  0.5295
 7750SOL     OW34708   1.931   1.299  12.093 -0.0337  0.6471 -0.0598
 7750SOL    HW134709   1.901   1.390  12.089  0.6249  0.7706 -2.2997
 7750SOL    HW234710   1.860   1.259  12.042 -1.4048  0.1977  2.1568
 7751SOL     OW34711   3.430   2.179  15.491  0.2394  0.2538 -0.5425
 7751SOL    HW134712   3.457   2.115  15.558 -1.9204  1.4880  1.5106
 7751SOL    HW234713   3.443   2.258  15.544  0.0679 -0.8209  1.1057
 7752SOL     OW34714   4.648   0.061   6.338 -0.8998  0.6144 -0.2819
 7752SOL    HW134715   4.691   0.119   6.400 -0.4895  0.7228 -0.6663
 7752SOL    HW234716   4.669   0.108   6.257  0.1643  0.4846 -0.0860
 7753SOL     OW34717   2.020   1.326   2.370 -0.1650  0.0908 -0.8226
 7753SOL    HW134718   1.933   1.293   2.390  0.6067 -1.3266  0.2334
 7753SOL    HW234719   2.028   1.397   2.434  0.6322 -0.3534 -0.4272
 7754SOL     OW34720   3.704   2.821  12.219  0.0313  0.0317 -0.1618
 7754SOL    HW134721   3.631   2.870  12.260 -0.2139  0.0675 -0.6421
 7754SOL    HW234722   3.761   2.806  12.294  2.3510 -0.6716 -2.0887
 7755SOL     OW34723   0.310   3.263   7.434 -0.0209  0.4705  0.1197
 7755SOL    HW134724   0.274   3.317   7.505  0.9151 -2.4885  2.8108
 7755SOL    HW234725   0.238   3.273   7.371 -1.7110 -0.5359  1.9066
 7756SOL     OW34726   4.577   2.888   3.872  0.2112  0.3155 -0.6526
 7756SOL    HW134727   4.542   2.919   3.956  0.3500 -0.8326 -0.1746
 7756SOL    HW234728   4.520   2.937   3.812 -0.9450  2.0382  1.8563
 7757SOL     OW34729   4.642   4.291   4.794 -0.1520 -0.2357  0.2489
 7757SOL    HW134730   4.581   4.302   4.721  0.2319  0.5645  0.0543
 7757SOL    HW234731   4.582   4.293   4.868 -0.8309 -0.9913 -0.2810
 7758SOL     OW34732   4.041   4.620   7.109 -0.1449  0.1826  0.2095
 7758SOL    HW134733   4.131   4.609   7.140 -0.4615  1.1011  1.4455
 7758SOL    HW234734   4.009   4.529   7.105 -1.1875  0.4731  1.7348
 7759SOL     OW34735   3.533   4.319   6.301 -0.1906  0.6626  0.3286
 7759SOL    HW134736   3.546   4.225   6.287 -3.1675  0.0358  1.8462
 7759SOL    HW234737   3.438   4.316   6.290 -0.1671  1.0726  0.0162
 7760SOL     OW34738   3.241   3.598   2.982  0.4266 -0.1518 -0.8612
 7760SOL    HW134739   3.155   3.621   3.017  0.7335 -0.4400  0.0866
 7760SOL    HW234740   3.286   3.553   3.053  1.1065  0.5737 -0.8228
 7761SOL     OW34741   2.908   1.096   0.038  0.5998  0.0800  0.5462
 7761SOL    HW134742   2.843   1.040  17.677  0.1941 -0.0547  1.3811
 7761SOL    HW234743   2.980   1.116  17.657 -1.7087 -0.4255 -2.3317
 7762SOL     OW34744   1.316   1.450   3.678 -0.1077  0.0672 -0.4304
 7762SOL    HW134745   1.363   1.495   3.749  0.2756  0.2237 -0.7822
 7762SOL    HW234746   1.249   1.510   3.646  0.6303  0.5577 -1.0455
 7763SOL     OW34747   0.072   4.377   6.592 -0.3192 -0.2387 -0.2172
 7763SOL    HW134748   0.012   4.303   6.589 -0.5217 -0.0760 -0.1827
 7763SOL    HW234749   0.125   4.358   6.669 -1.6762 -2.6691  0.1141
 7764SOL     OW34750   3.882   0.110  11.408 -0.0536 -0.0458  1.0345
 7764SOL    HW134751   3.908   0.063  11.329  0.7362 -0.7118  1.6812
 7764SOL    HW234752   3.852   0.200  11.395  0.1192 -0.0003  0.9517
 7765SOL     OW34753   3.758   1.767   0.650 -0.3723 -0.1183 -0.1245
 7765SOL    HW134754   3.847   1.798   0.639  1.0627 -3.4799  1.9959
 7765SOL    HW234755   3.759   1.698   0.717  1.3241 -0.4787 -0.5372
 7766SOL     OW34756   2.657   1.917   5.389  0.5503  0.1171  0.0121
 7766SOL    HW134757   2.642   1.937   5.482 -2.1131  0.9720 -0.6045
 7766SOL    HW234758   2.615   1.833   5.375  1.2317 -0.2906  0.4450
 7767SOL     OW34759   4.644   0.285  12.062  0.4729  0.0032  0.2638
 7767SOL    HW134760   4.616   0.315  12.148 -2.3075  3.1397 -1.7735
 7767SOL    HW234761   4.586   0.210  12.048  0.2876  0.4910 -1.6186
 7768SOL     OW34762   2.276   4.534  13.065 -0.3824  0.0055  0.2912
 7768SOL    HW134763   2.279   4.498  13.153  0.2040  1.0890  0.7130
 7768SOL    HW234764   2.201   4.487  13.028  0.0954  1.4476 -2.5806
 7769SOL     OW34765   1.167   2.435   9.526 -0.0080 -0.2154 -0.0704
 7769SOL    HW134766   1.104   2.376   9.567  1.7232 -0.8816  1.5807
 7769SOL    HW234767   1.156   2.405   9.435 -1.6887  0.5821 -0.1447
 7770SOL     OW34768   0.148   2.594  10.396 -0.6192  0.2566 -0.2771
 7770SOL    HW134769   0.209   2.583  10.468 -2.0963  2.5538  1.3185
 7770SOL    HW234770   0.189   2.553  10.319  1.1631  2.0532 -0.2532
 7771SOL     OW34771   2.168   1.055   3.469 -0.2505  0.2134 -0.5487
 7771SOL    HW134772   2.096   0.996   3.449  1.6308 -2.1940 -0.2575
 7771SOL    HW234773   2.224   1.063   3.392  0.4340 -2.3040 -0.3068
 7772SOL     OW34774   2.119   1.199   6.476 -0.3766 -1.0282  0.0837
 7772SOL    HW134775   2.149   1.258   6.545  0.3890  2.4275 -3.2087
 7772SOL    HW234776   2.025   1.203   6.494 -0.2490  0.6968  0.4199
 7773SOL     OW34777   0.694   0.207   6.497 -0.4685 -0.5951  0.1076
 7773SOL    HW134778   0.684   0.219   6.592  0.2754 -2.7691  0.4555
 7773SOL    HW234779   0.700   0.112   6.495  0.3558 -0.4905 -1.9625
 7774SOL     OW34780   3.195   1.758   1.179  0.0301 -0.7107 -0.0302
 7774SOL    HW134781   3.127   1.780   1.243  0.9660  0.3570  0.6120
 7774SOL    HW234782   3.264   1.814   1.214 -0.4749  0.0102 -0.1833
 7775SOL     OW34783   0.981   4.447   4.766 -1.1121 -0.4965 -0.8110
 7775SOL    HW134784   0.914   4.462   4.700  0.5534  1.6746 -2.0210
 7775SOL    HW234785   1.058   4.469   4.713 -2.0399  2.0889 -1.0755
 7776SOL     OW34786   2.288   3.830   1.072 -0.3473 -0.1447 -0.0710
 7776SOL    HW134787   2.379   3.822   1.044 -0.6075 -1.9306 -0.3496
 7776SOL    HW234788   2.299   3.843   1.166 -0.3582  2.0732 -0.3642
 7777SOL     OW34789   3.580   2.535   7.592  0.0059  0.0695 -0.2095
 7777SOL    HW134790   3.547   2.451   7.559  0.4069 -0.0503 -0.3140
 7777SOL    HW234791   3.525   2.544   7.670 -0.9374 -2.4805 -0.5863
 7778SOL     OW34792   3.931   1.867   9.153 -0.5409  0.4083  0.3458
 7778SOL    HW134793   3.861   1.881   9.217 -0.2284  2.0947  0.3139
 7778SOL    HW234794   4.000   1.925   9.184  2.0329 -2.0988 -0.6609
 7779SOL     OW34795   3.739   2.552   8.248  0.0961 -0.2540  0.3616
 7779SOL    HW134796   3.653   2.596   8.244  1.1107  1.8696  1.9566
 7779SOL    HW234797   3.713   2.468   8.286 -0.6610 -0.1581  0.0610
 7780SOL     OW34798   2.572   3.120   5.358 -0.2130 -0.1477 -0.1900
 7780SOL    HW134799   2.500   3.146   5.415  2.2280  1.4287  2.1338
 7780SOL    HW234800   2.528   3.092   5.278 -2.0266  1.9342  0.0855
 7781SOL     OW34801   0.325   0.930   3.527 -0.7605  0.4431  0.2998
 7781SOL    HW134802   0.309   1.004   3.586 -0.2625  1.4966 -0.8859
 7781SOL    HW234803   0.244   0.933   3.476  0.8386  0.7099 -2.2425
 7782SOL     OW34804   1.213   3.685   6.435 -0.5052  0.2179  0.2620
 7782SOL    HW134805   1.203   3.773   6.399 -1.4503 -0.0868 -0.2340
 7782SOL    HW234806   1.249   3.636   6.361  0.0897  1.7996 -0.4915
 7783SOL     OW34807   1.131   2.419   1.110 -0.0187 -0.2948  0.3842
 7783SOL    HW134808   1.081   2.365   1.172  0.3727 -1.1449 -0.0347
 7783SOL    HW234809   1.113   2.510   1.134  0.7424  0.0731 -0.4702
 7784SOL     OW34810   3.536   2.325   9.117  0.0892  0.2041 -0.2475
 7784SOL    HW134811   3.624   2.296   9.096 -0.6157 -0.1629 -2.6278
 7784SOL    HW234812   3.539   2.411   9.075  1.3934  0.2149 -0.1343
 7785SOL     OW34813   0.405   0.119   7.992 -0.2270 -0.0402  0.1817
 7785SOL    HW134814   0.328   0.148   7.944  0.7978 -0.5701 -1.7826
 7785SOL    HW234815   0.475   0.175   7.959  1.0590 -2.2520 -0.7916
 7786SOL     OW34816   2.827   2.935   3.415 -0.1104  0.2231  0.5441
 7786SOL    HW134817   2.866   2.852   3.388  0.6698  0.2032  1.7014
 7786SOL    HW234818   2.884   2.937   3.492  0.8838 -1.6474 -0.1594
 7787SOL     OW34819   0.849   4.531   1.815 -0.5090  0.0271  0.5107
 7787SOL    HW134820   0.767   4.507   1.772 -0.8386  2.5030 -0.2523
 7787SOL    HW234821   0.885   4.445   1.834  0.4457  0.5460  1.0664
 7788SOL     OW34822   3.460   0.541   5.149 -0.4694 -0.3340  0.3398
 7788SOL    HW134823   3.481   0.452   5.178  0.9470 -0.3603 -0.8040
 7788SOL    HW234824   3.488   0.538   5.058 -2.4793  1.6681 -0.3459
 7789SOL     OW34825   0.936   2.162   9.050  0.0836 -0.1869  0.0816
 7789SOL    HW134826   1.028   2.152   9.025  0.0075 -1.0410  0.1401
 7789SOL    HW234827   0.907   2.076   9.022 -1.5424  0.5965 -0.5849
 7790SOL     OW34828   2.974   0.238   7.171 -0.2606 -0.2606  0.2458
 7790SOL    HW134829   2.971   0.238   7.267  0.0700  0.5253  0.2596
 7790SOL    HW234830   3.044   0.175   7.152 -0.3578 -0.5965  1.0063
 7791SOL     OW34831   1.326   0.724  16.324  0.1160 -0.1647 -0.0831
 7791SOL    HW134832   1.346   0.710  16.232 -0.9224 -1.6759 -0.0775
 7791SOL    HW234833   1.409   0.717  16.370 -1.4036 -0.5369  2.6115
 7792SOL     OW34834   4.216   1.079   8.802 -0.3076  0.5172  0.6858
 7792SOL    HW134835   4.265   1.008   8.844 -1.3245 -0.5712  0.0402
 7792SOL    HW234836   4.218   1.150   8.866 -0.5994  0.0699  1.1936
 7793SOL     OW34837   3.252   4.407   5.456 -1.0244 -0.7969 -0.0540
 7793SOL    HW134838   3.240   4.401   5.551  1.9660  0.0755  0.3751
 7793SOL    HW234839   3.338   4.367   5.450  0.9896  3.8170 -1.5934
 7794SOL     OW34840   2.785   3.483   6.469 -0.2454  0.2518  0.2524
 7794SOL    HW134841   2.844   3.558   6.456 -0.2367 -0.3743 -3.0810
 7794SOL    HW234842   2.832   3.413   6.514  0.5690  1.3194  1.0777
 7795SOL     OW34843   3.879   3.038   4.172  0.5615  0.3778  0.3461
 7795SOL    HW134844   3.924   3.120   4.191 -1.8784  1.5368  1.0818
 7795SOL    HW234845   3.878   3.047   4.076  0.7053 -2.7141  0.0587
 7796SOL     OW34846   3.303   0.980  12.287  0.5661 -0.2807 -0.2345
 7796SOL    HW134847   3.256   0.898  12.269  1.9911 -0.9538 -0.9290
 7796SOL    HW234848   3.344   0.966  12.372  0.0859 -2.8696 -0.4302
 7797SOL     OW34849   3.177   1.322   4.249 -0.6546  0.4745  0.1846
 7797SOL    HW134850   3.089   1.337   4.284  0.5428  1.5558  2.7065
 7797SOL    HW234851   3.168   1.353   4.159  1.4218 -0.4609 -0.3473
 7798SOL     OW34852   3.942   1.332   7.771 -0.5994  0.0391  0.2677
 7798SOL    HW134853   3.872   1.320   7.835 -0.1197 -1.5505  0.4897
 7798SOL    HW234854   3.903   1.402   7.719 -0.6036  1.3069  1.9816
 7799SOL     OW34855   0.188   0.206  14.430  0.2108  0.4712 -0.2639
 7799SOL    HW134856   0.201   0.176  14.340 -0.7872 -2.0193  0.4319
 7799SOL    HW234857   0.254   0.275  14.439  0.7838  0.1106 -1.6083
 7800SOL     OW34858   2.948   0.594  17.163 -0.4681  0.1945  0.4110
 7800SOL    HW134859   2.874   0.639  17.204  0.0344  1.3527  0.0421
 7800SOL    HW234860   2.956   0.650  17.086 -1.0811  0.8821  0.8443
 7801SOL     OW34861   2.226   0.108   2.343 -0.3182 -0.1615 -0.2406
 7801SOL    HW134862   2.223   0.013   2.358 -1.4731  0.2648  2.1932
 7801SOL    HW234863   2.318   0.125   2.359 -0.1948  0.0998 -1.2060
 7802SOL     OW34864   1.902   1.930   7.532 -0.7371 -0.4183 -0.4776
 7802SOL    HW134865   1.830   1.939   7.595  1.0175 -0.8604  1.5961
 7802SOL    HW234866   1.871   1.988   7.463 -0.7506  0.6291  0.4160
 7803SOL     OW34867   2.862   4.701   6.997 -0.0219 -0.1270 -0.7195
 7803SOL    HW134868   2.792   0.014   6.941  0.3442 -1.1915 -1.7746
 7803SOL    HW234869   2.886   0.056   7.052 -0.3136 -1.3125  1.0262
 7804SOL     OW34870   1.351   2.643   5.070 -0.7145  0.2203  0.2429
 7804SOL    HW134871   1.376   2.729   5.036  0.6349  0.7746  2.6466
 7804SOL    HW234872   1.327   2.598   4.988 -0.1774 -0.0508  0.2371
 7805SOL     OW34873   1.534   2.639   1.962 -0.4299  0.4758 -0.1797
 7805SOL    HW134874   1.468   2.709   1.963 -0.7035  0.2133  0.2426
 7805SOL    HW234875   1.593   2.674   2.028 -0.5307  0.7425 -0.2325
 7806SOL     OW34876   4.182   1.365   3.728 -0.1664  0.7886  0.2095
 7806SOL    HW134877   4.092   1.371   3.698  0.6116 -0.9267 -2.5093
 7806SOL    HW234878   4.177   1.435   3.793  1.8804  0.5793  0.6008
 7807SOL     OW34879   2.859   1.554  10.176 -0.0379 -0.0567  0.9383
 7807SOL    HW134880   2.913   1.478  10.197  1.3717  0.0961 -2.0278
 7807SOL    HW234881   2.771   1.521  10.195 -0.5589  0.9822  0.2966
 7808SOL     OW34882   3.765   2.364   7.774 -0.2788 -0.4404 -0.9740
 7808SOL    HW134883   3.715   2.331   7.698 -2.4004 -2.5043  1.3009
 7808SOL    HW234884   3.714   2.440   7.803  0.2192  0.0186 -1.3031
 7809SOL     OW34885   3.168   0.486   7.460 -0.6599 -0.7925  0.0689
 7809SOL    HW134886   3.222   0.559   7.491 -1.3700 -0.5420  0.7115
 7809SOL    HW234887   3.090   0.502   7.512  0.2798  1.7055  0.7036
 7810SOL     OW34888   4.265   4.140   5.903  0.7259 -0.6119 -0.0938
 7810SOL    HW134889   4.309   4.103   5.826 -2.0447 -0.7793 -1.6190
 7810SOL    HW234890   4.335   4.122   5.966  0.4709 -1.6369 -0.1044
 7811SOL     OW34891   4.444   1.757  11.208  0.5650  0.6783  0.1789
 7811SOL    HW134892   4.501   1.826  11.243  0.8869  0.2896  0.4220
 7811SOL    HW234893   4.362   1.773  11.254 -0.2957  2.8427 -2.1266
 7812SOL     OW34894   0.498   3.523   2.439 -0.1281 -0.0793  0.4433
 7812SOL    HW134895   0.477   3.523   2.345  0.6129 -2.1614  0.2756
 7812SOL    HW234896   0.591   3.504   2.443 -0.2795 -0.7587  0.8112
 7813SOL     OW34897   0.571   4.449   9.289 -0.0331  0.5051 -0.3828
 7813SOL    HW134898   0.506   4.379   9.298  0.5115 -0.1039 -1.2295
 7813SOL    HW234899   0.552   4.493   9.372  0.4390 -0.5643  0.2869
 7814SOL     OW34900   1.752   3.669   2.793 -0.0970  0.1919 -0.3585
 7814SOL    HW134901   1.799   3.690   2.712 -1.1843  1.5951 -0.6026
 7814SOL    HW234902   1.780   3.740   2.850  1.3887 -0.4169 -0.3014
 7815SOL     OW34903   0.152   1.298   3.337  0.4821 -0.7627  0.1772
 7815SOL    HW134904   0.142   1.296   3.432 -2.4695 -0.6001 -0.1446
 7815SOL    HW234905   0.077   1.349   3.307  0.4416 -0.8872  0.0702
 7816SOL     OW34906   2.520   4.110   3.300  0.0995  0.6925  0.0108
 7816SOL    HW134907   2.501   4.026   3.341 -0.3253  0.5654 -0.4362
 7816SOL    HW234908   2.436   4.136   3.261  0.8168  0.5314 -1.6337
 7817SOL     OW34909   0.286   3.466   5.215  0.1090 -0.6539  0.0466
 7817SOL    HW134910   0.359   3.450   5.275  0.8300  0.5598 -0.4939
 7817SOL    HW234911   0.298   3.406   5.142  0.2796  0.8335 -1.1598
 7818SOL     OW34912   2.697   2.116   6.349 -0.4752  0.1766  0.4391
 7818SOL    HW134913   2.607   2.124   6.318 -0.6082  0.2927  0.8602
 7818SOL    HW234914   2.685   2.054   6.422  0.5156 -0.9725 -0.3786
 7819SOL     OW34915   2.893   2.068  15.399  0.1905 -0.2439 -0.8134
 7819SOL    HW134916   2.835   2.014  15.345 -1.0418  0.6660 -0.3925
 7819SOL    HW234917   2.975   2.025  15.372 -0.2848 -2.7621  1.7756
 7820SOL     OW34918   4.180   4.165   3.816  0.1551  0.1969 -0.9169
 7820SOL    HW134919   4.194   4.158   3.910  1.5013 -3.9773 -1.4331
 7820SOL    HW234920   4.201   4.071   3.809  0.6291  0.2893 -0.7629
 7821SOL     OW34921   1.716   2.878  16.286 -0.0491  0.0105 -0.1136
 7821SOL    HW134922   1.669   2.872  16.369 -0.6396 -0.9554 -0.5195
 7821SOL    HW234923   1.761   2.962  16.292 -1.2820  0.8095 -2.2814
 7822SOL     OW34924   3.633   2.878   1.939  0.3004 -0.3779 -0.1373
 7822SOL    HW134925   3.657   2.806   1.998 -3.1280 -0.6771  0.8883
 7822SOL    HW234926   3.716   2.916   1.909 -0.8184  2.9521  1.0026
 7823SOL     OW34927   2.779   3.278   7.829  0.3859  0.3274  0.1027
 7823SOL    HW134928   2.708   3.222   7.859  0.9444 -0.7295 -0.5896
 7823SOL    HW234929   2.739   3.362   7.854 -0.8842 -0.3867  0.4434
 7824SOL     OW34930   4.238   2.170   0.500 -0.3438 -0.2930 -0.0789
 7824SOL    HW134931   4.194   2.165   0.585 -0.6034 -4.4528 -0.4596
 7824SOL    HW234932   4.242   2.081   0.465  0.5258  0.5884 -2.1944
 7825SOL     OW34933   3.062   3.878   2.795  1.0845 -0.0669 -0.4446
 7825SOL    HW134934   3.089   3.797   2.750  2.1029 -0.6589  1.2570
 7825SOL    HW234935   3.139   3.931   2.814  0.1507  1.1675 -0.1287
 7826SOL     OW34936   0.121   0.255  10.349 -0.4755  0.7304 -0.4645
 7826SOL    HW134937   0.095   0.280  10.438  0.2911 -3.1088  0.8178
 7826SOL    HW234938   0.132   0.337  10.301 -3.5447  2.6062  2.0256
 7827SOL     OW34939   0.420   0.686  16.454  0.5370  0.5238 -0.1850
 7827SOL    HW134940   0.452   0.756  16.397  1.9941  2.8797  3.4822
 7827SOL    HW234941   0.414   0.732  16.538 -0.0927 -0.0694  0.0924
 7828SOL     OW34942   2.229   2.271   6.005 -0.0722  0.5967  0.0142
 7828SOL    HW134943   2.152   2.258   5.950 -1.4674  1.7398  1.6971
 7828SOL    HW234944   2.191   2.339   6.061  0.2283 -0.3061  1.3139
 7829SOL     OW34945   2.307   4.129   4.830 -0.6131  0.2189  0.4052
 7829SOL    HW134946   2.338   4.095   4.745 -0.4882  2.2781 -0.3735
 7829SOL    HW234947   2.325   4.049   4.879  1.4975  1.5453  1.8305
 7830SOL     OW34948   4.121   3.171   9.905  0.0922  0.2056  0.5677
 7830SOL    HW134949   4.203   3.177   9.954  0.4315  2.3175 -0.2864
 7830SOL    HW234950   4.109   3.079   9.930  0.7803 -0.7989 -2.7461
 7831SOL     OW34951   1.203   2.076  15.446  0.3570 -0.2033  0.3518
 7831SOL    HW134952   1.117   2.083  15.486  0.2744 -1.4410  0.4090
 7831SOL    HW234953   1.224   2.169  15.442 -0.0190 -0.1771 -1.0019
 7832SOL     OW34954   0.775   1.098   0.294  0.7009 -0.5447 -0.4004
 7832SOL    HW134955   0.821   1.014   0.293  0.5123 -0.6243 -2.2070
 7832SOL    HW234956   0.690   1.064   0.267 -0.5070  2.2519 -0.1392
 7833SOL     OW34957   4.288   2.849   1.356 -0.2415 -0.1559 -0.4686
 7833SOL    HW134958   4.252   2.907   1.423 -1.4961  0.6896 -1.8776
 7833SOL    HW234959   4.206   2.838   1.308  1.5591 -1.2625 -3.2888
 7834SOL     OW34960   2.213   3.031  16.030 -0.3817  0.6466  0.8142
 7834SOL    HW134961   2.187   3.046  16.121 -0.9748  1.4513  0.5119
 7834SOL    HW234962   2.217   3.122  16.000  0.7145  0.5513  0.6869
 7835SOL     OW34963   2.031   3.244   7.127  0.2569 -0.7559 -0.0904
 7835SOL    HW134964   1.995   3.307   7.189 -0.9776 -1.1756 -0.3780
 7835SOL    HW234965   1.985   3.274   7.049 -2.5021 -1.8855  1.0863
 7836SOL     OW34966   3.701   3.577   4.916 -0.3351  0.4225 -0.3730
 7836SOL    HW134967   3.675   3.656   4.868  0.4426  0.9972  0.1528
 7836SOL    HW234968   3.764   3.613   4.978  0.0736 -2.7016  0.9878
 7837SOL     OW34969   4.088   2.295   8.113 -0.3757  0.5292 -0.0039
 7837SOL    HW134970   4.048   2.241   8.045 -1.7571  0.0366  1.1852
 7837SOL    HW234971   4.151   2.345   8.061 -0.6324 -1.4411 -2.1921
 7838SOL     OW34972   2.621   1.198   2.141 -0.1342  0.3975 -0.3695
 7838SOL    HW134973   2.627   1.105   2.120  1.2738  0.8782 -2.1041
 7838SOL    HW234974   2.531   1.206   2.174  0.0762 -1.3453  0.6244
 7839SOL     OW34975   3.475   4.575   8.401 -0.6679  0.2545  0.1403
 7839SOL    HW134976   3.490   4.602   8.492 -1.4222 -2.3362  1.0624
 7839SOL    HW234977   3.558   4.586   8.356 -0.0369 -0.3883  1.1324
 7840SOL     OW34978   4.220   2.654   5.001 -0.5088 -0.2463  0.1763
 7840SOL    HW134979   4.146   2.597   5.022 -0.7627 -0.9863 -2.7244
 7840SOL    HW234980   4.191   2.736   5.042  0.5386  0.9646 -1.4777
 7841SOL     OW34981   0.178   3.388  12.786  0.2313  0.0600 -0.4052
 7841SOL    HW134982   0.103   3.329  12.788  2.5724 -2.8580  1.6630
 7841SOL    HW234983   0.140   3.476  12.796 -1.1165 -0.4016 -1.5786
 7842SOL     OW34984   0.048   3.495   3.720  0.2721  0.5566 -0.4309
 7842SOL    HW134985   0.101   3.493   3.800 -1.3496 -1.9873  0.5664
 7842SOL    HW234986   0.072   3.577   3.677 -0.8693  1.1443  0.0460
 7843SOL     OW34987   0.347   2.552  16.706  0.1119 -0.5186  0.0374
 7843SOL    HW134988   0.326   2.460  16.691 -1.0767 -0.3351  0.5622
 7843SOL    HW234989   0.284   2.600  16.654  2.8158  1.2981 -1.5407
 7844SOL     OW34990   2.673   4.709   5.105 -0.2446  0.5040  0.3523
 7844SOL    HW134991   2.591   0.039   5.113 -2.4360 -2.8504 -1.3521
 7844SOL    HW234992   2.740   0.055   5.086 -0.7946  1.5876  2.1098
 7845SOL     OW34993   0.183   1.624   4.931 -0.2727  0.4826 -0.2595
 7845SOL    HW134994   0.200   1.537   4.894 -0.4212  0.7622 -0.9665
 7845SOL    HW234995   0.242   1.634   5.006 -0.2654 -1.4489  0.0061
 7846SOL     OW34996   1.849   0.469   0.387 -0.3141 -0.6592 -0.4396
 7846SOL    HW134997   1.807   0.384   0.373 -2.4215  0.1284  1.2965
 7846SOL    HW234998   1.810   0.488   0.472  1.4966 -0.6103  0.3961
 7847SOL     OW34999   0.008   4.481   2.644  0.2851  0.5037  0.0665
 7847SOL    HW135000   0.068   4.470   2.717 -2.2016  0.6835  2.1233
 7847SOL    HW235001   4.647   4.511   2.687  1.3229 -0.6029  2.7989
 7848SOL     OW35002   3.298   4.407   0.219  0.3021 -0.2562  0.2985
 7848SOL    HW135003   3.322   4.445   0.303 -1.4500 -0.8851  1.0714
 7848SOL    HW235004   3.303   4.315   0.242  0.9769  0.2163  2.0649
 7849SOL     OW35005   0.667   3.088   6.907 -0.2370 -1.0802 -0.3262
 7849SOL    HW135006   0.668   3.072   6.813  1.2281 -1.8765 -0.1794
 7849SOL    HW235007   0.760   3.075   6.925 -0.3729  0.7077  1.7477
 7850SOL     OW35008   3.161   1.623   3.332 -0.3995 -0.1502 -0.0082
 7850SOL    HW135009   3.163   1.688   3.262  1.6120  0.9839  1.1082
 7850SOL    HW235010   3.215   1.667   3.398  3.3224  0.5361 -3.5225
 7851SOL     OW35011   1.244   0.400   9.801  0.2291 -0.5808  0.0837
 7851SOL    HW135012   1.174   0.382   9.864 -0.8040 -1.1470 -1.2308
 7851SOL    HW235013   1.187   0.422   9.727 -0.4888  0.5682  0.9768
 7852SOL     OW35014   3.944   1.346   0.450  0.2287  0.3443  0.3023
 7852SOL    HW135015   3.903   1.422   0.493 -0.7092 -0.2670  0.4948
 7852SOL    HW235016   3.878   1.329   0.383  1.3167  0.5097 -0.8002
 7853SOL     OW35017   3.151   1.869  15.835  0.3890  0.1004 -0.1771
 7853SOL    HW135018   3.235   1.914  15.838  0.8530 -0.8676  1.3606
 7853SOL    HW235019   3.116   1.914  15.758 -1.8955 -0.3396  0.6222
 7854SOL     OW35020   2.463   1.028  14.359 -0.0152  0.2802 -0.5402
 7854SOL    HW135021   2.407   0.951  14.347  0.3429 -0.3500  1.7738
 7854SOL    HW235022   2.512   1.000  14.437 -1.0284  0.2137  0.0704
 7855SOL     OW35023   0.114   2.097  16.831  0.1770  0.0590 -0.3262
 7855SOL    HW135024   0.137   2.045  16.908 -1.0249  2.6988  1.7956
 7855SOL    HW235025   0.019   2.091  16.831  0.1682  0.1330 -1.0117
 7856SOL     OW35026   4.570   0.874   8.677  0.3103  0.6502 -0.0518
 7856SOL    HW135027   4.499   0.812   8.688 -0.1787  1.0528 -0.9199
 7856SOL    HW235028   4.625   0.833   8.609  0.6390  0.9299  0.0462
 7857SOL     OW35029   3.970   2.556   8.132  0.5213  0.3455 -0.0002
 7857SOL    HW135030   3.969   2.461   8.144  1.6762  0.3044 -0.2352
 7857SOL    HW235031   3.875   2.569   8.130  0.5342  0.5284  0.5867
 7858SOL     OW35032   0.523   3.546   5.574  0.4807  0.1755 -0.2198
 7858SOL    HW135033   0.467   3.612   5.532  0.5258  0.7117  0.5607
 7858SOL    HW235034   0.534   3.589   5.659 -1.9380 -1.6476  1.0104
 7859SOL     OW35035   1.910   1.882   3.718 -0.0500 -0.0376  0.1666
 7859SOL    HW135036   1.978   1.949   3.716 -0.2294  0.1624  0.7928
 7859SOL    HW235037   1.947   1.815   3.776 -1.3825 -0.9932 -0.0781
 7860SOL     OW35038   0.473   0.944   6.529  0.8439  1.0609  0.3053
 7860SOL    HW135039   0.555   0.910   6.564  0.0982  0.0426  1.0821
 7860SOL    HW235040   0.466   1.027   6.576 -1.2320  0.5246  0.9730
 7861SOL     OW35041   2.297   3.814   2.799 -0.0919  0.5035  0.1270
 7861SOL    HW135042   2.327   3.902   2.823 -0.1377  0.4793  0.2720
 7861SOL    HW235043   2.205   3.818   2.826 -0.6444 -1.9683 -1.3903
 7862SOL     OW35044   1.967   4.061   7.370  0.7749 -0.6409  0.4118
 7862SOL    HW135045   1.940   4.045   7.279  1.5507 -0.1267  0.0924
 7862SOL    HW235046   2.027   4.134   7.356 -1.1896  1.2299  1.7115
 7863SOL     OW35047   3.044   2.139   3.142 -0.2720  0.2236 -0.0624
 7863SOL    HW135048   3.095   2.215   3.170  1.5011 -0.6983 -0.8455
 7863SOL    HW235049   3.083   2.131   3.055 -3.3282  0.8681 -1.4780
 7864SOL     OW35050   4.262   0.052  10.874 -0.5880  0.4554  0.4335
 7864SOL    HW135051   4.318   4.710  10.826  0.3049  1.7462 -0.1549
 7864SOL    HW235052   4.305   0.067  10.958  1.7872 -1.1879 -0.4663
 7865SOL     OW35053   2.934   3.695   1.948 -0.5661 -0.1806 -1.0586
 7865SOL    HW135054   2.878   3.621   1.926 -1.5702  0.7802 -1.7486
 7865SOL    HW235055   2.910   3.761   1.883  1.0681  0.3508 -1.1116
 7866SOL     OW35056   1.233   4.222   4.139 -0.1620  0.7707 -0.2284
 7866SOL    HW135057   1.157   4.280   4.134  0.6106  1.8297  0.2854
 7866SOL    HW235058   1.270   4.243   4.225 -1.1462  1.5538  0.0116
 7867SOL     OW35059   0.700   3.254   2.253  0.2474 -0.0028  0.1116
 7867SOL    HW135060   0.701   3.319   2.324 -1.2083  2.1307 -1.8256
 7867SOL    HW235061   0.654   3.178   2.288 -0.2526 -0.0177 -0.5936
 7868SOL     OW35062   2.704   4.290   8.012  0.0510 -0.2517 -0.0573
 7868SOL    HW135063   2.685   4.379   7.982  1.9956 -0.2883 -1.3948
 7868SOL    HW235064   2.621   4.274   8.057  0.9157 -1.6492  1.0217
 7869SOL     OW35065   3.243   2.441   0.352  0.0745 -0.4829  0.6327
 7869SOL    HW135066   3.281   2.368   0.401  1.8857  0.3247  0.4189
 7869SOL    HW235067   3.170   2.397   0.307 -0.1695  1.3730 -0.7931
 7870SOL     OW35068   2.714   0.533   2.076 -0.4471 -0.1094 -0.2574
 7870SOL    HW135069   2.738   0.530   1.983 -1.2460  0.6136 -0.4905
 7870SOL    HW235070   2.753   0.450   2.101  1.4106  0.5674 -0.9170
 7871SOL     OW35071   3.856   0.872   3.191 -0.5570  0.5204  0.2521
 7871SOL    HW135072   3.949   0.892   3.201 -0.6723  0.5708  1.1991
 7871SOL    HW235073   3.841   0.818   3.269  0.7145 -1.0026 -0.5743
 7872SOL     OW35074   0.050   2.939   7.109  0.3960  0.1544  0.2589
 7872SOL    HW135075   0.122   2.976   7.159  0.8670 -0.7182  0.2278
 7872SOL    HW235076   4.695   2.933   7.169  1.2279 -0.3753  1.2200
 7873SOL     OW35077   2.557   2.478   9.232  0.7660 -0.0502 -0.4877
 7873SOL    HW135078   2.614   2.426   9.290 -0.3232 -0.7269 -0.0347
 7873SOL    HW235079   2.537   2.558   9.280  1.2420 -0.3764  0.2667
 7874SOL     OW35080   1.472   1.588   4.961  0.3484 -0.1708 -0.0354
 7874SOL    HW135081   1.521   1.513   4.996  1.6373  2.0938  2.9306
 7874SOL    HW235082   1.425   1.549   4.887 -0.6504 -0.8888  0.9796
 7875SOL     OW35083   0.713   3.565   7.843  0.0159  0.1838 -0.1152
 7875SOL    HW135084   0.700   3.473   7.822  1.3076  0.2721 -1.3311
 7875SOL    HW235085   0.729   3.609   7.759  0.8282  1.5043  0.7361
 7876SOL     OW35086   0.436   0.173   6.335  0.5765  0.0239 -0.4284
 7876SOL    HW135087   0.529   0.192   6.320  1.2989 -2.7166  0.5204
 7876SOL    HW235088   0.406   0.261   6.359  1.9579  0.5659 -0.6887
 7877SOL     OW35089   3.558   0.846   4.367 -0.3373 -0.5402 -0.0451
 7877SOL    HW135090   3.476   0.805   4.394  0.4522 -0.6987  2.1192
 7877SOL    HW235091   3.553   0.937   4.398  2.8836 -0.5802  0.5638
 7878SOL     OW35092   1.270   3.638  15.774  0.6364 -0.3834 -0.5509
 7878SOL    HW135093   1.318   3.560  15.800  1.0793 -0.6506 -2.1482
 7878SOL    HW235094   1.202   3.649  15.840 -0.1121 -2.4503 -0.9492
 7879SOL     OW35095   0.021   4.511   9.103  0.0609  0.4437  0.0249
 7879SOL    HW135096   4.654   4.505   9.142  0.1656 -0.1804  0.1675
 7879SOL    HW235097   0.004   4.544   9.015 -0.4938 -2.5968 -1.0053
 7880SOL     OW35098   4.593   2.150  16.540  0.1999 -0.3923 -0.4741
 7880SOL    HW135099   4.568   2.162  16.631  0.5306 -1.8370 -0.1875
 7880SOL    HW235100   4.653   2.221  16.518 -2.5371  1.8033 -0.9330
 7881SOL     OW35101   1.239   3.861   8.162 -0.4217  0.4921 -0.1956
 7881SOL    HW135102   1.277   3.947   8.148 -2.5190  1.5292  0.4769
 7881SOL    HW235103   1.306   3.799   8.134 -1.7950  0.0477 -2.4304
 7882SOL     OW35104   1.762   3.755  15.815  0.2572 -0.5158  0.5465
 7882SOL    HW135105   1.758   3.677  15.871 -2.8147 -0.7229  0.0328
 7882SOL    HW235106   1.742   3.703  15.737  1.4127  0.9291 -0.6853
 7883SOL     OW35107   2.385   0.235  12.484 -0.4441 -0.3716 -0.4310
 7883SOL    HW135108   2.445   0.273  12.548  3.3575 -2.3858 -2.7985
 7883SOL    HW235109   2.326   0.190  12.544  0.5851  0.2267  1.0112
 7884SOL     OW35110   1.564   0.327   1.268  0.3080 -0.6924 -0.3835
 7884SOL    HW135111   1.529   0.310   1.180  0.2479 -0.4334 -0.4098
 7884SOL    HW235112   1.491   0.299   1.323 -0.5518  0.3866 -0.9854
 7885SOL     OW35113   0.807   3.487   4.693 -0.1789 -0.8460 -0.3484
 7885SOL    HW135114   0.900   3.486   4.719 -0.3364  2.9138  0.3038
 7885SOL    HW235115   0.800   3.415   4.630 -2.8688  0.0358 -1.0562
 7886SOL     OW35116   4.090   4.500   7.683 -0.1190  0.1937  0.2868
 7886SOL    HW135117   4.058   4.469   7.768 -1.0469 -0.1536 -0.1781
 7886SOL    HW235118   4.094   4.412   7.645 -3.1409  0.0388  0.2716
 7887SOL     OW35119   0.133   0.215   2.955 -0.3111 -0.0206 -0.4542
 7887SOL    HW135120   0.223   0.236   2.980 -0.3963 -0.8317  0.4874
 7887SOL    HW235121   0.125   0.278   2.883 -0.2808  2.2541  1.5262
 7888SOL     OW35122   3.071   4.102   1.546 -0.4123 -0.1109  0.1822
 7888SOL    HW135123   3.105   4.173   1.492 -0.4970 -0.1449  0.0835
 7888SOL    HW235124   2.995   4.146   1.584 -2.2955 -1.3934 -2.0838
 7889SOL     OW35125   2.228   2.983   2.653 -0.4531  0.1396  0.1781
 7889SOL    HW135126   2.226   3.056   2.714  1.5031  0.4012 -0.0718
 7889SOL    HW235127   2.267   2.920   2.714 -1.2201 -1.4964 -1.0031
 7890SOL     OW35128   4.608   0.977   5.328 -0.0814 -0.1023  0.1453
 7890SOL    HW135129   4.516   0.955   5.312 -0.1306  0.4709 -0.3785
 7890SOL    HW235130   4.607   1.067   5.361  1.2555  1.0419 -2.9950
 7891SOL     OW35131   0.095   1.800   5.532  0.5911 -0.3076  0.4541
 7891SOL    HW135132   0.125   1.851   5.607 -1.5359  0.2942  0.8820
 7891SOL    HW235133   0.168   1.824   5.475 -0.7214  2.5772  0.0006
 7892SOL     OW35134   1.712   0.361  16.927 -0.1154 -0.5499  0.2951
 7892SOL    HW135135   1.792   0.373  16.877 -1.1465  0.6870 -1.0578
 7892SOL    HW235136   1.730   0.418  17.001 -0.7086 -1.2150  0.9580
 7893SOL     OW35137   1.456   3.318  11.481  0.7397  0.3596  0.0153
 7893SOL    HW135138   1.457   3.328  11.576 -1.3674 -3.3666  0.4117
 7893SOL    HW235139   1.444   3.224  11.464  1.4676  0.1049  0.9225
 7894SOL     OW35140   4.701   0.541   2.151  0.2666  0.0257 -0.3239
 7894SOL    HW135141   0.074   0.546   2.123  0.0106 -0.1899 -1.2224
 7894SOL    HW235142   4.680   0.466   2.095 -1.4707 -0.3279  0.8067
 7895SOL     OW35143   1.364   0.889  15.964 -0.6978 -0.4441  0.1481
 7895SOL    HW135144   1.438   0.838  15.931 -1.5948 -1.6715  0.0190
 7895SOL    HW235145   1.311   0.817  16.000 -1.6874  1.3221  2.2005
 7896SOL     OW35146   4.316   0.863   9.631  0.1741  0.4908 -0.6226
 7896SOL    HW135147   4.294   0.774   9.606 -3.4292  1.1913  0.0611
 7896SOL    HW235148   4.282   0.915   9.557 -0.9582  0.6038 -0.0140
 7897SOL     OW35149   1.258   3.054   5.196  0.6967 -0.2702  0.2422
 7897SOL    HW135150   1.276   3.033   5.288 -3.0217  0.7357  1.2034
 7897SOL    HW235151   1.167   3.027   5.196  1.2967 -2.3920  3.0314
 7898SOL     OW35152   3.399   3.167   2.005  0.1377 -0.5581 -0.2150
 7898SOL    HW135153   3.464   3.134   2.067  0.8188  0.4349 -0.4072
 7898SOL    HW235154   3.346   3.219   2.066  1.6505  0.3145  0.3445
 7899SOL     OW35155   1.513   2.596   7.961  0.0835  0.7362  0.8506
 7899SOL    HW135156   1.551   2.543   8.030  0.8285 -1.6066 -1.3597
 7899SOL    HW235157   1.547   2.542   7.889  1.4912  1.0525  1.2771
 7900SOL     OW35158   3.542   2.372  15.273 -0.2372  0.9848  0.5143
 7900SOL    HW135159   3.512   2.410  15.356 -2.9812 -0.8203  0.3456
 7900SOL    HW235160   3.532   2.279  15.295 -0.1473  0.9043  0.2190
 7901SOL     OW35161   0.917   3.990   3.991  0.4880 -0.2650 -0.1501
 7901SOL    HW135162   0.958   3.904   3.986  0.5014 -0.3134  0.9518
 7901SOL    HW235163   0.881   4.000   4.079 -0.7690  0.4757 -0.7358
 7902SOL     OW35164   1.302   2.091   6.420 -0.1984 -0.3541 -0.2802
 7902SOL    HW135165   1.371   2.040   6.462  0.8087  1.1598 -0.1039
 7902SOL    HW235166   1.320   2.184   6.434  3.3555 -1.1447  0.3402
 7903SOL     OW35167   3.932   2.930   8.450  0.1256 -0.1730  0.5246
 7903SOL    HW135168   3.974   3.015   8.437 -0.9944  0.1769 -0.8154
 7903SOL    HW235169   3.985   2.860   8.411  0.1667  0.6948 -0.9921
 7904SOL     OW35170   2.278   2.617   7.969 -0.2565 -0.5522 -0.0364
 7904SOL    HW135171   2.297   2.707   7.995 -2.7414 -0.3253  1.0621
 7904SOL    HW235172   2.190   2.617   7.930  0.2354  0.1434 -1.1487
 7905SOL     OW35173   3.589   0.483  12.966 -0.5982 -0.5683 -0.3802
 7905SOL    HW135174   3.642   0.455  12.891 -0.9916  1.1480 -1.2934
 7905SOL    HW235175   3.576   0.408  13.024 -1.9105  1.2170  1.6210
 7906SOL     OW35176   2.138   3.631   6.482  0.4617  0.3902 -0.1256
 7906SOL    HW135177   2.094   3.670   6.406  2.6963  0.7240 -1.2400
 7906SOL    HW235178   2.211   3.691   6.496 -0.8211  1.7133  0.9480
 7907SOL     OW35179   3.851   0.516   7.339  0.1657 -0.3702  0.1580
 7907SOL    HW135180   3.925   0.485   7.287  0.0033 -1.5774  0.6505
 7907SOL    HW235181   3.902   0.566   7.404  0.5431  0.1783 -0.5561
 7908SOL     OW35182   4.474   3.025  17.197  0.1266  0.0665  0.8315
 7908SOL    HW135183   4.391   2.980  17.207  0.8884 -1.6350 -0.5466
 7908SOL    HW235184   4.476   3.055  17.106  0.4839  1.3738  1.2570
 7909SOL     OW35185   1.460   0.195   4.200  0.1039  0.2871 -0.5208
 7909SOL    HW135186   1.540   0.188   4.252  0.0877  0.7963 -0.4237
 7909SOL    HW235187   1.488   0.255   4.131  0.2668  1.4480  0.5494
 7910SOL     OW35188   3.567   2.914   7.696  0.4262 -0.2042  0.4195
 7910SOL    HW135189   3.574   2.998   7.650 -0.0937  0.8767  2.2939
 7910SOL    HW235190   3.655   2.879   7.683  0.6996 -0.3196  2.5961
 7911SOL     OW35191   3.921   2.080  14.036  0.0074  0.0433  0.5328
 7911SOL    HW135192   3.954   2.170  14.042 -1.8055  0.5211  3.1873
 7911SOL    HW235193   4.004   2.033  14.040  0.1189  0.3613  2.2853
 7912SOL     OW35194   2.053   3.987   8.646  0.1035  0.1422  0.0638
 7912SOL    HW135195   1.984   3.932   8.683 -0.8059  1.3433  0.1654
 7912SOL    HW235196   1.994   4.057   8.618  2.6455  2.6179  0.8610
 7913SOL     OW35197   0.161   2.259  11.883  0.8642  0.2292  0.1923
 7913SOL    HW135198   0.118   2.277  11.800  0.0283 -1.7573  0.1938
 7913SOL    HW235199   0.135   2.168  11.898  2.6721 -0.4336 -0.6133
 7914SOL     OW35200   1.568   2.435   3.758  0.6624  0.1463 -0.5232
 7914SOL    HW135201   1.589   2.505   3.697  0.3098 -1.4545 -2.4805
 7914SOL    HW235202   1.532   2.372   3.696  1.2611 -2.1547  1.4768
 7915SOL     OW35203   0.435   0.648  14.244 -0.5137 -0.8587  0.1552
 7915SOL    HW135204   0.347   0.682  14.233  0.1120  0.4742 -0.7506
 7915SOL    HW235205   0.441   0.590  14.168 -1.2978 -0.5722 -0.1178
 7916SOL     OW35206   1.304   3.469   6.856 -0.1514 -0.0958  0.0949
 7916SOL    HW135207   1.297   3.546   6.800  1.0247  0.6393  0.9519
 7916SOL    HW235208   1.305   3.392   6.799 -2.3407  0.0694 -0.1540
 7917SOL     OW35209   3.949   4.674   7.543  0.1059  0.2998 -0.2647
 7917SOL    HW135210   3.998   4.598   7.572 -0.3547  0.0090 -0.2417
 7917SOL    HW235211   3.871   4.677   7.599 -1.1110  1.3379 -1.9891
 7918SOL     OW35212   2.375   2.782   5.790  0.3127 -0.4998 -0.8948
 7918SOL    HW135213   2.376   2.750   5.880 -3.3116 -0.1280 -0.7134
 7918SOL    HW235214   2.291   2.749   5.758  0.4870 -0.3803 -1.4825
 7919SOL     OW35215   3.939   2.604  11.900  0.2753  0.1202  0.3784
 7919SOL    HW135216   3.984   2.521  11.886  1.1748  0.7091 -0.2748
 7919SOL    HW235217   3.849   2.571  11.896  0.2365  0.1508  0.9976
 7920SOL     OW35218   0.070   1.678   0.872  0.5409 -0.1533  0.2925
 7920SOL    HW135219   0.160   1.645   0.869  0.0339 -1.3648 -1.5290
 7920SOL    HW235220   0.072   1.772   0.854 -1.9367 -0.3027 -0.6874
 7921SOL     OW35221   0.736   0.778   7.587  0.1977 -0.7927 -0.0526
 7921SOL    HW135222   0.740   0.683   7.595 -3.0186 -0.6438  3.3442
 7921SOL    HW235223   0.657   0.794   7.638  0.3100 -1.9850  0.4768
 7922SOL     OW35224   0.137   1.036   2.626  0.4882 -0.0851  0.0046
 7922SOL    HW135225   0.094   0.957   2.593  1.0035 -0.8931  1.2654
 7922SOL    HW235226   0.224   1.005   2.651  0.8583  0.5275 -0.5374
 7923SOL     OW35227   3.590   4.307  11.325 -0.0026  0.0434  0.3969
 7923SOL    HW135228   3.570   4.326  11.417 -2.1460  0.0180 -0.0877
 7923SOL    HW235229   3.505   4.268  11.305  0.0105 -0.4927  1.3544
 7924SOL     OW35230   3.262   1.009   4.852 -0.1051 -0.7433 -0.2511
 7924SOL    HW135231   3.241   1.011   4.759  0.4289 -1.8257 -0.3925
 7924SOL    HW235232   3.226   1.093   4.880 -0.3119  0.0035 -2.7286
 7925SOL     OW35233   2.500   3.664   3.793 -0.0653 -0.2271 -0.1262
 7925SOL    HW135234   2.464   3.698   3.874  2.2824 -1.5663  1.4686
 7925SOL    HW235235   2.443   3.701   3.725 -2.5443 -0.2726  1.9601
 7926SOL     OW35236   2.119   4.334   7.926  0.0685 -0.1950  0.1445
 7926SOL    HW135237   2.118   4.362   7.835  4.7139  0.9078  0.4170
 7926SOL    HW235238   2.054   4.398   7.957 -0.5498 -1.4063  1.3398
 7927SOL     OW35239   3.510   4.134   2.681  0.3110  0.0343 -0.5011
 7927SOL    HW135240   3.449   4.200   2.647  1.8270  0.8749 -1.5823
 7927SOL    HW235241   3.583   4.150   2.622 -0.2384  0.2508 -1.1261
 7928SOL     OW35242   1.800   0.692  15.581  0.0323  0.2841 -0.1535
 7928SOL    HW135243   1.801   0.661  15.490  0.6907  1.6262 -0.6096
 7928SOL    HW235244   1.839   0.776  15.556  1.7529 -0.9683 -1.7041
 7929SOL     OW35245   0.946   1.529   3.149  1.0887  0.1073  0.3821
 7929SOL    HW135246   0.867   1.502   3.102  1.2780 -0.1733  0.2306
 7929SOL    HW235247   1.003   1.561   3.080  1.0101 -0.4381  0.0677
 7930SOL     OW35248   0.288   0.540   3.156  0.6304 -0.2665 -0.2485
 7930SOL    HW135249   0.380   0.517   3.164  0.7636  0.5144  0.5495
 7930SOL    HW235250   0.261   0.512   3.243 -0.2559  2.7806  0.4784
 7931SOL     OW35251   4.648   0.970   4.479  0.0169  0.4769 -0.6884
 7931SOL    HW135252   4.588   0.912   4.527 -0.0934  0.1440 -1.2233
 7931SOL    HW235253   4.656   1.046   4.537  2.5227 -0.8167  0.6465
 7932SOL     OW35254   0.178   1.566   6.631  0.5352 -0.4505  0.0431
 7932SOL    HW135255   0.215   1.490   6.587 -0.9225  0.0363 -2.0081
 7932SOL    HW235256   0.200   1.632   6.566 -1.1463  0.3872  0.3234
 7933SOL     OW35257   4.133   1.440  10.080 -0.4627  0.5183  0.2940
 7933SOL    HW135258   4.046   1.460  10.044 -0.2519 -0.1935 -0.5991
 7933SOL    HW235259   4.189   1.509  10.044 -2.3014  1.9169  0.0623
 7934SOL     OW35260   0.267   2.751  11.760  0.4870 -0.0193 -0.3144
 7934SOL    HW135261   0.271   2.828  11.817  0.5535  2.4840 -3.6803
 7934SOL    HW235262   0.183   2.717  11.791  0.4481  1.1330  0.8782
 7935SOL     OW35263   0.894   3.789  12.454 -0.6218  0.3533 -0.0854
 7935SOL    HW135264   0.860   3.736  12.526 -0.3816 -0.4919 -0.5967
 7935SOL    HW235265   0.969   3.831  12.495 -2.5206  1.5868  2.1035
 7936SOL     OW35266   0.428   1.870  17.265 -0.7400  0.0194  0.0859
 7936SOL    HW135267   0.366   1.864  17.192  0.6333 -0.0817 -1.0682
 7936SOL    HW235268   0.380   1.889  17.346 -0.2118 -0.4869  0.5123
 7937SOL     OW35269   2.796   1.942  10.828 -0.3769 -0.3051 -0.1619
 7937SOL    HW135270   2.804   1.999  10.751 -0.1997  0.6747  0.5799
 7937SOL    HW235271   2.759   2.003  10.892  0.3002 -0.3076  0.2340
 7938SOL     OW35272   3.182   0.487   5.174  0.5117 -0.0024  0.1977
 7938SOL    HW135273   3.276   0.503   5.163  0.6153  0.5760  2.0795
 7938SOL    HW235274   3.158   0.575   5.203  1.4917  1.1182 -2.3222
 7939SOL     OW35275   3.653   3.641   6.665 -0.3228  0.4179 -0.0112
 7939SOL    HW135276   3.663   3.566   6.724 -0.3182 -0.0657 -0.6316
 7939SOL    HW235277   3.641   3.595   6.582  0.5021  0.6770 -0.2816
 7940SOL     OW35278   1.335   1.320   2.065 -0.4443  0.2018 -0.1037
 7940SOL    HW135279   1.331   1.340   2.158 -0.1347  0.1216 -0.0731
 7940SOL    HW235280   1.430   1.327   2.055 -0.7523  5.1716  0.4977
 7941SOL     OW35281   0.414   0.456   3.761  0.7537  0.1515  0.0114
 7941SOL    HW135282   0.399   0.533   3.705  2.0946 -0.3965 -1.0842
 7941SOL    HW235283   0.471   0.402   3.706  1.7722  0.1102  1.1195
 7942SOL     OW35284   1.924   3.807   8.809  0.1674 -0.4256 -0.1681
 7942SOL    HW135285   2.011   3.788   8.844 -0.3155  2.0789  2.4138
 7942SOL    HW235286   1.890   3.865   8.877 -1.5909  0.6358 -1.9683
 7943SOL     OW35287   1.994   0.173   9.836  0.0807  0.1779 -0.0762
 7943SOL    HW135288   1.913   0.155   9.789  0.5241 -1.8931 -0.0479
 7943SOL    HW235289   2.040   0.089   9.832 -1.9386 -0.9931  1.3377
 7944SOL     OW35290   2.568   1.643  10.365 -0.1015 -0.1224  0.1477
 7944SOL    HW135291   2.599   1.709  10.302 -0.3880  1.1351  1.3146
 7944SOL    HW235292   2.592   1.560  10.325  0.6843  1.6978 -3.1277
 7945SOL     OW35293   1.561   1.218  16.132 -0.5072  0.0914  0.3275
 7945SOL    HW135294   1.515   1.179  16.058 -1.2286  0.8860  0.3494
 7945SOL    HW235295   1.587   1.134  16.169 -0.3352 -0.4636 -1.0433
 7946SOL     OW35296   1.544   1.221   2.795  0.2570  0.3754 -0.0527
 7946SOL    HW135297   1.625   1.181   2.827  0.2923  0.3004 -0.2329
 7946SOL    HW235298   1.495   1.232   2.876 -2.0056 -0.9488 -1.2257
 7947SOL     OW35299   1.037   2.935   3.409 -0.2804 -0.3600  0.9088
 7947SOL    HW135300   0.956   2.978   3.383 -1.6197 -3.3761  0.1359
 7947SOL    HW235301   1.000   2.864   3.463 -2.1110  1.4908  2.0744
 7948SOL     OW35302   0.117   2.031   5.348 -0.1231 -0.2438  0.1493
 7948SOL    HW135303   0.043   2.089   5.367  0.0922 -1.0223  3.3816
 7948SOL    HW235304   0.181   2.055   5.415  1.2342 -0.3861 -1.1112
 7949SOL     OW35305   1.913   0.302   6.029 -0.1859  0.0036  0.7700
 7949SOL    HW135306   1.834   0.251   6.012 -0.6067  1.0409 -0.3591
 7949SOL    HW235307   1.991   0.246   6.028 -1.0121 -1.1166 -0.7716
 7950SOL     OW35308   1.994   3.857  11.299  0.0243 -0.6034 -0.0479
 7950SOL    HW135309   1.923   3.793  11.292 -1.0484  0.7607 -1.6492
 7950SOL    HW235310   1.951   3.920  11.356 -0.8335 -0.9034 -0.3582
 7951SOL     OW35311   3.112   3.882   1.389 -0.6839 -0.1041  0.2557
 7951SOL    HW135312   3.066   3.953   1.433  0.2139 -1.2028  2.9318
 7951SOL    HW235313   3.052   3.811   1.409 -1.3470 -0.1216 -1.8205
 7952SOL     OW35314   4.470   2.398   1.455  0.0223  0.1929 -0.6060
 7952SOL    HW135315   4.460   2.344   1.377 -2.4537  0.6728 -0.6089
 7952SOL    HW235316   4.384   2.440   1.457  0.2764  0.6013  2.1808
 7953SOL     OW35317   3.230   0.788  11.659  0.2536  0.1401  0.4939
 7953SOL    HW135318   3.292   0.717  11.675  1.5886  1.5387  1.5079
 7953SOL    HW235319   3.297   0.855  11.647  1.0516 -0.4537  1.5658
 7954SOL     OW35320   0.154   4.341   7.080 -0.2077 -0.6229 -0.2041
 7954SOL    HW135321   0.155   4.362   7.174 -0.2408  1.0497 -0.5751
 7954SOL    HW235322   0.079   4.282   7.085  0.5662 -1.5046  1.0204
 7955SOL     OW35323   4.172   0.933  12.965 -0.3457  0.4027 -0.1662
 7955SOL    HW135324   4.129   1.009  12.927  0.2710  0.8356  0.0040
 7955SOL    HW235325   4.148   0.861  12.906 -3.4201 -0.1320  1.6877
 7956SOL     OW35326   3.664   0.289   1.740  0.2363 -0.0997  0.0703
 7956SOL    HW135327   3.746   0.294   1.692 -1.4223  0.0316 -2.7586
 7956SOL    HW235328   3.653   0.381   1.763 -0.9362 -0.3425  0.4839
 7957SOL     OW35329   1.879   3.309   8.666  0.4073 -0.7773  0.3692
 7957SOL    HW135330   1.898   3.400   8.689  5.4836 -1.7505 -0.0937
 7957SOL    HW235331   1.940   3.310   8.593 -0.5403  1.3650 -0.4026
 7958SOL     OW35332   3.901   0.993   7.367  0.3088 -0.0995  0.5062
 7958SOL    HW135333   3.937   1.022   7.451 -0.7499  0.8621  0.6359
 7958SOL    HW235334   3.973   0.945   7.327  1.4444  1.2825  0.8917
 7959SOL     OW35335   1.217   2.550   5.958  0.3377 -0.0204 -0.5548
 7959SOL    HW135336   1.262   2.513   5.883  0.3776 -2.0671  0.4740
 7959SOL    HW235337   1.131   2.509   5.966 -0.8548  2.1257 -2.3932
 7960SOL     OW35338   2.361   4.281   4.026  0.3048 -0.4455  0.1066
 7960SOL    HW135339   2.439   4.247   3.981 -0.9438 -1.1089 -1.5366
 7960SOL    HW235340   2.394   4.297   4.115  0.0040  0.7096 -0.0024
 7961SOL     OW35341   3.077   3.197  12.152  0.3460 -0.2695  0.6130
 7961SOL    HW135342   3.158   3.245  12.167  0.3724  0.1654 -1.0177
 7961SOL    HW235343   3.035   3.242  12.079  0.9707  0.1141  0.4925
 7962SOL     OW35344   0.152   4.399   9.683  0.4161 -0.2767  0.4551
 7962SOL    HW135345   0.151   4.493   9.698  0.4371  0.1903 -2.3445
 7962SOL    HW235346   0.136   4.393   9.589 -2.6228 -0.4529  0.9859
 7963SOL     OW35347   0.958   2.740   1.695  0.0884  0.3973 -0.4112
 7963SOL    HW135348   0.918   2.686   1.763  2.2327  1.2642  1.5407
 7963SOL    HW235349   0.912   2.824   1.705  2.0084  1.4583 -0.4791
 7964SOL     OW35350   1.803   3.638   9.074 -0.3579 -0.3242  0.8018
 7964SOL    HW135351   1.849   3.600   8.999  1.5586  0.6698  1.4841
 7964SOL    HW235352   1.876   3.645   9.135  1.4291 -1.3382 -1.2185
 7965SOL     OW35353   4.587   1.763   4.201 -0.3214 -0.0706  0.1107
 7965SOL    HW135354   4.639   1.746   4.123  1.5606  1.5325  1.0240
 7965SOL    HW235355   4.533   1.837   4.175 -0.1480 -0.0760 -0.2603
 7966SOL     OW35356   3.856   4.680   6.140  0.0016 -0.4347 -0.3507
 7966SOL    HW135357   3.781   4.631   6.173  1.1512 -2.1020 -0.1921
 7966SOL    HW235358   3.855   0.042   6.191  1.2288 -0.0206 -0.9911
 7967SOL     OW35359   4.366   4.082  17.216  0.6135  0.3246  0.1925
 7967SOL    HW135360   4.447   4.133  17.212  0.2377  0.9232  0.1959
 7967SOL    HW235361   4.395   3.993  17.236 -1.3033 -0.2935  0.1731
 7968SOL     OW35362   3.038   0.953   8.831 -0.3801 -0.8490 -0.9379
 7968SOL    HW135363   2.959   0.984   8.787  0.1993  0.9435 -0.6946
 7968SOL    HW235364   3.038   0.992   8.918  2.2877  3.4188 -2.8701
 7969SOL     OW35365   0.365   3.616  17.258 -0.3334  0.2564  0.8695
 7969SOL    HW135366   0.430   3.683  17.239 -1.8559  1.8396  1.2059
 7969SOL    HW235367   0.339   3.606  17.167 -1.3435 -3.3710  1.5505
 7970SOL     OW35368   0.022   2.901   3.344  0.1603  0.6610 -0.0289
 7970SOL    HW135369   0.032   2.898   3.439 -1.3694 -0.8521  0.0816
 7970SOL    HW235370   0.015   2.995   3.326  2.8317  0.7969 -0.3508
 7971SOL     OW35371   0.191   2.480   6.057 -0.1208  0.1440 -0.1415
 7971SOL    HW135372   0.174   2.559   6.109 -1.1040 -1.0849  1.4271
 7971SOL    HW235373   0.100   2.453   6.041  0.1976 -0.8209 -0.3412
 7972SOL     OW35374   0.700   1.544   3.004  0.5262 -0.7010 -0.2646
 7972SOL    HW135375   0.608   1.538   3.028  1.1485 -3.0373  1.5399
 7972SOL    HW235376   0.705   1.613   2.938  3.0583 -1.1894 -0.5824
 7973SOL     OW35377   4.436   2.977   0.875  0.2590 -0.5724 -0.4342
 7973SOL    HW135378   4.497   3.044   0.904 -0.3740  0.4071 -1.3582
 7973SOL    HW235379   4.388   2.956   0.955  3.0619 -3.6937  0.4427
 7974SOL     OW35380   4.694   0.385  13.612  0.0313 -0.2125 -0.7402
 7974SOL    HW135381   4.672   0.393  13.705  0.4423  0.4755 -0.7047
 7974SOL    HW235382   0.063   0.421  13.620  0.1468 -0.4630 -0.8972
 7975SOL     OW35383   2.078   0.345   3.353 -0.0773  0.3449  0.0309
 7975SOL    HW135384   2.114   0.258   3.368 -2.0696 -0.4628  0.0828
 7975SOL    HW235385   2.083   0.361   3.259 -2.3200 -1.8432 -0.4583
 7976SOL     OW35386   1.238   3.601  15.250 -0.2376  0.0435 -0.0803
 7976SOL    HW135387   1.180   3.642  15.314  0.9694  1.8427 -0.1317
 7976SOL    HW235388   1.275   3.528  15.299  1.1908 -1.2039 -3.0187
 7977SOL     OW35389   0.336   2.959   6.713  0.3461 -0.2957  0.5435
 7977SOL    HW135390   0.357   2.986   6.623  0.0284 -1.6697  0.0457
 7977SOL    HW235391   0.408   2.896   6.719  1.9625  1.7013  2.1814
 7978SOL     OW35392   3.012   0.121   4.810 -0.5180  0.3637  0.7004
 7978SOL    HW135393   2.985   0.204   4.771  0.4184  0.3800  0.0847
 7978SOL    HW235394   2.937   0.070   4.780  1.0478 -1.4978 -0.0324
 7979SOL     OW35395   1.480   1.100   6.524  0.0884 -0.2727  0.3509
 7979SOL    HW135396   1.541   1.165   6.487  1.1348 -0.9054  0.9868
 7979SOL    HW235397   1.529   1.037   6.576  0.7902 -1.2923 -1.5749
 7980SOL     OW35398   0.152   3.190   8.385  0.0094  0.3405 -0.0289
 7980SOL    HW135399   0.078   3.204   8.326 -0.3825  2.6434  1.0219
 7980SOL    HW235400   0.121   3.229   8.467  1.3183  0.8184  0.2369
 7981SOL     OW35401   3.135   2.847   8.358  0.0436  0.1567  0.2479
 7981SOL    HW135402   3.167   2.922   8.407 -0.2944  0.1292  0.5109
 7981SOL    HW235403   3.209   2.787   8.361  0.7354  1.0690  1.1372
 7982SOL     OW35404   3.911   2.625   8.842 -0.5054 -0.2197 -0.3357
 7982SOL    HW135405   3.855   2.671   8.780 -0.1516 -0.6064 -0.9480
 7982SOL    HW235406   3.839   2.612   8.903  0.2721 -1.3851  0.3318
 7983SOL     OW35407   1.593   0.636   3.684  0.5693 -0.4207 -0.4066
 7983SOL    HW135408   1.518   0.626   3.743  2.7750 -0.3765  2.3898
 7983SOL    HW235409   1.664   0.661   3.743 -0.7197 -0.7499  1.2638
 7984SOL     OW35410   2.702   0.215   6.905 -0.5919  0.6157 -0.8068
 7984SOL    HW135411   2.632   0.183   6.849 -0.8530  0.7412 -0.5544
 7984SOL    HW235412   2.763   0.246   6.837 -0.1843 -0.5173 -0.9486
 7985SOL     OW35413   0.008   0.856   0.628  0.1975 -0.6958 -0.5827
 7985SOL    HW135414   4.687   0.811   0.554  1.4108 -1.2120 -0.9322
 7985SOL    HW235415   4.649   0.901   0.660  1.0087  1.2024 -1.2920
 7986SOL     OW35416   1.927   4.120   4.086  0.3263  0.2058 -0.7543
 7986SOL    HW135417   1.991   4.185   4.055 -0.7712  1.6320 -0.0051
 7986SOL    HW235418   1.852   4.137   4.029 -1.6303 -1.2921  1.4031
 7987SOL     OW35419   3.773   3.429   5.749  0.4985  0.2106 -0.6657
 7987SOL    HW135420   3.743   3.340   5.734 -1.4713  0.9813 -1.3701
 7987SOL    HW235421   3.866   3.414   5.736  0.7396  0.4687  0.8321
 7988SOL     OW35422   3.946   3.819  16.764 -0.2150  0.4704 -0.7326
 7988SOL    HW135423   3.918   3.889  16.821 -1.1529 -0.2096 -0.3614
 7988SOL    HW235424   4.010   3.861  16.706 -2.5351  0.6941 -3.1098
 7989SOL     OW35425   1.649   2.398   4.454  0.1844  0.5903 -0.0707
 7989SOL    HW135426   1.620   2.307   4.457 -0.6631  0.9586  2.6238
 7989SOL    HW235427   1.709   2.396   4.380 -0.4244 -0.2969 -0.5488
 7990SOL     OW35428   3.236   3.864   7.158  0.0518  0.2947 -1.0205
 7990SOL    HW135429   3.283   3.944   7.134  0.7124  0.1880 -0.0988
 7990SOL    HW235430   3.301   3.797   7.138  1.0883  1.2162 -0.7540
 7991SOL     OW35431   2.727   4.189  13.158 -0.4698 -0.0721 -0.0776
 7991SOL    HW135432   2.650   4.235  13.192  0.4329  0.2830  1.4883
 7991SOL    HW235433   2.777   4.263  13.124  1.2339 -1.4331 -0.5145
 7992SOL     OW35434   0.045   2.312   3.463 -0.3909  0.3038 -0.5593
 7992SOL    HW135435   0.097   2.235   3.438  2.5805  1.9294  0.5119
 7992SOL    HW235436   0.108   2.365   3.512 -1.2846  0.2912  0.6014
 7993SOL     OW35437   2.284   3.667   9.961  0.1766  0.3754  0.4659
 7993SOL    HW135438   2.291   3.602  10.031 -2.4172  2.3628  2.5861
 7993SOL    HW235439   2.189   3.678   9.962  0.0761 -0.4201 -0.7120
 7994SOL     OW35440   2.197   3.262  13.292 -0.7872  0.4306 -0.7470
 7994SOL    HW135441   2.184   3.244  13.385 -0.9684 -2.7443 -1.3960
 7994SOL    HW235442   2.281   3.223  13.270 -0.9281  0.1237 -0.7378
 7995SOL     OW35443   2.557   4.033   5.468 -0.1680 -0.4428 -0.1231
 7995SOL    HW135444   2.494   4.043   5.540  1.2268  0.7077  0.9619
 7995SOL    HW235445   2.584   4.125   5.462  0.7308 -0.6042  1.4345
 7996SOL     OW35446   1.815   3.860   2.976 -0.1853  0.1726  0.1403
 7996SOL    HW135447   1.785   3.804   3.048  1.4207 -1.1444 -0.1854
 7996SOL    HW235448   1.748   3.928   2.972  0.8398  1.1952  0.3025
 7997SOL     OW35449   2.327   4.166   5.288 -0.2247  0.0901 -0.0394
 7997SOL    HW135450   2.400   4.144   5.230  0.3508  0.2263  0.6347
 7997SOL    HW235451   2.269   4.090   5.285 -0.9241  0.4810  3.4237
 7998SOL     OW35452   3.058   2.130   4.304  0.0604 -0.3419 -0.2180
 7998SOL    HW135453   2.967   2.153   4.323  0.1818  1.0435 -1.3099
 7998SOL    HW235454   3.099   2.215   4.292  1.6430 -1.2418 -1.0877
 7999SOL     OW35455   3.591   3.045   2.192 -0.0245  0.4601 -0.4939
 7999SOL    HW135456   3.660   2.981   2.175  1.6433  1.7034  1.5656
 7999SOL    HW235457   3.643   3.114   2.233 -2.6346  0.8566  2.1961
 8000SOL     OW35458   1.988   2.723   8.211 -0.3188  0.7224  0.4844
 8000SOL    HW135459   2.080   2.738   8.230 -0.3169  1.5756 -0.1939
 8000SOL    HW235460   1.968   2.690   8.299  0.3757  0.7400  0.6496
 8001SOL     OW35461   4.032   2.639   1.314  0.2402  0.5847 -0.2315
 8001SOL    HW135462   4.125   2.614   1.311 -0.1247 -0.8753  0.2446
 8001SOL    HW235463   4.012   2.681   1.231 -2.2298  0.1148  0.1377
 8002SOL     OW35464   0.283   2.827   4.953  0.0627  0.3306 -0.4024
 8002SOL    HW135465   0.199   2.860   4.985  0.4032  1.2653 -0.4835
 8002SOL    HW235466   0.303   2.885   4.880  2.1279 -0.0938 -0.1962
 8003SOL     OW35467   2.492   0.945   4.393 -0.3768  0.1484  0.2705
 8003SOL    HW135468   2.400   0.938   4.418 -0.6411  1.5724 -0.2958
 8003SOL    HW235469   2.526   1.013   4.450 -0.1721  0.3917 -0.1363
 8004SOL     OW35470   0.091   4.028  17.550  0.2269  0.0481  0.0133
 8004SOL    HW135471   0.108   4.109  17.501 -0.4022  1.3285  1.9072
 8004SOL    HW235472   0.107   3.955  17.490  0.7416  0.6353 -0.5777
 8005SOL     OW35473   0.087   1.602   7.037 -0.3024  0.6892 -0.0113
 8005SOL    HW135474   0.040   1.684   7.048 -1.0498  0.5209 -2.0124
 8005SOL    HW235475   0.090   1.568   7.126  1.2681 -0.9415 -0.6778
 8006SOL     OW35476   4.322   1.761   4.431 -0.2155  0.7393 -0.5781
 8006SOL    HW135477   4.416   1.743   4.436  0.0624  1.7007 -2.4874
 8006SOL    HW235478   4.313   1.855   4.446 -0.3314  0.6223  0.0937
 8007SOL     OW35479   1.243   2.645   3.488  0.1328  0.0656 -0.0031
 8007SOL    HW135480   1.171   2.670   3.545  1.4623  1.1040  1.2169
 8007SOL    HW235481   1.308   2.681   3.549  0.4974 -0.4282 -0.0977
 8008SOL     OW35482   2.750   0.678  12.010 -0.1160  0.5697 -0.2169
 8008SOL    HW135483   2.678   0.703  12.068 -0.8991  2.0217 -1.8260
 8008SOL    HW235484   2.758   0.586  12.036  0.8727  1.1845  1.6244
 8009SOL     OW35485   3.997   3.357   6.625 -0.0530  0.4447 -0.6252
 8009SOL    HW135486   3.927   3.336   6.564  0.5151 -0.5067 -0.9577
 8009SOL    HW235487   4.050   3.414   6.570 -0.2950 -1.4498 -2.8195
 8010SOL     OW35488   3.407   0.932   3.023 -0.2179  0.1560  0.4941
 8010SOL    HW135489   3.488   0.914   2.976 -0.2621 -1.7661  1.1778
 8010SOL    HW235490   3.363   0.990   2.961 -2.1247  0.6993  2.3463
 8011SOL     OW35491   4.486   2.330  11.182 -0.0251 -0.9002  0.3867
 8011SOL    HW135492   4.481   2.379  11.264 -0.8463  0.0001 -0.2039
 8011SOL    HW235493   4.406   2.280  11.200  0.2357 -1.3941  0.1813
 8012SOL     OW35494   3.731   0.715   0.903  0.2547  0.4316 -0.3980
 8012SOL    HW135495   3.706   0.735   0.813  0.4607  1.7691 -0.1492
 8012SOL    HW235496   3.821   0.747   0.899  0.2693  0.6890  2.0593
 8013SOL     OW35497   4.566   2.635   5.824  0.2445 -0.3191  0.2826
 8013SOL    HW135498   4.601   2.719   5.851  0.4411 -1.1602  2.6178
 8013SOL    HW235499   4.500   2.613   5.889  0.1553 -0.2158  0.2260
 8014SOL     OW35500   0.523   2.864   8.396  0.1936  0.3208 -0.2767
 8014SOL    HW135501   0.560   2.917   8.466  0.7640 -0.6085  0.1132
 8014SOL    HW235502   0.438   2.904   8.375 -0.0502 -0.5448 -0.9569
 8015SOL     OW35503   4.136   4.234  10.050 -0.4735  0.2048 -0.2822
 8015SOL    HW135504   4.051   4.276  10.061 -1.5307 -1.3305 -2.6480
 8015SOL    HW235505   4.193   4.310  10.038 -0.4784  0.3279  0.4719
 8016SOL     OW35506   2.582   4.292   4.737 -0.1069  0.1561  0.1030
 8016SOL    HW135507   2.640   4.216   4.735 -0.7542 -0.3734  1.2169
 8016SOL    HW235508   2.585   4.327   4.826 -0.0452  0.5221 -0.0423
 8017SOL     OW35509   2.500   0.181   3.273 -0.1270 -0.3835 -0.0604
 8017SOL    HW135510   2.447   0.148   3.200 -1.8012  2.0551  0.0478
 8017SOL    HW235511   2.545   0.260   3.244 -1.1134  0.9977  2.1838
 8018SOL     OW35512   3.076   2.347   9.827 -0.3573  0.0771  0.1198
 8018SOL    HW135513   3.143   2.370   9.763 -0.8347  0.1571 -0.3558
 8018SOL    HW235514   3.022   2.426   9.836 -2.3275 -1.0951 -1.2620
 8019SOL     OW35515   3.533   1.047   3.558  0.6910  0.6590  0.1166
 8019SOL    HW135516   3.600   1.003   3.610 -0.2738 -1.6332 -0.5290
 8019SOL    HW235517   3.578   1.055   3.474 -0.2386 -1.8490 -0.6343
 8020SOL     OW35518   2.926   1.600   6.360 -0.1220  0.1049  0.1515
 8020SOL    HW135519   2.908   1.590   6.454  0.6113  0.3660  0.3193
 8020SOL    HW235520   2.907   1.510   6.333 -3.3250  0.2486  1.8349
 8021SOL     OW35521   2.356   2.742   1.729  0.1881  0.3059 -0.3251
 8021SOL    HW135522   2.397   2.693   1.658  3.3908 -0.6582  2.1961
 8021SOL    HW235523   2.273   2.695   1.740 -0.7978  2.5040  1.6256
 8022SOL     OW35524   2.788   0.007   5.548  0.9251 -0.2469 -0.1314
 8022SOL    HW135525   2.704   0.042   5.517  0.4904  0.5540  1.9536
 8022SOL    HW235526   2.843   0.034   5.475 -0.2761 -0.2302 -1.0427
 8023SOL     OW35527   0.259   3.709   9.114  0.3023 -0.2468 -0.2108
 8023SOL    HW135528   0.299   3.791   9.085 -1.0309  0.8651  1.0689
 8023SOL    HW235529   0.333   3.666   9.157 -0.8589 -2.4390 -0.3834
 8024SOL     OW35530   2.074   2.318   2.743  0.8283  0.8948  0.3054
 8024SOL    HW135531   2.136   2.266   2.692  1.0356  1.4496 -0.0089
 8024SOL    HW235532   2.000   2.323   2.682  1.6385 -0.5308 -0.7909
 8025SOL     OW35533   3.049   2.936   2.887 -0.0318  0.2711  0.0366
 8025SOL    HW135534   3.065   3.009   2.946  0.4657  0.4116 -0.2699
 8025SOL    HW235535   2.993   2.885   2.946  0.7454 -0.2039  0.3728
 8026SOL     OW35536   2.901   1.348   6.229 -0.1234  0.3134 -0.4690
 8026SOL    HW135537   2.987   1.331   6.191  1.6090  0.8567  3.1946
 8026SOL    HW235538   2.846   1.334   6.152 -0.2021 -0.8261 -0.2059
 8027SOL     OW35539   1.781   1.130   7.708  0.3797 -0.3236 -0.5641
 8027SOL    HW135540   1.827   1.057   7.666 -0.8905 -1.9161  0.8055
 8027SOL    HW235541   1.826   1.201   7.663  0.2851 -1.0559 -1.8269
 8028SOL     OW35542   0.945   4.078   9.472 -0.1573 -0.1361  0.0453
 8028SOL    HW135543   0.899   4.023   9.408  0.6796 -1.4312  0.5413
 8028SOL    HW235544   0.878   4.097   9.537 -0.5222  0.7463 -0.5936
 8029SOL     OW35545   1.493   1.867   2.625  0.1741 -0.2826 -0.2318
 8029SOL    HW135546   1.490   1.869   2.720 -1.8046  1.3906 -0.3405
 8029SOL    HW235547   1.449   1.943   2.588  0.8943  0.8741  1.3016
 8030SOL     OW35548   2.672   0.427   2.835 -0.3679 -0.2302 -0.6488
 8030SOL    HW135549   2.625   0.510   2.833 -0.0385 -0.0485 -0.8874
 8030SOL    HW235550   2.757   0.456   2.869 -2.2309  2.0928  1.9958
 8031SOL     OW35551   1.012   3.471   8.222 -0.1307  0.1032  1.0396
 8031SOL    HW135552   1.088   3.529   8.234 -0.9559  1.2753  0.6606
 8031SOL    HW235553   1.015   3.461   8.127 -1.1631  3.1257  0.6731
 8032SOL     OW35554   0.780   1.409   3.497  0.3311  0.3223 -0.1111
 8032SOL    HW135555   0.704   1.457   3.528  0.1114  0.3023 -0.6173
 8032SOL    HW235556   0.758   1.394   3.405  0.1634 -2.3567  0.3444
 8033SOL     OW35557   1.657   3.235   7.462 -0.3312  0.3566 -0.2624
 8033SOL    HW135558   1.713   3.179   7.517 -1.4578  2.7821  3.3313
 8033SOL    HW235559   1.655   3.318   7.510 -2.6467  0.5818 -0.7304
 8034SOL     OW35560   0.484   4.553   9.532 -0.1535 -0.0166 -0.1743
 8034SOL    HW135561   0.448   4.487   9.591 -1.8473  0.9685 -0.1149
 8034SOL    HW235562   0.401   4.590   9.501  0.0298  0.2731 -0.3152
 8035SOL     OW35563   3.125   0.086   3.136  0.3278 -0.3385  0.1138
 8035SOL    HW135564   3.205   0.060   3.092 -0.4170  0.6223 -1.7950
 8035SOL    HW235565   3.074   0.110   3.059 -2.0424 -1.1390  1.4454
 8036SOL     OW35566   4.274   3.948   2.816 -0.5208  0.4859  0.1494
 8036SOL    HW135567   4.315   3.992   2.891  1.2610  3.0784 -2.3605
 8036SOL    HW235568   4.349   3.935   2.759 -0.2074 -2.8372  1.3152
 8037SOL     OW35569   2.484   1.915   6.084  0.1713 -0.2331 -0.3795
 8037SOL    HW135570   2.491   1.992   6.027 -0.3176 -0.9547 -1.3860
 8037SOL    HW235571   2.538   1.849   6.043  2.0898  0.8887  0.3198
 8038SOL     OW35572   4.116   1.162   2.116 -0.0667  0.0082  0.1094
 8038SOL    HW135573   4.169   1.082   2.112 -1.2655 -0.7876  0.1585
 8038SOL    HW235574   4.078   1.170   2.029 -0.9493 -2.1219  0.2968
 8039SOL     OW35575   1.560   0.477   3.946  0.5202  0.6253 -0.6031
 8039SOL    HW135576   1.604   0.560   3.967 -1.7235  2.3517 -2.6794
 8039SOL    HW235577   1.628   0.419   3.911  0.3361 -0.2270  0.4472
 8040SOL     OW35578   2.635   3.788  15.950 -0.2915 -0.2055 -0.5298
 8040SOL    HW135579   2.672   3.871  15.922  2.1651 -1.3150 -0.5052
 8040SOL    HW235580   2.715   3.745  15.978  0.4347 -0.8693 -3.6773
 8041SOL     OW35581   2.178   4.494   4.421 -0.0145  0.1062 -0.4071
 8041SOL    HW135582   2.143   4.497   4.332 -1.3815  0.2546  0.1404
 8041SOL    HW235583   2.140   4.579   4.444 -0.6334 -0.5008  0.7816
 8042SOL     OW35584   1.657   4.564  16.125  0.5687 -0.1115  0.3832
 8042SOL    HW135585   1.680   4.565  16.218 -0.4898 -2.4966  0.6616
 8042SOL    HW235586   1.684   4.653  16.102  2.7268 -0.8287  0.0859
 8043SOL     OW35587   4.573   0.975  15.629 -0.1964  0.2593 -0.1590
 8043SOL    HW135588   4.548   1.002  15.718 -2.8451  0.3881 -0.9574
 8043SOL    HW235589   4.645   1.037  15.624  0.3394 -0.1803  1.9576
 8044SOL     OW35590   1.723   4.026   0.873  0.1478 -0.4451 -0.4423
 8044SOL    HW135591   1.665   3.964   0.827 -0.6444 -0.7801  1.0143
 8044SOL    HW235592   1.662   4.047   0.943  0.6623 -0.2285 -0.0616
 8045SOL     OW35593   4.174   1.927  14.001  0.0590 -0.2224  0.3616
 8045SOL    HW135594   4.133   1.845  13.974  0.3763  0.1808 -1.3211
 8045SOL    HW235595   4.238   1.890  14.063 -2.2116  1.5332  3.7736
 8046SOL     OW35596   2.069   2.062   4.025  0.0376 -0.7949  0.6952
 8046SOL    HW135597   2.080   2.139   3.970  0.4640  0.5748  2.6977
 8046SOL    HW235598   2.123   1.999   3.977  1.4880 -0.2344  1.6111
 8047SOL     OW35599   3.225   1.604   2.912  0.2834 -0.2627  0.4421
 8047SOL    HW135600   3.133   1.575   2.913  0.2324 -0.0862  0.9075
 8047SOL    HW235601   3.243   1.546   2.986 -0.9609 -1.6709 -0.3605
 8048SOL     OW35602   4.254   1.429   1.921 -0.1700  0.1520 -0.4918
 8048SOL    HW135603   4.283   1.466   1.838  2.8326 -0.6690  0.1807
 8048SOL    HW235604   4.340   1.413   1.960 -0.8510  0.4078  1.1087
 8049SOL     OW35605   0.991   4.616   5.343  0.3245  0.3972  0.1538
 8049SOL    HW135606   0.987   4.664   5.260 -0.2386  1.5499  0.8406
 8049SOL    HW235607   1.077   4.640   5.378  0.2698 -0.4449  0.8585
 8050SOL     OW35608   1.884   1.869  15.663 -0.1494  0.3345 -0.9109
 8050SOL    HW135609   1.799   1.903  15.689  0.0924  0.6760 -0.5581
 8050SOL    HW235610   1.938   1.948  15.659 -0.7758  0.8235  0.3583
 8051SOL     OW35611   2.782   0.806   6.333  0.4913 -0.4745  0.4809
 8051SOL    HW135612   2.840   0.859   6.277 -2.9257 -0.0360 -2.6134
 8051SOL    HW235613   2.695   0.814   6.295  0.4351 -1.5791  0.3642
 8052SOL     OW35614   0.078   1.329   5.154 -0.0203  0.7419  1.1276
 8052SOL    HW135615   0.030   1.385   5.094  0.5350 -0.6317 -0.5929
 8052SOL    HW235616   0.004   1.306   5.210 -0.8689  0.6708 -0.0284
 8053SOL     OW35617   1.869   4.151   6.145 -0.0365 -0.0036 -0.1553
 8053SOL    HW135618   1.805   4.161   6.215  1.8276  1.1821  1.3729
 8053SOL    HW235619   1.829   4.073   6.107 -2.3532  2.1535 -2.2272
 8054SOL     OW35620   2.209   3.308  10.339  0.1425 -0.1786 -0.2033
 8054SOL    HW135621   2.280   3.314  10.276  0.1257 -1.4000 -0.3341
 8054SOL    HW235622   2.255   3.365  10.401 -0.3805  1.0632 -0.9641
 8055SOL     OW35623   0.573   3.426   6.779 -0.4749 -0.3711  0.2199
 8055SOL    HW135624   0.543   3.512   6.807 -0.8669 -0.5904  0.4874
 8055SOL    HW235625   0.501   3.370   6.810 -1.7243  1.1023 -0.0052
 8056SOL     OW35626   4.021   3.627  16.958 -0.3176  0.2029 -0.2735
 8056SOL    HW135627   3.937   3.641  17.002  0.1266 -0.8956  0.9179
 8056SOL    HW235628   4.023   3.710  16.910 -1.1861  0.1634 -0.3650
 8057SOL     OW35629   3.980   4.363  17.212  0.1082 -0.0802 -0.7950
 8057SOL    HW135630   4.060   4.376  17.264 -2.1906  0.7049  2.5914
 8057SOL    HW235631   4.005   4.294  17.150 -0.2502  0.7648 -1.8740
 8058SOL     OW35632   0.557   0.350  15.355 -0.4418 -0.1601 -0.3830
 8058SOL    HW135633   0.557   0.260  15.386 -1.6449  0.0677  0.2655
 8058SOL    HW235634   0.552   0.389  15.442 -0.7105 -0.0587 -0.4442
 8059SOL     OW35635   0.969   3.896   6.015  0.5861 -0.4738  0.2333
 8059SOL    HW135636   0.944   3.806   6.039  0.3255 -0.7974 -1.2636
 8059SOL    HW235637   0.894   3.951   6.037  1.4100  0.6180  0.3078
 8060SOL     OW35638   0.052   4.438   7.906  0.0126  0.3709 -0.3752
 8060SOL    HW135639   0.106   4.461   7.982 -0.1764  0.3452 -0.2335
 8060SOL    HW235640   4.695   4.415   7.959  1.4330  0.8963  1.8889
 8061SOL     OW35641   1.301   2.634  12.350  0.1553 -0.4357  0.0145
 8061SOL    HW135642   1.254   2.551  12.342  0.2393 -0.2920 -1.9978
 8061SOL    HW235643   1.346   2.619  12.433 -1.0841  0.7160  0.9058
 8062SOL     OW35644   1.145   0.298   5.295 -0.3329 -0.0059 -0.0372
 8062SOL    HW135645   1.056   0.284   5.327  1.4544 -2.7307  3.7551
 8062SOL    HW235646   1.122   0.315   5.204  0.7855  0.9896 -0.1190
 8063SOL     OW35647   3.894   1.517   3.201 -0.6307  0.1680  0.1378
 8063SOL    HW135648   3.939   1.585   3.152 -1.2153  1.7352  1.7551
 8063SOL    HW235649   3.817   1.569   3.225 -1.3340 -0.2555 -1.1824
 8064SOL     OW35650   1.248   0.761   8.270  0.3147 -0.1465 -0.3086
 8064SOL    HW135651   1.294   0.688   8.228  1.1225  0.7030 -0.9141
 8064SOL    HW235652   1.199   0.718   8.339  0.1284  1.6552  0.7015
 8065SOL     OW35653   3.602   0.418  12.173  0.2546 -0.0117  0.5009
 8065SOL    HW135654   3.640   0.434  12.260 -2.9270 -0.8825  2.0693
 8065SOL    HW235655   3.670   0.366  12.132 -0.1240 -1.8291  2.1862
 8066SOL     OW35656   4.530   0.343   9.013  0.2485 -0.0491  0.4653
 8066SOL    HW135657   4.581   0.396   8.952 -0.0559  0.6240  0.7937
 8066SOL    HW235658   4.453   0.330   8.957 -1.3476  0.4628  2.5124
 8067SOL     OW35659   2.205   1.004   1.517  0.1591 -0.0938 -0.5005
 8067SOL    HW135660   2.228   1.056   1.440  0.4833 -1.1400 -1.1054
 8067SOL    HW235661   2.293   0.967   1.527 -0.9317 -2.1838  1.3734
 8068SOL     OW35662   4.550   3.212   0.988  0.3764  0.0949  0.5084
 8068SOL    HW135663   4.554   3.185   1.079  1.9059  1.0621  0.7285
 8068SOL    HW235664   4.469   3.263   0.989 -1.1433 -2.3011 -0.5629
 8069SOL     OW35665   2.438   2.543  11.646  0.2146  0.2130 -0.0348
 8069SOL    HW135666   2.426   2.638  11.645 -0.6915  0.0852 -0.7380
 8069SOL    HW235667   2.425   2.526  11.553  1.1287 -2.6312  0.3415
 8070SOL     OW35668   4.517   4.476   6.079 -0.1934  0.3472 -0.2315
 8070SOL    HW135669   4.530   4.496   6.172 -0.4039 -2.1311  0.3106
 8070SOL    HW235670   4.605   4.485   6.042  0.2948 -1.8188  0.3870
 8071SOL     OW35671   3.673   2.889   9.070 -0.2657 -0.8983 -0.1713
 8071SOL    HW135672   3.765   2.912   9.053 -1.1169  2.3750 -0.2351
 8071SOL    HW235673   3.659   2.921   9.159  1.5843  0.6051 -0.4356
 8072SOL     OW35674   1.721   4.484   6.226 -0.1332 -0.2357 -0.8706
 8072SOL    HW135675   1.771   4.563   6.244 -2.2561  1.3897 -1.9725
 8072SOL    HW235676   1.661   4.491   6.300 -0.0788 -2.6482 -0.6156
 8073SOL     OW35677   3.847   1.479   5.018  0.0818 -0.0292 -0.0384
 8073SOL    HW135678   3.919   1.497   5.079 -0.0149  2.5355 -0.6598
 8073SOL    HW235679   3.883   1.407   4.967 -0.7117 -0.3103 -0.2001
 8074SOL     OW35680   3.243   2.489   2.971 -0.5483 -0.0537  0.3057
 8074SOL    HW135681   3.202   2.506   2.886  1.3040 -0.8836 -0.7592
 8074SOL    HW235682   3.302   2.565   2.980  1.8143 -1.7707 -0.6347
 8075SOL     OW35683   4.352   1.821  14.167 -0.2951  0.4008 -0.2126
 8075SOL    HW135684   4.394   1.736  14.182  0.8711  1.4600  2.4578
 8075SOL    HW235685   4.386   1.865  14.245 -1.7156 -1.4103  1.4225
 8076SOL     OW35686   0.134   4.214   5.573 -1.0123  0.3706 -0.1610
 8076SOL    HW135687   0.131   4.263   5.491  1.8248 -0.3853 -0.7249
 8076SOL    HW235688   0.059   4.256   5.615 -0.5538  0.3169  0.7105
 8077SOL     OW35689   1.042   1.726  16.045 -0.6514  0.0644  0.3685
 8077SOL    HW135690   1.089   1.667  15.986 -0.5918  0.0146  0.4660
 8077SOL    HW235691   1.070   1.688  16.129 -0.6583  0.4939  0.5671
 8078SOL     OW35692   1.890   2.697   9.710  0.5283 -0.4737 -0.6823
 8078SOL    HW135693   1.816   2.648   9.674  0.1701 -2.8947  3.3852
 8078SOL    HW235694   1.966   2.646   9.681  0.9719 -0.0572 -0.2500
 8079SOL     OW35695   1.087   2.100  13.825 -0.0413  0.2695  0.4958
 8079SOL    HW135696   1.129   2.182  13.854 -1.5160  0.9215  0.7872
 8079SOL    HW235697   1.027   2.139  13.761  2.3845  1.7661 -0.8798
 8080SOL     OW35698   1.140   2.856  12.290 -0.3672 -0.3183  0.3249
 8080SOL    HW135699   1.211   2.880  12.230 -0.5797  0.7674  0.5049
 8080SOL    HW235700   1.185   2.800  12.353  0.5432 -1.2720 -1.1580
 8081SOL     OW35701   0.553   3.821  10.943 -0.1525 -0.3924 -0.1999
 8081SOL    HW135702   0.621   3.767  10.902 -2.0375 -2.2991 -0.8667
 8081SOL    HW235703   0.480   3.789  10.890  0.7444  0.2899 -1.8509
 8082SOL     OW35704   0.809   0.092  13.108  0.0762 -0.1819 -0.2168
 8082SOL    HW135705   0.800   0.163  13.044 -4.0196 -0.4934  0.0102
 8082SOL    HW235706   0.721   0.082  13.145  0.3632  0.1419  0.5656
 8083SOL     OW35707   1.275   1.868   2.249 -0.3506  0.0568  0.5779
 8083SOL    HW135708   1.313   1.906   2.170 -0.3141  0.4860  0.8020
 8083SOL    HW235709   1.182   1.852   2.231 -0.1738 -0.2163 -0.0706
 8084SOL     OW35710   3.109   4.411  11.271  0.1432  0.0840  0.1216
 8084SOL    HW135711   3.072   4.496  11.248  0.6613 -0.1851 -1.7238
 8084SOL    HW235712   3.098   4.366  11.187 -0.6666 -1.5310  1.0974
 8085SOL     OW35713   1.789   0.610  15.330  0.0982  0.2595  0.2878
 8085SOL    HW135714   1.823   0.561  15.256 -1.8820  0.1803 -0.5501
 8085SOL    HW235715   1.701   0.631  15.300  0.3910  1.0776 -0.0054
 8086SOL     OW35716   3.643   1.432   8.189 -0.0160  0.2612  0.0488
 8086SOL    HW135717   3.653   1.338   8.205 -1.5343 -0.1469 -1.5660
 8086SOL    HW235718   3.630   1.470   8.276 -0.3377 -0.3773  0.2810
 8087SOL     OW35719   1.601   1.963   9.022  0.2434 -0.1647 -0.3499
 8087SOL    HW135720   1.539   1.941   8.952  0.2090  1.2055 -0.7534
 8087SOL    HW235721   1.640   1.884   9.059 -0.3281  0.1068  0.8121
 8088SOL     OW35722   0.763   2.228   4.348 -0.3576 -0.3544 -0.4120
 8088SOL    HW135723   0.763   2.175   4.268  0.9878 -1.4760  0.3228
 8088SOL    HW235724   0.785   2.165   4.416 -0.7482 -1.0874 -0.9557
 8089SOL     OW35725   1.979   3.352   6.887  0.3801 -0.0630  0.3393
 8089SOL    HW135726   1.986   3.413   6.813 -0.0008 -1.8378 -1.1472
 8089SOL    HW235727   1.884   3.352   6.899 -0.0138 -0.3293 -2.7972
 8090SOL     OW35728   0.224   3.006  15.494  0.1390 -0.2742 -0.3053
 8090SOL    HW135729   0.129   3.011  15.510  0.1151  0.5233 -0.7156
 8090SOL    HW235730   0.243   3.098  15.508 -3.6021  0.4306  0.2781
 8091SOL     OW35731   2.585   3.296  16.684 -0.2128 -0.6336 -0.0797
 8091SOL    HW135732   2.668   3.308  16.636  0.0584  1.1481  0.8304
 8091SOL    HW235733   2.604   3.213  16.727  1.8431  0.3836  0.9848
 8092SOL     OW35734   1.575   2.492   3.312  0.1109 -0.3500 -0.3777
 8092SOL    HW135735   1.536   2.573   3.344  1.1687  1.6311 -4.0541
 8092SOL    HW235736   1.515   2.467   3.241  1.8477 -3.1776 -0.8790
 8093SOL     OW35737   2.816   3.570   3.230 -0.2056 -0.5853  0.1703
 8093SOL    HW135738   2.737   3.576   3.177 -0.9544 -0.9778  1.2335
 8093SOL    HW235739   2.863   3.504   3.180  0.9030 -0.8571  1.5803
 8094SOL     OW35740   3.025   3.549  10.561  0.3567 -0.3614 -0.1201
 8094SOL    HW135741   3.054   3.640  10.558  0.0829 -0.2757 -0.0905
 8094SOL    HW235742   2.967   3.559  10.636 -0.9691  1.1002 -1.3537
 8095SOL     OW35743   1.246   4.178  15.591  0.5203  0.4914 -0.3161
 8095SOL    HW135744   1.332   4.171  15.550  0.7166 -0.1679  0.2105
 8095SOL    HW235745   1.189   4.181  15.514 -0.2595 -0.1970  0.2426
 8096SOL     OW35746   2.576   1.957   2.014  0.1672  0.6022 -0.3274
 8096SOL    HW135747   2.586   2.029   1.953 -0.2265  0.1601 -0.9146
 8096SOL    HW235748   2.610   1.891   1.953  1.5676  0.0404  1.0612
 8097SOL     OW35749   4.254   0.461   8.428  0.2669  0.5241  0.4410
 8097SOL    HW135750   4.299   0.499   8.353 -1.2308  1.1137 -0.1612
 8097SOL    HW235751   4.295   0.375   8.436 -1.1513 -0.2150 -0.1823
 8098SOL     OW35752   2.309   0.707   1.363 -0.2523  0.4124  0.1912
 8098SOL    HW135753   2.221   0.731   1.393  0.0501  1.6212  0.0958
 8098SOL    HW235754   2.304   0.729   1.270  1.3672  1.4043  0.3431
 8099SOL     OW35755   2.662   2.241  16.377  0.1510  0.7471  0.1935
 8099SOL    HW135756   2.714   2.250  16.297 -1.8295 -0.8051 -1.2780
 8099SOL    HW235757   2.572   2.241  16.345 -0.5923  0.5472  2.2607
 8100SOL     OW35758   1.095   2.234  15.233  0.1050 -0.3550  0.6269
 8100SOL    HW135759   1.181   2.213  15.197  0.8329  2.0503  0.9704
 8100SOL    HW235760   1.104   2.290  15.310 -0.1244  2.3222 -1.2744
 8101SOL     OW35761   1.027   2.330   6.025  0.1339  0.1083 -0.8207
 8101SOL    HW135762   1.107   2.326   6.078 -0.9183  1.1963  0.8423
 8101SOL    HW235763   0.963   2.368   6.086  0.8647  1.8104 -1.1288
 8102SOL     OW35764   4.684   2.198   7.983 -0.1286  0.2097  0.4295
 8102SOL    HW135765   0.048   2.160   8.011  0.9970  1.5654 -1.0265
 8102SOL    HW235766   4.649   2.199   8.072  1.2071 -0.6427  0.9640
 8103SOL     OW35767   1.742   1.978  16.076 -0.1240 -0.0001 -0.2708
 8103SOL    HW135768   1.755   1.884  16.091 -1.3411 -0.3974 -1.7493
 8103SOL    HW235769   1.827   2.014  16.103 -0.2740  0.1946 -0.0555
 8104SOL     OW35770   4.458   0.716   7.765  0.2964 -0.0779  0.4894
 8104SOL    HW135771   4.379   0.769   7.754  0.4715 -0.5328 -2.7957
 8104SOL    HW235772   4.488   0.727   7.855  1.0588 -0.6797  0.3094
 8105SOL     OW35773   4.715   4.640  13.676 -0.1397  0.1320 -0.1950
 8105SOL    HW135774   0.023   4.706  13.740  0.3984 -0.7043  0.4518
 8105SOL    HW235775   0.027   4.681  13.596  0.1345 -3.2798 -1.8532
 8106SOL     OW35776   3.652   2.142   2.103 -0.3694  0.5017 -0.8051
 8106SOL    HW135777   3.583   2.195   2.063 -1.9666 -2.2239 -1.6485
 8106SOL    HW235778   3.685   2.191   2.179 -1.3106 -0.5660  0.2892
 8107SOL     OW35779   3.059   0.065   8.027 -0.2073 -0.6015 -0.0972
 8107SOL    HW135780   3.105   0.047   8.109  0.6837 -2.1163 -0.9237
 8107SOL    HW235781   3.125   0.027   7.969  2.9272 -0.1069  3.1480
 8108SOL     OW35782   4.316   1.055  11.424 -0.2965  0.4548 -0.0972
 8108SOL    HW135783   4.409   1.069  11.411  0.4020 -1.6936  2.5905
 8108SOL    HW235784   4.277   1.104  11.351 -1.0986 -0.1608 -0.0818
 8109SOL     OW35785   0.565   2.607   5.214  0.4468 -0.1941 -0.3473
 8109SOL    HW135786   0.516   2.582   5.292 -1.9733  0.0433 -1.8087
 8109SOL    HW235787   0.591   2.697   5.231  1.2230 -0.7560  1.4203
 8110SOL     OW35788   2.351   2.625   6.875 -0.8578  0.0644 -0.3062
 8110SOL    HW135789   2.363   2.675   6.795  3.7899  0.5629  0.7188
 8110SOL    HW235790   2.305   2.695   6.921 -1.2815  0.0092 -0.6424
 8111SOL     OW35791   4.454   0.537   4.105 -0.5122 -0.1893 -0.3323
 8111SOL    HW135792   4.394   0.465   4.126  2.3954 -1.8980  2.0900
 8111SOL    HW235793   4.507   0.535   4.184  0.1804  0.1722 -0.7901
 8112SOL     OW35794   3.337   0.647  10.008  0.8415  0.4042  0.4267
 8112SOL    HW135795   3.356   0.738  10.031 -0.8690  0.5549  1.2177
 8112SOL    HW235796   3.253   0.664   9.967  0.8249  4.8500  2.2758
 8113SOL     OW35797   3.348   0.375  12.422 -0.1676  0.0985 -0.0109
 8113SOL    HW135798   3.350   0.453  12.365 -1.4885 -0.3963 -0.7487
 8113SOL    HW235799   3.377   0.412  12.505 -1.5309  0.9106  0.1155
 8114SOL     OW35800   1.961   4.667   2.929  0.3187  0.2964 -0.5948
 8114SOL    HW135801   1.998   4.711   2.853 -2.0782  0.2862 -1.7738
 8114SOL    HW235802   1.987   0.009   2.997 -2.5012  0.2843  0.4960
 8115SOL     OW35803   2.064   2.474   5.512 -0.4742 -0.1910 -0.4233
 8115SOL    HW135804   2.061   2.527   5.432  0.3149 -0.7959 -0.8363
 8115SOL    HW235805   1.970   2.466   5.530  0.0683 -1.7965  1.6257
 8116SOL     OW35806   0.060   1.988   6.753 -0.1300 -0.5795  0.2007
 8116SOL    HW135807   0.140   1.936   6.757  1.0385  0.9685 -2.4795
 8116SOL    HW235808   0.106   2.070   6.735 -2.2210  0.3809 -0.7384
 8117SOL     OW35809   2.143   3.479   9.578 -0.7832  0.3204  0.0202
 8117SOL    HW135810   2.108   3.438   9.499 -1.8036  0.9630  0.1420
 8117SOL    HW235811   2.152   3.404   9.637 -1.7149  1.1254  1.1598
 8118SOL     OW35812   3.327   2.181   0.446  0.6514  0.7360 -0.2075
 8118SOL    HW135813   3.294   2.131   0.520 -0.0438 -1.2966 -1.8768
 8118SOL    HW235814   3.307   2.114   0.380  2.1674  0.9539 -0.8723
 8119SOL     OW35815   1.688   2.223   8.385  0.0406  0.0987 -0.3235
 8119SOL    HW135816   1.701   2.285   8.457  0.2932  2.1123 -2.1138
 8119SOL    HW235817   1.757   2.249   8.325  2.1766 -2.3567  1.0643
 8120SOL     OW35818   3.956   3.428   3.184  0.1743 -0.2413 -0.1655
 8120SOL    HW135819   3.949   3.468   3.098  0.1498 -0.5431 -0.3037
 8120SOL    HW235820   4.052   3.435   3.192  0.0821 -1.3177  1.8268
 8121SOL     OW35821   4.174   1.311   9.007 -0.2066  0.6455  0.1656
 8121SOL    HW135822   4.197   1.301   9.100  0.2728  0.8596  0.0698
 8121SOL    HW235823   4.085   1.275   9.011  0.1735 -0.4074 -0.8193
 8122SOL     OW35824   2.427   4.300   7.135 -0.3141  0.1209  0.6468
 8122SOL    HW135825   2.395   4.317   7.223  0.2097 -3.5631  1.5564
 8122SOL    HW235826   2.513   4.342   7.137 -0.2800  0.0302  1.1013
 8123SOL     OW35827   2.941   1.893   3.560  0.3894 -0.2133 -0.1783
 8123SOL    HW135828   2.912   1.883   3.469  3.9126 -1.1694 -1.2318
 8123SOL    HW235829   3.036   1.879   3.552  0.4615  0.4633 -0.4492
 8124SOL     OW35830   2.285   3.130   8.089 -0.0290 -0.3263 -0.0238
 8124SOL    HW135831   2.225   3.178   8.033  0.7887 -1.7377 -2.1253
 8124SOL    HW235832   2.323   3.201   8.141  1.9079 -1.4953  0.1762
 8125SOL     OW35833   3.377   2.639  10.735 -0.3726  0.0385 -0.3076
 8125SOL    HW135834   3.331   2.669  10.657 -0.3957 -0.6654 -0.5648
 8125SOL    HW235835   3.424   2.720  10.758 -1.1003  1.2186 -3.0540
 8126SOL     OW35836   2.555   2.736   8.248 -0.4848  0.1878 -0.1014
 8126SOL    HW135837   2.534   2.776   8.163 -3.4188  0.3922  0.7170
 8126SOL    HW235838   2.487   2.781   8.298 -1.2225 -1.8145  0.6798
 8127SOL     OW35839   2.272   3.362   6.533 -0.6350  0.2212  0.4851
 8127SOL    HW135840   2.219   3.428   6.488 -1.0357 -0.1353  0.4366
 8127SOL    HW235841   2.357   3.406   6.538 -0.9615  0.8086  0.8722
 8128SOL     OW35842   2.753   0.012  11.369  0.2661 -0.2473  0.2973
 8128SOL    HW135843   2.743   0.106  11.358  0.0639 -0.6412 -2.8445
 8128SOL    HW235844   2.733   4.693  11.284 -0.3632 -0.4304  0.5244
 8129SOL     OW35845   3.878   0.235   6.244 -0.2787 -0.0196 -0.1306
 8129SOL    HW135846   3.933   0.279   6.179 -0.1990  1.4619  0.9387
 8129SOL    HW235847   3.804   0.296   6.240 -1.2434 -1.1589  0.2099
 8130SOL     OW35848   4.218   0.825   7.731 -0.0564  0.1664 -0.3811
 8130SOL    HW135849   4.229   0.857   7.642  1.5680  1.0193  0.1295
 8130SOL    HW235850   4.125   0.834   7.752 -0.1190  0.1025 -0.6317
 8131SOL     OW35851   2.302   0.558  10.821  0.0737 -0.3515 -0.4006
 8131SOL    HW135852   2.235   0.531  10.883  0.2583 -0.2076 -0.1353
 8131SOL    HW235853   2.309   0.653  10.833  0.7365 -0.3607 -0.7089
 8132SOL     OW35854   3.611   0.597  10.138  0.1917  0.5260  0.2079
 8132SOL    HW135855   3.629   0.506  10.160 -3.2968  0.0014  0.8496
 8132SOL    HW235856   3.676   0.625  10.073 -0.3382 -0.7761 -0.8979
 8133SOL     OW35857   3.630   3.440  13.803 -0.1039 -0.4522 -0.1263
 8133SOL    HW135858   3.638   3.482  13.888  0.3586  0.4531 -0.6127
 8133SOL    HW235859   3.536   3.447  13.786 -0.0808 -0.7882 -0.3994
 8134SOL     OW35860   2.488   4.224  17.350  0.3415  0.2056 -0.2531
 8134SOL    HW135861   2.437   4.245  17.428  0.3897  2.4062 -0.8153
 8134SOL    HW235862   2.455   4.144  17.310 -0.5777 -0.4649  1.8330
 8135SOL     OW35863   2.075   3.068   6.666 -0.1509 -0.3751 -0.0588
 8135SOL    HW135864   2.102   3.155   6.636  1.2712 -0.6965  0.3031
 8135SOL    HW235865   2.126   3.072   6.748  0.8855  1.0366 -0.7641
 8136SOL     OW35866   3.264   2.782   3.252  0.4704 -0.1769 -0.2715
 8136SOL    HW135867   3.336   2.829   3.296  0.8389  0.7084 -1.8030
 8136SOL    HW235868   3.255   2.697   3.294 -1.0946 -0.6143 -1.4908
 8137SOL     OW35869   1.730   1.456   6.939  0.1774  0.0895 -0.6192
 8137SOL    HW135870   1.818   1.423   6.959  0.7945  1.2965 -1.3719
 8137SOL    HW235871   1.752   1.525   6.876  0.3870  0.3722 -0.2329
 8138SOL     OW35872   2.738   2.764   3.864 -0.0291 -0.7967  0.2393
 8138SOL    HW135873   2.675   2.796   3.929 -0.0712  1.6267 -0.9932
 8138SOL    HW235874   2.763   2.850   3.830 -1.4875 -0.0776  0.9916
 8139SOL     OW35875   3.482   0.582   0.048 -0.0440 -0.3884  0.0147
 8139SOL    HW135876   3.538   0.651   0.083 -0.3259 -1.2025  2.0763
 8139SOL    HW235877   3.435   0.556   0.127  2.0190 -0.9214  1.0477
 8140SOL     OW35878   0.378   2.367   8.509  0.1593  0.3732 -0.5029
 8140SOL    HW135879   0.391   2.437   8.445 -1.3555 -0.0110 -1.2132
 8140SOL    HW235880   0.316   2.396   8.576 -0.8707  0.6837 -1.5889
 8141SOL     OW35881   3.360   2.908   6.930 -0.8058  0.7040  0.1122
 8141SOL    HW135882   3.393   2.829   6.972  0.0295 -0.9856 -3.7472
 8141SOL    HW235883   3.374   2.905   6.836  1.3128  0.6801  0.4160
 8142SOL     OW35884   2.626   4.189  12.119 -0.6683 -0.4635 -0.5632
 8142SOL    HW135885   2.637   4.283  12.101 -1.9133 -0.4792 -1.3911
 8142SOL    HW235886   2.535   4.183  12.148  0.1271 -1.4524  1.7706
 8143SOL     OW35887   1.753   4.423   0.042  0.3260 -0.4049  0.2435
 8143SOL    HW135888   1.805   4.503   0.033 -2.2527  1.0150 -1.8794
 8143SOL    HW235889   1.787   4.407   0.131  0.2681 -1.3671  0.0892
 8144SOL     OW35890   4.142   3.894   7.870  0.0352  0.1049 -0.8053
 8144SOL    HW135891   4.080   3.837   7.917  0.7303  0.1827  0.2117
 8144SOL    HW235892   4.210   3.827   7.863  1.9503  1.8199  1.4885
 8145SOL     OW35893   4.361   0.184   3.848 -0.3447  0.1354  0.7422
 8145SOL    HW135894   4.452   0.184   3.876 -0.0187 -0.6495 -0.3026
 8145SOL    HW235895   4.355   0.273   3.812  0.1253 -0.7798 -1.5705
 8146SOL     OW35896   4.416   1.353   7.648  0.0731 -0.1941  0.3143
 8146SOL    HW135897   4.408   1.264   7.684 -1.1017  0.3592  1.4466
 8146SOL    HW235898   4.334   1.384   7.687  0.6350  0.4540  0.9845
 8147SOL     OW35899   1.410   1.561  14.530  0.4155 -0.2909 -0.0450
 8147SOL    HW135900   1.422   1.520  14.445 -1.1728 -1.4888  0.3194
 8147SOL    HW235901   1.344   1.629  14.515 -1.5103 -1.4407  3.0772
 8148SOL     OW35902   2.917   3.905   5.309  0.4049 -0.9076  0.2751
 8148SOL    HW135903   3.004   3.872   5.331  0.9283  0.4525  0.2017
 8148SOL    HW235904   2.865   3.824   5.312 -1.2540  0.1817  1.1975
 8149SOL     OW35905   3.283   2.436   9.670 -0.6512 -0.1849 -0.5160
 8149SOL    HW135906   3.370   2.441   9.632 -0.3743  1.3671  0.3295
 8149SOL    HW235907   3.287   2.523   9.710 -1.9232 -0.4970  0.3029
 8150SOL     OW35908   4.058   1.571   1.678  0.2092 -0.7184 -0.1219
 8150SOL    HW135909   4.073   1.491   1.628  1.5087  0.3756 -1.4724
 8150SOL    HW235910   4.147   1.591   1.707 -0.6034 -2.2568  3.4213
 8151SOL     OW35911   2.794   0.485   1.826 -0.0271  0.5923 -0.0268
 8151SOL    HW135912   2.885   0.486   1.854 -0.0785 -0.7269  0.1657
 8151SOL    HW235913   2.809   0.444   1.740 -1.4509  0.1326 -0.0620
 8152SOL     OW35914   2.626   1.406  16.657 -0.2004  0.1422  0.4041
 8152SOL    HW135915   2.669   1.472  16.603  0.3195 -0.2361  0.3681
 8152SOL    HW235916   2.532   1.424  16.654 -0.2196  0.2329  1.4051
 8153SOL     OW35917   1.580   3.801  14.720 -0.6192  0.8261  0.3714
 8153SOL    HW135918   1.667   3.841  14.721  0.2400 -1.0525  1.5711
 8153SOL    HW235919   1.579   3.733  14.787  0.6421  1.3568  0.9258
 8154SOL     OW35920   0.207   0.012   3.163 -0.4839 -0.0105  0.0379
 8154SOL    HW135921   0.238   0.081   3.105 -2.7638  0.1334 -1.0177
 8154SOL    HW235922   0.150   0.062   3.222 -1.7108 -1.4760  0.1091
 8155SOL     OW35923   3.858   2.530   3.718  0.4635 -0.1698  0.2280
 8155SOL    HW135924   3.911   2.456   3.745  0.3662  0.2275  1.5181
 8155SOL    HW235925   3.837   2.552   3.809  3.1869 -1.3337  1.1523
 8156SOL     OW35926   3.683   2.277   9.505  0.1006  0.5124  0.2175
 8156SOL    HW135927   3.674   2.183   9.522  1.1379  1.2053  4.7659
 8156SOL    HW235928   3.732   2.280   9.423  1.4807 -1.2003  0.9769
 8157SOL     OW35929   4.269   2.040   6.106  0.5287  0.2454 -0.0239
 8157SOL    HW135930   4.234   1.953   6.124  2.2007 -0.2910  0.6869
 8157SOL    HW235931   4.364   2.034   6.093  0.4237 -0.8667 -0.2590
 8158SOL     OW35932   2.649   3.688   4.965 -0.5201 -0.1547 -0.1415
 8158SOL    HW135933   2.666   3.717   5.055  0.6162  0.6648 -0.6282
 8158SOL    HW235934   2.605   3.763   4.925  0.9476 -0.3312 -2.0453
 8159SOL     OW35935   3.940   2.655   5.858 -1.0777  0.0922  0.1857
 8159SOL    HW135936   3.948   2.702   5.941 -3.4640  0.7971 -0.0047
 8159SOL    HW235937   3.954   2.564   5.881 -0.6709  0.2852  0.7015
 8160SOL     OW35938   0.176   2.176   2.917 -0.6645 -0.0807  0.2005
 8160SOL    HW135939   0.182   2.140   2.829  0.4340  2.1079 -0.6209
 8160SOL    HW235940   0.260   2.220   2.928 -1.0183  0.2859  1.5145
 8161SOL     OW35941   1.460   3.187  13.834  0.5503  0.2511 -0.5327
 8161SOL    HW135942   1.379   3.137  13.819 -1.2438  2.6429  1.1226
 8161SOL    HW235943   1.453   3.255  13.768 -2.4261  1.9769  1.5264
 8162SOL     OW35944   0.145   0.630  16.735  0.2521  0.5718 -0.0420
 8162SOL    HW135945   0.100   0.583  16.664  2.0797 -1.9889  0.5073
 8162SOL    HW235946   0.145   0.720  16.702 -0.2159  0.3012 -0.7818
 8163SOL     OW35947   2.325   0.453  12.783  0.1388  0.3316 -0.4132
 8163SOL    HW135948   2.401   0.403  12.752  0.8674  0.3155  1.3959
 8163SOL    HW235949   2.365   0.535  12.808  0.9954 -0.3932  0.5606
 8164SOL     OW35950   3.916   2.329   5.486  0.2587 -0.7052 -0.0534
 8164SOL    HW135951   3.908   2.290   5.574  0.4264 -2.1986 -0.6905
 8164SOL    HW235952   3.841   2.296   5.437 -1.5309 -0.8647  2.7753
 8165SOL     OW35953   3.718   3.109   3.498 -0.9719  0.0249 -0.1120
 8165SOL    HW135954   3.719   3.188   3.444  0.3677 -0.0378 -0.1851
 8165SOL    HW235955   3.633   3.107   3.543  0.1974 -4.8334  1.9361
 8166SOL     OW35956   0.092   4.149   2.683  0.4526 -0.1425  0.3680
 8166SOL    HW135957   0.101   4.229   2.631  3.6964 -0.7974 -0.1242
 8166SOL    HW235958   0.159   4.156   2.751  0.1653  3.1555  0.3101
 8167SOL     OW35959   3.562   1.403   1.914  0.3022  0.4175  0.1693
 8167SOL    HW135960   3.646   1.357   1.924 -0.8957 -1.2832  2.3252
 8167SOL    HW235961   3.566   1.406   1.819 -0.8204  0.7400  0.1338
 8168SOL     OW35962   3.724   4.236   4.598 -0.3420 -0.2596  0.0182
 8168SOL    HW135963   3.685   4.323   4.588 -1.2805 -0.8108 -1.1805
 8168SOL    HW235964   3.655   4.173   4.621  1.6089 -1.9678  1.1596
 8169SOL     OW35965   1.992   2.275   3.438  0.0946 -1.0114  0.3261
 8169SOL    HW135966   2.054   2.288   3.366  0.7866 -1.8427  0.7706
 8169SOL    HW235967   1.957   2.363   3.451  1.1372 -0.7279  1.2388
 8170SOL     OW35968   2.989   3.789   7.643  0.5272  0.0182  0.0264
 8170SOL    HW135969   3.046   3.843   7.589 -1.4123  0.0527 -1.9769
 8170SOL    HW235970   2.968   3.848   7.715  0.3778  0.1269 -0.1055
 8171SOL     OW35971   2.640   0.171   9.162  0.2862  0.4324  0.3713
 8171SOL    HW135972   2.700   0.117   9.213 -0.3276 -0.3127  0.3121
 8171SOL    HW235973   2.605   0.112   9.095  0.0386  1.8636 -0.7760
 8172SOL     OW35974   1.607   4.052   9.882 -0.1565  0.3023 -0.2732
 8172SOL    HW135975   1.618   4.002   9.963  2.5186 -1.2786 -1.6160
 8172SOL    HW235976   1.672   4.021   9.819  0.7221 -0.6549  1.0922
 8173SOL     OW35977   0.494   0.750   3.195 -0.3269  0.1535 -0.3335
 8173SOL    HW135978   0.503   0.658   3.171 -1.5270  0.1432 -0.7356
 8173SOL    HW235979   0.441   0.796   3.130  0.9798 -0.0200 -1.5480
 8174SOL     OW35980   1.566   0.819   9.391 -0.4178 -0.2399 -0.3218
 8174SOL    HW135981   1.484   0.825   9.440 -0.0360 -0.3335  0.3307
 8174SOL    HW235982   1.595   0.910   9.393  1.2322 -0.8523  3.9520
 8175SOL     OW35983   3.372   0.164  10.312  0.0652 -0.4423 -0.4803
 8175SOL    HW135984   3.348   0.078  10.278 -0.9971  0.7103 -2.6573
 8175SOL    HW235985   3.451   0.133  10.357  1.5642 -0.0432 -2.8349
 8176SOL     OW35986   4.634   2.032  16.318  0.1133 -0.5258  0.0379
 8176SOL    HW135987   4.572   1.959  16.323 -0.9762  0.2605 -2.2775
 8176SOL    HW235988   4.593   2.077  16.392  0.5471  0.2209 -0.1776
 8177SOL     OW35989   2.803   1.540  14.778 -0.3379  0.4557  0.2555
 8177SOL    HW135990   2.753   1.614  14.745 -1.8699 -1.5182 -1.8305
 8177SOL    HW235991   2.881   1.546  14.723 -1.6379  0.2471 -1.6064
 8178SOL     OW35992   4.372   0.150  11.845 -0.1326 -0.4176  0.0098
 8178SOL    HW135993   4.282   0.133  11.873 -0.2547  0.9280  0.4110
 8178SOL    HW235994   4.407   0.123  11.930  2.3728  1.7729 -0.3241
 8179SOL     OW35995   0.137   0.189  10.833 -0.3486  0.0039  0.3658
 8179SOL    HW135996   0.044   0.175  10.853 -0.4991  0.3341 -0.1109
 8179SOL    HW235997   0.131   0.279  10.804  1.2611 -0.5966 -1.7989
 8180SOL     OW35998   2.899   0.549  15.436 -0.2075  0.4005 -0.1566
 8180SOL    HW135999   2.842   0.538  15.513 -0.7391 -1.5032 -0.8324
 8180SOL    HW236000   2.981   0.504  15.452  0.4837  1.9372  0.6220
 8181SOL     OW36001   4.623   2.316   2.024  0.2601  0.0529  0.0257
 8181SOL    HW136002   4.678   2.391   2.046 -0.5830  0.7324 -0.2043
 8181SOL    HW236003   4.569   2.357   1.957  0.5256  0.4115  0.0336
 8182SOL     OW36004   4.203   2.504   3.753  0.0833  0.0615  0.0598
 8182SOL    HW136005   4.242   2.553   3.680  0.6862 -0.3446  0.1118
 8182SOL    HW236006   4.135   2.560   3.791  0.2421  0.3045 -0.0141
 8183SOL     OW36007   4.693   4.342  15.817  0.0775 -0.2216  0.2047
 8183SOL    HW136008   4.700   4.258  15.773 -1.4190 -1.9103  3.1510
 8183SOL    HW236009   4.604   4.374  15.801 -0.4191 -1.7842 -0.1191
 8184SOL     OW36010   2.064   0.357   2.014  0.2632  0.1287 -0.3468
 8184SOL    HW136011   2.087   0.444   1.983  0.3897 -0.1668 -1.1059
 8184SOL    HW236012   1.993   0.376   2.075 -0.2387  2.1909 -1.5889
 8185SOL     OW36013   1.937   3.387   4.856 -0.4064  0.0922  0.5848
 8185SOL    HW136014   2.008   3.418   4.912  0.0585 -1.6396  0.9656
 8185SOL    HW236015   1.965   3.424   4.772 -0.7438 -1.6375 -0.2829
 8186SOL     OW36016   1.202   2.615   1.295  0.2377 -0.1607  0.0473
 8186SOL    HW136017   1.222   2.692   1.348  0.6061 -0.9311  1.0387
 8186SOL    HW236018   1.129   2.589   1.351  0.5010  0.7186  0.7882
 8187SOL     OW36019   3.628   1.594   0.398  0.0988  0.0814 -0.7763
 8187SOL    HW136020   3.533   1.596   0.387  0.2216  0.7429 -1.6234
 8187SOL    HW236021   3.642   1.667   0.458  0.6883  1.4214 -2.5804
 8188SOL     OW36022   2.199   4.591   2.507  0.7989  0.5696  0.5467
 8188SOL    HW136023   2.169   4.549   2.426 -0.1531  0.4234  0.9834
 8188SOL    HW236024   2.192   4.513   2.561  0.2461  0.2189 -0.0267
 8189SOL     OW36025   1.757   1.881   3.079  0.2141  0.5239  0.0614
 8189SOL    HW136026   1.771   1.816   3.147 -0.6404 -0.2437 -0.5000
 8189SOL    HW236027   1.806   1.960   3.103  0.9740 -0.2286  0.9402
 8190SOL     OW36028   1.735   0.476   1.819 -0.1004 -0.4681 -0.1205
 8190SOL    HW136029   1.679   0.534   1.768  0.2225  0.6412  0.8068
 8190SOL    HW236030   1.702   0.391   1.788  0.8769 -0.9613  0.1538
 8191SOL     OW36031   4.259   2.460   7.719 -0.5694  0.0569  0.4966
 8191SOL    HW136032   4.307   2.395   7.667 -0.8269  0.1862  0.0990
 8191SOL    HW236033   4.200   2.505   7.658 -2.1427  0.3721  2.2477
 8192SOL     OW36034   0.814   2.073  14.290  0.2399  0.0550 -0.1934
 8192SOL    HW136035   0.858   2.025  14.361  1.6909  0.7237 -0.6370
 8192SOL    HW236036   0.889   2.084  14.232  1.4663 -1.2111  1.1267
 8193SOL     OW36037   4.151   3.791  17.240 -0.5602 -0.5286  0.3018
 8193SOL    HW136038   4.093   3.856  17.280  0.2582  0.2929  0.1824
 8193SOL    HW236039   4.113   3.709  17.269 -1.7782  0.5195  1.6599
 8194SOL     OW36040   2.955   1.064  10.275  0.0143 -0.4315  0.3719
 8194SOL    HW136041   3.033   1.017  10.245  0.5920 -1.1502  2.9533
 8194SOL    HW236042   2.989   1.092  10.361 -0.2133 -0.6476  0.5326
 8195SOL     OW36043   2.544   1.828  14.182  0.6838  0.2230  0.9222
 8195SOL    HW136044   2.620   1.878  14.212 -1.9210  3.3545  2.3227
 8195SOL    HW236045   2.578   1.742  14.156 -0.6891 -0.0477  0.0400
 8196SOL     OW36046   0.069   0.137  13.819  0.1154 -0.4025 -0.3007
 8196SOL    HW136047   0.158   0.163  13.838 -0.3143 -1.0563  2.6189
 8196SOL    HW236048   0.018   0.216  13.838 -1.6865 -1.2742 -1.4149
 8197SOL     OW36049   3.840   2.879   7.995  0.3715  0.0178 -0.0255
 8197SOL    HW136050   3.859   2.951   7.935  2.3634  0.9637  1.7431
 8197SOL    HW236051   3.923   2.846   8.030  1.2624  1.6781 -0.5652
 8198SOL     OW36052   3.195   3.595   8.653  0.3295  0.1018  0.7847
 8198SOL    HW136053   3.183   3.597   8.558  1.5998  0.0561  0.6265
 8198SOL    HW236054   3.104   3.593   8.683  0.4688  2.2527  1.3695
 8199SOL     OW36055   0.186   0.001  10.414 -0.0427 -0.5115  0.5155
 8199SOL    HW136056   0.145   0.086  10.401  0.6668 -0.3053 -0.4220
 8199SOL    HW236057   0.200   4.698  10.322 -2.5546  0.7839 -0.1611
 8200SOL     OW36058   3.500   1.290   3.759  0.1179  0.5920  0.0616
 8200SOL    HW136059   3.596   1.291   3.756  0.1406 -1.6447  0.0638
 8200SOL    HW236060   3.482   1.227   3.689  0.3123  0.5278  0.0683
 8201SOL     OW36061   1.836   3.425   7.336  0.6968  0.1985 -0.1111
 8201SOL    HW136062   1.809   3.472   7.257 -1.5392  3.5877  2.6729
 8201SOL    HW236063   1.763   3.364   7.349  2.3039 -1.6653  0.2685
 8202SOL     OW36064   1.811   2.068   2.391 -0.3231 -0.0794 -0.6825
 8202SOL    HW136065   1.783   2.132   2.326 -0.8779 -0.6030 -0.9575
 8202SOL    HW236066   1.755   1.993   2.372 -0.8433  0.0875  0.1595
 8203SOL     OW36067   0.332   0.575   8.669 -0.2846  0.4969 -0.3356
 8203SOL    HW136068   0.261   0.544   8.724  1.7657  1.9288  3.1108
 8203SOL    HW236069   0.393   0.589   8.741 -0.7897  1.6282 -0.1293
 8204SOL     OW36070   2.426   1.511   8.006  0.1320 -0.2247 -0.1004
 8204SOL    HW136071   2.506   1.471   7.971 -0.2676 -0.5929 -0.5996
 8204SOL    HW236072   2.415   1.469   8.091  0.6470 -0.6384 -0.2343
 8205SOL     OW36073   3.180   3.432   4.293 -0.2845 -0.6058  0.6474
 8205SOL    HW136074   3.134   3.348   4.299  3.7460 -2.7404  1.2301
 8205SOL    HW236075   3.160   3.469   4.379 -1.9635 -1.3639  0.5843
 8206SOL     OW36076   2.860   3.914   1.774  0.1612 -0.5081 -0.5256
 8206SOL    HW136077   2.790   3.945   1.832 -0.4437  0.4657 -1.7964
 8206SOL    HW236078   2.822   3.932   1.688 -0.2485  0.3972 -0.1567
 8207SOL     OW36079   1.808   0.583   8.127 -0.1456  0.0204 -0.0602
 8207SOL    HW136080   1.809   0.596   8.222  0.2229  0.2995 -0.1013
 8207SOL    HW236081   1.717   0.559   8.114 -0.1992  0.2634 -0.1434
 8208SOL     OW36082   1.843   1.502   7.317  0.0935  0.6283 -0.0312
 8208SOL    HW136083   1.933   1.471   7.302 -0.3662 -1.4925  1.6673
 8208SOL    HW236084   1.801   1.428   7.273 -1.1248  0.9856  0.5339
 8209SOL     OW36085   0.171   0.210   4.465 -0.0447 -0.2889  0.2298
 8209SOL    HW136086   0.189   0.121   4.496  1.9341  0.7566  2.0891
 8209SOL    HW236087   0.252   0.258   4.443 -0.0236 -0.0711  0.7839
 8210SOL     OW36088   3.826   1.481   6.671 -0.3772 -0.6198  1.4503
 8210SOL    HW136089   3.815   1.479   6.576 -0.5660 -0.5170  1.4706
 8210SOL    HW236090   3.744   1.524   6.695 -0.3657  1.0265 -1.5113
 8211SOL     OW36091   4.321   0.612   6.391 -0.5311  0.7342 -0.7654
 8211SOL    HW136092   4.389   0.674   6.416 -2.3877  1.5146  2.3739
 8211SOL    HW236093   4.381   0.537   6.389  0.3326  1.4234 -0.1160
 8212SOL     OW36094   1.823   0.706  17.325 -0.2682 -0.4964  0.0224
 8212SOL    HW136095   1.846   0.799  17.316 -0.1850 -0.3012  2.2302
 8212SOL    HW236096   1.830   0.695  17.420  0.7939  1.4771  0.1851
 8213SOL     OW36097   0.016   1.708  14.443  1.0896 -0.3708  0.3483
 8213SOL    HW136098   4.646   1.682  14.468  1.3750 -0.8332  0.9010
 8213SOL    HW236099   0.003   1.754  14.360 -0.0296 -0.6291  0.3782
 8214SOL     OW36100   4.647   3.340  17.508  0.3695  0.4122 -0.0796
 8214SOL    HW136101   4.652   3.379  17.596 -2.1768 -0.4069  0.4543
 8214SOL    HW236102   0.015   3.302  17.513 -0.3593 -1.2878 -0.0575
 8215SOL     OW36103   2.190   1.080   4.805  0.2835 -0.1379  0.7429
 8215SOL    HW136104   2.281   1.106   4.793 -0.6271  2.9509  0.4691
 8215SOL    HW236105   2.194   0.984   4.800  4.5889  0.0282  0.7256
 8216SOL     OW36106   2.506   1.150  11.796 -0.4661 -0.1257  0.0288
 8216SOL    HW136107   2.518   1.079  11.733  0.9565  1.6280 -1.6984
 8216SOL    HW236108   2.433   1.198  11.756 -0.5296 -1.3512 -1.3032
 8217SOL     OW36109   3.497   2.797   8.666  0.0102  0.0898  0.4630
 8217SOL    HW136110   3.514   2.832   8.578 -0.4129  1.0030  0.7505
 8217SOL    HW236111   3.558   2.849   8.718  2.4605  1.0173 -3.2628
 8218SOL     OW36112   1.451   0.030   6.004  0.1877 -0.7995  0.4743
 8218SOL    HW136113   1.411   0.082   6.074  3.0662 -1.8413  2.8902
 8218SOL    HW236114   1.413   0.051   5.919 -1.4721  2.2052  1.9250
 8219SOL     OW36115   3.453   4.512   7.304  0.7560 -0.1019 -0.2979
 8219SOL    HW136116   3.482   4.587   7.251 -0.4805  1.3909  1.1266
 8219SOL    HW236117   3.539   4.473   7.315  0.0701 -0.8447  2.2676
 8220SOL     OW36118   1.247   3.860   5.057 -0.2980 -0.1878 -0.2096
 8220SOL    HW136119   1.234   3.765   5.062 -0.1241 -0.1048  1.9105
 8220SOL    HW236120   1.297   3.887   5.133 -1.5291 -1.1255  0.9457
 8221SOL     OW36121   2.629   3.522   6.240  0.0011  0.1569  0.3063
 8221SOL    HW136122   2.692   3.587   6.272  1.2071 -1.6524  1.5647
 8221SOL    HW236123   2.595   3.500   6.327 -1.4877  0.9612 -0.0681
 8222SOL     OW36124   1.152   0.719   2.531 -0.0085  0.2827  0.2593
 8222SOL    HW136125   1.214   0.671   2.476 -0.1169 -1.4781  1.6582
 8222SOL    HW236126   1.108   0.643   2.571  2.5559 -2.3575 -1.9287
 8223SOL     OW36127   3.759   1.745   4.891  0.3339 -0.2253 -0.2376
 8223SOL    HW136128   3.784   1.675   4.951  0.5143 -1.3196 -1.5843
 8223SOL    HW236129   3.761   1.698   4.807  0.8877 -0.2990 -0.1818
 8224SOL     OW36130   1.425   1.125  15.917  0.2648  0.2221 -0.1100
 8224SOL    HW136131   1.399   1.038  15.949 -1.5900  0.9555  0.3557
 8224SOL    HW236132   1.351   1.150  15.861 -0.3784  1.5094  1.3366
 8225SOL     OW36133   4.677   4.366   3.307  0.1002 -0.6640  0.1277
 8225SOL    HW136134   4.636   4.421   3.374 -1.8636 -1.7958 -0.1324
 8225SOL    HW236135   4.601   4.315   3.280 -0.8889  1.8980 -1.9281
 8226SOL     OW36136   3.649   0.719  11.377 -0.1429 -0.0840  0.2085
 8226SOL    HW136137   3.694   0.680  11.302 -2.1978  0.0812 -1.1103
 8226SOL    HW236138   3.717   0.726  11.444  0.5127 -0.8184 -0.3819
 8227SOL     OW36139   4.017   1.673   7.854  0.2009  0.0102  0.4094
 8227SOL    HW136140   4.002   1.616   7.929 -0.1237 -1.0349 -0.4488
 8227SOL    HW236141   4.045   1.754   7.897 -0.9987 -1.0415  3.1317
 8228SOL     OW36142   1.837   3.038  16.494 -0.1116 -0.2657 -0.4028
 8228SOL    HW136143   1.921   2.993  16.507  0.2096  1.7097  4.4016
 8228SOL    HW236144   1.777   2.974  16.534  0.4037 -0.6178 -0.1861
 8229SOL     OW36145   3.668   0.345  16.497  0.1513  0.1456  0.0051
 8229SOL    HW136146   3.665   0.435  16.464  0.7771  0.6256  1.2505
 8229SOL    HW236147   3.677   0.364  16.590  2.3545  1.5206 -0.4897
 8230SOL     OW36148   0.059   2.392  14.219 -0.3121 -0.0740 -0.4648
 8230SOL    HW136149   4.691   2.401  14.255  0.0813 -0.7516  0.6691
 8230SOL    HW236150   0.077   2.483  14.198  0.4345  0.3086  1.8898
 8231SOL     OW36151   1.659   4.399   2.992  0.0267  0.0157  0.2181
 8231SOL    HW136152   1.647   4.494   2.991  0.7462  0.1140  1.4858
 8231SOL    HW236153   1.576   4.358   2.965 -0.2215  1.9701 -2.0067
 8232SOL     OW36154   0.117   2.162   3.201  0.1594 -0.3708  0.3551
 8232SOL    HW136155   0.198   2.125   3.236  0.0596 -1.2426 -0.3090
 8232SOL    HW236156   0.120   2.145   3.106 -0.3181 -0.5141  0.3659
 8233SOL     OW36157   1.433   3.320   0.975 -0.1257 -0.2129  0.2591
 8233SOL    HW136158   1.517   3.298   1.015  1.5504 -0.6997 -3.5110
 8233SOL    HW236159   1.376   3.250   1.008 -0.4226 -0.6629 -1.1783
 8234SOL     OW36160   0.444   3.253   2.555  0.2076  0.1578 -0.1242
 8234SOL    HW136161   0.470   3.331   2.507  2.6879 -0.5535  0.0728
 8234SOL    HW236162   0.487   3.257   2.641  1.5883  0.8755 -0.8590
 8235SOL     OW36163   0.374   2.487   3.764  0.4455 -0.2603  0.2340
 8235SOL    HW136164   0.399   2.578   3.777 -1.3134  0.1178  0.9718
 8235SOL    HW236165   0.460   2.448   3.776  0.1953 -0.4194  1.5420
 8236SOL     OW36166   3.180   3.713  14.666  0.8357  0.0016  0.2238
 8236SOL    HW136167   3.273   3.690  14.667  1.1088  1.1453  1.3601
 8236SOL    HW236168   3.155   3.688  14.755  1.1042 -1.1719 -0.0354
 8237SOL     OW36169   0.236   3.386   4.296  0.6996 -0.3372 -0.1963
 8237SOL    HW136170   0.305   3.452   4.298  1.0590 -0.6826 -1.6310
 8237SOL    HW236171   0.227   3.375   4.202  1.0385 -1.0434 -0.1433
 8238SOL     OW36172   3.370   2.105   4.648 -0.9655  0.5225  0.0327
 8238SOL    HW136173   3.400   2.149   4.728 -1.3672 -0.8195  0.9170
 8238SOL    HW236174   3.279   2.133   4.640 -1.1838 -0.8821 -2.1831
 8239SOL     OW36175   0.784   4.155   0.962 -0.6016 -0.7424  0.2371
 8239SOL    HW136176   0.692   4.131   0.966 -0.4963 -1.1116  0.5726
 8239SOL    HW236177   0.781   4.250   0.953 -0.3370 -0.8714 -1.2063
 8240SOL     OW36178   3.326   3.149   7.094 -0.3289 -0.1533  0.1543
 8240SOL    HW136179   3.316   3.067   7.045  0.1144 -0.3759  0.4363
 8240SOL    HW236180   3.324   3.116   7.184  1.5539 -1.1130 -0.1615
 8241SOL     OW36181   2.891   4.460   6.051 -0.1350 -0.2306 -0.5346
 8241SOL    HW136182   2.937   4.527   6.002  1.0815  0.2989  1.3609
 8241SOL    HW236183   2.879   4.395   5.982 -1.7484  1.1238 -1.5342
 8242SOL     OW36184   2.608   2.825   0.822  0.2596 -0.2842 -0.3598
 8242SOL    HW136185   2.537   2.805   0.761 -2.0783  1.6936  1.7296
 8242SOL    HW236186   2.595   2.764   0.894 -0.5852 -0.1683 -0.4135
 8243SOL     OW36187   0.549   3.288   8.590 -0.2558  0.0683  0.0670
 8243SOL    HW136188   0.639   3.316   8.577 -1.3351  4.0890  1.1314
 8243SOL    HW236189   0.540   3.294   8.685 -0.9648  0.5384 -0.0305
 8244SOL     OW36190   1.454   2.456   9.605 -0.2690  0.0763 -0.4578
 8244SOL    HW136191   1.437   2.370   9.643 -0.6851  0.4009  0.0822
 8244SOL    HW236192   1.392   2.461   9.532  1.5584 -1.8993 -2.1695
 8245SOL     OW36193   2.481   1.627   3.562  0.1368  0.2326  0.1739
 8245SOL    HW136194   2.555   1.571   3.586  0.2997  0.3835  0.0283
 8245SOL    HW236195   2.450   1.611   3.473 -1.1974  1.9064  0.3238
 8246SOL     OW36196   3.659   2.060   0.827 -0.3531 -0.1885 -0.2233
 8246SOL    HW136197   3.693   2.147   0.807  0.6248 -0.6335 -0.5040
 8246SOL    HW236198   3.563   2.069   0.830 -0.4226 -1.1955  0.6110
 8247SOL     OW36199   2.637   3.858   1.932 -0.1660 -0.2965  0.1699
 8247SOL    HW136200   2.578   3.932   1.923 -1.4218 -1.2399  0.6964
 8247SOL    HW236201   2.571   3.791   1.951 -1.5362  0.9365 -0.2524
 8248SOL     OW36202   0.745   2.945   4.951 -0.1059  0.3306  0.0379
 8248SOL    HW136203   0.830   2.982   4.975  0.3403 -0.3000 -0.5651
 8248SOL    HW236204   0.685   3.007   4.993  3.0965  1.2766  3.2471
 8249SOL     OW36205   1.936   1.896  12.515  0.4533  0.1843  0.1063
 8249SOL    HW136206   1.973   1.950  12.585  1.1516 -1.1343  0.7685
 8249SOL    HW236207   1.843   1.891  12.539  0.6335 -0.4007  0.6865
 8250SOL     OW36208   1.496   1.179   4.981 -0.3210 -0.0249  0.1868
 8250SOL    HW136209   1.512   1.147   5.070 -0.4182 -2.4012 -0.6350
 8250SOL    HW236210   1.575   1.230   4.963 -1.2773  1.9416  1.5983
 8251SOL     OW36211   4.665   3.994   8.692  0.5602  0.2165  0.4540
 8251SOL    HW136212   4.602   4.047   8.741 -0.6303  0.3271 -1.2123
 8251SOL    HW236213   4.662   4.045   8.611  1.6528 -1.1914 -0.4767
 8252SOL     OW36214   1.121   2.775   4.890 -0.7455 -0.1460  0.0639
 8252SOL    HW136215   1.065   2.828   4.833  0.8128  0.2596 -1.1027
 8252SOL    HW236216   1.067   2.773   4.968 -0.5075 -0.6312  0.2117
 8253SOL     OW36217   1.267   3.243  16.731  0.5314  0.7107  0.1565
 8253SOL    HW136218   1.343   3.286  16.692  1.6063 -0.8351  0.5404
 8253SOL    HW236219   1.295   3.245  16.823  1.4002  0.8099 -0.1157
 8254SOL     OW36220   2.695   1.414   7.961  0.7031  0.1361 -0.2635
 8254SOL    HW136221   2.684   1.343   8.025 -2.1139  0.6312 -0.1972
 8254SOL    HW236222   2.788   1.405   7.942  0.5376  0.5511 -1.2293
 8255SOL     OW36223   4.589   3.987  11.745 -0.2490 -0.2023 -0.7104
 8255SOL    HW136224   4.656   3.975  11.678 -1.2886  1.5191 -2.0767
 8255SOL    HW236225   4.532   4.053  11.705 -1.8711  0.1043  2.0492
 8256SOL     OW36226   1.295   1.721  13.547  0.0787 -0.1939  0.0010
 8256SOL    HW136227   1.245   1.727  13.466 -1.1752  0.8460  0.8393
 8256SOL    HW236228   1.265   1.803  13.588 -1.3878 -0.5120 -0.4522
 8257SOL     OW36229   2.803   3.589   6.835 -0.0638 -0.0145 -0.3499
 8257SOL    HW136230   2.896   3.568   6.849 -0.7029 -2.0429  0.7981
 8257SOL    HW236231   2.776   3.511   6.787 -0.7338  0.4235 -0.6739
 8258SOL     OW36232   2.704   0.776   2.271  0.4196  0.1125  0.0727
 8258SOL    HW136233   2.782   0.812   2.314  0.3681 -1.3169  1.3437
 8258SOL    HW236234   2.741   0.699   2.228 -1.3504  0.2583 -1.7239
 8259SOL     OW36235   2.140   1.664   2.258 -0.2715 -0.3813  0.4926
 8259SOL    HW136236   2.168   1.755   2.267  0.0186 -0.7322  3.0022
 8259SOL    HW236237   2.053   1.658   2.298 -0.8978 -2.7319 -1.2029
 8260SOL     OW36238   2.911   0.578   7.668 -0.1911  0.0315  0.9351
 8260SOL    HW136239   2.970   0.633   7.617 -0.4561 -1.0403 -0.5208
 8260SOL    HW236240   2.834   0.584   7.612 -0.1753  0.4656  0.9595
 8261SOL     OW36241   1.130   0.060   0.255  0.0704 -0.0688 -0.3073
 8261SOL    HW136242   1.093   4.709   0.201  0.3808 -0.9375  0.5952
 8261SOL    HW236243   1.070   0.069   0.329  0.3026 -3.5957  0.3156
 8262SOL     OW36244   3.397   1.509  12.238  0.0300 -0.2560 -0.4466
 8262SOL    HW136245   3.481   1.506  12.192 -0.7626 -1.1757 -1.8381
 8262SOL    HW236246   3.410   1.553  12.322  1.3811 -2.0225  0.2802
 8263SOL     OW36247   0.342   4.509   6.734  0.5542  0.2461  0.2103
 8263SOL    HW136248   0.299   4.529   6.818  0.0022 -3.3727  0.7785
 8263SOL    HW236249   0.286   4.563   6.679 -0.5466  1.4741  2.5140
 8264SOL     OW36250   3.273   2.426   5.034 -0.7344 -0.3722  0.1486
 8264SOL    HW136251   3.241   2.482   5.105 -0.7482 -1.8327  1.2836
 8264SOL    HW236252   3.365   2.409   5.054 -0.7645  1.3153  1.7766
 8265SOL     OW36253   2.868   3.634  10.793  0.0755 -0.2215 -0.5203
 8265SOL    HW136254   2.890   3.653  10.884  1.1989  0.6257 -0.9708
 8265SOL    HW236255   2.841   3.720  10.761  0.0624 -0.3929 -0.9832
 8266SOL     OW36256   2.765   3.600  10.066  0.3059 -0.6663  0.0636
 8266SOL    HW136257   2.845   3.561  10.103  1.4496 -0.2338 -1.9264
 8266SOL    HW236258   2.695   3.571  10.124 -0.5681  0.8767 -0.2274
 8267SOL     OW36259   1.672   3.273   1.102  0.3733  0.5787  0.6622
 8267SOL    HW136260   1.714   3.349   1.143 -0.9909  1.0242  1.2290
 8267SOL    HW236261   1.672   3.205   1.170 -0.4280  0.6866  0.7660
 8268SOL     OW36262   2.525   1.898  13.465  0.2659  0.2422 -0.2491
 8268SOL    HW136263   2.517   1.824  13.406 -0.4930  0.2436 -0.1446
 8268SOL    HW236264   2.619   1.917  13.470  0.4272 -0.7336  0.4550
 8269SOL     OW36265   3.590   1.739  10.736  0.5197 -0.3237  0.2227
 8269SOL    HW136266   3.604   1.823  10.780  1.6687 -0.2072 -0.3520
 8269SOL    HW236267   3.645   1.744  10.657  0.1055 -2.1743 -0.1882
 8270SOL     OW36268   1.746   4.443   8.555 -0.0118 -0.6454 -0.2567
 8270SOL    HW136269   1.729   4.456   8.462  0.2223  1.6542  0.0165
 8270SOL    HW236270   1.737   4.532   8.589 -0.8568 -1.1423  0.8305
 8271SOL     OW36271   0.672   2.434  15.243  0.4828 -0.2473 -0.2316
 8271SOL    HW136272   0.613   2.460  15.172  0.4605  0.6343  0.1152
 8271SOL    HW236273   0.605   2.402  15.303  0.8944  1.3851  1.0861
 8272SOL     OW36274   1.305   2.313  15.425  0.1626  0.1626 -0.2341
 8272SOL    HW136275   1.309   2.370  15.502  1.8908 -0.1805 -0.0671
 8272SOL    HW236276   1.398   2.314  15.402 -0.1105  0.5322 -1.3116
 8273SOL     OW36277   3.910   0.030   4.887  0.2003 -0.1314  0.1754
 8273SOL    HW136278   3.966   0.107   4.892 -0.5058  0.2567  2.1140
 8273SOL    HW236279   3.823   0.068   4.892  0.0695 -0.5809  1.3060
 8274SOL     OW36280   1.620   0.446   8.804 -0.1273  0.1462 -0.4013
 8274SOL    HW136281   1.575   0.530   8.810  2.3783  1.4178  0.4334
 8274SOL    HW236282   1.565   0.391   8.860  0.5703  0.6734  0.8039
 8275SOL     OW36283   2.359   0.260   8.601 -0.0326  0.2389  0.0328
 8275SOL    HW136284   2.281   0.206   8.612  0.2797 -0.3795 -0.7895
 8275SOL    HW236285   2.315   0.339   8.571 -0.5668 -0.8928 -2.1495
 8276SOL     OW36286   3.775   4.455   1.857  0.0968 -0.1952 -0.3167
 8276SOL    HW136287   3.742   4.411   1.935 -1.3012 -1.7220 -1.7556
 8276SOL    HW236288   3.817   4.536   1.883  3.9904 -2.0732 -0.6666
 8277SOL     OW36289   2.759   1.792   8.829  0.3925  0.2813 -0.1069
 8277SOL    HW136290   2.665   1.807   8.837  0.2938  0.0052 -0.7153
 8277SOL    HW236291   2.786   1.819   8.741  1.0869 -1.3974 -0.4103
 8278SOL     OW36292   3.914   2.873   1.828 -0.1724 -0.1955 -0.1888
 8278SOL    HW136293   3.860   2.886   1.751 -0.5818 -0.6506  0.0237
 8278SOL    HW236294   3.892   2.782   1.846  0.6236 -0.3023  0.2710
 8279SOL     OW36295   3.264   1.102   2.814 -0.1458 -0.4243  0.1890
 8279SOL    HW136296   3.287   1.186   2.773 -1.8404  0.7167  1.6358
 8279SOL    HW236297   3.270   1.059   2.728 -1.7734  0.8016 -0.5400
 8280SOL     OW36298   3.325   0.301  10.961 -0.0080  0.4875 -0.5627
 8280SOL    HW136299   3.415   0.291  10.991 -0.4836 -0.4921  0.5429
 8280SOL    HW236300   3.335   0.305  10.866  0.1292  0.3657 -0.5533
 8281SOL     OW36301   3.716   0.933  13.805  0.4364 -0.4972 -0.2608
 8281SOL    HW136302   3.661   0.901  13.876  0.1886 -1.6317 -0.9603
 8281SOL    HW236303   3.785   0.867  13.809 -0.4356 -1.2605  1.9707
 8282SOL     OW36304   1.281   4.249   4.397 -0.4666  0.0153 -0.7315
 8282SOL    HW136305   1.289   4.193   4.475 -1.4057  1.2134  0.2048
 8282SOL    HW236306   1.193   4.283   4.412 -0.7635 -0.4588 -1.4092
 8283SOL     OW36307   2.177   4.287   4.601  0.2889  0.1818  0.3136
 8283SOL    HW136308   2.269   4.258   4.601  0.9010  2.0876  0.6709
 8283SOL    HW236309   2.184   4.352   4.530 -0.3432  1.7602  1.7176
 8284SOL     OW36310   2.828   1.357   5.958 -0.5057  0.3207 -0.4378
 8284SOL    HW136311   2.790   1.307   5.886  0.3836 -0.1749 -0.5636
 8284SOL    HW236312   2.748   1.375   6.007  0.1279  0.3830  0.5745
 8285SOL     OW36313   4.242   1.211   6.364 -0.0714  0.4052 -0.2222
 8285SOL    HW136314   4.274   1.143   6.423 -1.9588  0.5830  1.0108
 8285SOL    HW236315   4.229   1.283   6.426 -1.3018  2.8749 -3.3227
 8286SOL     OW36316   4.472   0.505  14.908 -0.0783  0.1716  0.4088
 8286SOL    HW136317   4.567   0.517  14.910 -0.0446 -0.0659  0.2910
 8286SOL    HW236318   4.471   0.449  14.830 -0.6030  0.0793  0.4812
 8287SOL     OW36319   1.244   0.529   6.282 -0.2245 -0.4273  0.1601
 8287SOL    HW136320   1.289   0.497   6.205  4.0777  3.0093  1.2536
 8287SOL    HW236321   1.160   0.550   6.242 -1.1883 -0.6435  2.0660
 8288SOL     OW36322   1.456   1.763  16.006  0.1959  0.2084  0.0129
 8288SOL    HW136323   1.481   1.672  16.022  0.0201 -0.3084 -2.7063
 8288SOL    HW236324   1.459   1.792  16.097  1.5453  0.3782 -0.0833
 8289SOL     OW36325   0.754   3.684   3.507  0.0995 -0.8009 -0.2013
 8289SOL    HW136326   0.757   3.665   3.413  0.1703  1.1870 -0.5962
 8289SOL    HW236327   0.829   3.637   3.543 -0.6720 -1.7792  0.1481
 8290SOL     OW36328   2.012   1.853   2.923 -0.6028  0.5432 -0.4003
 8290SOL    HW136329   1.974   1.925   2.872  0.5112  0.2212 -1.6937
 8290SOL    HW236330   1.932   1.803   2.940 -1.2481  1.9831  0.8435
 8291SOL     OW36331   3.802   1.590   1.517 -0.3121 -0.2650  0.1677
 8291SOL    HW136332   3.873   1.578   1.580 -0.6885  0.0186  0.6498
 8291SOL    HW236333   3.836   1.543   1.441 -1.3330 -0.4375 -0.1760
 8292SOL     OW36334   3.480   4.002  11.378 -0.0532  0.6253 -0.6518
 8292SOL    HW136335   3.467   3.950  11.299  0.6487 -0.2310 -0.2056
 8292SOL    HW236336   3.449   4.082  11.334  3.3167  0.8679 -2.5993
 8293SOL     OW36337   3.480   4.717   3.945 -0.1953  0.7867  0.4924
 8293SOL    HW136338   3.566   4.706   3.903 -0.5311 -1.0350  0.2661
 8293SOL    HW236339   3.511   0.002   4.036  0.2234  0.1740  0.3819
 8294SOL     OW36340   4.554   0.377   6.180 -0.6746  0.4396 -0.1916
 8294SOL    HW136341   4.492   0.312   6.145  0.6232 -1.3383  0.7997
 8294SOL    HW236342   4.522   0.391   6.269 -0.4753  0.0329 -0.0554
 8295SOL     OW36343   3.532   2.031   1.778  0.0957 -0.3196  0.2055
 8295SOL    HW136344   3.485   2.044   1.695  0.1109 -0.0909  0.2318
 8295SOL    HW236345   3.515   2.115   1.821 -0.1484  0.5502 -1.6038
 8296SOL     OW36346   1.069   4.663   8.130  0.3809  0.1420 -0.2404
 8296SOL    HW136347   0.986   4.710   8.138 -0.0750 -0.8201  0.6598
 8296SOL    HW236348   1.040   4.574   8.149 -0.4793  0.2892 -0.8548
 8297SOL     OW36349   2.614   0.929   1.073 -0.2344 -0.1602  0.3719
 8297SOL    HW136350   2.685   0.978   1.032 -0.5805 -1.0755 -1.3564
 8297SOL    HW236351   2.571   1.004   1.114 -0.0370  0.5395 -0.7117
 8298SOL     OW36352   4.302   1.571   2.537  0.3895 -0.1728 -0.4431
 8298SOL    HW136353   4.289   1.517   2.459  2.3044  0.1033 -0.9473
 8298SOL    HW236354   4.361   1.520   2.592  0.1398  0.7202  0.6480
 8299SOL     OW36355   4.338   3.302   4.711  0.6479 -0.0933 -0.1751
 8299SOL    HW136356   4.325   3.268   4.799  1.2089  0.2562  0.0422
 8299SOL    HW236357   4.428   3.333   4.723  0.2175  1.0652  0.0369
 8300SOL     OW36358   0.019   3.586   2.282 -0.1587  0.3190 -0.0419
 8300SOL    HW136359   4.696   3.596   2.368  0.3168 -1.9381  0.4625
 8300SOL    HW236360   4.664   3.552   2.230  0.2970 -1.6534  0.5811
 8301SOL     OW36361   1.279   2.560  13.416  0.3906  0.0390 -0.0133
 8301SOL    HW136362   1.305   2.626  13.481 -1.5309 -0.3817  1.1914
 8301SOL    HW236363   1.232   2.494  13.467 -1.0484  1.3382  0.3269
 8302SOL     OW36364   0.620   1.148   0.015  0.0272  0.3922  0.4540
 8302SOL    HW136365   0.669   1.076  17.655 -0.7362  0.4787 -0.6598
 8302SOL    HW236366   0.539   1.102   0.036 -0.0808  1.3014  2.0230
 8303SOL     OW36367   1.308   2.032  16.996 -0.0425  0.3178  0.2098
 8303SOL    HW136368   1.273   1.993  16.915  0.8562 -0.9674  0.4532
 8303SOL    HW236369   1.261   1.983  17.063  0.1231 -1.3128 -0.8535
 8304SOL     OW36370   1.956   1.138   5.000 -0.5351  0.2007 -0.3711
 8304SOL    HW136371   2.003   1.109   4.922  1.3136  0.1601  0.7674
 8304SOL    HW236372   2.028   1.170   5.054  0.2913 -2.5162  0.1393
 8305SOL     OW36373   0.688   2.333   4.896  0.1682  0.3174  0.3726
 8305SOL    HW136374   0.687   2.428   4.884  1.9351  0.2382 -0.4735
 8305SOL    HW236375   0.761   2.310   4.838  1.4720  0.9365  1.7720
 8306SOL     OW36376   3.995   4.610   8.178 -0.6481  0.2098 -0.3472
 8306SOL    HW136377   3.924   4.581   8.235  1.2874 -0.1590  1.8706
 8306SOL    HW236378   3.945   4.678   8.133  1.8053 -0.3823 -4.0010
 8307SOL     OW36379   1.138   4.423   2.177 -0.1253 -0.3691  0.0408
 8307SOL    HW136380   1.198   4.488   2.213 -0.2657  1.4793 -3.0025
 8307SOL    HW236381   1.076   4.398   2.245 -1.6505  0.1816 -1.1415
 8308SOL     OW36382   3.482   1.326   6.886 -0.3484  0.1150  0.1900
 8308SOL    HW136383   3.512   1.235   6.878 -1.0643  0.0374 -1.7867
 8308SOL    HW236384   3.398   1.326   6.840 -0.0640 -2.7832 -0.3452
 8309SOL     OW36385   4.225   0.998   0.085 -0.1495 -0.3713  0.2061
 8309SOL    HW136386   4.152   0.990   0.023  0.0467  0.1727 -0.0900
 8309SOL    HW236387   4.240   0.909   0.118  1.5833 -1.0871 -2.5170
 8310SOL     OW36388   3.456   4.297   4.365  0.0734 -0.0732 -0.1748
 8310SOL    HW136389   3.439   4.353   4.440  0.1346 -1.7277  1.0636
 8310SOL    HW236390   3.404   4.220   4.388  0.2044  0.2497  1.1760
 8311SOL     OW36391   3.804   2.306  12.183  0.5530 -0.0171  0.5768
 8311SOL    HW136392   3.755   2.388  12.175 -1.5912 -1.3765  0.0046
 8311SOL    HW236393   3.735   2.250  12.148 -1.1832  2.3261  0.2279
 8312SOL     OW36394   4.174   0.281   2.802 -0.8115  0.6153  0.4013
 8312SOL    HW136395   4.103   0.275   2.738 -1.1566  0.1410  0.8277
 8312SOL    HW236396   4.159   0.209   2.863  1.4035 -1.2628 -1.3069
 8313SOL     OW36397   1.712   2.749   9.442 -0.1600 -0.3187 -0.6895
 8313SOL    HW136398   1.708   2.818   9.508  1.4602 -2.1585  1.3167
 8313SOL    HW236399   1.732   2.668   9.487 -0.8678  0.4591  1.0274
 8314SOL     OW36400   3.110   3.318   7.085 -0.7248  0.1196  0.0339
 8314SOL    HW136401   3.100   3.340   7.178 -1.6235 -1.3140  0.2844
 8314SOL    HW236402   3.193   3.270   7.078 -1.4698 -1.1190 -0.4195
 8315SOL     OW36403   3.425   1.420  11.369 -0.1532  0.1579 -0.4232
 8315SOL    HW136404   3.345   1.368  11.376  0.8606 -1.5205 -1.2292
 8315SOL    HW236405   3.487   1.353  11.341  0.7637  0.0787  1.8810
 8316SOL     OW36406   0.503   0.007  16.957 -0.2498  0.1754  0.3134
 8316SOL    HW136407   0.477   4.665  17.026 -0.5986  1.5985  1.4317
 8316SOL    HW236408   0.488   4.668  16.882  0.1627  1.5032 -0.8129
 8317SOL     OW36409   0.854   4.644   2.091 -0.6070  0.1748 -0.0682
 8317SOL    HW136410   0.854   4.639   1.996 -0.3423 -3.0210  0.0946
 8317SOL    HW236411   0.785   4.580   2.105  1.0752 -1.2622  1.6639
 8318SOL     OW36412   3.229   1.637   5.627 -0.0323 -0.1458  0.4969
 8318SOL    HW136413   3.298   1.587   5.670  2.8046  1.2629 -2.4464
 8318SOL    HW236414   3.243   1.636   5.532 -2.7233  2.6497  0.0913
 8319SOL     OW36415   0.138   2.551   5.020 -0.2100 -0.2081 -0.5093
 8319SOL    HW136416   0.170   2.535   5.109 -0.9079  2.6371  0.2400
 8319SOL    HW236417   0.198   2.620   4.992  0.6221 -0.2953  1.0773
 8320SOL     OW36418   2.283   4.635   3.282 -0.5579 -0.1139 -0.5187
 8320SOL    HW136419   2.341   4.651   3.208  1.9657  0.1182  1.5099
 8320SOL    HW236420   2.323   4.553   3.312 -0.0732  0.2434 -0.1968
 8321SOL     OW36421   0.736   4.337  13.739 -0.1544 -0.2364 -0.4478
 8321SOL    HW136422   0.694   4.263  13.697 -0.4908  0.2476 -0.9618
 8321SOL    HW236423   0.699   4.407  13.686  0.4340  1.3081  1.1767
 8322SOL     OW36424   0.680   3.013   9.580 -0.6244 -0.0744  0.5933
 8322SOL    HW136425   0.753   2.986   9.524 -1.3773 -0.1720 -0.3423
 8322SOL    HW236426   0.686   3.108   9.587  4.1073 -0.6038  3.4210
 8323SOL     OW36427   1.563   2.278  14.055  0.0889 -0.2440 -0.0366
 8323SOL    HW136428   1.495   2.219  14.086  0.4792 -1.6300 -1.8545
 8323SOL    HW236429   1.539   2.286  13.962  3.7325  0.9801 -0.8758
 8324SOL     OW36430   2.646   0.844   2.755 -0.0392 -0.5989  0.1216
 8324SOL    HW136431   2.585   0.779   2.719 -0.2005 -0.7557  0.6677
 8324SOL    HW236432   2.620   0.847   2.848 -1.8061  1.8141 -0.4449
 8325SOL     OW36433   2.718   0.269   4.328 -0.6037 -0.1379 -0.1189
 8325SOL    HW136434   2.685   0.301   4.245 -0.0642 -1.5450 -0.8777
 8325SOL    HW236435   2.749   0.347   4.375  2.4872 -0.5685 -1.5211
 8326SOL     OW36436   4.323   3.164  13.466 -0.6627 -0.6628  0.1645
 8326SOL    HW136437   4.249   3.106  13.445 -2.3778  1.2241  1.0211
 8326SOL    HW236438   4.272   3.236  13.503  1.8860  2.4243 -2.4064
 8327SOL     OW36439   4.213   1.568  13.688  0.2780  0.1926  0.4421
 8327SOL    HW136440   4.294   1.530  13.723  1.8977  0.8896 -2.5395
 8327SOL    HW236441   4.216   1.546  13.595 -0.3533  1.1722  0.1901
 8328SOL     OW36442   0.568   4.112   2.845  0.2776  0.3690 -0.1186
 8328SOL    HW136443   0.583   4.165   2.767  1.0656 -2.2267 -1.7254
 8328SOL    HW236444   0.617   4.036   2.814  1.6371  1.0982  0.2195
 8329SOL     OW36445   4.081   3.735   2.521  1.1787  0.0919 -0.2413
 8329SOL    HW136446   4.069   3.818   2.569 -4.1034 -0.5453 -0.4466
 8329SOL    HW236447   3.994   3.735   2.481  1.1200 -0.2392 -0.1078
 8330SOL     OW36448   0.984   3.448  10.647 -0.6555 -0.1660 -0.3704
 8330SOL    HW136449   1.034   3.394  10.709  0.1880  0.5310 -0.4502
 8330SOL    HW236450   1.000   3.538  10.673 -1.7714  0.5894 -2.3774
 8331SOL     OW36451   0.882   1.348   4.993  0.4997 -0.6420 -0.0029
 8331SOL    HW136452   0.807   1.321   5.045  0.1017 -0.4071 -0.4525
 8331SOL    HW236453   0.909   1.430   5.036  0.7822 -1.4068  1.2914
 8332SOL     OW36454   1.942   0.468   7.738 -0.1177 -0.6316  0.9522
 8332SOL    HW136455   1.990   0.489   7.818  0.4152  0.3127  0.3934
 8332SOL    HW236456   2.012   0.477   7.673  0.3940 -0.9959  1.4514
 8333SOL     OW36457   3.929   4.368   3.922  0.1223  0.7746  0.0601
 8333SOL    HW136458   3.929   4.298   3.857 -0.1557  0.1565  0.7328
 8333SOL    HW236459   4.023   4.378   3.938  0.1335 -0.7748  0.9318
 8334SOL     OW36460   0.516   4.660   5.488 -0.0430  0.9868 -0.0871
 8334SOL    HW136461   0.543   0.005   5.422  1.7864 -0.7017 -0.9880
 8334SOL    HW236462   0.514   4.713   5.568  2.1636 -0.5040  0.9272
 8335SOL     OW36463   0.468   1.434   2.591  0.2712  0.2575 -0.2033
 8335SOL    HW136464   0.501   1.352   2.553 -0.2009  0.4860 -1.0966
 8335SOL    HW236465   0.546   1.488   2.575  0.2179  0.0736 -1.0814
 8336SOL     OW36466   1.472   3.996   3.879 -0.2724  0.4731 -0.0169
 8336SOL    HW136467   1.427   3.972   3.960 -0.7381 -0.1292 -0.4512
 8336SOL    HW236468   1.476   3.910   3.836 -0.6451 -0.0826  1.0486
 8337SOL     OW36469   2.147   3.660  10.973  0.1382 -0.5211 -0.4499
 8337SOL    HW136470   2.221   3.634  11.029  1.5743  0.3409 -1.9396
 8337SOL    HW236471   2.071   3.635  11.026 -0.9406 -0.7873 -2.1363
 8338SOL     OW36472   4.133   0.116  11.930 -0.3969 -0.1698 -0.0126
 8338SOL    HW136473   4.046   0.150  11.946 -0.8289 -0.3325 -2.0724
 8338SOL    HW236474   4.134   0.027  11.967  0.6744  0.3202  1.1276
 8339SOL     OW36475   0.469   4.330  13.062 -0.2308 -0.2565  0.0140
 8339SOL    HW136476   0.505   4.320  13.150  0.1295  1.0479  0.0038
 8339SOL    HW236477   0.391   4.275  13.067 -0.8954  0.6189 -0.7436
 8340SOL     OW36478   4.227   3.727   2.999  0.0559  0.4206  0.1937
 8340SOL    HW136479   4.165   3.788   3.040  0.0392 -0.7201  1.8326
 8340SOL    HW236480   4.246   3.781   2.923 -0.5215 -0.9390 -0.9103
 8341SOL     OW36481   2.057   2.994  13.763  0.2570 -0.0401  0.3385
 8341SOL    HW136482   2.103   3.071  13.794 -0.1885  0.2743  0.2195
 8341SOL    HW236483   1.973   2.989  13.808  0.9522 -1.6881  1.4841
 8342SOL     OW36484   4.491   1.944   4.652 -0.8341  0.0910 -0.0529
 8342SOL    HW136485   4.542   2.023   4.670  1.1553 -0.9738 -0.9505
 8342SOL    HW236486   4.554   1.886   4.609  0.0637 -0.8568  2.5527
 8343SOL     OW36487   2.033   2.439  14.109  0.5852 -0.3178 -0.2741
 8343SOL    HW136488   2.113   2.464  14.063 -0.1556  0.0807 -1.3599
 8343SOL    HW236489   2.074   2.382  14.173 -0.2182 -0.3268  0.2355
 8344SOL     OW36490   3.282   1.823   4.711 -0.3011 -0.5495  0.7044
 8344SOL    HW136491   3.329   1.904   4.727 -0.4154 -0.2486 -0.4302
 8344SOL    HW236492   3.330   1.791   4.634 -2.3206  1.0470 -1.2191
 8345SOL     OW36493   0.670   3.971   6.830 -0.5996 -0.7766 -0.1886
 8345SOL    HW136494   0.713   3.939   6.751 -0.9744  1.6360 -1.3394
 8345SOL    HW236495   0.723   3.918   6.891 -0.6146 -0.8322 -0.2245
 8346SOL     OW36496   3.411   3.419   5.303 -0.2038  0.0144 -0.2030
 8346SOL    HW136497   3.325   3.377   5.301 -0.5394  0.7574 -1.1773
 8346SOL    HW236498   3.414   3.466   5.220 -1.0399 -0.0299 -0.2628
 8347SOL     OW36499   4.240   4.600  12.187  0.2611 -0.3536 -0.2651
 8347SOL    HW136500   4.255   4.514  12.149  0.0248  0.0036 -1.1593
 8347SOL    HW236501   4.144   4.604  12.188  0.1362 -3.0368 -0.6625
 8348SOL     OW36502   3.827   4.137  10.037 -0.5059 -0.0595 -0.4761
 8348SOL    HW136503   3.757   4.072  10.041 -1.4978  0.9429 -1.7976
 8348SOL    HW236504   3.796   4.201   9.974  0.0820  1.8816  1.2156
 8349SOL     OW36505   4.691   1.982   0.343 -0.1841 -0.0432  0.3635
 8349SOL    HW136506   4.619   2.042   0.326 -1.2390 -1.6779 -0.9451
 8349SOL    HW236507   0.005   2.040   0.412  1.8715 -0.4093 -0.3221
 8350SOL     OW36508   4.694   4.269   2.432  0.0686  0.1271 -0.1988
 8350SOL    HW136509   4.713   4.344   2.376  0.2367 -0.2677 -0.6687
 8350SOL    HW236510   4.650   4.210   2.370  1.5486 -2.2487  1.0052
 8351SOL     OW36511   3.541   0.902  17.323 -0.0756  0.1141  0.0416
 8351SOL    HW136512   3.547   0.811  17.353  0.7149  1.2963  3.4778
 8351SOL    HW236513   3.460   0.891  17.274  0.0434 -0.3761 -0.0450
 8352SOL     OW36514   2.572   2.425   2.598  0.1204 -0.4727  0.2434
 8352SOL    HW136515   2.666   2.410   2.594 -0.0598 -0.9314 -2.6957
 8352SOL    HW236516   2.541   2.359   2.536 -0.5740 -0.0973  0.1946
 8353SOL     OW36517   3.543   2.736   5.059 -0.2628 -0.4237  0.0603
 8353SOL    HW136518   3.545   2.662   5.120 -1.9261 -0.1962  0.4022
 8353SOL    HW236519   3.550   2.688   4.977 -1.3083  1.1597 -0.9605
 8354SOL     OW36520   0.282   3.737  14.710 -0.3557  0.4104  0.4671
 8354SOL    HW136521   0.187   3.733  14.709 -0.3196  0.2319 -3.2111
 8354SOL    HW236522   0.299   3.788  14.631  0.9660 -1.5629 -0.5416
 8355SOL     OW36523   4.242   2.158   7.288  0.1371  0.3987  0.4511
 8355SOL    HW136524   4.229   2.249   7.314 -0.5386  0.6147 -0.6635
 8355SOL    HW236525   4.281   2.156   7.201  0.6492  0.7830  0.6716
 8356SOL     OW36526   1.021   3.582   9.162  0.0851  0.2638 -0.4978
 8356SOL    HW136527   1.105   3.568   9.204  0.3988  1.2485 -0.7873
 8356SOL    HW236528   0.960   3.524   9.208  0.2198  0.2072 -0.3926
 8357SOL     OW36529   1.131   0.344   4.811  0.3773  0.3740 -0.7345
 8357SOL    HW136530   1.178   0.390   4.742 -1.7755  0.3504 -2.2246
 8357SOL    HW236531   1.122   0.253   4.785  0.4054 -0.1490  1.0534
 8358SOL     OW36532   1.577   3.636  14.949  0.1201  0.3711  0.5104
 8358SOL    HW136533   1.491   3.625  14.988 -0.3044  0.5917 -0.3761
 8358SOL    HW236534   1.620   3.550  14.953 -1.1768 -0.3123 -0.3149
 8359SOL     OW36535   0.976   3.787   9.345  0.5326 -0.2004  0.3463
 8359SOL    HW136536   0.890   3.763   9.379  0.0870  1.2479  0.1972
 8359SOL    HW236537   0.985   3.732   9.267 -1.5341  0.8485 -0.6005
 8360SOL     OW36538   0.662   2.200   8.634 -0.7505 -0.1272 -0.0771
 8360SOL    HW136539   0.610   2.271   8.595  0.2846 -0.0710 -1.3639
 8360SOL    HW236540   0.646   2.130   8.570 -3.1191 -0.6502  1.0898
 8361SOL     OW36541   1.282   1.188  12.864 -0.4505  0.1051 -0.0706
 8361SOL    HW136542   1.210   1.249  12.876 -1.4325 -1.1890  0.5370
 8361SOL    HW236543   1.299   1.199  12.770 -0.2828 -0.7664 -0.1452
 8362SOL     OW36544   4.515   2.609   7.561  0.1211 -0.2658  0.3788
 8362SOL    HW136545   4.568   2.585   7.636 -1.7474 -1.6907  1.2537
 8362SOL    HW236546   4.452   2.669   7.601 -0.1335 -0.0428 -0.3419
 8363SOL     OW36547   1.068   0.019   7.803 -0.0797  0.1802 -0.2168
 8363SOL    HW136548   1.074   0.088   7.868 -0.8985  0.2849 -0.2608
 8363SOL    HW236549   1.156   0.017   7.765  1.2757 -2.8079  3.0057
 8364SOL     OW36550   0.923   2.271   1.705  0.0326  0.7677 -0.4291
 8364SOL    HW136551   0.834   2.238   1.692 -0.3298  0.6736  2.3018
 8364SOL    HW236552   0.976   2.237   1.633 -2.0885 -0.8525 -1.2278
 8365SOL     OW36553   1.342   1.267  13.947  0.3578  0.0122 -0.1644
 8365SOL    HW136554   1.400   1.318  13.891 -0.3323  0.4145 -0.5140
 8365SOL    HW236555   1.403   1.219  14.003  0.0200 -1.3916 -1.0226
 8366SOL     OW36556   3.798   4.494   4.165  0.0916  0.4844 -0.0651
 8366SOL    HW136557   3.744   4.416   4.179  1.5008 -0.5840 -0.6252
 8366SOL    HW236558   3.826   4.467   4.077  0.2517 -0.4390  0.2693
 8367SOL     OW36559   4.246   4.431   2.444  0.2259  0.1986  0.2477
 8367SOL    HW136560   4.327   4.419   2.393 -1.6055 -3.4030 -1.8432
 8367SOL    HW236561   4.213   4.512   2.406 -0.9647 -0.2191  0.4112
 8368SOL     OW36562   2.175   2.837  12.300 -0.2504 -0.1317 -0.1613
 8368SOL    HW136563   2.269   2.850  12.294 -0.4613  2.2103  1.6886
 8368SOL    HW236564   2.168   2.777  12.373  3.1507  2.5145  2.3313
 8369SOL     OW36565   4.681   1.509   4.021 -0.4588  0.1201  0.0196
 8369SOL    HW136566   4.674   1.453   3.944  0.0350 -0.4375  0.3845
 8369SOL    HW236567   4.712   1.594   3.991 -3.0642  0.9119 -0.4981
 8370SOL     OW36568   2.040   3.574   7.120  0.1459 -0.4857 -0.3198
 8370SOL    HW136569   2.070   3.530   7.041 -1.7615 -1.1301 -0.7063
 8370SOL    HW236570   2.015   3.659   7.084  1.1968  0.1492  0.4702
 8371SOL     OW36571   1.479   4.047   2.222  0.6408  0.7823 -0.0073
 8371SOL    HW136572   1.517   3.990   2.155 -2.3817  0.4490 -1.3934
 8371SOL    HW236573   1.414   4.095   2.171  0.3794 -0.5526 -0.9299
 8372SOL     OW36574   0.120   2.770   2.179  0.0912  0.1791 -0.1638
 8372SOL    HW136575   0.054   2.813   2.234  0.5128  0.5822  0.0272
 8372SOL    HW236576   0.196   2.828   2.179  0.6430 -0.5603 -2.7055
 8373SOL     OW36577   4.244   3.191  16.734  0.0819 -0.3771  0.3244
 8373SOL    HW136578   4.287   3.201  16.649 -1.1317 -1.9234 -0.4560
 8373SOL    HW236579   4.155   3.226  16.724  0.3616 -0.6155 -2.9580
 8374SOL     OW36580   0.247   2.469  10.669  0.0819 -0.4699  0.6577
 8374SOL    HW136581   0.303   2.395  10.645  0.5205  0.0547  0.0732
 8374SOL    HW236582   0.322   2.527  10.682 -1.0288  0.9265  0.7942
 8375SOL     OW36583   2.065   3.295   5.493 -0.3434 -0.3228  0.0501
 8375SOL    HW136584   1.980   3.260   5.520 -0.4704 -0.4925 -0.5703
 8375SOL    HW236585   2.038   3.325   5.406  0.8449  0.7093  0.0336
 8376SOL     OW36586   2.783   0.291   2.179  0.2258 -0.2811  0.2360
 8376SOL    HW136587   2.728   0.215   2.199  0.2851 -0.4114 -0.1088
 8376SOL    HW236588   2.851   0.247   2.128 -0.6233 -1.5762  0.2182
 8377SOL     OW36589   4.152   4.507   4.117 -0.0693 -0.1194 -0.0699
 8377SOL    HW136590   4.079   4.531   4.175 -0.2279  1.0890 -0.7635
 8377SOL    HW236591   4.149   4.581   4.056  0.2472  2.1201  2.5996
 8378SOL     OW36592   0.503   3.047   3.061  0.0266 -0.1115  0.1674
 8378SOL    HW136593   0.427   3.016   3.111  1.1132 -3.4642 -0.2876
 8378SOL    HW236594   0.484   3.019   2.971 -0.6940  2.8789 -0.6258
 8379SOL     OW36595   3.228   3.475   0.414 -0.3700  1.0118 -0.1481
 8379SOL    HW136596   3.323   3.483   0.401 -0.1283 -0.9838  0.3866
 8379SOL    HW236597   3.220   3.384   0.385  0.7140  0.3135  1.7503
 8380SOL     OW36598   4.293   3.034   6.059  0.4672  0.2714 -0.3277
 8380SOL    HW136599   4.370   3.035   6.115 -0.9683  1.0262  1.6296
 8380SOL    HW236600   4.313   3.100   5.992  1.3219  0.0354 -0.3050
 8381SOL     OW36601   0.343   3.454  14.345  0.0169 -0.4816 -0.4575
 8381SOL    HW136602   0.403   3.462  14.419 -1.3049  1.2156  0.4341
 8381SOL    HW236603   0.400   3.400  14.290  1.1269  0.0350  0.1986
 8382SOL     OW36604   0.730   1.985  12.968  0.0081  0.6977  0.1820
 8382SOL    HW136605   0.787   2.007  12.894  3.2358 -0.7133  2.2028
 8382SOL    HW236606   0.770   1.914  13.018  1.8382  1.4967 -0.1425
 8383SOL     OW36607   0.371   2.610   3.363  0.3375  0.0275 -0.1544
 8383SOL    HW136608   0.438   2.629   3.297  0.8458  1.3466  0.7429
 8383SOL    HW236609   0.350   2.696   3.399 -0.6673 -0.1885 -0.2239
 8384SOL     OW36610   4.033   3.829   5.982  0.4557  0.1070  0.1220
 8384SOL    HW136611   4.055   3.736   5.984  0.0377  0.0083  0.0122
 8384SOL    HW236612   4.084   3.852   6.060  0.3989 -3.1898  1.1338
 8385SOL     OW36613   3.822   1.598   4.677  0.4523 -0.2312 -0.4086
 8385SOL    HW136614   3.797   1.672   4.623 -0.0190 -1.7364 -2.2755
 8385SOL    HW236615   3.745   1.541   4.680  0.5426 -0.4029 -1.4427
 8386SOL     OW36616   0.221   0.156   5.309 -0.4517 -0.3755  0.2458
 8386SOL    HW136617   0.181   0.071   5.286 -0.4784 -0.9734  2.4809
 8386SOL    HW236618   0.240   0.180   5.219  1.6887  0.1506  0.8492
 8387SOL     OW36619   1.125   3.405   1.090 -0.6091  0.2259 -0.3993
 8387SOL    HW136620   1.170   3.432   1.010  1.6944  0.1633  0.8763
 8387SOL    HW236621   1.095   3.322   1.052 -0.3845 -0.0799  0.1021
 8388SOL     OW36622   0.254   0.048   7.323  0.1246 -0.1963  0.7261
 8388SOL    HW136623   0.205   0.001   7.391 -4.7597  1.1190 -1.8610
 8388SOL    HW236624   0.193   0.114   7.288 -0.7769 -1.4086 -0.0313
 8389SOL     OW36625   3.644   0.849   0.665  0.2393  0.2130  0.2563
 8389SOL    HW136626   3.673   0.927   0.712 -0.7720  0.6619  0.1372
 8389SOL    HW236627   3.670   0.868   0.575  0.4491 -0.9497  0.0725
 8390SOL     OW36628   3.572   3.234   2.582  0.2798  0.7617  0.2188
 8390SOL    HW136629   3.480   3.214   2.569  0.8217 -2.1772  0.7646
 8390SOL    HW236630   3.598   3.157   2.634 -0.7499  0.0964 -0.2415
 8391SOL     OW36631   1.031   0.691   6.148 -0.0330  0.3465 -0.2681
 8391SOL    HW136632   1.103   0.745   6.181  0.9815 -2.3357  1.8384
 8391SOL    HW236633   0.982   0.750   6.091 -3.7952  1.2619  3.8833
 8392SOL     OW36634   1.505   4.543   1.500  0.0631 -0.7912  0.5220
 8392SOL    HW136635   1.533   4.577   1.415 -2.0344 -1.4812 -0.4493
 8392SOL    HW236636   1.414   4.574   1.493  0.4794  0.5652  1.1402
 8393SOL     OW36637   1.899   0.479  13.444  0.2143 -0.5874  0.6834
 8393SOL    HW136638   1.865   0.567  13.462  0.0919 -0.8877  1.8686
 8393SOL    HW236639   1.952   0.490  13.365 -0.0842 -1.5039  0.3552
 8394SOL     OW36640   1.999   2.111  15.627 -0.2713 -0.2383  0.0587
 8394SOL    HW136641   2.056   2.176  15.666 -1.2445  0.2656  0.6467
 8394SOL    HW236642   1.958   2.143  15.546  2.2958 -1.8049 -1.8473
 8395SOL     OW36643   3.942   2.922   5.741  0.4577 -0.3583  0.1097
 8395SOL    HW136644   3.973   2.837   5.771 -1.1882 -1.2994 -0.8795
 8395SOL    HW236645   4.004   2.950   5.674  1.5211 -0.2166  1.1417
 8396SOL     OW36646   2.420   4.157   6.111  0.5918 -0.2892  0.2276
 8396SOL    HW136647   2.382   4.168   6.198 -0.1467 -2.5344  0.1815
 8396SOL    HW236648   2.355   4.108   6.061 -0.3378  0.9307  0.2385
 8397SOL     OW36649   4.182   2.520   0.475 -0.1816 -0.0906  0.0429
 8397SOL    HW136650   4.244   2.536   0.546 -0.4265 -2.3199  0.7715
 8397SOL    HW236651   4.153   2.610   0.467  1.0120  0.4522  1.9660
 8398SOL     OW36652   2.960   1.516   5.652 -0.2499 -0.2747  0.2207
 8398SOL    HW136653   3.014   1.502   5.573 -0.2918  1.7393 -0.1516
 8398SOL    HW236654   3.021   1.528   5.725  0.1733 -1.1553  0.0117
 8399SOL     OW36655   0.982   2.475  10.574 -1.0111 -0.3690 -0.5096
 8399SOL    HW136656   1.026   2.537  10.632 -2.4309  1.5411 -1.4696
 8399SOL    HW236657   0.941   2.526  10.504  0.4845  2.8181  0.9423
 8400SOL     OW36658   0.957   4.070  13.753  0.4102  0.2694 -0.6986
 8400SOL    HW136659   0.895   4.060  13.826  0.6971  1.3248 -0.3124
 8400SOL    HW236660   0.971   4.163  13.738  1.3247 -0.0855 -2.0118
 8401SOL     OW36661   2.142   3.795   5.111  0.1723  0.0577  0.3572
 8401SOL    HW136662   2.113   3.875   5.068  0.3775  0.2583  0.5890
 8401SOL    HW236663   2.168   3.830   5.196  1.9127 -2.6787  0.9507
 8402SOL     OW36664   3.704   1.103   4.959 -0.2213  0.1211  0.2620
 8402SOL    HW136665   3.738   1.014   4.966 -0.4688  0.1184  1.4089
 8402SOL    HW236666   3.778   1.152   4.924  0.1314  0.0305  0.8849
 8403SOL     OW36667   1.904   2.591   8.450 -0.2377 -0.3607  0.0741
 8403SOL    HW136668   1.954   2.513   8.425 -1.3775 -1.0778  0.0346
 8403SOL    HW236669   1.815   2.566   8.427  0.1797 -2.0247  0.2461
 8404SOL     OW36670   0.963   2.904   8.057 -0.0062 -0.0318  0.1375
 8404SOL    HW136671   0.888   2.879   8.111 -1.3272  0.3650 -1.5133
 8404SOL    HW236672   0.958   2.839   7.986 -2.9029 -0.8323  1.1075
 8405SOL     OW36673   0.328   2.757   9.540  0.2925  0.4347  0.3700
 8405SOL    HW136674   0.344   2.760   9.634 -0.7481  2.6011  0.4784
 8405SOL    HW236675   0.239   2.720   9.537  0.6074 -0.1422 -1.6636
 8406SOL     OW36676   3.038   4.264  17.257 -0.0284  0.6495 -0.3260
 8406SOL    HW136677   2.969   4.252  17.322 -0.8838  0.9005 -1.1901
 8406SOL    HW236678   3.009   4.347  17.217  1.1698  1.0496 -0.3536
 8407SOL     OW36679   1.346   1.517   4.707  0.9331 -0.3847  0.4174
 8407SOL    HW136680   1.269   1.471   4.675 -0.1676  2.3991 -0.9201
 8407SOL    HW236681   1.407   1.511   4.633  1.5281  0.2813  0.8539
 8408SOL     OW36682   2.242   2.911  10.777  0.4082  0.0183 -0.3351
 8408SOL    HW136683   2.201   2.868  10.852  0.4746  0.0468 -0.2825
 8408SOL    HW236684   2.332   2.878  10.777  1.3758  2.6791 -3.3714
 8409SOL     OW36685   0.849   0.628   5.909 -0.7244  0.1287  0.7114
 8409SOL    HW136686   0.825   0.700   5.967  0.1723  1.6821 -0.8794
 8409SOL    HW236687   0.857   0.567   5.983 -0.7901  0.0644  0.6653
 8410SOL     OW36688   4.144   4.476   9.120  0.0453 -0.2190  0.8218
 8410SOL    HW136689   4.051   4.462   9.140  0.0921 -0.2795  0.9959
 8410SOL    HW236690   4.147   4.524   9.037  0.7567 -0.0308  0.9588
 8411SOL     OW36691   4.439   0.346   2.832 -0.3907  0.3749  0.4845
 8411SOL    HW136692   4.442   0.402   2.755  1.1503  0.6297  0.7486
 8411SOL    HW236693   4.346   0.320   2.833  0.0475 -1.1451  1.4372
 8412SOL     OW36694   1.465   2.491   5.639  0.2732  0.0186 -0.1671
 8412SOL    HW136695   1.480   2.474   5.732  0.7206  0.1244 -0.2207
 8412SOL    HW236696   1.455   2.403   5.603 -0.5602 -0.2957  0.8471
 8413SOL     OW36697   3.319   4.593   5.785 -0.3052  0.1152 -0.0857
 8413SOL    HW136698   3.384   4.660   5.765  2.6930 -2.4413  1.0190
 8413SOL    HW236699   3.350   4.513   5.741  1.0786  0.4462  0.2734
 8414SOL     OW36700   4.638   0.959   1.988 -0.8238 -0.3327  0.4214
 8414SOL    HW136701   4.651   0.989   1.898 -0.3470  0.9640  0.9215
 8414SOL    HW236702   4.700   0.886   1.989 -1.1361 -0.5836  1.4913
 8415SOL     OW36703   4.691   1.552   5.600  0.2978  0.0632  0.5410
 8415SOL    HW136704   0.058   1.511   5.606 -0.2924 -1.1206  0.9304
 8415SOL    HW236705   4.709   1.630   5.548  1.2872 -1.2527 -1.0756
 8416SOL     OW36706   4.064   0.560  11.092  0.1532 -0.3763  0.4354
 8416SOL    HW136707   4.102   0.530  11.009 -0.1020 -1.0920  0.5756
 8416SOL    HW236708   4.055   0.652  11.066  2.0113 -0.4163 -0.3768
 8417SOL     OW36709   4.440   0.315  11.635  0.2216 -0.0063 -0.1157
 8417SOL    HW136710   4.484   0.260  11.570  1.5693 -1.2263  1.8193
 8417SOL    HW236711   4.420   0.252  11.704  1.7024  0.7324  0.9743
 8418SOL     OW36712   0.974   4.334  16.573  0.1207  0.4084  0.5171
 8418SOL    HW136713   0.969   4.428  16.592 -0.7062  0.7227 -1.2162
 8418SOL    HW236714   1.022   4.329  16.490 -1.2517  1.4264 -0.3486
 8419SOL     OW36715   4.006   1.075   7.955  0.0932 -0.1235  0.1916
 8419SOL    HW136716   3.926   1.032   7.924 -1.5667  3.2844 -0.3808
 8419SOL    HW236717   3.981   1.168   7.962 -0.6555 -0.2523 -0.6902
 8420SOL     OW36718   2.717   2.859   6.744  0.0605  0.6687  0.2945
 8420SOL    HW136719   2.729   2.773   6.705 -0.3521  1.5374 -1.7911
 8420SOL    HW236720   2.754   2.851   6.831  1.8584  0.7554 -0.4708
 8421SOL     OW36721   1.114   4.077   9.757 -0.0247  0.0064  0.0487
 8421SOL    HW136722   1.175   4.004   9.746  0.1168  0.2518 -0.8696
 8421SOL    HW236723   1.057   4.065   9.680 -0.1223 -1.0438  0.2936
 8422SOL     OW36724   0.305   4.613   8.489  0.4239  0.4818 -0.5871
 8422SOL    HW136725   0.386   4.662   8.501  0.7806 -0.2395 -0.0587
 8422SOL    HW236726   0.243   4.683   8.467  0.7636  1.5101  1.7002
 8423SOL     OW36727   1.546   3.012   2.949 -0.4981  0.6409  0.2057
 8423SOL    HW136728   1.579   2.924   2.965 -3.8455 -0.8599 -1.1852
 8423SOL    HW236729   1.631   3.047   2.923 -1.2732  3.3991  1.3433
 8424SOL     OW36730   1.037   4.606   6.848  0.2368  0.1560 -0.0999
 8424SOL    HW136731   1.106   4.575   6.906 -0.5677  0.5700  1.0888
 8424SOL    HW236732   1.014   4.691   6.887 -0.4056  1.1168 -2.5964
 8425SOL     OW36733   0.300   1.332   6.869  0.1607 -0.0868  0.7482
 8425SOL    HW136734   0.311   1.425   6.886 -1.9863 -0.1665  2.5919
 8425SOL    HW236735   0.274   1.308   6.958 -1.4259  1.0317  0.5747
 8426SOL     OW36736   3.707   2.507   1.578  0.0692  0.1952 -0.0016
 8426SOL    HW136737   3.759   2.473   1.505 -1.5790 -0.5818 -0.8027
 8426SOL    HW236738   3.620   2.479   1.551 -0.4486  0.9619  0.8903
 8427SOL     OW36739   0.609   0.794   2.254 -0.5086 -0.0076  0.1495
 8427SOL    HW136740   0.598   0.815   2.347  1.2798 -0.3990  0.4361
 8427SOL    HW236741   0.696   0.832   2.241 -0.4987 -0.0871 -0.0107
 8428SOL     OW36742   3.007   2.106   6.629 -0.1128  0.2401 -0.3672
 8428SOL    HW136743   3.024   2.044   6.558 -0.6570  0.9874 -1.1536
 8428SOL    HW236744   2.997   2.046   6.702 -0.0914  1.5144  0.6849
 8429SOL     OW36745   0.710   2.164  15.205  0.0078 -0.5031 -0.1798
 8429SOL    HW136746   0.661   2.126  15.278 -0.7473  3.4286  1.3956
 8429SOL    HW236747   0.724   2.248  15.249 -1.9807  1.1611 -2.6302
 8430SOL     OW36748   0.627   3.854  12.382 -0.1683 -0.7558 -0.9428
 8430SOL    HW136749   0.595   3.772  12.344  1.2250 -0.9313 -1.7347
 8430SOL    HW236750   0.718   3.828  12.394 -0.1000 -1.7952 -3.6902
 8431SOL     OW36751   0.236   0.414   5.952 -0.2843 -0.3840 -0.1124
 8431SOL    HW136752   0.195   0.497   5.930  0.0772 -0.6389 -1.7760
 8431SOL    HW236753   0.194   0.358   5.887  0.7796 -2.6341  1.1375
 8432SOL     OW36754   4.612   3.139   4.916  0.1061 -0.2385 -0.1836
 8432SOL    HW136755   4.688   3.097   4.877  2.0103  3.3848 -0.3576
 8432SOL    HW236756   4.600   3.211   4.853  0.5460 -0.8058 -0.9193
 8433SOL     OW36757   3.880   0.346   4.888 -0.3274  0.3500  0.6868
 8433SOL    HW136758   3.967   0.321   4.857 -1.4057 -0.8735 -1.4145
 8433SOL    HW236759   3.851   0.406   4.820 -0.2814  1.7678  1.9258
 8434SOL     OW36760   0.498   0.198   5.079  0.3309 -0.1821  0.2518
 8434SOL    HW136761   0.409   0.221   5.054  0.8700  0.5478 -1.0248
 8434SOL    HW236762   0.549   0.271   5.042 -1.4820  0.9652  0.0367
 8435SOL     OW36763   1.111   4.248   8.449  0.8982 -0.2270 -1.2938
 8435SOL    HW136764   1.096   4.341   8.428 -1.6061 -0.3957 -0.2573
 8435SOL    HW236765   1.034   4.210   8.407  0.3798 -0.3859 -0.1812
 8436SOL     OW36766   1.731   0.615   5.948  0.3449 -0.1920  0.0780
 8436SOL    HW136767   1.725   0.590   6.040 -2.0879  0.6568  0.1672
 8436SOL    HW236768   1.684   0.538   5.914  1.3874 -1.3027  1.1585
 8437SOL     OW36769   0.461   2.878   5.201 -0.1686 -0.0038 -0.1112
 8437SOL    HW136770   0.411   2.837   5.130 -1.8055  1.8796 -0.0390
 8437SOL    HW236771   0.473   2.967   5.168  0.2005 -0.1364 -0.3337
 8438SOL     OW36772   0.671   2.419   6.501  0.3348 -0.1913 -0.0408
 8438SOL    HW136773   0.759   2.386   6.520  0.2876 -0.2714  0.0457
 8438SOL    HW236774   0.629   2.419   6.588  0.2528  1.6432 -0.0857
 8439SOL     OW36775   2.943   3.258   6.530 -0.0787  0.0865  0.2883
 8439SOL    HW136776   2.903   3.171   6.525  1.8441 -0.7592 -0.5671
 8439SOL    HW236777   2.957   3.251   6.625 -0.6330  1.1488  0.4412
 8440SOL     OW36778   0.494   3.422  14.590 -0.3178  0.4526  0.1909
 8440SOL    HW136779   0.565   3.380  14.541  0.2013  1.6732 -0.1030
 8440SOL    HW236780   0.505   3.366  14.667  1.6425  1.3014  0.5309
 8441SOL     OW36781   3.577   3.699   2.641  0.1668 -0.5901 -0.0591
 8441SOL    HW136782   3.514   3.702   2.713  0.8528 -2.4678  0.6501
 8441SOL    HW236783   3.638   3.769   2.663  2.1435 -2.1354 -0.5643
 8442SOL     OW36784   1.534   2.112   4.958  0.2133 -0.0808  0.3353
 8442SOL    HW136785   1.457   2.098   5.013 -0.9907  0.2832 -1.2639
 8442SOL    HW236786   1.575   2.028   4.980  1.0543  0.0157 -0.8911
 8443SOL     OW36787   3.892   4.594  10.631 -0.1616  0.1063 -0.0636
 8443SOL    HW136788   3.809   4.555  10.656  0.7501 -1.3222  0.7522
 8443SOL    HW236789   3.889   4.583  10.536 -1.9263 -0.2882  0.0523
 8444SOL     OW36790   1.955   3.819   7.054  0.1006 -0.1995  0.4429
 8444SOL    HW136791   1.862   3.796   7.065 -0.3730  1.6287  0.1754
 8444SOL    HW236792   1.947   3.912   7.035  0.9020 -0.4650 -1.1849
 8445SOL     OW36793   4.384   2.027   3.472 -0.0783 -0.4208  0.0848
 8445SOL    HW136794   4.475   2.049   3.454 -0.6275  0.6454 -1.3999
 8445SOL    HW236795   4.392   1.932   3.463 -0.2236 -0.2576 -1.6910
 8446SOL     OW36796   3.858   2.717   9.517 -0.0025  0.8244  0.4628
 8446SOL    HW136797   3.932   2.776   9.509  1.0154 -0.4643  0.4849
 8446SOL    HW236798   3.859   2.702   9.612 -2.7508  0.7170  0.4852
 8447SOL     OW36799   1.187   3.550  16.513  0.1513  0.3360  0.1415
 8447SOL    HW136800   1.226   3.556  16.426 -0.4610  0.0932 -0.1498
 8447SOL    HW236801   1.165   3.456  16.519 -0.9800  0.5792 -0.1032
 8448SOL     OW36802   4.291   3.972   8.538  0.3054 -0.3161 -0.0290
 8448SOL    HW136803   4.370   4.024   8.534 -0.4741  1.0125  2.1950
 8448SOL    HW236804   4.280   3.959   8.632 -0.9585 -1.0548 -0.2690
 8449SOL     OW36805   1.730   1.641   7.496 -0.3491 -0.3125 -0.3466
 8449SOL    HW136806   1.775   1.589   7.429  1.1993  1.0646 -0.3645
 8449SOL    HW236807   1.687   1.705   7.439 -1.6274 -0.8923 -0.0452
 8450SOL     OW36808   3.133   4.510  10.409  0.6989 -0.7128 -0.3074
 8450SOL    HW136809   3.156   4.420  10.433  1.7557 -0.5835 -0.8416
 8450SOL    HW236810   3.212   4.536  10.363 -0.2378  0.3953 -1.2590
 8451SOL     OW36811   2.833   0.647   5.427  0.0551 -0.1029 -0.7926
 8451SOL    HW136812   2.857   0.739   5.441  1.9855 -0.7933  0.4396
 8451SOL    HW236813   2.782   0.635   5.507 -0.0669 -2.1259 -1.1945
 8452SOL     OW36814   3.830   2.209   4.267  0.5176 -0.6558  0.8045
 8452SOL    HW136815   3.744   2.209   4.309 -0.5712 -4.4384 -1.5311
 8452SOL    HW236816   3.828   2.128   4.218 -0.4476  1.7294 -3.0597
 8453SOL     OW36817   0.571   3.619   4.584 -0.1236  0.3482 -0.8358
 8453SOL    HW136818   0.613   3.695   4.625  2.7116 -0.7107 -1.7296
 8453SOL    HW236819   0.646   3.560   4.593  0.1601  0.5268 -2.0461
 8454SOL     OW36820   3.073   3.256   3.384  0.1815 -0.5547  0.3134
 8454SOL    HW136821   3.042   3.173   3.350 -1.6733  1.0226 -1.8110
 8454SOL    HW236822   3.036   3.274   3.471 -2.3729  0.6765 -1.0447
 8455SOL     OW36823   4.379   1.988   7.467 -0.7538 -0.5713 -0.0472
 8455SOL    HW136824   4.314   2.023   7.405  0.5206  0.1212 -1.0150
 8455SOL    HW236825   4.387   1.895   7.448 -0.2956 -0.2605 -1.4050
 8456SOL     OW36826   3.110   4.609   4.407 -0.2768 -0.4341  0.5605
 8456SOL    HW136827   3.136   4.561   4.329  1.2335  0.7370  0.3327
 8456SOL    HW236828   3.032   4.650   4.369  0.3904  0.7743  0.4894
 8457SOL     OW36829   3.655   0.839   8.146 -0.6605  0.1625 -0.7717
 8457SOL    HW136830   3.604   0.770   8.190  0.6195  1.1901  2.2870
 8457SOL    HW236831   3.654   0.800   8.058 -0.0671 -1.6951  0.0404
 8458SOL     OW36832   3.229   0.777   7.154 -0.1861  0.4097  0.3745
 8458SOL    HW136833   3.319   0.791   7.184 -0.2957 -0.8631  1.3162
 8458SOL    HW236834   3.202   0.868   7.144 -2.6086 -0.2020  1.2401
 8459SOL     OW36835   1.253   3.007  16.076 -0.0247  0.0910  0.0063
 8459SOL    HW136836   1.337   2.962  16.078 -1.5290 -2.9820 -3.3146
 8459SOL    HW236837   1.282   3.096  16.094 -0.8969  0.1066  1.3010
 8460SOL     OW36838   1.574   3.998   7.424 -0.5305  0.3337  1.1925
 8460SOL    HW136839   1.576   4.013   7.329  1.0655  1.0378  1.3341
 8460SOL    HW236840   1.502   3.937   7.439  0.1806 -0.5080  1.1919
 8461SOL     OW36841   0.023   2.032  11.556  0.2600  0.0569 -0.1862
 8461SOL    HW136842   0.062   1.990  11.632 -1.9172  1.8637  1.9468
 8461SOL    HW236843   4.672   2.087  11.591  1.7113  2.4911 -1.0949
 8462SOL     OW36844   0.296   1.544   0.771 -0.5777  0.4775  0.0225
 8462SOL    HW136845   0.300   1.462   0.721  3.6648 -0.1835  1.4095
 8462SOL    HW236846   0.367   1.548   0.835  0.0092 -0.8796 -0.5546
 8463SOL     OW36847   1.883   1.116  16.255 -0.0374 -0.4633 -0.0550
 8463SOL    HW136848   1.882   1.168  16.336 -0.4552  0.9948 -0.9954
 8463SOL    HW236849   1.802   1.065  16.260  0.8038 -1.8052 -0.0440
 8464SOL     OW36850   0.254   2.181   6.192  0.1258 -0.4694 -0.3572
 8464SOL    HW136851   0.199   2.258   6.208 -0.0190 -0.4133 -1.1153
 8464SOL    HW236852   0.251   2.130   6.273 -0.1119 -0.9576 -0.6715
 8465SOL     OW36853   1.609   1.031   8.657  0.0605 -0.5308  0.6054
 8465SOL    HW136854   1.692   1.058   8.696 -0.1452 -1.4275  1.6796
 8465SOL    HW236855   1.548   1.053   8.727 -0.4366  0.9991 -0.3139
 8466SOL     OW36856   3.065   3.175   8.113  0.5628  0.3896  0.1378
 8466SOL    HW136857   3.110   3.221   8.042 -0.5258  1.0743 -0.0966
 8466SOL    HW236858   3.077   3.083   8.087  2.0496  0.7264 -0.3747
 8467SOL     OW36859   4.044   1.110   6.206 -0.4775  0.3766  0.0652
 8467SOL    HW136860   4.108   1.142   6.268  0.2782 -0.2133 -0.4142
 8467SOL    HW236861   4.081   1.145   6.125 -2.2402 -0.9200 -1.3191
 8468SOL     OW36862   0.083   3.419   5.540  0.2580  0.1452 -0.0185
 8468SOL    HW136863   0.032   3.421   5.460  1.8108  3.0712 -0.9608
 8468SOL    HW236864   0.173   3.403   5.511  0.7658  1.9624  0.5317
 8469SOL     OW36865   4.307   4.479   3.358 -0.5425 -0.2259 -0.0070
 8469SOL    HW136866   4.334   4.420   3.288 -1.9898 -0.7597 -0.1054
 8469SOL    HW236867   4.236   4.524   3.313  0.6285  0.3595 -1.3045
 8470SOL     OW36868   1.708   1.776  16.703  0.1922 -0.0685 -0.0331
 8470SOL    HW136869   1.692   1.774  16.608  1.0461  0.8451 -0.1893
 8470SOL    HW236870   1.620   1.762  16.736 -0.4360  0.5426 -1.4513
 8471SOL     OW36871   3.866   3.801   6.224  0.5498  0.0425  0.0195
 8471SOL    HW136872   3.874   3.824   6.132 -2.5228 -0.2708 -0.3361
 8471SOL    HW236873   3.917   3.720   6.226  1.4499  0.5755 -2.2170
 8472SOL     OW36874   3.749   2.262   6.738  0.5463 -0.2395  0.4521
 8472SOL    HW136875   3.841   2.288   6.740  1.0163 -1.5676 -2.4330
 8472SOL    HW236876   3.723   2.309   6.817 -0.1652  2.7021 -1.5194
 8473SOL     OW36877   0.968   4.284  10.956 -0.0174 -0.0325  0.0034
 8473SOL    HW136878   1.061   4.264  10.956  0.0036  0.0432 -0.8436
 8473SOL    HW236879   0.925   4.216  10.902 -0.5821  0.5418 -0.2734
 8474SOL     OW36880   2.280   2.783   7.428 -0.5571  0.0874  0.3614
 8474SOL    HW136881   2.315   2.868   7.400 -0.5727 -0.2508 -0.6924
 8474SOL    HW236882   2.293   2.732   7.348  0.7711  0.2638  0.4573
 8475SOL     OW36883   0.024   4.496   4.230  0.3535 -0.1320  0.3350
 8475SOL    HW136884   0.026   4.484   4.135  1.3686  1.3537  0.1788
 8475SOL    HW236885   0.117   4.504   4.248  1.1033  0.8334 -4.0900
 8476SOL     OW36886   1.807   0.694   7.327 -0.0812  0.4047  0.7796
 8476SOL    HW136887   1.884   0.736   7.365 -0.9752  0.0101  3.0182
 8476SOL    HW236888   1.759   0.664   7.404  0.7489 -0.5465  0.9172
 8477SOL     OW36889   2.169   4.258   7.364  0.2917 -0.5645  0.9880
 8477SOL    HW136890   2.245   4.227   7.413  1.2550  3.1397  1.8302
 8477SOL    HW236891   2.183   4.352   7.374 -1.0733 -0.2718  0.2649
 8478SOL     OW36892   3.157   0.220   4.265 -0.1540  0.1857 -0.0505
 8478SOL    HW136893   3.174   0.179   4.349  3.3999 -0.1202 -0.9232
 8478SOL    HW236894   3.238   0.269   4.250  1.1665 -1.4040  1.9572
 8479SOL     OW36895   3.124   2.783   7.302 -0.5654  0.5047 -0.4264
 8479SOL    HW136896   3.049   2.797   7.359 -0.4044 -0.0598 -0.0810
 8479SOL    HW236897   3.153   2.704   7.347 -0.4080  0.7672 -0.0724
 8480SOL     OW36898   0.656   0.515  10.350  0.0493 -0.2651  0.0234
 8480SOL    HW136899   0.590   0.492  10.285 -1.1655  1.4006  0.6826
 8480SOL    HW236900   0.597   0.521  10.425 -0.7199  0.4789 -0.6511
 8481SOL     OW36901   0.131   3.454   8.859  0.8167 -0.0138  0.2513
 8481SOL    HW136902   0.178   3.538   8.858  2.0530 -0.7051  0.0585
 8481SOL    HW236903   0.172   3.420   8.938 -0.2630  0.8755  1.1897
 8482SOL     OW36904   3.450   2.864   6.091  0.0498  0.8028  0.5933
 8482SOL    HW136905   3.364   2.894   6.061 -1.1880 -0.7071  2.6216
 8482SOL    HW236906   3.506   2.926   6.045 -0.9698 -1.1988 -3.3035
 8483SOL     OW36907   3.140   0.104   6.646  0.5886  0.0834 -0.0640
 8483SOL    HW136908   3.097   0.073   6.566 -0.3975 -1.3095  1.0119
 8483SOL    HW236909   3.068   0.150   6.688  2.1986  1.2340  1.4405
 8484SOL     OW36910   2.996   4.115   7.004 -0.9507 -0.2840  0.0051
 8484SOL    HW136911   3.083   4.103   6.965 -0.1815  0.6968  1.4276
 8484SOL    HW236912   3.019   4.185   7.065  0.9882 -1.8148  1.0224
 8485SOL     OW36913   1.036   2.061   3.046  0.0196  0.2712  0.2358
 8485SOL    HW136914   1.118   2.047   2.999 -0.5710 -2.2103 -0.0152
 8485SOL    HW236915   0.977   2.025   2.980 -0.5918 -2.2546  2.1570
 8486SOL     OW36916   4.050   0.118   3.235  0.3293 -0.2140 -0.3797
 8486SOL    HW136917   4.060   0.130   3.141  1.2821  1.3256 -0.0799
 8486SOL    HW236918   4.102   0.192   3.266 -0.9170 -0.2319  1.8336
 8487SOL     OW36919   4.124   2.949   2.757  0.0256  0.2890  0.7694
 8487SOL    HW136920   4.217   2.933   2.771  0.3335  1.6675  0.2732
 8487SOL    HW236921   4.099   2.886   2.689  1.7081 -2.4356  2.6475
 8488SOL     OW36922   4.315   3.799   0.791 -0.3439  0.5465  0.3130
 8488SOL    HW136923   4.247   3.798   0.857  0.5101  2.8308  1.1942
 8488SOL    HW236924   4.353   3.885   0.809  3.7180 -0.5725 -2.6471
 8489SOL     OW36925   2.866   1.942   0.169  0.3078  0.0186 -0.5313
 8489SOL    HW136926   2.865   1.938   0.073 -2.2024  1.2466 -0.5655
 8489SOL    HW236927   2.948   1.979   0.200 -0.4232  1.2731 -0.1033
 8490SOL     OW36928   3.265   0.735  15.354  0.0786 -0.2140  0.1446
 8490SOL    HW136929   3.215   0.779  15.423  1.9007  1.3230  0.4917
 8490SOL    HW236930   3.285   0.651  15.395 -1.2766 -0.9434 -0.6617
 8491SOL     OW36931   2.612   4.344   8.385  0.5792 -0.1436  0.0642
 8491SOL    HW136932   2.518   4.352   8.367  0.8853  2.0757 -0.5592
 8491SOL    HW236933   2.623   4.275   8.319  1.0104  0.6570 -0.7077
 8492SOL     OW36934   2.018   0.676   3.495  0.2010 -0.2051  0.2336
 8492SOL    HW136935   1.928   0.687   3.464  0.0586 -1.4306  0.2194
 8492SOL    HW236936   2.032   0.746   3.558  2.0394  1.1213 -1.6327
 8493SOL     OW36937   4.629   4.615  12.800  0.3736  0.8429 -0.1655
 8493SOL    HW136938   4.598   4.549  12.738  1.4170  0.8533 -0.6938
 8493SOL    HW236939   4.688   4.554  12.844 -2.5560 -1.2488  0.9209
 8494SOL     OW36940   1.160   1.682   7.144  0.3099  0.3912  0.0135
 8494SOL    HW136941   1.198   1.612   7.197 -1.0127  1.7317  2.7515
 8494SOL    HW236942   1.073   1.643   7.143  0.6323 -0.2959 -0.6454
 8495SOL     OW36943   2.574   0.965  12.047 -0.1770 -0.2497 -0.8527
 8495SOL    HW136944   2.631   1.033  12.083 -2.7224  0.9330  0.9466
 8495SOL    HW236945   2.575   0.996  11.956  0.3206 -0.6233 -0.9769
 8496SOL     OW36946   1.174   1.879  14.695 -0.0296  0.3823  0.5884
 8496SOL    HW136947   1.123   1.839  14.765  1.4582 -1.5030  0.6114
 8496SOL    HW236948   1.211   1.956  14.740 -0.6965  1.4260 -0.6396
 8497SOL     OW36949   3.173   1.087  16.623  0.3664 -0.0567 -0.2279
 8497SOL    HW136950   3.158   1.126  16.537 -1.2065  0.2628  0.1957
 8497SOL    HW236951   3.269   1.081  16.626  0.5435  1.9577 -1.9313
 8498SOL     OW36952   1.760   1.033   2.635 -0.4570 -0.2060  0.1031
 8498SOL    HW136953   1.776   1.089   2.559  0.3459 -1.1989 -0.4692
 8498SOL    HW236954   1.821   0.964   2.607 -2.1726 -2.6252  2.3314
 8499SOL     OW36955   2.903   4.374  13.100 -0.2985  0.2840 -0.3826
 8499SOL    HW136956   2.935   4.401  13.014  0.6042  1.8520  0.4336
 8499SOL    HW236957   2.896   4.463  13.135 -0.3887  0.5034 -0.9576
 8500SOL     OW36958   1.632   1.529   8.829  0.6028 -0.5820 -0.2723
 8500SOL    HW136959   1.656   1.479   8.751  1.2338  2.8725 -2.3176
 8500SOL    HW236960   1.544   1.564   8.817  0.0848 -0.8871  2.8059
 8501SOL     OW36961   4.034   2.396   8.773  0.7961 -0.0269 -0.0335
 8501SOL    HW136962   4.008   2.487   8.786  1.9802  0.6438 -2.3617
 8501SOL    HW236963   3.983   2.383   8.693 -0.6619 -0.6710  0.9943
 8502SOL     OW36964   2.689   0.201   7.219 -0.0050 -0.4947  0.7126
 8502SOL    HW136965   2.764   0.236   7.170  0.6955  0.1024  2.2239
 8502SOL    HW236966   2.734   0.129   7.264 -0.1539 -0.0369  1.5968
 8503SOL     OW36967   2.970   0.834   6.736  0.1771 -0.4246 -0.0434
 8503SOL    HW136968   3.047   0.780   6.755 -0.4890 -1.7487 -1.0367
 8503SOL    HW236969   2.964   0.872   6.823 -0.3177  0.6860 -0.5668
 8504SOL     OW36970   0.396   1.881  11.942 -0.2655  0.0182 -0.2447
 8504SOL    HW136971   0.401   1.963  11.893 -3.4536  1.3345  1.5972
 8504SOL    HW236972   0.324   1.843  11.890  0.7173 -0.0157 -1.5861
 8505SOL     OW36973   0.617   2.751   9.996  0.1021 -0.3400 -0.1610
 8505SOL    HW136974   0.649   2.841  10.009 -2.9060  1.0133 -1.9904
 8505SOL    HW236975   0.600   2.730  10.088  1.8806 -2.0847 -0.2527
 8506SOL     OW36976   3.453   4.430   6.765  0.0134 -0.1519 -0.4428
 8506SOL    HW136977   3.488   4.518   6.775  0.3971 -0.3205 -0.2637
 8506SOL    HW236978   3.362   4.455   6.751 -0.7254 -1.4155  2.2342
 8507SOL     OW36979   3.935   2.522   6.275 -0.0271 -0.3145  0.0314
 8507SOL    HW136980   3.906   2.432   6.264  1.7174 -1.1973  2.5785
 8507SOL    HW236981   3.998   2.513   6.347  0.3506  1.0333 -0.1235
 8508SOL     OW36982   3.790   4.088  10.653 -0.0179  0.7824  0.2889
 8508SOL    HW136983   3.810   4.032  10.728 -2.9835 -3.4228 -2.0174
 8508SOL    HW236984   3.818   4.173  10.686 -1.7711  1.2079  0.6888
 8509SOL     OW36985   1.424   1.234  14.772 -0.5702  0.0131  0.3751
 8509SOL    HW136986   1.434   1.295  14.845 -0.8607  0.0554  0.3799
 8509SOL    HW236987   1.333   1.257  14.751 -0.2951  1.0795  0.3713
 8510SOL     OW36988   4.132   1.921   2.644  0.5608 -0.1658 -0.1774
 8510SOL    HW136989   4.202   1.919   2.710  1.1062 -1.1564 -0.7774
 8510SOL    HW236990   4.176   1.890   2.565 -0.2521 -0.2827 -0.5758
 8511SOL     OW36991   2.815   0.711  12.634  0.0376  0.2045  0.2912
 8511SOL    HW136992   2.829   0.633  12.580  0.3595 -0.3703  1.2125
 8511SOL    HW236993   2.896   0.763  12.639 -0.0134  0.4151 -0.9435
 8512SOL     OW36994   4.282   0.941   4.967 -0.3002 -0.8998  0.7900
 8512SOL    HW136995   4.358   0.942   5.025 -1.2712  0.5961  2.0523
 8512SOL    HW236996   4.314   0.871   4.910  3.1546  2.4564 -1.3342
 8513SOL     OW36997   1.507   1.317   6.168 -0.2137  0.4979  0.2522
 8513SOL    HW136998   1.412   1.326   6.172 -0.1760  0.6299  0.8252
 8513SOL    HW236999   1.523   1.311   6.074  1.7997  1.9645  0.5021
 8514SOL     OW37000   4.707   2.014   6.310  0.0198  0.0240  0.2358
 8514SOL    HW137001   0.029   2.015   6.223  1.5217 -0.4703  0.9490
 8514SOL    HW237002   4.671   2.103   6.306 -0.4040 -0.1041  1.3577
 8515SOL     OW37003   0.296   2.043   0.818  0.0795 -0.1875  0.1652
 8515SOL    HW137004   0.339   2.080   0.895  1.2358  0.2984 -0.6965
 8515SOL    HW237005   0.205   2.065   0.835  0.3688 -0.3905  2.0089
 8516SOL     OW37006   0.270   2.716   7.460  0.5124  0.3062 -0.3772
 8516SOL    HW137007   0.190   2.680   7.420 -0.7582 -1.8082  3.9946
 8516SOL    HW237008   0.228   2.781   7.517  0.8668  0.9576 -0.8768
 8517SOL     OW37009   0.309   1.207  15.397  0.3091  0.0138  0.4123
 8517SOL    HW137010   0.329   1.284  15.344 -2.7322 -0.4198 -1.3574
 8517SOL    HW237011   0.251   1.258  15.453 -2.1833 -2.4233  0.0237
 8518SOL     OW37012   2.990   3.790   4.706 -0.2034 -0.4674 -0.1486
 8518SOL    HW137013   3.055   3.853   4.675 -0.8896 -0.7926 -2.2165
 8518SOL    HW237014   2.914   3.828   4.662 -0.5517  0.0961  0.9350
 8519SOL     OW37015   0.720   0.758   1.975 -1.1871 -0.3741 -0.0903
 8519SOL    HW137016   0.711   0.663   1.972  0.9271 -0.6622  2.3848
 8519SOL    HW237017   0.722   0.776   2.069 -2.7771  0.3457 -0.2002
 8520SOL     OW37018   1.360   1.778   7.000 -0.5287  0.4196 -0.2359
 8520SOL    HW137019   1.297   1.733   7.056  1.4442  0.4161  1.9824
 8520SOL    HW237020   1.398   1.712   6.942 -1.3192 -1.2691  1.1675
 8521SOL     OW37021   2.864   4.393  10.001  0.1663  0.1137  0.0115
 8521SOL    HW137022   2.877   4.440  10.084 -2.4024 -0.6905  0.8552
 8521SOL    HW237023   2.859   4.305  10.038 -1.0059  1.3255  2.7431
 8522SOL     OW37024   3.031   1.673   7.268 -0.3377 -0.3391 -0.7928
 8522SOL    HW137025   3.037   1.728   7.346 -0.2041 -0.1135 -0.9601
 8522SOL    HW237026   3.067   1.733   7.203 -0.3998 -0.3997 -0.8830
 8523SOL     OW37027   2.345   0.293   4.130  0.0981 -0.0977 -0.2431
 8523SOL    HW137028   2.434   0.284   4.095 -0.2567 -0.0831 -1.1325
 8523SOL    HW237029   2.297   0.259   4.055  0.3795 -1.7238  0.2987
 8524SOL     OW37030   2.952   1.402   9.211 -0.4972 -0.0205 -0.3206
 8524SOL    HW137031   2.914   1.488   9.191 -0.9748 -0.1729 -0.0640
 8524SOL    HW237032   2.918   1.353   9.136  1.6063 -3.3441  0.9209
 8525SOL     OW37033   0.207   1.819   9.491  0.6841  0.2392  0.5606
 8525SOL    HW137034   0.134   1.789   9.546 -0.8850 -1.7239 -2.5810
 8525SOL    HW237035   0.166   1.861   9.416  1.2065 -1.3471 -0.6184
 8526SOL     OW37036   3.055   4.148   2.138 -0.4635 -0.1403 -0.5446
 8526SOL    HW137037   3.114   4.160   2.064  0.4228  2.8701  0.6571
 8526SOL    HW237038   3.116   4.096   2.191 -1.9316 -0.3144  0.9968
 8527SOL     OW37039   4.086   1.357   7.256  0.6377 -0.0634 -0.6763
 8527SOL    HW137040   4.054   1.387   7.170 -0.0640 -0.5304 -0.5782
 8527SOL    HW237041   4.003   1.372   7.300  0.7081  0.5606 -0.7557
 8528SOL     OW37042   2.153   2.654   6.125 -0.0667 -0.2467 -0.1959
 8528SOL    HW137043   2.135   2.561   6.112  2.1361 -0.3608 -2.3506
 8528SOL    HW237044   2.069   2.691   6.098  1.2960  1.2109 -2.4770
 8529SOL     OW37045   1.941   0.361   2.762 -0.4060  0.1592 -0.4846
 8529SOL    HW137046   1.927   0.270   2.788  1.1982 -0.9011 -3.4245
 8529SOL    HW237047   1.909   0.405   2.841 -3.1667 -0.8453 -1.0174
 8530SOL     OW37048   2.015   3.722   1.983 -0.2086 -0.0680 -0.3958
 8530SOL    HW137049   1.941   3.782   1.982  1.0066  1.4343 -2.0037
 8530SOL    HW237050   2.086   3.785   1.998 -0.5949  0.6611 -1.5950
 8531SOL     OW37051   1.768   0.947   7.966 -0.0111 -0.8641  0.1138
 8531SOL    HW137052   1.777   1.026   7.913  0.9805 -2.4396 -2.0789
 8531SOL    HW237053   1.852   0.900   7.968  0.4723 -0.0663 -1.4236
 8532SOL     OW37054   2.815   1.042   0.961 -0.3351  0.1894  0.5178
 8532SOL    HW137055   2.865   1.032   0.879 -1.2209 -1.7410  0.2157
 8532SOL    HW237056   2.881   1.015   1.025  3.0531  1.8663 -2.2688
 8533SOL     OW37057   2.569   0.039   8.079  0.7858 -0.4859  0.5785
 8533SOL    HW137058   2.658   0.037   8.112  0.8479 -0.6435  0.3996
 8533SOL    HW237059   2.519   0.025   8.160  0.2448  0.3905  0.4031
 8534SOL     OW37060   3.534   4.340   5.965  0.2787  0.2108 -0.3365
 8534SOL    HW137061   3.564   4.249   5.956 -0.4588 -0.1443  0.7449
 8534SOL    HW237062   3.603   4.369   6.025  0.7213 -1.1026 -0.2132
 8535SOL     OW37063   3.629   4.444   3.132 -0.1504 -0.3490  0.1659
 8535SOL    HW137064   3.588   4.359   3.115 -0.9102 -0.1702  1.1395
 8535SOL    HW237065   3.718   4.416   3.109 -0.0264  0.8665 -0.8179
 8536SOL     OW37066   2.142   4.158   0.988 -0.2431 -0.3524 -0.3071
 8536SOL    HW137067   2.115   4.094   1.054  1.1795 -0.0917  0.5421
 8536SOL    HW237068   2.057   4.192   0.962  0.2486  0.0016 -1.4706
 8537SOL     OW37069   3.295   2.664   6.377 -0.3516 -0.3509 -1.2074
 8537SOL    HW137070   3.369   2.621   6.334 -0.0085 -0.3762 -0.5964
 8537SOL    HW237071   3.297   2.639   6.469  4.9467 -0.9916 -1.4827
 8538SOL     OW37072   3.237   4.712   1.988 -0.0409 -0.0301 -0.6110
 8538SOL    HW137073   3.280   4.664   2.059 -1.8193 -0.0310  0.4562
 8538SOL    HW237074   3.147   4.694   2.013 -0.5147  2.0165 -0.7875
 8539SOL     OW37075   3.121   4.133  14.529  0.4682 -0.0100  0.5219
 8539SOL    HW137076   3.145   4.112  14.619 -0.5146  2.5588  1.4075
 8539SOL    HW237077   3.207   4.154  14.492 -0.0209  0.7787 -0.1885
 8540SOL     OW37078   4.326   3.317   5.532 -0.0766 -0.1890  0.7038
 8540SOL    HW137079   4.302   3.280   5.616 -2.0159  1.5275  0.9191
 8540SOL    HW237080   4.378   3.394   5.557 -0.8600  0.6357 -0.1647
 8541SOL     OW37081   3.033   1.219   3.802  0.0978  0.1282  0.0056
 8541SOL    HW137082   3.030   1.211   3.707  2.0140  1.4175 -0.1600
 8541SOL    HW237083   2.940   1.241   3.811 -0.2630 -1.8235  1.0507
 8542SOL     OW37084   3.301   2.704  11.349 -0.0771  0.2446  0.0214
 8542SOL    HW137085   3.313   2.782  11.294  1.3931 -0.4544 -0.6479
 8542SOL    HW237086   3.288   2.647  11.274  1.0816 -0.0645  0.0546
 8543SOL     OW37087   3.920   0.686   0.166 -0.0779  0.5097 -0.6665
 8543SOL    HW137088   3.978   0.700   0.091 -1.3504 -0.7527 -1.8839
 8543SOL    HW237089   3.982   0.630   0.214  1.5300  1.7205 -1.3124
 8544SOL     OW37090   2.100   2.148   5.066  0.3069  0.0357  0.6866
 8544SOL    HW137091   2.143   2.213   5.122 -2.8155  2.1793  0.5912
 8544SOL    HW237092   2.079   2.079   5.128 -1.2787 -0.9072 -0.9346
 8545SOL     OW37093   3.727   3.045   7.121 -0.0059 -0.1607 -0.2567
 8545SOL    HW137094   3.802   2.989   7.137  0.5576 -0.1415 -2.7510
 8545SOL    HW237095   3.695   3.024   7.033 -3.0753 -0.2611  0.8556
 8546SOL     OW37096   1.098   0.366  11.002 -0.2541 -0.5317  0.0143
 8546SOL    HW137097   1.159   0.395  10.934 -0.5567 -0.7981 -0.3713
 8546SOL    HW237098   1.029   0.432  11.001  0.0674 -0.2325 -1.7621
 8547SOL     OW37099   0.821   3.851  15.876 -0.0852  0.3472 -0.2514
 8547SOL    HW137100   0.897   3.884  15.924 -0.4482 -0.9865  1.2564
 8547SOL    HW237101   0.782   3.930  15.838  1.1515  0.9038 -0.3600
 8548SOL     OW37102   1.003   3.958   6.592 -0.3144 -0.6469 -0.6430
 8548SOL    HW137103   0.967   4.047   6.582  0.6319 -0.1671  0.1844
 8548SOL    HW237104   0.922   3.910   6.605 -1.4083  1.3529 -0.0643
 8549SOL     OW37105   4.170   1.741   5.556  0.3055 -0.0259 -0.4121
 8549SOL    HW137106   4.255   1.724   5.515  0.4957  0.8854 -0.3957
 8549SOL    HW237107   4.191   1.708   5.644  2.0817  0.3416 -0.6863
 8550SOL     OW37108   2.586   4.357   2.884  0.4358 -0.0086  0.9650
 8550SOL    HW137109   2.592   4.340   2.978 -2.3619 -1.0769  0.9629
 8550SOL    HW237110   2.580   4.269   2.847 -0.4489  0.0790  0.9029
 8551SOL     OW37111   2.278   3.222   7.244 -0.1614  0.0350 -0.3938
 8551SOL    HW137112   2.194   3.253   7.276  0.4433  1.1776  0.0995
 8551SOL    HW237113   2.267   3.212   7.149  0.2489  1.0145 -0.5494
 8552SOL     OW37114   3.765   3.703  13.278 -0.0766 -0.2032  0.8062
 8552SOL    HW137115   3.841   3.649  13.256  0.9923  1.6115  0.0365
 8552SOL    HW237116   3.801   3.762  13.345 -0.3903 -0.1091  0.8902
 8553SOL     OW37117   3.892   0.300   1.605 -0.1161  0.3109 -0.1270
 8553SOL    HW137118   3.915   0.285   1.513  3.3734 -0.0520  0.8358
 8553SOL    HW237119   3.950   0.238   1.649 -0.3600 -0.3417 -0.7101
 8554SOL     OW37120   3.204   1.123   6.840  0.2592  0.2186  0.6017
 8554SOL    HW137121   3.209   1.136   6.935  2.5171 -1.7803  0.7530
 8554SOL    HW237122   3.128   1.173   6.811 -0.2569 -0.6516  0.4438
 8555SOL     OW37123   1.223   3.973   1.937 -0.3698  0.3671  0.5332
 8555SOL    HW137124   1.155   3.987   2.002 -1.3782 -5.3882  0.6832
 8555SOL    HW237125   1.257   3.887   1.960  0.3792 -0.1227 -2.3756
 8556SOL     OW37126   1.805   1.067   6.861  0.4389 -0.3325 -0.1937
 8556SOL    HW137127   1.746   1.111   6.799  1.8157  0.6287 -0.8298
 8556SOL    HW237128   1.861   1.143   6.880  0.0266 -0.3317  0.9573
 8557SOL     OW37129   4.071   3.077   6.717 -0.3545  0.3946 -0.0145
 8557SOL    HW137130   4.102   3.168   6.712  1.8528 -0.3937 -0.6670
 8557SOL    HW237131   4.038   3.067   6.627  0.0471  1.1998 -0.2547
 8558SOL     OW37132   3.801   2.943   6.220 -0.4737  0.1075  0.1748
 8558SOL    HW137133   3.844   2.882   6.160 -1.6332  1.1575 -1.7331
 8558SOL    HW237134   3.744   2.997   6.166  1.3015  0.8577 -0.9717
 8559SOL     OW37135   0.357   4.529  10.091 -0.2104  0.6290  0.5453
 8559SOL    HW137136   0.414   4.485  10.028 -0.3186  1.6443 -0.2563
 8559SOL    HW237137   0.423   4.547  10.158 -1.4339 -0.2922  1.9837
 8560SOL     OW37138   0.394   3.605   4.364  0.2093  0.1659 -0.2990
 8560SOL    HW137139   0.457   3.625   4.433 -0.8381 -1.1724  1.0473
 8560SOL    HW237140   0.431   3.663   4.298  0.1403  0.4245 -0.1110
 8561SOL     OW37141   4.155   1.127   8.546 -0.1287 -0.5716  0.0402
 8561SOL    HW137142   4.224   1.071   8.508 -0.6452 -1.2960  0.1724
 8561SOL    HW237143   4.181   1.112   8.637 -0.5159 -0.7022  0.1293
 8562SOL     OW37144   0.260   0.407   1.850  0.0184  0.8570 -0.7801
 8562SOL    HW137145   0.246   0.386   1.758 -1.2918 -1.7262 -0.0068
 8562SOL    HW237146   0.343   0.451   1.835  1.8285 -1.3627  2.7343
 8563SOL     OW37147   1.808   1.436   0.917 -0.3391 -0.5267  0.1597
 8563SOL    HW137148   1.729   1.393   0.884  0.8695 -2.0723 -0.6839
 8563SOL    HW237149   1.771   1.523   0.936 -0.7633 -0.4666 -0.9393
 8564SOL     OW37150   4.477   2.091  11.596  0.1810  0.0476 -0.2471
 8564SOL    HW137151   4.415   2.077  11.525  0.3694  0.8673 -0.5820
 8564SOL    HW237152   4.488   2.186  11.586 -0.1072  0.1651  0.5075
 8565SOL     OW37153   1.407   4.219   7.620 -0.7422 -0.2772  0.4607
 8565SOL    HW137154   1.466   4.290   7.646  0.6647 -1.0650 -0.5549
 8565SOL    HW237155   1.398   4.232   7.525  0.7540  2.5222  0.6745
 8566SOL     OW37156   3.266   3.708   9.456 -0.0126 -0.5162  0.6591
 8566SOL    HW137157   3.359   3.686   9.458 -0.0368 -0.8228 -1.1707
 8566SOL    HW237158   3.223   3.631   9.418 -0.0702 -1.0272  1.7790
 8567SOL     OW37159   2.783   3.386   9.384  0.0612 -0.1052  0.3615
 8567SOL    HW137160   2.798   3.460   9.326  1.1311  0.4885  1.4003
 8567SOL    HW237161   2.687   3.383   9.380  0.0302 -1.4886  2.1570
 8568SOL     OW37162   0.099   1.516  13.067 -0.0987  0.0306 -0.1142
 8568SOL    HW137163   0.162   1.582  13.038  0.6424 -1.5249 -2.0456
 8568SOL    HW237164   0.023   1.526  13.009  1.1838 -1.1496 -2.0370
 8569SOL     OW37165   2.469   1.460   3.230 -0.1036 -0.2717 -0.4304
 8569SOL    HW137166   2.510   1.380   3.198  0.7063  0.4995 -1.2966
 8569SOL    HW237167   2.384   1.427   3.257  0.8194 -2.6979 -0.5248
 8570SOL     OW37168   0.765   1.280   8.452 -0.2718  0.5818  0.0031
 8570SOL    HW137169   0.794   1.233   8.530  0.6884  1.2697  0.0612
 8570SOL    HW237170   0.680   1.237   8.445  0.0981 -0.1442 -0.0147
 8571SOL     OW37171   1.531   3.966  14.523  0.2798 -0.3261  0.3383
 8571SOL    HW137172   1.566   3.903  14.587  2.2926 -0.7798 -1.1907
 8571SOL    HW237173   1.556   3.922  14.442  1.1216  1.4285 -0.3732
 8572SOL     OW37174   0.618   1.355   5.015 -0.5904 -0.1709 -0.0366
 8572SOL    HW137175   0.584   1.353   4.926  1.4644 -0.9260 -0.7979
 8572SOL    HW237176   0.578   1.436   5.046 -2.0613 -1.3572  1.1865
 8573SOL     OW37177   3.214   2.750   8.706 -0.6169 -0.2205  0.4564
 8573SOL    HW137178   3.306   2.776   8.698 -0.7047 -0.1238 -0.1697
 8573SOL    HW237179   3.167   2.792   8.634 -0.6467 -1.3417 -0.1723
 8574SOL     OW37180   1.168   4.247  15.992  0.3069 -0.4609  0.2659
 8574SOL    HW137181   1.129   4.235  15.905  0.6105 -0.4078  0.1202
 8574SOL    HW237182   1.115   4.323  16.012  1.2077  0.4810 -0.8997
 8575SOL     OW37183   3.935   2.686   3.517 -0.0224 -0.2554  0.3411
 8575SOL    HW137184   3.932   2.629   3.595  1.7296 -0.1185  0.4965
 8575SOL    HW237185   3.951   2.623   3.448 -2.0563 -1.0304  0.5738
 8576SOL     OW37186   1.143   0.575   8.942 -0.3220 -0.5879  0.3362
 8576SOL    HW137187   1.070   0.597   9.000 -0.4528  1.7056 -0.7093
 8576SOL    HW237188   1.215   0.597   9.001  1.9910  0.3713 -2.8315
 8577SOL     OW37189   4.070   0.477   7.152 -1.0441  0.1298 -0.1390
 8577SOL    HW137190   4.085   0.389   7.115 -0.4543  0.6477 -1.1402
 8577SOL    HW237191   4.156   0.503   7.186 -1.0874  0.0957 -0.0037
 8578SOL     OW37192   4.666   3.271   3.623  0.2765  0.1763  0.7384
 8578SOL    HW137193   4.717   3.351   3.637 -0.2115  0.2027  2.3847
 8578SOL    HW237194   4.653   3.247   3.715  1.2415  0.1478  0.8679
 8579SOL     OW37195   2.105   1.306   8.206 -0.2602 -0.4702  0.4706
 8579SOL    HW137196   2.057   1.232   8.244  1.8534 -2.9586 -1.7135
 8579SOL    HW237197   2.193   1.270   8.194 -0.3616 -0.7421  0.5278
 8580SOL     OW37198   0.215   4.324  10.290  0.9011 -0.8870  0.1116
 8580SOL    HW137199   0.275   4.299  10.360 -2.4974  0.3397  3.4493
 8580SOL    HW237200   0.196   4.237  10.255  0.8178 -1.9198  2.6954
 8581SOL     OW37201   0.205   4.227   2.137  0.4671  0.1962 -0.1943
 8581SOL    HW137202   0.174   4.137   2.139 -2.0269  1.0658  0.7174
 8581SOL    HW237203   0.127   4.280   2.121  0.5248  0.5242  0.5986
 8582SOL     OW37204   4.482   2.800   5.508  0.2679  0.3468  0.3628
 8582SOL    HW137205   4.518   2.863   5.446  0.4856  0.9339  1.0880
 8582SOL    HW237206   4.397   2.782   5.468 -0.2064 -0.5189  1.7312
 8583SOL     OW37207   2.115   2.211   6.764 -0.0164  0.2695  0.1980
 8583SOL    HW137208   2.099   2.304   6.781  0.8060  0.6282 -0.9433
 8583SOL    HW237209   2.156   2.190   6.848  2.1255  0.1224 -0.8658
 8584SOL     OW37210   2.532   3.593   1.998 -0.3640  0.3824 -0.0981
 8584SOL    HW137211   2.599   3.527   2.015  0.4490  1.3230  0.3107
 8584SOL    HW237212   2.451   3.555   2.032 -0.4952  2.2951  1.7290
 8585SOL     OW37213   3.563   1.226  11.262  0.0024  0.1177 -0.3286
 8585SOL    HW137214   3.533   1.222  11.171 -1.2354  1.4194  0.0249
 8585SOL    HW237215   3.556   1.133  11.280  3.1372 -0.8043 -3.7765
 8586SOL     OW37216   0.750   2.688   3.329 -0.1284  0.1775  0.2974
 8586SOL    HW137217   0.666   2.727   3.305 -0.4149 -0.8682 -0.3794
 8586SOL    HW237218   0.740   2.596   3.308  0.3626  0.6081 -1.7893
 8587SOL     OW37219   1.618   0.349  15.045 -0.0236 -0.4324  0.0753
 8587SOL    HW137220   1.685   0.417  15.052 -1.1715  0.6101  0.8274
 8587SOL    HW237221   1.673   0.275  15.017  2.5245  0.6289  2.2061
 8588SOL     OW37222   0.031   1.855   3.662 -0.0039  0.3663 -0.1565
 8588SOL    HW137223   0.048   1.775   3.612 -1.7914 -0.2368  0.2207
 8588SOL    HW237224   4.707   1.904   3.592  0.4476  3.1784  1.5509
 8589SOL     OW37225   3.445   1.102  17.578  0.3749 -0.3518  0.1617
 8589SOL    HW137226   3.403   1.072  17.498 -0.7845 -0.9200  0.9838
 8589SOL    HW237227   3.369   1.101  17.636 -1.2446 -0.5909 -1.9884
 8590SOL     OW37228   4.426   2.907   2.512  0.8830  0.0513  0.2226
 8590SOL    HW137229   4.409   2.949   2.597 -0.0942 -2.9296  1.5276
 8590SOL    HW237230   4.362   2.943   2.451  0.6264  0.3515  0.6676
 8591SOL     OW37231   4.711   4.520   8.577  0.1845  0.4482 -0.6262
 8591SOL    HW137232   0.036   4.445   8.537  1.1583 -1.5541  4.2664
 8591SOL    HW237233   4.662   4.563   8.506  1.6812  0.4198 -1.6848
 8592SOL     OW37234   0.728   3.185  10.226 -0.1085 -1.3013  0.1006
 8592SOL    HW137235   0.811   3.209  10.269 -0.1452 -1.0072  0.0042
 8592SOL    HW237236   0.700   3.275  10.209  0.0197 -1.0753  1.0650
 8593SOL     OW37237   3.232   0.410   1.109  0.1153 -0.6158  0.5336
 8593SOL    HW137238   3.318   0.446   1.131 -0.0813  0.8621 -1.1697
 8593SOL    HW237239   3.228   0.323   1.151  2.5435 -1.0240 -0.0815
 8594SOL     OW37240   1.026   1.782   2.580 -0.3990  0.0924 -0.4734
 8594SOL    HW137241   1.034   1.844   2.507 -1.7391  1.3996  0.4934
 8594SOL    HW237242   0.951   1.730   2.554  0.1824 -1.2868  0.6069
 8595SOL     OW37243   2.813   4.693   7.314  0.0060 -0.0491 -0.4119
 8595SOL    HW137244   2.890   4.655   7.271  0.1317 -1.8237  1.3764
 8595SOL    HW237245   2.866   4.709   7.393 -0.9314 -0.8101  0.3766
 8596SOL     OW37246   4.608   4.186   9.630  0.4790 -0.0510 -0.2492
 8596SOL    HW137247   4.578   4.276   9.640  0.8865  0.0893 -0.2510
 8596SOL    HW237248   4.527   4.137   9.620  1.1785 -0.9896 -1.3173
 8597SOL     OW37249   0.142   2.511   5.726 -0.0122  0.5952  0.0131
 8597SOL    HW137250   0.085   2.574   5.769 -0.1490 -0.7469  1.7959
 8597SOL    HW237251   0.087   2.500   5.648 -0.6806  0.4408  0.5088
 8598SOL     OW37252   2.942   1.747  10.629  0.1894  0.2578  0.5863
 8598SOL    HW137253   2.908   1.766  10.542  0.7783  0.0455  0.3082
 8598SOL    HW237254   3.017   1.689  10.616  1.4008  1.9912 -0.2238
 8599SOL     OW37255   0.988   2.769   3.161 -0.0951  0.2050 -0.6648
 8599SOL    HW137256   1.050   2.813   3.219 -2.2383 -0.8788  2.4107
 8599SOL    HW237257   0.924   2.731   3.220 -0.4506 -0.6166 -1.5820
 8600SOL     OW37258   0.488   0.794   1.633  0.3126  0.7290  0.0682
 8600SOL    HW137259   0.445   0.877   1.654  1.0483  0.8402  1.1041
 8600SOL    HW237260   0.564   0.831   1.590 -0.6637  1.2197 -1.2172
 8601SOL     OW37261   2.313   1.039   3.244  0.8021 -0.2262  0.0017
 8601SOL    HW137262   2.331   1.086   3.163  1.2670 -1.7524 -0.7773
 8601SOL    HW237263   2.387   0.978   3.251  0.4374 -0.7251 -0.5228
 8602SOL     OW37264   2.099   3.293   9.046  0.1444  0.9308  0.2695
 8602SOL    HW137265   2.074   3.381   9.017  0.9187  1.6997  1.9173
 8602SOL    HW237266   2.144   3.256   8.970  0.7787  0.9535  0.6328
 8603SOL     OW37267   2.558   1.721  13.843 -0.0534  0.1647  0.5671
 8603SOL    HW137268   2.550   1.647  13.904 -1.2584  0.6183  0.9461
 8603SOL    HW237269   2.653   1.730  13.830 -0.2390  2.1352  0.6304
 8604SOL     OW37270   2.814   3.771   4.036  0.4077  0.0508  0.7400
 8604SOL    HW137271   2.793   3.697   3.980 -1.1382 -0.3761  1.8672
 8604SOL    HW237272   2.893   3.809   3.997  0.0848 -0.7768 -0.6804
 8605SOL     OW37273   3.089   4.562  13.318 -0.1362  0.1870  0.4306
 8605SOL    HW137274   3.035   4.612  13.257 -0.2868 -2.1679 -1.3691
 8605SOL    HW237275   3.170   4.542  13.271 -0.7545  0.1263 -0.6234
 8606SOL     OW37276   0.508   3.697   6.839 -0.2733 -0.7633  0.1654
 8606SOL    HW137277   0.504   3.769   6.777  0.2570  2.1175  3.4999
 8606SOL    HW237278   0.588   3.723   6.886 -1.0234  1.4937  0.1720
 8607SOL     OW37279   0.412   4.455   4.830 -0.1687 -0.2720  0.3433
 8607SOL    HW137280   0.322   4.436   4.855 -0.3527  1.2760  0.8758
 8607SOL    HW237281   0.442   4.527   4.885  0.1624  1.1920 -1.7569
 8608SOL     OW37282   0.291   3.668   3.905 -0.1843 -0.3337  0.3181
 8608SOL    HW137283   0.326   3.750   3.870 -1.8702  0.4194  0.4047
 8608SOL    HW237284   0.228   3.701   3.970 -1.6795  0.1849 -1.3779
 8609SOL     OW37285   3.677   0.108  10.072 -0.1210 -0.0157 -0.3775
 8609SOL    HW137286   3.644   0.073   9.989 -0.6177  0.5001 -0.3962
 8609SOL    HW237287   3.653   0.045  10.140 -0.9094 -0.3510 -0.9548
 8610SOL     OW37288   1.502   1.709  12.507  0.0100  0.3652  0.2425
 8610SOL    HW137289   1.474   1.677  12.421  1.3453  1.4013 -0.5749
 8610SOL    HW237290   1.474   1.646  12.573 -1.9857 -1.3347 -2.1847
 8611SOL     OW37291   2.410   0.969   1.979 -0.4910 -0.1792 -0.4839
 8611SOL    HW137292   2.381   0.890   1.934 -0.6668 -0.7131  0.5743
 8611SOL    HW237293   2.503   0.961   1.999 -0.1377 -1.4672 -2.6404
 8612SOL     OW37294   0.574   4.366   9.915 -0.4250 -0.3359 -0.1313
 8612SOL    HW137295   0.530   4.296   9.963 -2.7675 -0.6094 -2.6755
 8612SOL    HW237296   0.516   4.375   9.839 -1.9909  1.6762  1.3105
 8613SOL     OW37297   2.950   1.161   6.422  0.2905 -0.2744  0.5108
 8613SOL    HW137298   2.943   1.194   6.333 -0.2629  1.0325  1.0431
 8613SOL    HW237299   2.898   1.221   6.476  0.6974  0.7262 -0.2189
 8614SOL     OW37300   2.647   4.437   1.284 -0.7207 -0.1499  0.1641
 8614SOL    HW137301   2.741   4.428   1.299 -0.7044  0.4258  0.4231
 8614SOL    HW237302   2.634   4.470   1.195 -0.9272  2.7549  1.2534
 8615SOL     OW37303   1.919   2.851   8.619 -0.2656 -0.1164 -0.0905
 8615SOL    HW137304   1.863   2.923   8.590 -0.9975 -0.2551  1.0030
 8615SOL    HW237305   1.907   2.785   8.552  1.9456  0.4063 -1.0114
 8616SOL     OW37306   0.418   1.993   2.248 -0.3724 -0.6307  0.4495
 8616SOL    HW137307   0.382   2.079   2.270  0.2202 -0.7641  1.8994
 8616SOL    HW237308   0.418   1.952   2.334  1.3533 -1.1378  0.2077
 8617SOL     OW37309   2.145   3.965   6.570  0.2275 -0.1424 -0.2582
 8617SOL    HW137310   2.073   3.956   6.634 -1.2835  1.7609 -1.6937
 8617SOL    HW237311   2.155   4.060   6.569  1.8219 -0.3158 -0.4015
 8618SOL     OW37312   2.101   4.704   9.192  0.4197 -0.4443 -0.1101
 8618SOL    HW137313   2.181   0.018   9.232 -0.8750  2.8035 -0.2237
 8618SOL    HW237314   2.121   4.611   9.198  0.8526 -0.3981 -0.8691
 8619SOL     OW37315   2.411   0.860   7.063 -0.0517  0.1683  0.4161
 8619SOL    HW137316   2.360   0.831   6.987 -1.9769 -0.6683  2.0396
 8619SOL    HW237317   2.348   0.859   7.135 -2.2982  0.2326 -1.5554
 8620SOL     OW37318   2.045   3.910   9.179 -0.6881  0.1327  0.5151
 8620SOL    HW137319   2.008   3.975   9.119 -0.4365  0.4340  0.6890
 8620SOL    HW237320   2.116   3.961   9.217 -0.7854  0.4421  0.2781
 8621SOL     OW37321   0.415   0.476  16.906 -0.4863  0.1444  0.5038
 8621SOL    HW137322   0.431   0.555  16.958 -1.8908  1.8441 -1.6430
 8621SOL    HW237323   0.449   0.411  16.968  0.3173 -0.8918 -1.0298
 8622SOL     OW37324   0.115   3.667   4.414  0.4129  0.0365  0.7627
 8622SOL    HW137325   0.184   3.672   4.480  1.1210  0.0639  0.0229
 8622SOL    HW237326   0.136   3.580   4.380 -1.9499  0.3616 -1.5751
 8623SOL     OW37327   3.611   0.606   7.337 -0.1316  0.5034 -0.4038
 8623SOL    HW137328   3.556   0.539   7.297 -2.6190  1.4651  1.3732
 8623SOL    HW237329   3.699   0.570   7.328 -0.8606 -0.9832 -1.4937
 8624SOL     OW37330   1.880   0.227   8.050 -0.4364 -0.0943 -0.0910
 8624SOL    HW137331   1.971   0.255   8.045 -0.2412 -0.7631 -0.2956
 8624SOL    HW237332   1.845   0.316   8.056  0.8377  0.2431  2.1402
 8625SOL     OW37333   2.734   3.249   2.806 -0.3371 -0.0310  0.0093
 8625SOL    HW137334   2.672   3.289   2.745  1.2577  1.5016 -0.6291
 8625SOL    HW237335   2.785   3.324   2.835 -1.3181 -0.3408  2.4720
 8626SOL     OW37336   1.609   4.229   2.358 -0.2519  0.2376  0.2593
 8626SOL    HW137337   1.557   4.157   2.323 -1.2600  0.7309  0.7327
 8626SOL    HW237338   1.681   4.223   2.295 -0.3546 -1.2966  0.2956
 8627SOL     OW37339   1.803   3.269   6.600 -0.5701 -0.2904  0.0372
 8627SOL    HW137340   1.877   3.320   6.631 -1.5122  0.0051  1.8451
 8627SOL    HW237341   1.809   3.299   6.510  0.9981 -2.4661 -0.5810
 8628SOL     OW37342   1.522   2.494   7.649 -0.0936  0.7947  0.3576
 8628SOL    HW137343   1.581   2.429   7.688 -0.5226  0.0887 -0.1634
 8628SOL    HW237344   1.547   2.475   7.558 -1.0544 -2.2623  0.7037
 8629SOL     OW37345   4.120   3.755   6.746  0.0753 -0.2111 -0.4614
 8629SOL    HW137346   4.040   3.804   6.766 -0.0510 -0.8275  0.5292
 8629SOL    HW237347   4.181   3.827   6.756  3.7313 -2.9777 -3.0785
 8630SOL     OW37348   4.212   1.901   4.987 -0.2328 -0.4513 -0.6558
 8630SOL    HW137349   4.194   1.908   5.081 -0.0126  2.8752 -0.8359
 8630SOL    HW237350   4.218   1.994   4.963  2.1857 -0.0222  1.5432
 8631SOL     OW37351   0.059   2.718   4.627  0.4404 -0.1217  0.0826
 8631SOL    HW137352   4.695   2.744   4.665  0.0985 -1.3496  0.1505
 8631SOL    HW237353   0.113   2.795   4.642  0.1703  0.2499 -0.8181
 8632SOL     OW37354   2.367   4.353   4.280  1.1294 -0.3082 -0.0934
 8632SOL    HW137355   2.430   4.349   4.352 -0.1307 -2.5888  0.8962
 8632SOL    HW237356   2.342   4.444   4.295 -3.5695 -1.2645 -2.2038
 8633SOL     OW37357   2.095   0.694   2.713  0.5658 -0.0123 -0.5776
 8633SOL    HW137358   2.011   0.704   2.758 -0.7642 -0.4319 -2.9528
 8633SOL    HW237359   2.128   0.782   2.696  1.4148 -0.1989  0.0854
 8634SOL     OW37360   3.363   3.716   7.716  0.0317  0.1913 -0.3705
 8634SOL    HW137361   3.305   3.758   7.651 -2.0226 -2.2524 -0.1283
 8634SOL    HW237362   3.441   3.771   7.722  1.2464 -1.6792  0.8322
 8635SOL     OW37363   0.693   0.500   4.038  0.0684  0.1420  0.5906
 8635SOL    HW137364   0.621   0.462   3.987  0.5486 -0.7506  0.5884
 8635SOL    HW237365   0.644   0.557   4.098 -0.7913 -0.6908  0.6840
 8636SOL     OW37366   0.363   1.727   2.945  0.1010 -0.6601  0.5317
 8636SOL    HW137367   0.366   1.814   2.986  1.4515 -0.5458  0.1830
 8636SOL    HW237368   0.403   1.674   3.014 -0.6126 -0.1454  1.3515
 8637SOL     OW37369   0.651   3.606   0.150 -0.1148  0.0909 -0.0392
 8637SOL    HW137370   0.556   3.601   0.156 -0.0138 -0.2637  1.4300
 8637SOL    HW237371   0.649   3.684   0.096 -0.3790 -0.5170 -0.9127
 8638SOL     OW37372   1.578   2.299   9.151 -0.3048 -0.1423  0.0050
 8638SOL    HW137373   1.657   2.287   9.098 -0.6024  1.6330 -0.8420
 8638SOL    HW237374   1.602   2.380   9.196 -0.2037  1.5843 -3.1257
 8639SOL     OW37375   0.516   1.385  17.584 -0.2094  0.1595 -0.3369
 8639SOL    HW137376   0.567   1.310  17.616 -2.4504 -0.5094  1.6593
 8639SOL    HW237377   0.550   1.455  17.640  2.9632 -1.2713 -0.4339
 8640SOL     OW37378   0.592   4.705  13.292 -0.0298 -0.1749  0.6715
 8640SOL    HW137379   0.615   0.052  13.358 -0.3823  1.9636 -1.3250
 8640SOL    HW237380   0.533   0.038  13.237 -0.7306  0.1739  1.7419
 8641SOL     OW37381   1.007   1.898   5.655 -0.0965 -0.5848  0.9767
 8641SOL    HW137382   1.085   1.849   5.628 -0.6804 -0.5782 -0.7331
 8641SOL    HW237383   0.987   1.922   5.565  0.2013  0.2038  1.1249
 8642SOL     OW37384   2.075   4.372  17.679  0.0166 -0.3636  0.1451
 8642SOL    HW137385   2.093   4.359   0.092  0.5642 -2.8272 -0.3030
 8642SOL    HW237386   2.148   4.427  17.651 -0.2184  0.5226  1.2918
 8643SOL     OW37387   1.546   1.929   3.453 -0.5578 -0.0934 -0.3503
 8643SOL    HW137388   1.602   1.996   3.492 -0.7055 -0.1058 -0.1183
 8643SOL    HW237389   1.511   1.966   3.373  0.5275 -0.7772 -1.1418
 8644SOL     OW37390   0.040   1.845  16.159 -0.3200  0.3997 -0.2833
 8644SOL    HW137391   4.675   1.833  16.115  0.2981  0.3318 -1.4576
 8644SOL    HW237392   0.025   1.926  16.208 -0.1007  1.1771 -1.5078
 8645SOL     OW37393   1.805   2.388   4.210  0.0039 -0.0069 -0.0012
 8645SOL    HW137394   1.870   2.458   4.204  2.8359 -2.6226  0.4514
 8645SOL    HW237395   1.749   2.426   4.142 -0.0966  1.1815  0.7531
 8646SOL     OW37396   1.781   2.006   4.046  0.3716 -0.0213 -0.3580
 8646SOL    HW137397   1.774   2.041   3.957  0.2905  1.3093  0.1783
 8646SOL    HW237398   1.876   2.005   4.059  0.3859 -2.7604 -0.6654
 8647SOL     OW37399   4.687   2.803  10.885  0.0568  0.2296 -0.3335
 8647SOL    HW137400   4.666   2.887  10.926 -1.5653 -1.0161  1.3957
 8647SOL    HW237401   4.618   2.787  10.821  0.6666 -1.9987 -0.4099
 8648SOL     OW37402   3.066   3.030   4.547  0.2102 -0.4484 -0.1726
 8648SOL    HW137403   3.008   3.077   4.606  0.0448 -0.2347 -0.5087
 8648SOL    HW237404   3.000   2.974   4.504 -0.8941 -0.0891  1.0596
 8649SOL     OW37405   1.632   3.043   3.582 -0.2635 -0.1903  0.3407
 8649SOL    HW137406   1.646   3.102   3.656  2.9835  0.1845 -0.5988
 8649SOL    HW237407   1.659   2.954   3.606  0.7973 -0.0034 -0.1487
 8650SOL     OW37408   4.026   1.395   5.502 -0.1725  0.0450  0.3332
 8650SOL    HW137409   3.963   1.323   5.497  1.4893 -1.3539 -0.8112
 8650SOL    HW237410   4.018   1.442   5.419 -1.8615  0.4381  0.7232
 8651SOL     OW37411   0.115   4.635   4.975  0.0810  0.0795 -0.3148
 8651SOL    HW137412   0.139   4.543   4.975 -1.1431 -0.2426  0.0433
 8651SOL    HW237413   0.073   4.639   5.061 -2.0784 -1.0978 -1.2949
 8652SOL     OW37414   2.386   3.939   5.011 -0.6117  0.0309 -0.3946
 8652SOL    HW137415   2.435   3.912   5.088 -0.8479  1.1027  0.1297
 8652SOL    HW237416   2.345   3.856   4.986 -0.4243 -0.4316  0.8576
 8653SOL     OW37417   1.332   3.197  10.899 -0.8610 -0.2369 -0.2534
 8653SOL    HW137418   1.243   3.212  10.867 -1.2918 -1.6489  0.2837
 8653SOL    HW237419   1.315   3.196  10.993  0.6006  0.8883  0.0131
 8654SOL     OW37420   3.891   3.705   5.092  0.3559 -0.3860  0.0178
 8654SOL    HW137421   3.950   3.763   5.044 -0.7549  0.0432 -0.8404
 8654SOL    HW237422   3.957   3.683   5.158 -0.3575  0.1189  0.9103
 8655SOL     OW37423   3.087   1.037  10.903 -0.1907 -0.0231  0.8416
 8655SOL    HW137424   3.150   0.975  10.867  0.1275  0.5387  0.4289
 8655SOL    HW237425   3.059   1.097  10.834  1.4073 -0.1444  0.0920
 8656SOL     OW37426   2.108   2.306   7.912  0.3578 -0.2116  0.3985
 8656SOL    HW137427   2.080   2.397   7.918  0.6269 -0.0314 -0.9353
 8656SOL    HW237428   2.161   2.319   7.833  1.8615 -3.4972  0.8458
 8657SOL     OW37429   2.503   0.811  17.381  0.2845 -0.0825 -0.1470
 8657SOL    HW137430   2.531   0.839  17.468 -1.5037  0.5456  0.2084
 8657SOL    HW237431   2.418   0.770  17.394 -0.0064  0.9481  1.1614
 8658SOL     OW37432   2.346   0.566   6.056 -0.0746  0.1335  0.0052
 8658SOL    HW137433   2.333   0.603   6.143 -0.1827 -1.2684  0.5758
 8658SOL    HW237434   2.441   0.564   6.071 -0.1232  0.7678  0.3919
 8659SOL     OW37435   2.457   0.680  12.891 -0.3920  0.3712 -0.0934
 8659SOL    HW137436   2.394   0.749  12.870  0.1445  0.6198 -0.8625
 8659SOL    HW237437   2.540   0.714  12.858  1.2060 -1.6154  1.9082
 8660SOL     OW37438   2.118   0.981   7.137 -0.1827  0.2671  0.6236
 8660SOL    HW137439   2.050   0.985   7.205 -0.2806  0.0588  0.5397
 8660SOL    HW237440   2.197   1.015   7.179  2.0115 -1.2235 -2.3582
 8661SOL     OW37441   0.449   1.048   4.509  0.3328 -0.3040 -0.0227
 8661SOL    HW137442   0.496   0.987   4.451 -0.4291  1.5170 -2.5569
 8661SOL    HW237443   0.383   1.088   4.453 -0.2706 -1.2095  0.0524
 8662SOL     OW37444   0.385   4.231   9.352 -0.1140  0.0408  0.1174
 8662SOL    HW137445   0.304   4.236   9.403  0.2885 -0.0873  0.7714
 8662SOL    HW237446   0.354   4.256   9.265  2.5367 -0.3326 -0.9440
 8663SOL     OW37447   1.676   0.313  11.765  0.4359 -0.3580 -0.1030
 8663SOL    HW137448   1.605   0.339  11.824 -0.1610  0.5031 -1.2003
 8663SOL    HW237449   1.750   0.354  11.811 -0.8017 -1.2975  2.7350
 8664SOL     OW37450   4.190   0.006  16.070  0.2915  0.2270  0.1286
 8664SOL    HW137451   4.196   0.050  15.985 -1.3193 -1.1427 -0.6932
 8664SOL    HW237452   4.099   0.031  16.084 -0.0028 -1.3006  0.9356
 8665SOL     OW37453   2.586   4.436  13.133 -0.5664  0.3094 -0.4669
 8665SOL    HW137454   2.674   4.471  13.147 -0.5423  0.2756 -0.5326
 8665SOL    HW237455   2.547   4.427  13.220 -1.1859  0.4365 -0.7258
 8666SOL     OW37456   0.574   2.702  11.612 -0.5100  0.1739  0.4173
 8666SOL    HW137457   0.627   2.646  11.555 -0.5370  0.2456  0.3229
 8666SOL    HW237458   0.643   2.758  11.648  0.4639 -1.1628  0.6463
 8667SOL     OW37459   3.488   1.172  16.418 -0.5354 -0.3058  0.2816
 8667SOL    HW137460   3.483   1.164  16.323 -2.8905  0.6627  0.3309
 8667SOL    HW237461   3.452   1.084  16.429 -3.0154  0.7707  1.0030
 8668SOL     OW37462   2.496   2.073  11.809  0.9110 -0.3910 -0.4144
 8668SOL    HW137463   2.429   2.137  11.834  0.1269 -0.8771 -1.2594
 8668SOL    HW237464   2.544   2.143  11.766  2.9213 -1.2082  0.5345
 8669SOL     OW37465   1.800   0.171   1.096 -0.2663 -0.3129 -0.2146
 8669SOL    HW137466   1.892   0.188   1.115  0.0099 -0.0185 -1.8617
 8669SOL    HW237467   1.756   0.188   1.179 -0.8828  1.8739 -0.9788
 8670SOL     OW37468   2.908   3.233   9.198 -0.1035  0.5209  0.5747
 8670SOL    HW137469   2.881   3.282   9.276 -0.4237 -0.3198  0.9841
 8670SOL    HW237470   2.999   3.222   9.227 -0.4351 -3.9265 -0.1859
 8671SOL     OW37471   2.089   0.440  12.606 -0.2349 -0.1921  0.2813
 8671SOL    HW137472   2.126   0.518  12.564 -2.2660  0.7279  0.1965
 8671SOL    HW237473   2.143   0.440  12.685 -1.9065  0.6496  1.4348
 8672SOL     OW37474   0.599   1.067   1.277 -0.1848  0.3709 -0.5715
 8672SOL    HW137475   0.670   1.041   1.219 -0.0925 -0.5869 -0.0258
 8672SOL    HW237476   0.597   1.158   1.248 -2.0417  1.3094  2.4953
 8673SOL     OW37477   1.909   3.671  14.837  0.0265  0.4855 -0.8187
 8673SOL    HW137478   1.965   3.635  14.768  2.1176  0.1009  1.0752
 8673SOL    HW237479   1.909   3.766  14.819 -0.9120  1.0976  2.4714
 8674SOL     OW37480   1.695   1.170  10.997 -0.1737  0.2560 -0.3377
 8674SOL    HW137481   1.719   1.252  10.953  0.1094 -0.1164 -0.8676
 8674SOL    HW237482   1.751   1.160  11.074  1.1327  0.3632 -1.2751
 8675SOL     OW37483   2.492   3.706   8.353  0.1310 -0.2906 -0.5727
 8675SOL    HW137484   2.441   3.736   8.278 -1.6998  0.4182  0.9572
 8675SOL    HW237485   2.502   3.788   8.402 -1.8899 -0.1081 -0.4399
 8676SOL     OW37486   0.529   4.130   8.962  0.1571 -0.2455  0.3715
 8676SOL    HW137487   0.495   4.213   8.927  0.5913  0.5536  1.8509
 8676SOL    HW237488   0.583   4.091   8.894 -2.3944 -0.9735 -1.2564
 8677SOL     OW37489   3.123   2.570  12.156  0.2742  0.0358  0.9124
 8677SOL    HW137490   3.194   2.526  12.201  0.9742  1.1866  0.9332
 8677SOL    HW237491   3.142   2.532  12.070  1.0897 -0.6839  1.4188
 8678SOL     OW37492   2.271   0.411   6.968  0.1332  0.0833  0.2155
 8678SOL    HW137493   2.208   0.339   6.969 -0.0883  0.2679 -0.5107
 8678SOL    HW237494   2.289   0.423   6.874  0.0637  1.7152  0.4059
 8679SOL     OW37495   3.749   1.246   3.037  0.4154  0.5277 -0.3511
 8679SOL    HW137496   3.726   1.337   3.056 -0.2440  0.3953 -0.5114
 8679SOL    HW237497   3.711   1.244   2.949  1.2277  0.2737 -0.7024
 8680SOL     OW37498   2.139   3.176   8.439  0.3808  0.8733  0.1306
 8680SOL    HW137499   2.137   3.271   8.445 -1.2591  1.0302 -3.0111
 8680SOL    HW237500   2.214   3.162   8.497 -0.4273  1.1279  1.2423
 8681SOL     OW37501   3.832   4.688   9.019  0.0107  0.1196  0.2273
 8681SOL    HW137502   3.919   0.005   9.002  0.2452  0.0488  1.2890
 8681SOL    HW237503   3.860   4.601   9.050 -1.2891  0.1061  1.3395
 8682SOL     OW37504   3.758   1.787   4.451 -1.0980  0.2758  0.0045
 8682SOL    HW137505   3.841   1.805   4.407 -1.5058 -0.5000 -1.0788
 8682SOL    HW237506   3.748   1.865   4.506  2.3296  1.0784 -0.4780
 8683SOL     OW37507   2.320   1.559   5.059 -0.4436  0.3372  0.2143
 8683SOL    HW137508   2.277   1.534   4.977 -1.7825 -1.7038  1.5280
 8683SOL    HW237509   2.279   1.645   5.070  2.2420  1.6398  0.0665
 8684SOL     OW37510   4.507   2.655   2.582  0.1683 -0.1523 -0.0335
 8684SOL    HW137511   4.458   2.612   2.512  0.6510  2.0220 -1.7156
 8684SOL    HW237512   4.473   2.743   2.570  1.0522 -0.1302 -2.4985
 8685SOL     OW37513   4.418   3.024   6.337  0.1487 -0.4121  0.0206
 8685SOL    HW137514   4.437   3.046   6.428  2.6307  1.9039 -1.0748
 8685SOL    HW237515   4.440   3.108   6.297  1.4379  0.5276  2.7066
 8686SOL     OW37516   4.188   2.784  15.774  0.2369  0.5056 -0.0145
 8686SOL    HW137517   4.181   2.737  15.691 -0.1596  1.5595 -0.5688
 8686SOL    HW237518   4.148   2.727  15.840  0.7404  0.4717  0.2653
 8687SOL     OW37519   1.162   0.046  14.253  0.4091  0.5289 -0.4419
 8687SOL    HW137520   1.250   0.080  14.234  0.8364 -0.2468  0.1253
 8687SOL    HW237521   1.105   0.072  14.181 -1.3197 -1.9452  0.0135
 8688SOL     OW37522   0.243   2.562  12.188 -0.6378  0.6351  0.3451
 8688SOL    HW137523   0.228   2.505  12.264 -1.4421  0.1753 -0.1579
 8688SOL    HW237524   0.155   2.585  12.160 -0.2866  0.6351 -0.7636
 8689SOL     OW37525   0.504   2.056  11.264 -0.0283 -0.6110  0.1972
 8689SOL    HW137526   0.471   2.146  11.262 -2.5894 -1.5394  1.3520
 8689SOL    HW237527   0.553   2.057  11.181  0.3380  0.5440  0.4329
 8690SOL     OW37528   2.760   3.271   4.079  0.8246 -0.3180  0.0970
 8690SOL    HW137529   2.666   3.279   4.066  0.5939 -0.0110  1.9188
 8690SOL    HW237530   2.768   3.308   4.167 -5.2893 -1.5412  1.1482
 8691SOL     OW37531   0.725   4.422   0.971  0.7690 -0.0802  0.2794
 8691SOL    HW137532   0.656   4.436   0.906  0.7419  1.0761  0.5712
 8691SOL    HW237533   0.721   4.508   1.013 -0.0333 -0.4835  1.0247
 8692SOL     OW37534   0.304   3.963  10.230  0.0508 -0.2651  0.3997
 8692SOL    HW137535   0.331   3.928  10.315 -1.5647  0.6721  1.3096
 8692SOL    HW237536   0.238   3.900  10.203  0.4906 -0.8823  0.7770
 8693SOL     OW37537   0.133   2.906   2.509  0.0676  0.4649 -0.0554
 8693SOL    HW137538   0.094   2.925   2.594  3.2086 -1.3542  1.8035
 8693SOL    HW237539   0.224   2.936   2.519  0.5588 -1.1798  0.3662
 8694SOL     OW37540   1.872   4.093   7.115 -0.3956 -0.0984 -0.0005
 8694SOL    HW137541   1.909   4.141   7.040 -1.4614  1.6998  0.6487
 8694SOL    HW237542   1.780   4.091   7.088  0.1210 -3.0167 -1.6667
 8695SOL     OW37543   4.510   0.345  12.315 -0.2236 -0.1739 -0.6814
 8695SOL    HW137544   4.531   0.271  12.373 -0.1597 -0.7358 -1.4235
 8695SOL    HW237545   4.415   0.354  12.319  0.0191  1.5298  1.3858
 8696SOL     OW37546   0.713   2.313   8.999 -0.4121 -0.0538  0.5167
 8696SOL    HW137547   0.654   2.275   9.064  0.1585 -0.3284  0.8798
 8696SOL    HW237548   0.787   2.255   9.015  0.7425  1.7241  1.6151
 8697SOL     OW37549   1.459   0.328   1.006 -0.4382 -0.1168 -0.4010
 8697SOL    HW137550   1.371   0.294   1.018 -1.3461  2.1898 -0.4752
 8697SOL    HW237551   1.487   0.276   0.931 -3.2523 -1.4485 -0.5115
 8698SOL     OW37552   1.162   0.330   7.756 -0.2201 -0.0147  0.2592
 8698SOL    HW137553   1.227   0.261   7.739  0.8546  1.0909 -0.0519
 8698SOL    HW237554   1.118   0.298   7.835 -0.2977 -0.7981 -0.0951
 8699SOL     OW37555   3.501   3.543   1.669 -0.1023  0.0232  0.0211
 8699SOL    HW137556   3.442   3.555   1.594 -1.4097  0.4899  1.1449
 8699SOL    HW237557   3.509   3.635   1.693 -2.4092  0.0957  0.5286
 8700SOL     OW37558   0.793   1.491   6.902  0.6853  0.4609 -0.1013
 8700SOL    HW137559   0.753   1.574   6.875 -1.4418  0.1287  1.9956
 8700SOL    HW237560   0.722   1.429   6.884  0.4044  0.6231  0.4526
 8701SOL     OW37561   1.547   4.227  12.853 -0.2164  0.3889  0.4573
 8701SOL    HW137562   1.533   4.177  12.772  0.4158  1.0653 -0.0669
 8701SOL    HW237563   1.630   4.190  12.882 -0.3045  0.2762  0.5680
 8702SOL     OW37564   2.452   3.047  14.152 -0.2796  0.0263  0.1013
 8702SOL    HW137565   2.383   3.054  14.086 -2.0264  0.4512  1.9878
 8702SOL    HW237566   2.395   3.073  14.224 -2.4022 -2.6127 -0.6208
 8703SOL     OW37567   1.306   2.458  10.073  0.2574 -0.1145  0.0043
 8703SOL    HW137568   1.282   2.531  10.016 -1.3423 -3.0372 -3.1096
 8703SOL    HW237569   1.337   2.398  10.004 -1.9771  0.0464 -1.1360
 8704SOL     OW37570   3.684   2.544   0.383 -0.0452  0.2119  0.0127
 8704SOL    HW137571   3.694   2.621   0.438 -0.1294 -0.1565  0.5458
 8704SOL    HW237572   3.646   2.477   0.440  1.0185  1.1166  1.7951
 8705SOL     OW37573   2.234   1.470   7.812 -0.3252 -0.1343 -0.0235
 8705SOL    HW137574   2.304   1.516   7.857 -0.0986  0.5095 -1.0584
 8705SOL    HW237575   2.162   1.467   7.876 -0.3731  2.0585 -0.0043
 8706SOL     OW37576   0.713   4.276  12.931 -0.1909  0.4031 -0.1936
 8706SOL    HW137577   0.713   4.219  13.008 -0.3289 -0.8981 -1.1646
 8706SOL    HW237578   0.650   4.343  12.960  2.1648  1.4746  2.4870
 8707SOL     OW37579   4.356   0.474  17.518  0.1583 -0.1810  1.0265
 8707SOL    HW137580   4.337   0.472  17.612 -1.5781 -0.3392  0.6720
 8707SOL    HW237581   4.295   0.405  17.492  0.2661 -0.6669  2.0568
 8708SOL     OW37582   4.056   1.984   5.209  0.3272  0.0688 -0.1179
 8708SOL    HW137583   4.030   1.904   5.255  0.0080  0.4170  0.3064
 8708SOL    HW237584   4.086   2.034   5.285  0.5470 -0.0173 -0.1475
 8709SOL     OW37585   2.686   3.695   1.569 -0.0191  0.0691 -0.0709
 8709SOL    HW137586   2.658   3.655   1.651 -1.6320 -0.7597 -1.0137
 8709SOL    HW237587   2.781   3.693   1.576  0.0098  0.4860 -0.3100
 8710SOL     OW37588   1.510   3.527   5.063 -0.3593  0.0039  0.2159
 8710SOL    HW137589   1.573   3.460   5.092  1.5229  0.0647 -3.8025
 8710SOL    HW237590   1.552   3.566   4.986 -0.1778 -1.7509 -0.5763
 8711SOL     OW37591   0.771   1.840  11.179  0.0065  0.3595  0.2374
 8711SOL    HW137592   0.730   1.767  11.227 -1.0543  0.8668  0.1083
 8711SOL    HW237593   0.745   1.817  11.090 -1.9196  0.5060  0.7417
 8712SOL     OW37594   3.758   3.089   2.774  0.0814 -0.1547 -0.6610
 8712SOL    HW137595   3.782   3.037   2.697 -5.0265 -0.9511 -1.6832
 8712SOL    HW237596   3.720   3.019   2.826 -0.8014 -0.3344 -1.5443
 8713SOL     OW37597   2.549   3.477   9.821 -0.1255  0.4206  0.4376
 8713SOL    HW137598   2.554   3.409   9.754  1.3002 -0.5452  1.5112
 8713SOL    HW237599   2.470   3.461   9.873  0.0689 -2.0338 -0.0341
 8714SOL     OW37600   2.550   1.307  16.320  0.2350  0.0914 -0.1030
 8714SOL    HW137601   2.497   1.271  16.390  0.0733  1.1954  0.3511
 8714SOL    HW237602   2.481   1.331  16.258 -1.7239 -3.3217  0.7909
 8715SOL     OW37603   2.072   1.083  13.400 -0.2093 -0.1123 -0.3853
 8715SOL    HW137604   2.162   1.059  13.421 -0.0528  1.3808  0.7038
 8715SOL    HW237605   2.069   1.148  13.329 -1.8805  0.5818  0.2960
 8716SOL     OW37606   1.778   0.150  14.979 -0.0642  0.4637 -0.3000
 8716SOL    HW137607   1.759   0.089  14.907  0.8260 -0.0221 -0.1251
 8716SOL    HW237608   1.871   0.133  14.992 -0.1361 -0.4646 -1.0155
 8717SOL     OW37609   4.133   0.302  17.461  0.1630  0.5110 -0.0391
 8717SOL    HW137610   4.079   0.229  17.490  0.0761  0.1018 -1.2423
 8717SOL    HW237611   4.066   0.370  17.466  0.6621  0.9576  0.7285
 8718SOL     OW37612   0.913   3.929   2.367 -0.1948  0.2599 -0.3304
 8718SOL    HW137613   0.959   3.869   2.308 -0.5172 -0.6116  0.2988
 8718SOL    HW237614   0.952   4.010   2.337  0.9040  0.1609  0.8516
 8719SOL     OW37615   3.478   1.264  13.636  0.2439  0.8436 -0.4355
 8719SOL    HW137616   3.463   1.171  13.653 -0.7174  0.9877 -0.5221
 8719SOL    HW237617   3.495   1.300  13.723  0.7002  0.9152 -0.5501
 8720SOL     OW37618   4.293   3.958   8.130 -0.0553  0.0281  0.4209
 8720SOL    HW137619   4.343   4.033   8.161 -1.5325 -0.0693  3.0442
 8720SOL    HW237620   4.220   4.013   8.105 -0.5910 -1.2681 -0.8506
 8721SOL     OW37621   2.133   1.646   6.809 -0.5409  0.0444 -0.0715
 8721SOL    HW137622   2.146   1.569   6.864 -2.9410  0.4937  1.1362
 8721SOL    HW237623   2.143   1.713   6.876 -0.2807  0.4295 -0.4979
 8722SOL     OW37624   4.234   3.365   4.080 -0.2233  0.0354 -0.1438
 8722SOL    HW137625   4.263   3.396   4.165 -0.0187  1.1202 -0.6164
 8722SOL    HW237626   4.309   3.321   4.040 -1.8435 -0.9154 -2.1929
 8723SOL     OW37627   1.071   1.493   3.517 -0.2090 -0.0478 -0.0099
 8723SOL    HW137628   0.979   1.467   3.528  0.4428 -3.1444 -1.7132
 8723SOL    HW237629   1.100   1.443   3.440  0.8564 -0.0632  0.4117
 8724SOL     OW37630   4.014   3.122  17.364  0.0570 -0.1252 -0.2600
 8724SOL    HW137631   4.099   3.159  17.338 -0.5967  0.3409 -1.7442
 8724SOL    HW237632   4.023   3.027  17.351  1.0745 -0.0237 -0.3155
 8725SOL     OW37633   3.392   1.732   3.216 -0.5832 -0.0643  0.1642
 8725SOL    HW137634   3.328   1.783   3.166  1.4012  0.5520 -1.7696
 8725SOL    HW237635   3.360   1.642   3.213  1.0692 -0.6180 -0.6445
 8726SOL     OW37636   0.323   1.638  11.667 -0.1419 -0.0823 -0.5124
 8726SOL    HW137637   0.269   1.604  11.738 -0.6354 -1.0457 -1.3408
 8726SOL    HW237638   0.302   1.731  11.670  0.3402  0.0054  0.3116
 8727SOL     OW37639   1.349   2.020   6.876  0.6231 -0.0045 -0.0869
 8727SOL    HW137640   1.368   1.940   6.924  2.6576  1.0696  0.8837
 8727SOL    HW237641   1.396   2.006   6.794  2.3364 -1.4387  1.1390
 8728SOL     OW37642   1.886   3.595   8.077  0.3131  0.2047 -0.9080
 8728SOL    HW137643   1.935   3.675   8.097 -1.1343  0.8722 -0.0277
 8728SOL    HW237644   1.798   3.633   8.085 -0.9153 -2.5682 -1.4076
 8729SOL     OW37645   1.970   2.534  11.013 -0.5798  0.0970  0.2301
 8729SOL    HW137646   1.994   2.441  11.007  1.0532  0.4476  1.3574
 8729SOL    HW237647   1.881   2.519  11.043 -0.9516 -1.4465 -1.6957
 8730SOL     OW37648   3.581   0.962   6.545  0.4062 -0.0774  0.1509
 8730SOL    HW137649   3.502   1.015   6.555  0.7293  0.7973 -1.8289
 8730SOL    HW237650   3.619   0.987   6.460  0.4934 -2.9390 -0.6450
 8731SOL     OW37651   4.236   2.605  13.142 -0.3144 -0.1542 -0.1695
 8731SOL    HW137652   4.319   2.558  13.138  0.2490  0.5964  3.0948
 8731SOL    HW237653   4.204   2.600  13.052  0.5216 -2.6883 -0.3244
 8732SOL     OW37654   3.243   4.454   3.371 -0.0519  0.2111  0.6622
 8732SOL    HW137655   3.230   4.386   3.437 -1.8418 -1.5873 -1.5495
 8732SOL    HW237656   3.275   4.398   3.300  1.4156 -0.7952  2.1220
 8733SOL     OW37657   1.380   0.164  14.165 -0.1700 -0.6726 -0.1895
 8733SOL    HW137658   1.363   0.249  14.206 -1.1387 -1.1537  0.4171
 8733SOL    HW237659   1.468   0.179  14.132 -0.3963 -0.8324 -0.8673
 8734SOL     OW37660   1.821   3.195  11.238  0.5121  0.5140  0.2442
 8734SOL    HW137661   1.881   3.123  11.220 -0.7799 -0.0685 -1.7871
 8734SOL    HW237662   1.764   3.159  11.307  0.2304 -1.5142 -1.0371
 8735SOL     OW37663   0.290   1.870   4.813 -0.3733  0.0524 -0.3923
 8735SOL    HW137664   0.320   1.824   4.734  0.4420  0.3686 -0.2597
 8735SOL    HW237665   0.256   1.792   4.857  1.5373  0.5539  1.9835
 8736SOL     OW37666   0.881   2.400   2.685  0.2001 -0.2867 -0.0978
 8736SOL    HW137667   0.855   2.492   2.682  0.1405 -0.2768  0.7910
 8736SOL    HW237668   0.796   2.357   2.694  0.4045 -0.4951  0.8952
 8737SOL     OW37669   1.839   0.268   6.838  0.1406  0.0829 -0.0051
 8737SOL    HW137670   1.864   0.346   6.886 -0.7838  0.4174 -0.0664
 8737SOL    HW237671   1.926   0.243   6.807  0.1188 -2.1584  1.7025
 8738SOL     OW37672   1.891   2.273   8.652 -0.0138 -0.3790 -0.2711
 8738SOL    HW137673   1.809   2.321   8.663  0.6677  0.3709  1.5466
 8738SOL    HW237674   1.860   2.183   8.645 -0.4323 -0.4840  2.8910
 8739SOL     OW37675   1.003   3.009   8.623  0.2709  0.3635 -0.1073
 8739SOL    HW137676   0.970   2.928   8.660  3.9714 -0.6870  0.8901
 8739SOL    HW237677   1.002   2.995   8.528 -0.0199  0.0190 -0.0495
 8740SOL     OW37678   1.973   3.541   0.699 -0.0803  0.3939 -0.5972
 8740SOL    HW137679   1.907   3.575   0.760  0.6146 -0.9886  0.9310
 8740SOL    HW237680   1.986   3.452   0.731 -2.4416  0.5472  0.7792
 8741SOL     OW37681   3.315   1.063   2.144  0.2639  0.0837 -0.0877
 8741SOL    HW137682   3.258   1.122   2.193  0.4993 -1.7432  2.3608
 8741SOL    HW237683   3.324   0.993   2.209 -1.1752  0.4601  0.5235
 8742SOL     OW37684   3.601   0.151  15.509 -0.3726  0.6182  0.3324
 8742SOL    HW137685   3.598   0.067  15.464 -2.2480 -0.1216  1.8380
 8742SOL    HW237686   3.530   0.143  15.572  0.2374 -1.2120  0.7827
 8743SOL     OW37687   3.105   3.009   4.045 -0.2039  0.3151 -0.0396
 8743SOL    HW137688   3.060   3.078   3.996 -0.8789  0.9748  1.5043
 8743SOL    HW237689   3.145   2.957   3.975 -0.9871 -0.7270  0.2885
 8744SOL     OW37690   4.683   0.926  13.155  0.0894  0.2270 -0.4315
 8744SOL    HW137691   4.590   0.930  13.179  0.1604 -1.5214  0.1348
 8744SOL    HW237692   4.712   0.841  13.189  0.4137  1.7701  3.1199
 8745SOL     OW37693   3.619   1.987  10.880  0.6394  0.1724  0.2977
 8745SOL    HW137694   3.597   2.080  10.874  2.2624  0.5362  0.0213
 8745SOL    HW237695   3.711   1.983  10.906  1.0450 -0.2226 -1.1939
 8746SOL     OW37696   2.637   0.243   4.688  0.1556 -0.0190 -0.0345
 8746SOL    HW137697   2.710   0.300   4.664  0.1972 -0.0002  0.1323
 8746SOL    HW237698   2.580   0.285   4.752  1.3285  1.5610 -0.0207
 8747SOL     OW37699   2.896   2.873   6.282  0.1764 -0.5918 -0.2779
 8747SOL    HW137700   2.836   2.891   6.355  0.5331  0.9863 -0.3771
 8747SOL    HW237701   2.928   2.788   6.311 -2.5386 -0.6940  2.4102
 8748SOL     OW37702   4.083   1.735  13.839  0.2199  0.6543 -0.3872
 8748SOL    HW137703   4.132   1.702  13.764  2.7959  1.5444  0.8926
 8748SOL    HW237704   4.085   1.658  13.897  1.6277  0.7641 -0.2989
 8749SOL     OW37705   4.699   4.001   6.488  0.0842  0.1675 -0.0314
 8749SOL    HW137706   0.029   4.079   6.513 -1.1365  0.9415 -0.0688
 8749SOL    HW237707   4.631   4.042   6.434  0.3435  2.3408  1.3067
 8750SOL     OW37708   0.071   2.412  11.388 -0.5561  0.1436 -0.2373
 8750SOL    HW137709   4.700   2.404  11.358 -0.2745  0.2393 -1.0843
 8750SOL    HW237710   0.086   2.502  11.359  1.9300 -0.6133 -1.2838
 8751SOL     OW37711   2.157   2.642   3.304  0.1228 -0.2770 -0.3994
 8751SOL    HW137712   2.220   2.598   3.360 -1.1702  1.4933  2.4695
 8751SOL    HW237713   2.154   2.586   3.226  0.0679 -0.8510  0.0141
 8752SOL     OW37714   2.193   2.387   5.213 -0.0057  0.1328 -0.2723
 8752SOL    HW137715   2.128   2.449   5.245  0.6406  0.8552 -0.3659
 8752SOL    HW237716   2.190   2.412   5.121 -0.6442  0.7820 -0.0678
 8753SOL     OW37717   2.302   2.798   2.836  0.3570  0.0121 -0.0325
 8753SOL    HW137718   2.265   2.710   2.836  0.4983 -0.0488 -0.6040
 8753SOL    HW237719   2.297   2.813   2.930 -2.4858  1.4588 -0.4163
 8754SOL     OW37720   3.930   3.218   7.410  0.6552  0.7068  0.2314
 8754SOL    HW137721   3.955   3.154   7.477  2.4294 -0.3240 -1.4055
 8754SOL    HW237722   3.849   3.192   7.365  2.2579 -3.0374 -0.4792
 8755SOL     OW37723   1.239   1.270   4.992  0.7153  0.2539  0.3194
 8755SOL    HW137724   1.254   1.323   5.070  2.8172  0.9091 -0.5222
 8755SOL    HW237725   1.306   1.202   4.999  0.1248 -0.3900 -0.2684
 8756SOL     OW37726   0.712   2.072   7.109  0.2314  0.5327 -0.2022
 8756SOL    HW137727   0.750   1.986   7.094  0.1107  0.2600  0.9828
 8756SOL    HW237728   0.730   2.077   7.203  4.6192  1.0854 -1.0731
 8757SOL     OW37729   1.219   2.876   7.720  0.2860 -0.0376 -0.3806
 8757SOL    HW137730   1.239   2.820   7.795 -3.2384 -1.0835 -0.2596
 8757SOL    HW237731   1.306   2.877   7.678 -0.2027  0.5889 -1.3824
 8758SOL     OW37732   2.062   3.797   2.922 -0.4700 -1.0232 -0.4230
 8758SOL    HW137733   1.980   3.846   2.927 -0.0545  0.0115 -3.3733
 8758SOL    HW237734   2.031   3.713   2.955  0.6972 -1.1088  0.4731
 8759SOL     OW37735   4.111   4.460  10.763  0.3509 -0.8283 -0.2604
 8759SOL    HW137736   4.060   4.509  10.698  0.9150  0.1927  0.0531
 8759SOL    HW237737   4.135   4.530  10.825 -0.7271 -1.6623  1.1029
 8760SOL     OW37738   2.186   0.329   4.489  0.5315  0.0945  0.8292
 8760SOL    HW137739   2.226   0.351   4.573 -2.3354  0.2895  2.1379
 8760SOL    HW237740   2.097   0.353   4.514 -0.5363 -3.8448  0.8199
 8761SOL     OW37741   0.349   4.226   7.499  0.2057  0.2459  0.1203
 8761SOL    HW137742   0.428   4.174   7.514  2.6414  3.6124 -1.0447
 8761SOL    HW237743   0.392   4.309   7.482 -1.0759  0.6550 -1.0470
 8762SOL     OW37744   3.941   2.881  11.834  0.1774  0.1671 -0.0089
 8762SOL    HW137745   3.953   2.788  11.853 -1.1442  0.0502  0.2587
 8762SOL    HW237746   3.902   2.879  11.747 -0.3176  5.1530  0.0607
 8763SOL     OW37747   0.049   0.216  14.713  0.1400  0.2180 -0.0103
 8763SOL    HW137748   0.044   0.161  14.635 -1.2595  0.0675  0.1796
 8763SOL    HW237749   4.681   0.254  14.724  0.1360  0.6348 -1.5298
 8764SOL     OW37750   3.445   0.881   7.772 -0.4340 -0.2579 -0.3856
 8764SOL    HW137751   3.411   0.910   7.688 -0.6394 -2.6585 -1.1038
 8764SOL    HW237752   3.386   0.808   7.787  0.8090 -1.4449 -1.3257
 8765SOL     OW37753   3.636   4.081  10.356 -0.4248 -0.2458  0.0180
 8765SOL    HW137754   3.604   4.140  10.288  2.7195  0.4952 -0.8470
 8765SOL    HW237755   3.575   4.106  10.425 -0.4726 -1.5971  0.4571
 8766SOL     OW37756   4.325   1.162   3.110  0.3828 -0.2122  0.3020
 8766SOL    HW137757   4.405   1.173   3.059  0.9377 -1.5756  0.8791
 8766SOL    HW237758   4.287   1.245   3.081 -0.5662  0.0109  2.2104
 8767SOL     OW37759   0.677   1.438   7.563 -0.0442  0.4827 -0.5804
 8767SOL    HW137760   0.607   1.437   7.497  1.6225  1.5633 -2.3658
 8767SOL    HW237761   0.628   1.491   7.626 -1.3920  1.6932 -2.6392
 8768SOL     OW37762   1.544   3.832   2.857 -0.0270 -0.2914  0.1220
 8768SOL    HW137763   1.570   3.761   2.798  0.7403 -0.3255  0.5045
 8768SOL    HW237764   1.579   3.903   2.803 -1.5073 -1.3898 -2.3061
 8769SOL     OW37765   4.429   2.673   7.284 -0.1784  0.6908 -0.1755
 8769SOL    HW137766   4.477   2.649   7.364 -1.1034  0.3801  0.2788
 8769SOL    HW237767   4.415   2.587   7.244  2.9715  0.3351 -0.5767
 8770SOL     OW37768   2.442   2.464  11.369  0.2976 -0.4331  0.1055
 8770SOL    HW137769   2.514   2.402  11.361  2.2530  2.0333 -1.3676
 8770SOL    HW237770   2.359   2.416  11.379 -0.4937  0.7070 -0.9172
 8771SOL     OW37771   0.870   2.913   5.546 -0.2653 -0.0273 -0.1201
 8771SOL    HW137772   0.774   2.916   5.551 -0.1561  2.9986  0.2483
 8771SOL    HW237773   0.887   2.837   5.602  0.4125 -1.9104 -2.8810
 8772SOL     OW37774   3.145   3.432   7.327 -0.3973  0.7632  0.9826
 8772SOL    HW137775   3.238   3.426   7.346 -0.4324  1.8244  1.4732
 8772SOL    HW237776   3.114   3.470   7.409 -0.2413 -1.0011  1.8557
 8773SOL     OW37777   1.605   2.534  13.170 -0.5118  0.3963 -0.1886
 8773SOL    HW137778   1.511   2.526  13.153 -0.8277  0.7712  1.3221
 8773SOL    HW237779   1.606   2.594  13.245  1.0848 -0.3989  0.4268
 8774SOL     OW37780   3.104   0.454  12.569  0.3335 -0.3968 -0.1915
 8774SOL    HW137781   3.155   0.417  12.640  0.1531  0.8015  0.5525
 8774SOL    HW237782   3.174   0.446  12.504 -0.1600  0.1188 -0.7924
 8775SOL     OW37783   2.153   1.588   0.160 -0.0927 -0.7688  0.8055
 8775SOL    HW137784   2.234   1.550   0.193 -1.6056 -2.8184  2.1549
 8775SOL    HW237785   2.184   1.639   0.085  0.8063  0.5512  2.0934
 8776SOL     OW37786   1.941   3.296  11.453  0.0442  0.2579  0.2182
 8776SOL    HW137787   1.886   3.263  11.382 -0.3048  1.1688  0.0623
 8776SOL    HW237788   1.877   3.351  11.499 -1.0575 -2.2805  1.7681
 8777SOL     OW37789   1.786   1.747   6.906  0.1761  0.2201 -0.6252
 8777SOL    HW137790   1.822   1.736   6.994 -0.0412 -0.0254 -0.5680
 8777SOL    HW237791   1.833   1.821   6.867  0.5637  1.5643  2.4199
 8778SOL     OW37792   2.457   1.949   8.377  0.1719  0.4681  0.2624
 8778SOL    HW137793   2.445   1.854   8.369 -0.5138  0.6499 -0.7700
 8778SOL    HW237794   2.442   1.983   8.289 -2.9720  2.4441  1.5670
 8779SOL     OW37795   1.781   4.708   2.552  0.0424  0.2157  0.4854
 8779SOL    HW137796   1.795   0.013   2.460  2.6528 -1.7756  0.3762
 8779SOL    HW237797   1.809   4.617   2.549 -1.5892 -0.3066  1.2385
 8780SOL     OW37798   2.313   2.341   4.087 -0.2374 -0.1734 -0.2295
 8780SOL    HW137799   2.276   2.342   4.175  0.5993 -1.1722  0.1301
 8780SOL    HW237800   2.381   2.274   4.080  1.3624  1.3041  1.4636
 8781SOL     OW37801   3.756   2.594   5.566  0.2551 -0.3651 -0.1731
 8781SOL    HW137802   3.849   2.610   5.553  0.2655 -0.3477 -0.0758
 8781SOL    HW237803   3.753   2.511   5.614 -0.7153 -1.5836 -2.3222
 8782SOL     OW37804   3.007   2.426   3.428  0.2189 -0.2808  0.4495
 8782SOL    HW137805   2.998   2.332   3.416 -0.7156 -0.1536  0.1371
 8782SOL    HW237806   2.942   2.446   3.495  0.2148  0.5295  0.2026
 8783SOL     OW37807   1.651   4.537   5.958  0.4151 -0.4115  0.1231
 8783SOL    HW137808   1.690   4.516   6.043 -0.4178  1.6892  1.0366
 8783SOL    HW237809   1.586   4.602   5.985  1.9203  1.1764 -0.1220
 8784SOL     OW37810   3.523   1.182   4.170  0.1126 -0.4819 -0.4367
 8784SOL    HW137811   3.473   1.196   4.089 -0.5172 -4.6568 -0.7480
 8784SOL    HW237812   3.453   1.134   4.214 -0.3952  1.8300  1.2991
 8785SOL     OW37813   2.748   2.562   3.139 -0.2389  0.1823 -0.6541
 8785SOL    HW137814   2.719   2.476   3.109  1.1150 -0.7759  0.8023
 8785SOL    HW237815   2.842   2.562   3.123  0.3488 -0.0547  2.9234
 8786SOL     OW37816   3.526   2.458   5.854  0.0493 -0.3792  0.6629
 8786SOL    HW137817   3.552   2.525   5.917  1.5173  1.0800 -1.4921
 8786SOL    HW237818   3.495   2.388   5.912 -2.4380 -0.4119 -0.7303
 8787SOL     OW37819   0.257   3.051   7.213  0.0001  0.0573  0.2232
 8787SOL    HW137820   0.321   3.095   7.270 -1.6526 -2.1876  3.7539
 8787SOL    HW237821   0.315   3.020   7.144 -1.7468 -0.3630 -1.0526
 8788SOL     OW37822   3.109   2.236   2.356  0.3634  0.3695  0.1780
 8788SOL    HW137823   3.092   2.179   2.280  3.3210 -0.7985  0.3951
 8788SOL    HW237824   3.204   2.234   2.343  0.2825  0.3479 -0.4198
 8789SOL     OW37825   1.895   3.905  14.359  0.1522  0.4660  0.1587
 8789SOL    HW137826   1.801   3.900  14.346  0.3162  2.4625 -1.7201
 8789SOL    HW237827   1.892   3.988  14.406  1.2321 -0.3389  1.6632
 8790SOL     OW37828   4.048   2.252   4.461  0.6717  0.2412 -0.4906
 8790SOL    HW137829   4.015   2.327   4.510  2.2660  0.6953 -0.1060
 8790SOL    HW237830   3.996   2.268   4.383  1.2949 -1.3526 -1.2463
 8791SOL     OW37831   0.691   3.495  14.255  0.0958  0.1568 -0.0593
 8791SOL    HW137832   0.626   3.441  14.210  0.2969 -1.0256  1.0972
 8791SOL    HW237833   0.695   3.464  14.345  0.2321 -1.6996 -0.7019
 8792SOL     OW37834   2.537   3.508   1.186 -0.1062 -0.5473 -1.0010
 8792SOL    HW137835   2.452   3.468   1.207 -1.4845  2.0185 -1.7356
 8792SOL    HW237836   2.575   3.428   1.150 -1.7680 -2.4518  1.4398
 8793SOL     OW37837   1.222   2.661   7.947 -0.1178  0.5135  0.0462
 8793SOL    HW137838   1.314   2.639   7.928 -0.4276  0.1489 -1.0510
 8793SOL    HW237839   1.217   2.622   8.034  1.7607 -0.4256 -0.2665
 8794SOL     OW37840   3.412   3.789   4.061 -0.0168  0.5578 -0.2142
 8794SOL    HW137841   3.417   3.757   4.151  0.9281  1.4656  0.0563
 8794SOL    HW237842   3.421   3.709   4.010 -0.0004  0.3844  0.0591
 8795SOL     OW37843   3.967   2.370   0.313 -0.4274  0.0903 -0.1655
 8795SOL    HW137844   3.956   2.282   0.350  1.4671 -0.7197 -1.5605
 8795SOL    HW237845   3.985   2.429   0.386 -0.3139  0.3136 -0.3755
 8796SOL     OW37846   0.579   3.679  14.473 -0.6895  0.1000 -0.3769
 8796SOL    HW137847   0.491   3.712  14.453 -0.4928  0.1378 -1.1655
 8796SOL    HW237848   0.564   3.603  14.530 -0.9705  0.3097 -0.1665
 8797SOL     OW37849   0.119   0.361   6.778  0.5937  0.3873  0.0573
 8797SOL    HW137850   0.115   0.405   6.863  2.9747 -0.0353  0.4044
 8797SOL    HW237851   0.108   0.272   6.810  0.3725  0.7542  0.9861
 8798SOL     OW37852   1.245   3.972   2.996  0.8916  0.2867 -0.2762
 8798SOL    HW137853   1.151   3.979   3.013  1.0256 -2.7427  1.7281
 8798SOL    HW237854   1.276   4.021   3.072  2.2173 -1.7233  0.4976
 8799SOL     OW37855   1.777   2.307   2.863 -0.4247  0.4859  0.1503
 8799SOL    HW137856   1.764   2.353   2.780 -1.7706 -1.8195 -0.9012
 8799SOL    HW237857   1.832   2.367   2.915 -1.1167  1.5372 -0.3351
 8800SOL     OW37858   3.305   2.132  12.489 -0.2063 -0.2045  0.1377
 8800SOL    HW137859   3.318   2.046  12.449 -2.7481 -0.2661 -0.5447
 8800SOL    HW237860   3.388   2.179  12.483  0.0433 -0.2933  2.6441
 8801SOL     OW37861   3.077   1.159  10.504  0.0005  0.3680 -0.4849
 8801SOL    HW137862   3.026   1.178  10.583 -0.0760  0.6055 -0.5896
 8801SOL    HW237863   3.155   1.113  10.534 -0.0239  1.1664  0.8156
 8802SOL     OW37864   2.937   2.148  16.680 -0.2583 -0.1383 -0.0357
 8802SOL    HW137865   2.886   2.101  16.614 -0.8216 -0.3097  0.5185
 8802SOL    HW237866   2.920   2.234  16.641 -1.1054  0.9570  2.7459
 8803SOL     OW37867   3.015   3.800   8.078 -0.0872  0.6142 -0.2347
 8803SOL    HW137868   3.017   3.710   8.046 -1.5380 -0.3426  2.4190
 8803SOL    HW237869   2.932   3.801   8.125  1.0415 -1.8842  1.7681
 8804SOL     OW37870   2.944   0.884   5.228  0.6015 -0.1028  0.2288
 8804SOL    HW137871   2.913   0.892   5.138  3.1044  1.6781 -0.4815
 8804SOL    HW237872   2.899   0.957   5.270 -1.1640 -1.1074  0.0804
 8805SOL     OW37873   0.133   3.971  14.955 -0.4558 -0.2671  0.6511
 8805SOL    HW137874   0.226   3.964  14.976  0.2921  0.7949 -2.3560
 8805SOL    HW237875   0.112   4.064  14.946 -2.2877 -0.6291  1.0378
 8806SOL     OW37876   0.434   0.448  10.778 -0.0579  0.2242 -0.3227
 8806SOL    HW137877   0.504   0.508  10.804 -0.6707  0.2270  1.3615
 8806SOL    HW237878   0.418   0.412  10.866  2.3929 -1.5651 -0.6244
 8807SOL     OW37879   1.022   0.899   8.469 -0.3597 -0.1036 -0.2581
 8807SOL    HW137880   1.091   0.914   8.533 -0.5020 -0.2053 -0.0821
 8807SOL    HW237881   1.057   0.951   8.396  0.4699 -1.5754 -0.9080
 8808SOL     OW37882   0.443   2.241   2.535 -0.4688  0.0146  0.0311
 8808SOL    HW137883   0.349   2.251   2.547 -0.0849  1.9675  1.2774
 8808SOL    HW237884   0.439   2.258   2.441  1.3633  2.4799  0.4042
 8809SOL     OW37885   0.281   3.430   9.902 -0.5621 -0.1426 -0.7626
 8809SOL    HW137886   0.342   3.357   9.909 -1.3428 -0.7795 -0.5666
 8809SOL    HW237887   0.327   3.483   9.837 -1.5967  0.3109 -1.1198
 8810SOL     OW37888   4.369   2.032   9.532 -0.1337 -0.0512  0.5978
 8810SOL    HW137889   4.378   2.067   9.621  0.5181  0.7976  0.2027
 8810SOL    HW237890   4.275   2.016   9.537 -0.4310  1.4022 -0.3394
 8811SOL     OW37891   2.030   0.255   7.075 -0.8852  0.3508 -0.2692
 8811SOL    HW137892   2.066   0.262   7.163 -0.4740  2.8551 -0.6509
 8811SOL    HW237893   1.950   0.305   7.087 -0.3512  1.2097 -0.3249
 8812SOL     OW37894   0.696   1.520   8.571  0.2671  0.4606  0.4538
 8812SOL    HW137895   0.630   1.471   8.620  1.0024 -0.9325  0.0368
 8812SOL    HW237896   0.705   1.476   8.487 -0.2356  0.9806  0.1241
 8813SOL     OW37897   0.367   1.423  17.350 -0.1003  0.0095 -0.0298
 8813SOL    HW137898   0.434   1.372  17.305 -0.2153 -0.1297 -0.0456
 8813SOL    HW237899   0.409   1.411  17.435 -1.5432  0.7308  0.7803
 8814SOL     OW37900   4.374   3.565  17.595 -0.1861 -0.2576  0.0419
 8814SOL    HW137901   4.359   3.532  17.506 -1.2703  0.6032 -0.1026
 8814SOL    HW237902   4.319   3.644  17.594 -1.3858 -1.0741  1.2197
 8815SOL     OW37903   1.253   3.612   9.311  0.3147  0.2958 -0.0427
 8815SOL    HW137904   1.312   3.687   9.309 -1.0548  1.3643 -0.1903
 8815SOL    HW237905   1.233   3.603   9.404 -0.8749  2.0811 -0.1279
 8816SOL     OW37906   3.881   2.415   9.255 -0.1989  0.1310 -0.8505
 8816SOL    HW137907   3.928   2.380   9.330 -0.4403  0.6185 -0.4692
 8816SOL    HW237908   3.823   2.475   9.302  1.2667 -0.2392  1.4107
 8817SOL     OW37909   4.032   0.782   5.693  0.0065 -0.0660 -0.0179
 8817SOL    HW137910   4.030   0.687   5.701  1.1378 -0.0889 -0.0506
 8817SOL    HW237911   3.966   0.798   5.760  0.7078  0.3694  0.5563
 8818SOL     OW37912   2.299   0.670  17.464 -0.6181 -0.6677 -0.2345
 8818SOL    HW137913   2.249   0.698  17.540  2.0744  0.4139  1.0973
 8818SOL    HW237914   2.274   0.578  17.455  0.2764 -1.0564  1.4367
 8819SOL     OW37915   0.934   1.969   7.562 -0.8344 -0.8621  0.2143
 8819SOL    HW137916   0.952   1.910   7.636 -1.9023 -1.2498  0.1705
 8819SOL    HW237917   1.019   1.968   7.518 -0.4744  0.9184  0.8868
 8820SOL     OW37918   4.365   4.522   6.576  0.1239 -0.0824 -0.6434
 8820SOL    HW137919   4.401   4.461   6.640  0.1595  1.5103  0.8571
 8820SOL    HW237920   4.315   4.588   6.623  1.1503  0.9564 -1.0295
 8821SOL     OW37921   3.788   3.596   3.764 -0.2080  0.3462  0.4144
 8821SOL    HW137922   3.820   3.522   3.815 -3.3214 -1.2653 -0.0207
 8821SOL    HW237923   3.827   3.579   3.678  0.3995  0.6280  0.6277
 8822SOL     OW37924   3.667   3.602   2.022 -0.0483  0.0218 -0.1988
 8822SOL    HW137925   3.708   3.643   2.097  1.1126 -0.5078 -0.5530
 8822SOL    HW237926   3.597   3.666   2.007 -1.3713 -1.0510  1.4250
 8823SOL     OW37927   2.421   3.714   1.497 -1.0373  0.4448 -0.5044
 8823SOL    HW137928   2.509   3.721   1.535 -0.6026  3.0517 -1.9500
 8823SOL    HW237929   2.431   3.652   1.425 -1.6929 -1.0361  0.6859
 8824SOL     OW37930   3.643   2.236   3.046 -0.2204 -0.0694  0.1033
 8824SOL    HW137931   3.634   2.298   2.974 -0.4249  1.1955  1.2028
 8824SOL    HW237932   3.611   2.153   3.011  0.1520  0.8118 -2.2887
 8825SOL     OW37933   3.690   2.987   4.355  0.1063  0.0366 -0.3106
 8825SOL    HW137934   3.769   2.990   4.301 -0.0489 -1.5856 -0.6330
 8825SOL    HW237935   3.702   3.059   4.416 -1.8461 -1.3746  1.7378
 8826SOL     OW37936   1.920   0.836  13.769  0.0195 -0.0202 -0.2762
 8826SOL    HW137937   1.846   0.836  13.707 -0.0137  1.2801 -0.2321
 8826SOL    HW237938   1.990   0.873  13.716  0.0136  1.7197  0.9527
 8827SOL     OW37939   1.488   0.233   8.065  0.0327  0.3596 -0.1370
 8827SOL    HW137940   1.508   0.263   8.153  0.6421 -1.5934  0.3906
 8827SOL    HW237941   1.474   0.320   8.027  0.4054 -0.0059 -1.1186
 8828SOL     OW37942   3.577   1.445  15.091  0.4903  1.1590 -1.0307
 8828SOL    HW137943   3.522   1.385  15.140  0.5760  0.8700 -1.2851
 8828SOL    HW237944   3.587   1.404  15.005 -0.7160  0.3058 -0.7719
 8829SOL     OW37945   0.020   1.633   0.575  0.2528 -0.1911 -0.2848
 8829SOL    HW137946   4.702   1.666   0.657  0.5023  1.4579 -0.8510
 8829SOL    HW237947   4.697   1.547   0.565 -0.2574  0.2503 -1.8307
 8830SOL     OW37948   2.782   1.803   3.019  0.1337 -0.2745  0.0152
 8830SOL    HW137949   2.744   1.891   3.012 -0.4076 -0.4123  1.2017
 8830SOL    HW237950   2.704   1.751   3.003  0.9088 -0.5036 -3.1210
 8831SOL     OW37951   3.410   2.564   1.739  0.1400 -0.4405  0.1113
 8831SOL    HW137952   3.410   2.594   1.830  0.0005 -1.6382  0.5012
 8831SOL    HW237953   3.363   2.633   1.692  0.7867 -0.4251 -0.5319
 8832SOL     OW37954   0.717   4.035   6.321  0.3296  0.6297  0.3884
 8832SOL    HW137955   0.778   4.089   6.370  0.5984 -0.2820  1.0712
 8832SOL    HW237956   0.663   4.105   6.286 -0.4058 -0.3326 -0.4275
 8833SOL     OW37957   3.944   3.115   6.424  0.8870 -0.8442 -0.4252
 8833SOL    HW137958   3.896   3.058   6.364  0.7184 -0.5410 -0.5797
 8833SOL    HW237959   3.871   3.156   6.472  1.3565 -1.1041  0.5157
 8834SOL     OW37960   4.078   2.200   6.571  0.6901 -0.1875 -0.0250
 8834SOL    HW137961   4.106   2.227   6.659  0.8285 -1.0047  0.1869
 8834SOL    HW237962   4.147   2.137   6.550  0.8196  0.2247 -0.8242
 8835SOL     OW37963   3.375   0.850   0.425  0.3018  0.5772 -0.2023
 8835SOL    HW137964   3.462   0.844   0.385  0.0266 -2.6901 -0.3240
 8835SOL    HW237965   3.367   0.945   0.420 -0.8535  0.4580 -0.4829
 8836SOL     OW37966   2.889   2.859   3.114 -0.4650 -0.5878 -0.5621
 8836SOL    HW137967   2.898   2.944   3.157  0.8445 -1.4630  0.9012
 8836SOL    HW237968   2.880   2.809   3.195 -0.9566 -0.6681 -0.6652
 8837SOL     OW37969   0.477   2.239  11.933  0.4212  0.2225 -0.1232
 8837SOL    HW137970   0.429   2.314  11.968  0.6532 -0.1248  0.9505
 8837SOL    HW237971   0.518   2.280  11.857 -2.4197  0.6737 -1.3827
 8838SOL     OW37972   0.227   0.631   7.380 -0.0528  0.2630  0.2196
 8838SOL    HW137973   0.278   0.675   7.448 -1.9149  0.3183  1.5801
 8838SOL    HW237974   0.154   0.596   7.430 -0.4169 -1.5882 -1.6495
 8839SOL     OW37975   3.923   3.920   8.281  0.3542  0.1370 -0.2248
 8839SOL    HW137976   3.883   3.854   8.337  0.0779  0.8651  0.4412
 8839SOL    HW237977   4.010   3.880   8.277  0.6490  0.9238 -1.6429
 8840SOL     OW37978   3.179   3.741   0.466  0.3877 -0.1786  0.1983
 8840SOL    HW137979   3.247   3.746   0.533  0.4003 -0.7525  0.2282
 8840SOL    HW237980   3.199   3.654   0.431  0.2296  0.7065 -2.1417
 8841SOL     OW37981   1.012   1.719   4.989 -0.0694  0.3352  0.1922
 8841SOL    HW137982   1.052   1.788   5.042  2.1309  0.5758 -1.7767
 8841SOL    HW237983   1.074   1.656   5.025  0.4480  2.3111  2.7809
 8842SOL     OW37984   3.614   4.547   0.225 -0.4287 -0.4603 -0.2602
 8842SOL    HW137985   3.580   4.635   0.239 -0.1697 -0.2070 -1.1937
 8842SOL    HW237986   3.589   4.497   0.303  0.6621 -1.1832 -0.3635
 8843SOL     OW37987   2.147   3.959   2.063  0.0417 -0.3108  0.0850
 8843SOL    HW137988   2.097   4.040   2.066  3.1565  1.6094  0.1157
 8843SOL    HW237989   2.202   3.958   2.141  2.7940 -0.2190 -1.8654
 8844SOL     OW37990   4.334   1.487  13.991 -0.3120  0.2333 -0.0045
 8844SOL    HW137991   4.240   1.502  14.004 -0.8004 -1.6744 -1.4348
 8844SOL    HW237992   4.357   1.576  14.020  0.3695  0.2176 -0.5097
 8845SOL     OW37993   0.962   3.451   3.096  0.2655 -0.0724 -0.2146
 8845SOL    HW137994   0.993   3.383   3.156  0.3747 -1.2851 -1.6452
 8845SOL    HW237995   1.043   3.486   3.058 -0.2671  0.6988 -0.6396
 8846SOL     OW37996   3.817   3.433   8.346  0.9470 -0.3442 -0.2594
 8846SOL    HW137997   3.775   3.367   8.292  0.1958 -1.0071  1.1177
 8846SOL    HW237998   3.813   3.394   8.433 -0.8383  1.7244  0.5995
 8847SOL     OW37999   0.859   2.144   5.569  0.4935  0.1020 -0.0192
 8847SOL    HW138000   0.890   2.128   5.658  2.8664 -0.9996 -1.0460
 8847SOL    HW238001   0.781   2.088   5.564  0.3548  0.2492  0.5811
 8848SOL     OW38002   3.356   3.262   2.842 -0.2381  0.3443 -0.6187
 8848SOL    HW138003   3.446   3.279   2.870 -0.6589  0.5932  0.5923
 8848SOL    HW238004   3.314   3.336   2.886 -0.3662  1.0371 -1.9091
 8849SOL     OW38005   0.710   0.957   3.978  0.7249 -0.2531  0.0780
 8849SOL    HW138006   0.803   0.942   3.959  1.7601  3.9561  1.9350
 8849SOL    HW238007   0.711   1.000   4.063  0.8740  0.2704 -0.1864
 8850SOL     OW38008   2.759   4.087   7.293 -0.5029  0.2164  0.1042
 8850SOL    HW138009   2.709   4.113   7.216 -3.3229 -3.3476  0.7282
 8850SOL    HW238010   2.799   4.008   7.256 -2.4894 -0.8782  0.2942
 8851SOL     OW38011   4.642   4.149   4.162  0.6618  0.4355 -0.3272
 8851SOL    HW138012   4.643   4.082   4.093  0.7877 -1.9787  2.0380
 8851SOL    HW238013   4.717   4.203   4.136 -0.1408  2.1894  1.0594
 8852SOL     OW38014   0.569   4.381   5.979  0.0231 -0.7030  0.3487
 8852SOL    HW138015   0.553   4.316   5.911  1.5230 -1.6163  0.8777
 8852SOL    HW238016   0.486   4.427   5.966  1.4991  1.8703  0.0247
 8853SOL     OW38017   3.590   3.472  10.560 -0.2091 -0.3807 -0.1104
 8853SOL    HW138018   3.645   3.400  10.590  0.8986  0.4350 -0.1677
 8853SOL    HW238019   3.640   3.549  10.586 -1.3131 -0.0716  1.0701
 8854SOL     OW38020   3.778   1.384  13.434 -0.2050  0.1187 -0.2703
 8854SOL    HW138021   3.785   1.400  13.528 -0.4207 -1.3256 -0.0161
 8854SOL    HW238022   3.699   1.330  13.428 -0.1658 -0.3083  3.1680
 8855SOL     OW38023   0.586   3.292   7.440  0.2971  0.3276  0.0146
 8855SOL    HW138024   0.600   3.376   7.397 -2.3693  0.8515  0.1829
 8855SOL    HW238025   0.493   3.272   7.446  0.1616  1.0212  0.1881
 8856SOL     OW38026   4.653   3.465   5.271 -0.2913  0.2260 -0.4366
 8856SOL    HW138027   4.693   3.386   5.236 -3.7897 -2.2087  1.0531
 8856SOL    HW238028   4.654   3.515   5.189  0.7837  2.4000  0.8916
 8857SOL     OW38029   0.278   2.257  14.279 -0.3240 -0.0796  0.4012
 8857SOL    HW138030   0.279   2.242  14.184 -1.7100 -1.3104  0.5812
 8857SOL    HW238031   0.197   2.307  14.266  0.4563  0.6378 -1.7787
 8858SOL     OW38032   2.693   3.557   5.712 -0.1341  0.5881  0.4053
 8858SOL    HW138033   2.664   3.590   5.797 -0.1308 -1.1427  1.0757
 8858SOL    HW238034   2.601   3.536   5.692 -0.0723 -1.4276  2.3087
 8859SOL     OW38035   1.489   3.222   6.200  0.4763  0.6262 -0.0604
 8859SOL    HW138036   1.552   3.157   6.230 -0.4357  0.0159  0.5272
 8859SOL    HW238037   1.419   3.206   6.263 -0.1523  0.9212 -0.6921
 8860SOL     OW38038   3.597   3.623   6.073 -0.3733  0.2389 -0.1317
 8860SOL    HW138039   3.604   3.684   6.147  2.1149  1.0183 -1.0201
 8860SOL    HW238040   3.644   3.681   6.013 -0.2323  0.0433 -0.2069
 8861SOL     OW38041   2.646   0.489   3.377 -0.0292  0.2892 -0.3154
 8861SOL    HW138042   2.625   0.413   3.432 -1.0480  1.4183  0.8290
 8861SOL    HW238043   2.741   0.476   3.381 -0.2700 -1.3926  0.0821
 8862SOL     OW38044   3.589   2.962   9.334  0.0754  0.5578 -0.4178
 8862SOL    HW138045   3.668   2.989   9.380  0.1749  2.2222 -1.5659
 8862SOL    HW238046   3.521   2.987   9.396 -0.7770  0.4787 -1.3045
 8863SOL     OW38047   4.155   2.403   7.330 -0.0883 -0.3331 -0.1288
 8863SOL    HW138048   4.144   2.413   7.236  0.0842  1.8193  0.0593
 8863SOL    HW238049   4.162   2.494   7.360 -2.0528 -1.0656  2.5462
 8864SOL     OW38050   1.871   3.154  16.757  0.0559  0.5153 -0.3552
 8864SOL    HW138051   1.894   3.090  16.824 -0.0018  0.1388 -0.6980
 8864SOL    HW238052   1.866   3.103  16.676 -0.4811 -0.8524  0.5405
 8865SOL     OW38053   0.516   3.809   6.367 -0.0195  0.5768 -0.1246
 8865SOL    HW138054   0.605   3.845   6.373  0.6234 -0.8189 -1.3104
 8865SOL    HW238055   0.534   3.716   6.380 -1.0244  0.1439 -1.9218
 8866SOL     OW38056   2.143   3.621  16.593 -0.0721  0.1665 -1.0430
 8866SOL    HW138057   2.225   3.653  16.557 -0.5465 -0.2133 -2.4676
 8866SOL    HW238058   2.184   3.567  16.660 -0.0828  1.8967  0.3613
 8867SOL     OW38059   4.465   3.518   5.664 -0.2713  0.4728  0.1209
 8867SOL    HW138060   4.512   3.438   5.688 -1.1866  0.3957  1.6360
 8867SOL    HW238061   4.458   3.556   5.752  0.6453  0.6714  0.1091
 8868SOL     OW38062   4.498   2.539   7.023  0.3134  0.0432  0.4488
 8868SOL    HW138063   4.583   2.582   7.010  1.3936 -1.6636  1.9976
 8868SOL    HW238064   4.450   2.617   7.053 -1.2698 -0.7706  0.0062
 8869SOL     OW38065   0.276   4.146   2.435  0.0854 -0.1379 -0.4901
 8869SOL    HW138066   0.252   4.177   2.347  0.4066 -0.3479 -0.6520
 8869SOL    HW238067   0.190   4.123   2.470  0.3921 -1.1879 -0.4382
 8870SOL     OW38068   0.591   1.780   5.553  0.0379 -0.1189 -0.5132
 8870SOL    HW138069   0.630   1.733   5.479  0.3554 -2.5937  1.2352
 8870SOL    HW238070   0.640   1.748   5.629 -0.6110  0.2364  0.0498
 8871SOL     OW38071   1.706   0.552   4.223 -1.1934 -0.6238  0.0645
 8871SOL    HW138072   1.732   0.476   4.171 -1.4290 -0.9027  0.3567
 8871SOL    HW238073   1.717   0.516   4.311  4.0086 -1.2003 -0.8203
 8872SOL     OW38074   4.466   0.931  15.987 -0.1260 -0.4842 -0.4549
 8872SOL    HW138075   4.473   0.841  15.955  1.7702 -0.2291 -0.8023
 8872SOL    HW238076   4.477   0.925  16.082 -0.8675 -0.1933 -0.3549
 8873SOL     OW38077   3.258   0.149   2.321 -0.8155 -0.2591 -0.3637
 8873SOL    HW138078   3.303   0.169   2.403  0.2168  0.4313 -1.1038
 8873SOL    HW238079   3.283   0.058   2.305  1.9149  0.7032 -1.4684
 8874SOL     OW38080   4.684   4.146  13.648  0.2134  0.1451  0.3650
 8874SOL    HW138081   4.669   4.185  13.734 -0.7259 -0.3850  0.4456
 8874SOL    HW238082   0.059   4.135  13.652  0.6768  3.4679 -1.7682
 8875SOL     OW38083   4.195   4.229   2.603 -0.0487 -0.0463 -0.3953
 8875SOL    HW138084   4.266   4.209   2.663 -0.7574 -0.7079  0.2220
 8875SOL    HW238085   4.226   4.300   2.547 -1.9350  0.6155 -0.6241
 8876SOL     OW38086   0.397   3.335   8.365 -0.1591 -0.7154  0.2904
 8876SOL    HW138087   0.469   3.317   8.426  2.6122  2.1893 -2.0995
 8876SOL    HW238088   0.323   3.278   8.388 -0.5486  0.4675  1.9540
 8877SOL     OW38089   1.600   1.793   4.089 -0.0392  0.1534  0.0983
 8877SOL    HW138090   1.535   1.829   4.150  0.3083  0.6419  0.1767
 8877SOL    HW238091   1.644   1.868   4.050 -0.4924 -0.0476 -0.7853
 8878SOL     OW38092   0.184   3.719   3.589 -0.4639  0.3726 -0.0387
 8878SOL    HW138093   0.164   3.809   3.616 -1.2198  0.3554 -0.5486
 8878SOL    HW238094   0.278   3.720   3.606 -0.7776  2.0144  1.6137
 8879SOL     OW38095   0.660   0.006   0.989  0.0200 -0.0216  0.0114
 8879SOL    HW138096   0.565   0.009   0.975  0.0771  0.1859 -0.3343
 8879SOL    HW238097   0.668   4.707   1.083 -1.4465  0.2512  0.1924
 8880SOL     OW38098   4.198   0.076   2.994 -0.2648  0.5028 -0.0489
 8880SOL    HW138099   4.291   0.054   3.003  0.0084  2.1985  1.2297
 8880SOL    HW238100   4.164   4.706   2.982  1.5917 -0.2671  0.4670
 8881SOL     OW38101   1.097   1.988   0.380 -0.2950 -0.0386  0.0083
 8881SOL    HW138102   1.025   1.999   0.442 -0.2546 -1.9648  0.3820
 8881SOL    HW238103   1.094   2.068   0.327  0.1169 -0.5619 -0.8067
 8882SOL     OW38104   3.360   3.771   4.925 -0.8011 -0.1445 -0.0103
 8882SOL    HW138105   3.351   3.752   4.832 -0.0096 -0.3814 -0.0312
 8882SOL    HW238106   3.425   3.841   4.931  1.9660 -2.6924 -0.3565
 8883SOL     OW38107   1.736   0.298   1.478 -0.2255 -0.3055 -0.0504
 8883SOL    HW138108   1.801   0.368   1.470  0.3586 -0.8850 -0.3807
 8883SOL    HW238109   1.679   0.312   1.403  0.2183  1.8081  0.0103
 8884SOL     OW38110   1.194   2.300   8.585  0.1711 -0.3200 -0.1459
 8884SOL    HW138111   1.136   2.225   8.578 -2.0009  1.5367 -2.1561
 8884SOL    HW238112   1.139   2.351   8.646 -0.6859 -0.2988 -0.9404
 8885SOL     OW38113   0.706   4.034  10.955 -0.2338  0.3904  0.8268
 8885SOL    HW138114   0.772   3.994  10.898 -1.3803  1.0783 -0.9946
 8885SOL    HW238115   0.643   3.963  10.959  0.4192 -0.3549 -2.0089
 8886SOL     OW38116   3.080   4.192   5.416 -0.1484 -0.1042 -0.6541
 8886SOL    HW138117   3.102   4.114   5.365  0.1889 -0.1515 -0.4307
 8886SOL    HW238118   3.164   4.237   5.418 -0.8216  1.0608  0.9345
 8887SOL     OW38119   1.287   2.191   9.343 -0.4170 -0.2965  0.3880
 8887SOL    HW138120   1.250   2.188   9.255 -0.1455 -1.7286  0.3104
 8887SOL    HW238121   1.379   2.162   9.339  0.0863  1.4639 -0.8729
 8888SOL     OW38122   3.321   3.772   0.696 -0.2005  0.2782  0.2877
 8888SOL    HW138123   3.414   3.760   0.677 -0.6323 -2.1798 -0.3644
 8888SOL    HW238124   3.318   3.805   0.786  0.5174 -1.1503  0.8326
 8889SOL     OW38125   1.171   2.781   4.134  0.1244 -0.0344  0.7612
 8889SOL    HW138126   1.081   2.753   4.117  0.9699 -0.8175 -2.3914
 8889SOL    HW238127   1.196   2.733   4.213  1.2154  0.7321  0.8849
 8890SOL     OW38128   3.502   3.799   6.361 -0.0389 -0.6639 -0.3595
 8890SOL    HW138129   3.446   3.721   6.366  0.5476 -1.0105  0.9510
 8890SOL    HW238130   3.460   3.843   6.435 -2.7554 -1.6141 -1.3335
 8891SOL     OW38131   4.153   3.610   4.564  0.1751 -0.2360 -0.7652
 8891SOL    HW138132   4.183   3.672   4.631  0.0607  2.2329 -3.0166
 8891SOL    HW238133   4.148   3.522   4.602  2.1355  0.2034  0.4952
 8892SOL     OW38134   1.295   4.464  16.720 -0.0111 -0.7847 -0.0895
 8892SOL    HW138135   1.318   4.554  16.696 -1.2527 -0.4972 -0.1605
 8892SOL    HW238136   1.326   4.411  16.647  0.0902  0.2937 -0.8276
 8893SOL     OW38137   4.473   0.713  17.459  0.2363  0.7778 -0.3333
 8893SOL    HW138138   4.430   0.629  17.475 -0.6055  1.0520 -1.1632
 8893SOL    HW238139   4.394   0.767  17.455 -1.0123 -1.0381 -0.4637
 8894SOL     OW38140   2.543   0.503   3.132 -0.2903  0.4826  0.1662
 8894SOL    HW138141   2.613   0.566   3.114  0.2356 -0.5651 -1.4177
 8894SOL    HW238142   2.561   0.488   3.225  0.1438  0.7773  0.1329
 8895SOL     OW38143   2.592   2.689   9.045 -0.0005 -0.0656  0.2149
 8895SOL    HW138144   2.526   2.735   9.098 -1.4291 -2.3883  0.4319
 8895SOL    HW238145   2.591   2.613   9.103  0.2304  1.0150  1.6360
 8896SOL     OW38146   3.716   0.322   0.607  0.2851 -0.0107  0.6449
 8896SOL    HW138147   3.639   0.371   0.581  1.1460  2.6884  3.2345
 8896SOL    HW238148   3.699   0.306   0.700 -0.2711  1.4266  0.7853
 8897SOL     OW38149   2.943   1.711   8.220  0.1235 -0.1341 -0.0594
 8897SOL    HW138150   3.012   1.667   8.269  0.1836  2.0868  1.8298
 8897SOL    HW238151   2.987   1.739   8.139  2.0678 -1.8150  0.4202
 8898SOL     OW38152   0.779   4.391   8.739 -0.3879  0.2690  0.4552
 8898SOL    HW138153   0.862   4.352   8.712  0.6558  1.6038  1.7216
 8898SOL    HW238154   0.810   4.434   8.819  0.9045  0.8530 -0.3698
 8899SOL     OW38155   1.955   1.781   4.484  0.2930 -0.2089 -0.4667
 8899SOL    HW138156   1.968   1.855   4.544  0.8516 -0.3500 -0.4165
 8899SOL    HW238157   2.015   1.721   4.527 -0.9109 -0.6675  0.5715
 8900SOL     OW38158   2.186   3.742   7.713  0.5718 -0.1554  0.5917
 8900SOL    HW138159   2.193   3.835   7.694 -1.3044 -0.5385 -1.9814
 8900SOL    HW238160   2.222   3.711   7.630  2.9798  1.7048  0.9486
 8901SOL     OW38161   2.757   2.231   2.025 -0.5636  0.2255  0.6897
 8901SOL    HW138162   2.670   2.244   2.063 -0.9949 -0.8221  0.0429
 8901SOL    HW238163   2.801   2.185   2.096 -0.4928  1.2285  1.3006
 8902SOL     OW38164   2.830   1.171   2.315  0.0007 -0.0271 -0.6777
 8902SOL    HW138165   2.894   1.226   2.269 -1.4288  0.6505 -1.8573
 8902SOL    HW238166   2.758   1.178   2.252 -0.9079  0.7831  0.4756
 8903SOL     OW38167   4.639   2.891   5.940  0.5499 -0.0198 -0.0330
 8903SOL    HW138168   4.629   2.978   5.979  2.0515  0.5480 -0.9002
 8903SOL    HW238169   4.551   2.884   5.903 -0.0190  0.2741  1.2774
 8904SOL     OW38170   1.668   0.403   4.456  0.0317 -0.0208  0.0822
 8904SOL    HW138171   1.658   0.313   4.487 -0.3211 -0.4847 -1.3603
 8904SOL    HW238172   1.577   0.432   4.466 -0.1474 -0.3990 -0.4075
 8905SOL     OW38173   2.498   3.789   4.465  0.2238  0.4432 -0.2974
 8905SOL    HW138174   2.435   3.808   4.395 -1.4126 -2.3270  0.4252
 8905SOL    HW238175   2.472   3.698   4.478  0.8052  0.0111 -2.0760
 8906SOL     OW38176   4.499   0.962   7.266  0.1290  0.3147 -0.0546
 8906SOL    HW138177   4.524   0.882   7.219 -0.8259 -0.2538  0.4226
 8906SOL    HW238178   4.447   0.932   7.340 -0.5624  2.0693  0.1552
 8907SOL     OW38179   0.124   3.861   5.479  0.0545 -0.1452 -0.0973
 8907SOL    HW138180   0.214   3.890   5.493 -0.6359  2.4855 -1.0380
 8907SOL    HW238181   0.125   3.864   5.384 -1.0438 -1.3615 -0.1419
 8908SOL     OW38182   2.523   0.128   5.519  0.3131 -0.2722 -0.1115
 8908SOL    HW138183   2.574   0.207   5.541  1.0284 -1.3057  1.9957
 8908SOL    HW238184   2.477   0.147   5.438 -1.7361 -2.0496  0.6296
 8909SOL     OW38185   1.393   3.478  10.570  0.0968 -0.3408 -0.1182
 8909SOL    HW138186   1.466   3.530  10.536 -1.3626  1.2209 -0.8689
 8909SOL    HW238187   1.335   3.550  10.546 -1.3353 -1.4858 -0.0888
 8910SOL     OW38188   2.605   3.083   3.037 -0.0084  0.3924  0.2666
 8910SOL    HW138189   2.541   3.040   2.980  0.2555 -0.7254  0.8209
 8910SOL    HW238190   2.648   3.144   2.976  2.6490 -0.5225  1.2198
 8911SOL     OW38191   3.918   1.538  13.273  0.8356 -0.2034 -0.0224
 8911SOL    HW138192   3.878   1.475  13.333 -2.0500 -0.7169 -2.4834
 8911SOL    HW238193   3.898   1.625  13.309  0.7819 -0.5658  0.8274
 8912SOL     OW38194   0.025   2.609   7.395 -0.7050  0.2321 -0.1219
 8912SOL    HW138195   0.006   2.515   7.398  0.7900 -0.0775 -0.1340
 8912SOL    HW238196   4.663   2.653   7.420 -0.5078  0.9882 -0.8201
 8913SOL     OW38197   3.330   4.048   1.637  0.2342 -0.1059 -0.2960
 8913SOL    HW138198   3.272   4.070   1.565 -1.2622 -0.5213  0.7647
 8913SOL    HW238199   3.272   4.016   1.707 -0.8868 -1.7891 -1.9980
 8914SOL     OW38200   4.495   2.314   3.233 -0.4973  0.3786  0.0050
 8914SOL    HW138201   4.514   2.235   3.284  2.4805  1.5527  0.6982
 8914SOL    HW238202   4.568   2.365   3.269 -0.9090  1.7758 -1.1045
 8915SOL     OW38203   2.502   0.892   1.675  0.0284 -0.6088 -0.3430
 8915SOL    HW138204   2.562   0.818   1.667 -0.8880 -1.3946  0.1189
 8915SOL    HW238205   2.559   0.963   1.645 -0.8778 -0.3021 -1.3445
 8916SOL     OW38206   1.084   1.349   7.728 -0.4086  0.4426 -0.4177
 8916SOL    HW138207   1.118   1.433   7.758  0.9704  0.2524 -1.3873
 8916SOL    HW238208   1.154   1.286   7.746 -0.1443  1.0996  0.8449
 8917SOL     OW38209   3.866   0.059   5.258 -0.5630 -0.2947  0.1608
 8917SOL    HW138210   3.942   0.027   5.210 -0.8713 -0.7625 -0.0062
 8917SOL    HW238211   3.904   0.055   5.346  0.7848 -0.4504 -0.4253
 8918SOL     OW38212   3.576   0.714   9.756  0.3518  0.6165  0.3612
 8918SOL    HW138213   3.542   0.627   9.775 -0.9050  1.0084 -0.0900
 8918SOL    HW238214   3.492   0.750   9.729 -0.4362 -0.6202  1.2045
 8919SOL     OW38215   2.197   2.327  17.024 -0.5915  0.0846 -0.1562
 8919SOL    HW138216   2.174   2.267  17.095  0.2528 -1.7086 -1.3981
 8919SOL    HW238217   2.173   2.414  17.056 -2.2444  0.6212 -2.8492
 8920SOL     OW38218   2.281   2.082   6.960 -0.5362 -0.4491 -0.3536
 8920SOL    HW138219   2.256   2.011   7.018  0.1904 -0.3645  0.0739
 8920SOL    HW238220   2.323   2.036   6.888  2.8398  0.5877  0.9373
 8921SOL     OW38221   3.433   1.182  16.680  0.1737 -0.5729  0.0589
 8921SOL    HW138222   3.480   1.257  16.716  0.8299 -0.2105 -1.5289
 8921SOL    HW238223   3.464   1.189  16.590  1.1344 -0.4620  0.4039
 8922SOL     OW38224   3.584   3.280   4.336 -0.0248 -0.0988  0.2373
 8922SOL    HW138225   3.606   3.187   4.337 -1.3755 -0.4186  1.0536
 8922SOL    HW238226   3.603   3.304   4.427 -0.7174 -1.6450  0.7796
 8923SOL     OW38227   3.612   4.519   4.571  0.1892  0.3940 -0.2763
 8923SOL    HW138228   3.694   4.561   4.599  0.3101 -0.9648  1.3933
 8923SOL    HW238229   3.603   4.556   4.483 -0.2292  3.8511  1.2001
 8924SOL     OW38230   2.324   2.507   1.906  0.2558  0.0417  0.0764
 8924SOL    HW138231   2.361   2.478   1.823 -0.5670  0.5468 -0.4583
 8924SOL    HW238232   2.355   2.598   1.907  0.8150 -0.1596  1.0061
 8925SOL     OW38233   4.526   0.786   6.513 -0.2538  0.5747 -0.6853
 8925SOL    HW138234   4.576   0.746   6.584  1.6777  4.2579  0.0363
 8925SOL    HW238235   4.596   0.825   6.460  1.3487  2.3088  2.7013
 8926SOL     OW38236   0.848   1.297   2.628  0.0895  0.2475  0.0289
 8926SOL    HW138237   0.847   1.290   2.723 -0.4635 -2.3881 -0.1509
 8926SOL    HW238238   0.854   1.203   2.609 -1.6344  0.1783 -0.1554
 8927SOL     OW38239   1.558   2.296   4.748  0.3498 -0.0086  0.0197
 8927SOL    HW138240   1.559   2.236   4.822 -3.9999 -1.8397 -1.3909
 8927SOL    HW238241   1.637   2.273   4.698 -1.6553 -4.0097 -1.3561
 8928SOL     OW38242   3.326   2.435   4.516 -0.5616 -0.1960 -0.1268
 8928SOL    HW138243   3.361   2.407   4.601  0.8787  1.1004 -0.2894
 8928SOL    HW238244   3.358   2.525   4.519 -0.5278 -0.2184  0.1452
 8929SOL     OW38245   1.137   0.728   9.493  0.3879  0.2076 -0.2316
 8929SOL    HW138246   1.165   0.695   9.408 -0.1054  2.0856 -1.1351
 8929SOL    HW238247   1.205   0.788   9.527  0.4884 -0.7078  1.2046
 8930SOL     OW38248   1.778   4.108   7.574 -0.1020 -0.6005  0.9791
 8930SOL    HW138249   1.841   4.074   7.511  0.0845  0.5418  0.5568
 8930SOL    HW238250   1.690   4.088   7.541  0.4458  2.4774 -2.3513
 8931SOL     OW38251   4.381   1.208   3.963 -0.1841  0.2915 -0.2362
 8931SOL    HW138252   4.354   1.162   3.884 -1.3645  0.3028  0.1579
 8931SOL    HW238253   4.452   1.259   3.925  0.9052  0.7700  2.4085
 8932SOL     OW38254   3.891   0.534   1.938  0.4801  0.2994  0.0987
 8932SOL    HW138255   3.901   0.602   1.872 -0.9815  0.3130 -0.0954
 8932SOL    HW238256   3.983   0.507   1.948  0.6195  0.5207 -0.5335
 8933SOL     OW38257   3.487   3.230   8.515  0.3360  0.7440  0.3339
 8933SOL    HW138258   3.408   3.212   8.465  2.5423  1.1004 -3.2572
 8933SOL    HW238259   3.549   3.167   8.478  1.6505  1.5780  1.1123
 8934SOL     OW38260   4.257   2.883  13.100 -0.3782  0.7519  0.5179
 8934SOL    HW138261   4.348   2.911  13.111  1.3637 -4.8647  0.4448
 8934SOL    HW238262   4.253   2.798  13.143 -0.1987  0.7243  0.4809
 8935SOL     OW38263   1.723   2.508   9.582 -0.3785  0.4776  0.3941
 8935SOL    HW138264   1.635   2.475   9.601 -0.3006 -0.7869 -1.3713
 8935SOL    HW238265   1.775   2.451   9.638 -0.3293  1.6973  1.5591
 8936SOL     OW38266   3.206   1.429   9.983 -0.0476 -0.1414  0.1024
 8936SOL    HW138267   3.188   1.506   9.930  0.8333 -0.9877 -1.4132
 8936SOL    HW238268   3.166   1.364   9.925 -2.0748 -0.8901  2.3246
 8937SOL     OW38269   2.351   3.143   9.773 -0.7058  0.2297 -0.7007
 8937SOL    HW138270   2.423   3.201   9.747  1.4177 -2.4281 -0.7845
 8937SOL    HW238271   2.390   3.057   9.760 -1.2773  0.2523 -2.5587
 8938SOL     OW38272   3.312   3.229   2.525  0.4448 -0.3438 -0.4904
 8938SOL    HW138273   3.230   3.194   2.558  0.9528 -1.1114 -0.0393
 8938SOL    HW238274   3.318   3.310   2.576 -0.6337 -0.4325 -0.2369
 8939SOL     OW38275   0.645   2.880   2.092 -0.5142  0.1073  1.0328
 8939SOL    HW138276   0.734   2.883   2.057 -1.6763 -1.1866 -2.0505
 8939SOL    HW238277   0.647   2.800   2.145  0.9004  0.4529  1.4992
 8940SOL     OW38278   2.698   4.193  13.536 -0.6279  0.0193 -0.0469
 8940SOL    HW138279   2.679   4.116  13.589  0.1899 -0.1164  0.0476
 8940SOL    HW238280   2.736   4.250  13.603 -2.1879 -0.2592  1.0778
 8941SOL     OW38281   3.298   2.357  12.300  0.1242 -0.0829 -0.3376
 8941SOL    HW138282   3.255   2.312  12.373  0.9115 -0.5021 -0.1280
 8941SOL    HW238283   3.293   2.285  12.237  0.8588  0.3760 -0.9262
 8942SOL     OW38284   2.262   4.235   5.799  0.2905 -0.0489  0.9126
 8942SOL    HW138285   2.309   4.293   5.859 -3.2667  0.4193  3.2453
 8942SOL    HW238286   2.286   4.281   5.719 -3.9910  0.5924 -0.0158
 8943SOL     OW38287   2.270   1.188   7.672 -0.1603  0.0791 -0.5097
 8943SOL    HW138288   2.360   1.176   7.703  0.3696  0.8581 -1.7266
 8943SOL    HW238289   2.262   1.277   7.706  1.2504 -0.7798  2.0444
 8944SOL     OW38290   2.749   3.996  11.973  0.3190  0.2367  0.1395
 8944SOL    HW138291   2.697   4.010  11.893  0.3333 -3.4979 -0.4958
 8944SOL    HW238292   2.707   4.067  12.022  0.9354  0.9798 -0.4078
 8945SOL     OW38293   1.886   1.244   6.615  0.0134 -0.0038 -0.1010
 8945SOL    HW138294   1.814   1.196   6.575 -0.6015 -0.8483  2.0181
 8945SOL    HW238295   1.845   1.294   6.686  0.5802 -1.5340  1.3002
 8946SOL     OW38296   0.603   0.148   5.330 -0.5608  0.4556  0.2064
 8946SOL    HW138297   0.565   0.227   5.369  1.4244  2.5966 -2.2338
 8946SOL    HW238298   0.579   0.160   5.239 -0.7000 -0.0729  0.1730
 8947SOL     OW38299   1.417   2.028  17.666  0.4568 -0.3390 -0.7148
 8947SOL    HW138300   1.476   2.091   0.027  0.5593 -0.4989 -0.6171
 8947SOL    HW238301   1.469   1.986  17.598  2.8411  0.0282  0.8753
 8948SOL     OW38302   3.368   1.541  10.754 -0.4241  0.0896 -0.0217
 8948SOL    HW138303   3.450   1.590  10.742 -0.6709  0.7995  1.1646
 8948SOL    HW238304   3.327   1.595  10.821  1.1359 -0.7865  1.6520
 8949SOL     OW38305   4.246   4.682   7.946 -0.2705 -0.1611 -0.4574
 8949SOL    HW138306   4.198   4.653   8.023 -0.2929  2.0177  0.3423
 8949SOL    HW238307   4.302   0.033   7.979 -0.3394 -0.8485  1.1129
 8950SOL     OW38308   1.814   4.568   1.647 -0.6071 -0.7493 -0.5611
 8950SOL    HW138309   1.720   4.562   1.631 -0.7051  0.9081 -0.6228
 8950SOL    HW238310   1.815   4.548   1.741 -1.3124 -0.6460 -0.5333
 8951SOL     OW38311   4.182   4.481   8.756 -0.0786 -0.4700  0.4869
 8951SOL    HW138312   4.184   4.438   8.671 -0.9882  1.2266 -0.3903
 8951SOL    HW238313   4.126   4.417   8.801  0.4624 -0.6378  0.9263
 8952SOL     OW38314   0.655   2.045   6.815  0.4167  0.1336 -0.1000
 8952SOL    HW138315   0.748   2.066   6.805  0.0890  2.4713  1.8985
 8952SOL    HW238316   0.650   2.032   6.910 -1.1880  0.0240 -0.2034
 8953SOL     OW38317   1.836   4.002   5.624 -0.7162  0.9052  0.3088
 8953SOL    HW138318   1.869   4.083   5.663 -0.9510  0.9422  0.4295
 8953SOL    HW238319   1.847   4.030   5.533  0.8320  1.8553  0.7832
 8954SOL     OW38320   1.025   0.158   4.390  0.0734  0.3832  0.1577
 8954SOL    HW138321   0.960   0.089   4.402  0.8242 -0.2704  0.4188
 8954SOL    HW238322   1.020   0.154   4.295  1.5707  1.3201  0.0326
 8955SOL     OW38323   3.064   3.422  12.800 -0.2722 -0.4823  0.0670
 8955SOL    HW138324   3.026   3.476  12.731 -1.1244 -1.1164  0.0346
 8955SOL    HW238325   3.112   3.361  12.744 -0.3626  0.0871 -0.6267
 8956SOL     OW38326   3.951   2.359  14.003  0.3919 -0.0577 -0.2090
 8956SOL    HW138327   3.953   2.437  14.057 -0.7095  0.7296 -1.3149
 8956SOL    HW238328   3.936   2.399  13.918 -0.0942 -0.0998 -0.1417
 8957SOL     OW38329   1.931   2.529   8.017 -0.1233 -0.5962 -0.3419
 8957SOL    HW138330   1.952   2.579   7.938  0.5386 -0.5969 -0.1726
 8957SOL    HW238331   1.945   2.598   8.081  1.8733  0.6137 -2.0754
 8958SOL     OW38332   2.466   3.474  13.141 -0.2126  0.2698 -0.0491
 8958SOL    HW138333   2.441   3.397  13.192 -0.7963  1.5008  1.5215
 8958SOL    HW238334   2.494   3.423  13.065 -1.7841  3.0309 -2.4897
 8959SOL     OW38335   2.461   0.053  11.515 -0.2590  0.3745  0.5148
 8959SOL    HW138336   2.542   0.042  11.465 -0.8473 -2.1897  0.1470
 8959SOL    HW238337   2.403   4.700  11.492  1.4141 -0.4246 -1.2106
 8960SOL     OW38338   3.884   2.890   7.540 -0.5633 -0.1570  0.5711
 8960SOL    HW138339   3.808   2.911   7.486 -2.0528  0.3081  2.8527
 8960SOL    HW238340   3.863   2.798   7.523 -0.4449 -0.2992  1.1886
 8961SOL     OW38341   1.557   0.345   2.240 -0.5195 -0.1751 -0.0128
 8961SOL    HW138342   1.488   0.382   2.186  0.7544  0.5328 -1.1453
 8961SOL    HW238343   1.530   0.255   2.259 -1.5433  0.4510  1.4258
 8962SOL     OW38344   0.444   1.170   2.156  0.3457  0.4694 -0.4617
 8962SOL    HW138345   0.409   1.246   2.203  1.1794 -0.6711  2.0186
 8962SOL    HW238346   0.447   1.100   2.221  1.9800  0.0717 -0.9693
 8963SOL     OW38347   2.222   2.126   8.102  0.0098  0.3487 -0.4832
 8963SOL    HW138348   2.193   2.191   8.038 -2.1759  0.4862  0.6532
 8963SOL    HW238349   2.264   2.178   8.169  2.4214  1.2553 -2.7009
 8964SOL     OW38350   3.707   2.564  12.164  0.3439 -0.1153  0.0937
 8964SOL    HW138351   3.721   2.659  12.161  2.7509 -0.5260 -1.4504
 8964SOL    HW238352   3.631   2.561  12.222 -0.2083  2.1697 -0.4983
 8965SOL     OW38353   4.614   4.238   7.066 -0.5489  0.3780  0.1596
 8965SOL    HW138354   4.633   4.160   7.014 -2.5919  1.5308 -2.3533
 8965SOL    HW238355   4.589   4.192   7.146 -0.7684  1.2771  0.6066
 8966SOL     OW38356   1.602   4.493   4.005  0.3468  0.0785 -0.3021
 8966SOL    HW138357   1.520   4.496   3.956  0.3651 -0.4673 -0.3674
 8966SOL    HW238358   1.572   4.449   4.085  2.6420  0.3785  0.7220
 8967SOL     OW38359   3.083   3.196   5.785  0.2533  0.7271  0.0508
 8967SOL    HW138360   3.010   3.242   5.744 -1.7016 -0.6282  1.9897
 8967SOL    HW238361   3.029   3.143   5.843 -1.4701  1.9564 -0.4341
 8968SOL     OW38362   3.292   4.492  11.454 -0.0101 -0.1588 -0.1295
 8968SOL    HW138363   3.297   4.587  11.467 -0.3253  0.0925 -1.7663
 8968SOL    HW238364   3.241   4.487  11.373 -0.5612  1.8753  0.0957
 8969SOL     OW38365   3.274   3.689   2.728 -0.3200  0.0279  0.3245
 8969SOL    HW138366   3.244   3.606   2.690  1.6270 -0.0975 -0.9250
 8969SOL    HW238367   3.259   3.669   2.820  1.5851 -0.6741  0.4753
 8970SOL     OW38368   2.298   0.557   0.745 -0.0473  0.5293  0.3837
 8970SOL    HW138369   2.232   0.498   0.708  1.6192 -1.4030  0.4350
 8970SOL    HW238370   2.371   0.496   0.754  0.7803  1.5580  0.6303
 8971SOL     OW38371   4.160   4.260   7.562  0.2475 -0.1003 -0.2884
 8971SOL    HW138372   4.180   4.167   7.551  1.5013  0.2178 -0.6627
 8971SOL    HW238373   4.205   4.296   7.486  1.9663 -0.0653  0.7632
 8972SOL     OW38374   1.808   0.215   3.299  0.0260  0.0735 -0.3439
 8972SOL    HW138375   1.888   0.265   3.315 -0.6574  1.5057 -1.3983
 8972SOL    HW238376   1.751   0.291   3.283 -0.4710  0.2271  2.1019
 8973SOL     OW38377   2.571   2.539   2.200  0.2818  0.1428 -0.7719
 8973SOL    HW138378   2.544   2.452   2.229  2.1218  0.3589  1.6009
 8973SOL    HW238379   2.500   2.599   2.227 -0.6722 -0.9142 -0.9273
 8974SOL     OW38380   3.819   0.876  14.801  0.0471 -0.0340  0.6445
 8974SOL    HW138381   3.772   0.929  14.865  1.6477  1.1633  0.8404
 8974SOL    HW238382   3.902   0.923  14.794 -0.8799  1.3836 -1.0902
 8975SOL     OW38383   1.057   0.508   4.580 -0.1321 -0.8525  0.2432
 8975SOL    HW138384   1.050   0.549   4.667 -0.8922 -0.8061  0.1588
 8975SOL    HW238385   0.987   0.444   4.590 -1.1426  0.2347  0.2656
 8976SOL     OW38386   1.282   2.269   4.442 -0.5846 -0.1984 -0.5074
 8976SOL    HW138387   1.365   2.223   4.448 -0.0777  0.6789 -0.7490
 8976SOL    HW238388   1.299   2.340   4.504 -0.1261  1.9674 -3.0965
 8977SOL     OW38389   2.312   1.932   2.721 -0.2339 -0.4708  0.0378
 8977SOL    HW138390   2.382   1.881   2.761 -1.1042 -2.7671 -1.3830
 8977SOL    HW238391   2.314   1.888   2.635  0.6216 -0.0176 -0.1802
 8978SOL     OW38392   2.422   3.463   2.396 -0.6699 -0.3534 -0.0032
 8978SOL    HW138393   2.505   3.425   2.425  0.7566  1.8734 -1.2058
 8978SOL    HW238394   2.409   3.543   2.447 -2.1352 -0.2615 -0.5381
 8979SOL     OW38395   1.015   1.821  14.887 -0.1736  0.1194  0.1137
 8979SOL    HW138396   0.936   1.813  14.835  0.3305 -3.0194 -0.2108
 8979SOL    HW238397   0.995   1.801  14.979 -0.8677  0.5766  0.0620
 8980SOL     OW38398   2.075   0.137   6.710 -0.1487 -0.3012 -1.0443
 8980SOL    HW138399   2.010   0.107   6.646 -0.9484 -0.0640 -0.3489
 8980SOL    HW238400   2.154   0.143   6.656  0.5906  2.7016  0.3610
 8981SOL     OW38401   1.542   1.536   5.378  1.2986  0.1672 -0.1138
 8981SOL    HW138402   1.544   1.443   5.399  0.9054 -0.1275 -1.3861
 8981SOL    HW238403   1.578   1.576   5.457  3.0928 -5.0246  1.6700
 8982SOL     OW38404   1.255   3.296   8.867  0.1609 -0.6996  0.2836
 8982SOL    HW138405   1.343   3.325   8.891 -0.2900 -0.2973  1.4556
 8982SOL    HW238406   1.201   3.318   8.943 -0.6203 -1.6228  0.0060
 8983SOL     OW38407   0.148   0.466   4.156  0.3832 -0.0420 -0.0796
 8983SOL    HW138408   0.131   0.378   4.124 -0.2348  0.4876 -1.1762
 8983SOL    HW238409   0.205   0.504   4.089  1.6119 -2.2900 -0.3184
 8984SOL     OW38410   1.881   4.492   2.420  0.1248 -0.2240  0.1902
 8984SOL    HW138411   1.968   4.516   2.390 -0.8402  0.0601 -2.3322
 8984SOL    HW238412   1.871   4.403   2.385 -0.6791 -0.3603  0.7524
 8985SOL     OW38413   0.506   2.012   0.614  0.1683 -0.2977 -0.2810
 8985SOL    HW138414   0.480   1.922   0.632  0.0194  0.0705  1.3248
 8985SOL    HW238415   0.459   2.066   0.677  0.7785  0.9284 -0.8755
 8986SOL     OW38416   0.011   3.248   2.821 -0.0837  0.1431 -0.2008
 8986SOL    HW138417   0.042   3.292   2.742  2.9409  1.4880  1.7676
 8986SOL    HW238418   4.666   3.190   2.779  1.4175 -1.1530 -0.6768
 8987SOL     OW38419   1.988   1.222   8.495  0.2204 -0.1044  0.3084
 8987SOL    HW138420   1.957   1.147   8.545  1.6713 -1.0956 -0.3038
 8987SOL    HW238421   2.035   1.269   8.564 -0.5546 -1.2222  1.5960
 8988SOL     OW38422   1.678   0.848   3.060  0.4393 -0.5958 -0.5010
 8988SOL    HW138423   1.765   0.827   3.091  0.9122  1.6134 -0.3283
 8988SOL    HW238424   1.636   0.868   3.144  0.4656 -0.0396 -0.6154
 8989SOL     OW38425   0.401   2.097   3.277  0.2543  0.0727  0.4349
 8989SOL    HW138426   0.418   2.190   3.293 -1.5322  0.5489 -0.3221
 8989SOL    HW238427   0.489   2.063   3.262  0.4519  1.3066 -1.3420
 8990SOL     OW38428   4.604   3.104  16.691  0.0326 -0.4058  0.3270
 8990SOL    HW138429   4.698   3.086  16.681 -0.0338 -1.4669  1.5977
 8990SOL    HW238430   4.566   3.019  16.713 -0.7100  0.3314  1.8782
 8991SOL     OW38431   2.442   1.250  14.206  0.1047  0.1399 -0.5486
 8991SOL    HW138432   2.451   1.163  14.245  1.6338  0.1602 -0.8401
 8991SOL    HW238433   2.348   1.264  14.197  0.0451  1.7091  2.7189
 8992SOL     OW38434   2.393   1.578   2.455  0.1344  0.1940 -0.2794
 8992SOL    HW138435   2.314   1.618   2.419 -0.0514  0.2433  0.1816
 8992SOL    HW238436   2.439   1.648   2.500  1.5472 -1.6086  1.1109
 8993SOL     OW38437   2.179   1.674   3.516 -0.4156 -0.5881  0.1400
 8993SOL    HW138438   2.124   1.742   3.478 -1.8818 -1.5571  0.5320
 8993SOL    HW238439   2.252   1.716   3.561  0.4315 -0.6648 -1.1868
 8994SOL     OW38440   3.834   2.781   3.192 -0.3425  0.0821  0.9329
 8994SOL    HW138441   3.853   2.846   3.259  0.7269  0.1001  0.6166
 8994SOL    HW238442   3.890   2.706   3.212 -0.4837  0.0870  1.3362
 8995SOL     OW38443   3.135   0.303   9.201  0.4656  0.4519 -0.2660
 8995SOL    HW138444   3.084   0.222   9.198  1.4072 -0.1252 -0.6087
 8995SOL    HW238445   3.092   0.335   9.281  1.6024  0.8899  0.1742
 8996SOL     OW38446   0.385   3.845  15.353 -0.2427  1.0217  0.3029
 8996SOL    HW138447   0.382   3.857  15.258  2.6350  1.0265  0.2052
 8996SOL    HW238448   0.299   3.806  15.369  0.8985  0.2403  4.4752
 8997SOL     OW38449   2.383   0.650   6.330 -0.1348  0.3468 -0.1030
 8997SOL    HW138450   2.311   0.641   6.392  0.3928 -0.0268  0.4555
 8997SOL    HW238451   2.441   0.578   6.357 -0.9535 -0.1836  0.2247
 8998SOL     OW38452   3.224   0.968   2.566  0.5727  0.6141  0.2401
 8998SOL    HW138453   3.154   0.916   2.605  1.0297 -1.0119 -1.0988
 8998SOL    HW238454   3.238   0.935   2.477  0.2289  0.9369  0.0669
 8999SOL     OW38455   1.610   3.032   4.236  0.1574 -0.1805  0.2072
 8999SOL    HW138456   1.587   2.941   4.217  2.5009 -0.6527 -0.4797
 8999SOL    HW238457   1.560   3.046   4.316  0.5086  5.1519 -0.4794
 9000SOL     OW38458   0.788   2.369   1.451 -0.2133  0.0557  0.1228
 9000SOL    HW138459   0.718   2.357   1.388 -0.2301  0.2999  0.0943
 9000SOL    HW238460   0.751   2.340   1.535 -0.5381 -0.0588 -0.0623
 9001SOL     OW38461   4.306   3.562   1.134 -0.2564  0.1342  0.1634
 9001SOL    HW138462   4.359   3.539   1.057  1.0243 -1.5470  1.5309
 9001SOL    HW238463   4.364   3.619   1.184 -1.1937 -0.8090  2.3331
 9002SOL     OW38464   2.274   4.688   7.420 -0.1877 -0.0494 -0.1083
 9002SOL    HW138465   2.339   4.625   7.453 -1.1096 -0.4007  1.0445
 9002SOL    HW238466   2.273   4.668   7.327 -0.3850  0.9593 -0.3182
 9003SOL     OW38467   1.194   1.553  14.845 -0.1571  0.0622  0.6075
 9003SOL    HW138468   1.181   1.486  14.779  0.6069 -0.2430  0.7701
 9003SOL    HW238469   1.108   1.595  14.840  0.0618  0.6326  1.6919
 9004SOL     OW38470   3.024   3.383   8.854  0.1621 -0.9421  0.3654
 9004SOL    HW138471   3.091   3.402   8.920  0.1363 -2.6878  0.9060
 9004SOL    HW238472   3.003   3.292   8.877  0.0618 -0.6710  1.3356
 9005SOL     OW38473   3.717   2.163   7.183  0.1681  0.3483 -0.3463
 9005SOL    HW138474   3.790   2.110   7.214 -0.0117  0.4093  0.1798
 9005SOL    HW238475   3.756   2.250   7.183 -3.1296  1.8481 -1.7833
 9006SOL     OW38476   1.104   1.439  16.773  0.0760  0.0291 -0.0592
 9006SOL    HW138477   1.029   1.474  16.725  0.0643 -2.0864 -1.6182
 9006SOL    HW238478   1.125   1.507  16.837 -2.9865  1.0786 -0.2106
 9007SOL     OW38479   4.650   1.245   3.918  0.5495  0.3646 -0.4642
 9007SOL    HW138480   0.022   1.262   3.941  0.6859  1.1446 -1.5796
 9007SOL    HW238481   4.663   1.190   3.842 -1.8620 -0.1099 -0.5485
 9008SOL     OW38482   3.343   4.706  14.010 -0.5664 -0.2924  0.0606
 9008SOL    HW138483   3.417   4.680  13.957 -1.3423 -0.1915 -1.0676
 9008SOL    HW238484   3.323   0.075  13.979 -1.3947 -0.8789 -1.0557
 9009SOL     OW38485   3.466   4.041   4.756  0.0556  0.3663 -0.1361
 9009SOL    HW138486   3.546   4.059   4.805 -0.6606  0.7120  0.8971
 9009SOL    HW238487   3.451   4.134   4.742  0.4779  0.2832 -1.2056
 9010SOL     OW38488   1.045   1.982  15.940  0.1007  0.3197  0.6420
 9010SOL    HW138489   1.049   1.894  15.978 -1.7000 -0.1383 -0.2155
 9010SOL    HW238490   1.135   1.984  15.906  0.5752 -1.1859  1.7772
 9011SOL     OW38491   1.140   1.791  12.377 -0.6133 -0.5782 -0.3930
 9011SOL    HW138492   1.069   1.832  12.327 -0.2529 -0.9016 -1.1694
 9011SOL    HW238493   1.223   1.832  12.353  0.2249 -0.3282  3.0306
 9012SOL     OW38494   4.571   4.200   6.655  0.1445  0.2512 -0.3901
 9012SOL    HW138495   4.526   4.139   6.596 -1.7217  2.1204 -0.9235
 9012SOL    HW238496   4.507   4.220   6.724  0.7485  0.9803 -0.0346
 9013SOL     OW38497   2.997   4.250  13.327 -0.3099  0.3410  0.0529
 9013SOL    HW138498   2.913   4.281  13.361 -0.7643 -0.2051 -0.5618
 9013SOL    HW238499   2.987   4.283  13.237 -1.1669 -1.8123 -0.6443
 9014SOL     OW38500   0.983   4.296   5.808  0.1961  0.1124 -0.1225
 9014SOL    HW138501   0.950   4.384   5.793  1.8465  0.8618  0.5895
 9014SOL    HW238502   1.020   4.278   5.722  0.8849 -1.8283  0.5799
 9015SOL     OW38503   4.418   4.212  11.589  0.5193  0.7133  0.2721
 9015SOL    HW138504   4.411   4.286  11.528  1.0012 -1.0115 -1.8547
 9015SOL    HW238505   4.421   4.256  11.674 -1.0642 -1.6026  1.5075
 9016SOL     OW38506   0.789   2.816   4.705 -0.1931 -0.5783  0.7493
 9016SOL    HW138507   0.874   2.858   4.716  0.2839 -0.7930 -1.9172
 9016SOL    HW238508   0.744   2.877   4.763 -1.1753 -0.3224 -0.2811
 9017SOL     OW38509   0.472   2.327  15.387 -0.4343 -0.6669  0.7187
 9017SOL    HW138510   0.417   2.257  15.421 -0.6079  0.2093  2.2540
 9017SOL    HW238511   0.411   2.396  15.411 -0.5193 -0.1416 -0.9925
 9018SOL     OW38512   3.098   0.547   9.841 -0.0609 -0.0424 -0.1486
 9018SOL    HW138513   3.009   0.538   9.809  0.9270 -0.4654 -2.7950
 9018SOL    HW238514   3.099   0.639   9.868  1.4184 -0.0858 -0.0333
 9019SOL     OW38515   1.500   4.083   1.060 -0.0270 -0.1866 -0.3602
 9019SOL    HW138516   1.416   4.040   1.075  0.3597 -0.7965  0.0573
 9019SOL    HW238517   1.511   4.145   1.132 -0.6612  0.0562 -0.4726
 9020SOL     OW38518   1.049   0.083  12.825 -0.1164  0.0081 -0.0056
 9020SOL    HW138519   1.087   0.054  12.908 -0.6150  0.6934  0.4580
 9020SOL    HW238520   0.964   0.041  12.824 -0.2933  0.3566  1.3201
 9021SOL     OW38521   0.576   1.699   6.917 -0.5666 -0.2218  0.1227
 9021SOL    HW138522   0.483   1.722   6.929  0.0272  2.4423 -0.2724
 9021SOL    HW238523   0.580   1.731   6.827 -1.7892  0.6748  0.3731
 9022SOL     OW38524   0.949   1.804   0.105  0.4150 -1.0755 -0.1355
 9022SOL    HW138525   0.970   1.847   0.022 -0.3837  1.1819  0.8361
 9022SOL    HW238526   0.965   1.880   0.161 -1.4826 -1.2992  0.7137
 9023SOL     OW38527   2.511   2.066  16.677 -0.0396  0.2398 -0.2528
 9023SOL    HW138528   2.509   2.150  16.631  0.9760  0.1943 -0.3875
 9023SOL    HW238529   2.441   2.076  16.741 -1.6221  1.3452 -2.1322
 9024SOL     OW38530   4.258   3.982   2.324  0.0249  0.1597  0.7051
 9024SOL    HW138531   4.165   3.976   2.303 -0.0283  0.1297  0.9478
 9024SOL    HW238532   4.285   3.894   2.353  1.3864  0.3370  0.0151
 9025SOL     OW38533   1.150   4.095   8.984  0.1748  0.1150 -0.1227
 9025SOL    HW138534   1.157   4.190   8.988  0.8149  0.0766 -0.3113
 9025SOL    HW238535   1.055   4.081   8.987  0.0517  0.6903 -1.3753
 9026SOL     OW38536   0.875   3.924  13.543  0.7102  0.1183  0.4557
 9026SOL    HW138537   0.895   3.969  13.625  2.4858 -1.4451  0.8778
 9026SOL    HW238538   0.943   3.858  13.530 -1.3129 -1.3641 -2.6106
 9027SOL     OW38539   0.095   1.081   8.593  0.9884 -0.5454 -0.1281
 9027SOL    HW138540   0.015   1.075   8.645  1.3452  0.5881  0.5462
 9027SOL    HW238541   0.113   0.989   8.573  1.1353 -0.7377  0.8790
 9028SOL     OW38542   0.108   1.566  16.200  0.2584  0.0633  0.6869
 9028SOL    HW138543   0.021   1.564  16.160  1.6196  1.4956 -2.3195
 9028SOL    HW238544   0.084   1.590  16.290 -0.4749  0.7823  0.3028
 9029SOL     OW38545   3.704   1.169   5.252 -0.4401  0.4625 -0.2204
 9029SOL    HW138546   3.765   1.113   5.204 -0.1539  1.1042 -0.6029
 9029SOL    HW238547   3.716   1.251   5.206  0.8614 -0.0169 -0.7228
 9030SOL     OW38548   3.102   2.031  15.605 -0.1253 -0.8993 -0.0988
 9030SOL    HW138549   3.042   2.027  15.531  0.4360  2.0747 -0.7014
 9030SOL    HW238550   3.156   1.956  15.578 -0.4366 -1.4748  0.8590
 9031SOL     OW38551   2.330   3.665  12.862 -0.0133  0.4291 -0.1212
 9031SOL    HW138552   2.374   3.687  12.944 -0.0220 -1.7727  0.4706
 9031SOL    HW238553   2.385   3.714  12.800  1.3114 -1.1390 -0.1795
 9032SOL     OW38554   1.770   0.959   4.956  0.4430  0.0433  0.4888
 9032SOL    HW138555   1.839   1.024   4.967  1.0285 -0.4145 -0.3983
 9032SOL    HW238556   1.798   0.887   5.013 -1.1549 -0.3022  0.8493
 9033SOL     OW38557   1.901   3.768   7.438  0.6901 -0.1581  0.0017
 9033SOL    HW138558   1.956   3.846   7.433 -1.5342  1.3375 -1.2477
 9033SOL    HW238559   1.826   3.788   7.382 -1.1696  2.1258  3.2744
 9034SOL     OW38560   3.668   4.677   3.583 -0.4299 -0.0711 -0.1917
 9034SOL    HW138561   3.574   4.684   3.599 -0.6122 -2.6435 -0.1101
 9034SOL    HW238562   3.699   0.031   3.637  2.1005 -1.7982  0.7023
 9035SOL     OW38563   4.216   2.686  15.520  0.2965 -0.2851 -0.5638
 9035SOL    HW138564   4.294   2.739  15.537  0.2516 -0.4522  0.1603
 9035SOL    HW238565   4.223   2.680  15.425 -0.0870 -0.7528 -0.5631
 9036SOL     OW38566   2.620   0.345   4.086  0.1155  0.2944  0.1133
 9036SOL    HW138567   2.629   0.268   4.029 -1.8703 -0.8506  1.3501
 9036SOL    HW238568   2.648   0.411   4.023 -2.7313 -0.1737 -1.6277
 9037SOL     OW38569   0.997   2.250   3.999 -0.3812  0.0640  0.5723
 9037SOL    HW138570   1.023   2.335   3.963  1.2429  0.1285  1.8738
 9037SOL    HW238571   1.074   2.230   4.053  0.9403  1.3595 -0.7945
 9038SOL     OW38572   0.148   3.332   2.608 -0.1106 -0.3312 -0.1186
 9038SOL    HW138573   0.152   3.341   2.513  0.5932  1.7351  0.1089
 9038SOL    HW238574   0.203   3.409   2.625 -0.2862 -1.0543  3.7762
 9039SOL     OW38575   2.155   0.689   2.047 -0.2176 -0.8125  0.0073
 9039SOL    HW138576   2.237   0.667   2.001  1.2366  1.3728  1.5954
 9039SOL    HW238577   2.084   0.674   1.985 -1.8891 -0.2199  1.7868
 9040SOL     OW38578   2.253   0.840   4.434  1.3383  0.2427 -0.4162
 9040SOL    HW138579   2.158   0.833   4.419  1.5027  0.1534 -1.3578
 9040SOL    HW238580   2.280   0.760   4.478 -1.8387 -0.5232  0.1879
 9041SOL     OW38581   3.723   4.202   2.518 -0.2308  0.5571  0.2027
 9041SOL    HW138582   3.806   4.240   2.491 -0.5511  2.0046  1.2593
 9041SOL    HW238583   3.664   4.262   2.473 -1.0522  1.0271  1.8862
 9042SOL     OW38584   0.347   0.409   3.413 -0.7279  0.1093  0.3685
 9042SOL    HW138585   0.375   0.336   3.469  0.3655 -0.6858 -1.2066
 9042SOL    HW238586   0.394   0.484   3.450  0.8064 -1.3352  1.3237
 9043SOL     OW38587   0.665   4.643   6.487 -0.2436 -0.2070 -0.7526
 9043SOL    HW138588   0.606   4.578   6.449  1.0190 -3.6201  3.0696
 9043SOL    HW238589   0.689   4.595   6.566 -1.2276  3.1313  1.5993
 9044SOL     OW38590   3.676   0.868   2.069 -0.0567 -0.1414  0.3393
 9044SOL    HW138591   3.708   0.954   2.098  0.7187 -0.4193  0.3195
 9044SOL    HW238592   3.623   0.855   2.147 -1.8062  1.8340 -0.5262
 9045SOL     OW38593   0.170   2.341  16.760  0.2645  0.2045  0.0724
 9045SOL    HW138594   0.148   2.339  16.667  0.6112 -1.6231  0.0258
 9045SOL    HW238595   0.154   2.253  16.794 -1.8743  0.8179  0.6962
 9046SOL     OW38596   3.200   3.887   8.790 -0.1753 -0.1817  0.4963
 9046SOL    HW138597   3.169   3.888   8.700  0.3724  1.0993  0.3106
 9046SOL    HW238598   3.243   3.971   8.806  2.2719 -1.0871 -1.3480
 9047SOL     OW38599   2.335   0.423   0.443 -0.0943  0.2142  0.2590
 9047SOL    HW138600   2.333   0.509   0.486 -0.8372  0.8046 -0.9509
 9047SOL    HW238601   2.310   0.370   0.519 -1.1019 -0.6316 -0.6588
 9048SOL     OW38602   2.968   1.550   8.544  0.2787  0.5333 -0.2434
 9048SOL    HW138603   3.022   1.483   8.585  0.2350  0.3000 -0.5686
 9048SOL    HW238604   2.881   1.509   8.545  1.7938 -2.7032 -1.8027
 9049SOL     OW38605   0.104   1.250   5.951 -0.1368 -0.0783  0.2143
 9049SOL    HW138606   0.176   1.308   5.925 -1.2837 -0.3400 -3.5657
 9049SOL    HW238607   0.130   1.234   6.042  2.0059  0.7440 -0.2499
 9050SOL     OW38608   3.458   3.530   5.057 -0.0774  1.1154  0.2733
 9050SOL    HW138609   3.536   3.517   5.003  0.0915  0.0408  0.7673
 9050SOL    HW238610   3.398   3.566   4.992  0.9085  0.8683 -0.7679
 9051SOL     OW38611   3.587   3.233  13.247  0.3002 -0.0357  0.0924
 9051SOL    HW138612   3.533   3.240  13.168  1.6744 -0.6691 -0.9129
 9051SOL    HW238613   3.594   3.328  13.256  1.3308 -0.2532  1.5964
 9052SOL     OW38614   3.307   2.980   8.997  0.0952  0.6655 -0.2023
 9052SOL    HW138615   3.213   2.999   8.991 -0.1445  0.3381  2.3672
 9052SOL    HW238616   3.348   3.025   8.923  2.1154  0.2000  0.6320
 9053SOL     OW38617   3.484   0.832   7.336 -0.4251 -0.2166  0.6682
 9053SOL    HW138618   3.547   0.879   7.282 -1.9452  2.3350  1.1211
 9053SOL    HW238619   3.536   0.753   7.354  0.1530 -0.5549 -2.4836
 9054SOL     OW38620   2.105   1.841  15.852 -0.4959  0.6154  0.5305
 9054SOL    HW138621   2.069   1.853  15.940  0.2668  0.3586  0.8778
 9054SOL    HW238622   2.026   1.839  15.799 -0.0414  0.9862 -0.1474
 9055SOL     OW38623   4.056   3.272   1.621  0.1825 -0.0318 -0.1375
 9055SOL    HW138624   3.998   3.204   1.588 -0.6775 -0.3387  1.9891
 9055SOL    HW238625   4.022   3.338   1.561  1.9005 -0.1288 -1.2265
 9056SOL     OW38626   3.091   2.003   0.316  0.0883 -0.1799 -0.0286
 9056SOL    HW138627   3.134   1.929   0.360  1.2112  0.1791 -0.5171
 9056SOL    HW238628   3.042   2.047   0.385  2.3822  0.2618  1.3065
 9057SOL     OW38629   0.544   1.746   7.344 -0.3200 -0.1421 -0.3509
 9057SOL    HW138630   0.614   1.744   7.409  1.9149  0.7805 -2.6853
 9057SOL    HW238631   0.523   1.655   7.321  0.5633 -0.0776 -1.4452
 9058SOL     OW38632   3.294   3.709   7.995  0.5083 -0.2386  0.4551
 9058SOL    HW138633   3.281   3.803   7.985  0.5338 -0.2003  0.7627
 9058SOL    HW238634   3.290   3.666   7.909 -0.5531 -2.5768  1.6595
 9059SOL     OW38635   3.699   2.059   2.779 -0.3558 -0.2392  0.3176
 9059SOL    HW138636   3.786   2.097   2.790 -0.6203  0.9081 -1.5143
 9059SOL    HW238637   3.668   2.099   2.697  0.2572 -0.0730  0.1686
 9060SOL     OW38638   1.268   0.324   8.469 -0.7213  0.0073  0.1558
 9060SOL    HW138639   1.347   0.378   8.467 -2.4798  2.5655 -1.1329
 9060SOL    HW238640   1.291   0.267   8.543  0.9898 -0.5610 -0.8273
 9061SOL     OW38641   3.214   4.386  15.866 -0.5238  0.1779 -0.7397
 9061SOL    HW138642   3.120   4.378  15.852 -0.6661 -0.1122  0.3856
 9061SOL    HW238643   3.243   4.448  15.799  0.6996 -0.5978 -0.9247
 9062SOL     OW38644   0.626   1.647   6.243  0.2405 -0.2714  0.3656
 9062SOL    HW138645   0.620   1.581   6.312 -0.8474  0.1758  0.6884
 9062SOL    HW238646   0.720   1.665   6.238 -0.2671  2.9297  1.9603
 9063SOL     OW38647   1.812   0.607   8.689 -0.2471  0.0430 -0.0566
 9063SOL    HW138648   1.764   0.542   8.739  1.0615 -0.0946  1.0090
 9063SOL    HW238649   1.804   0.680   8.750  0.5348 -0.3484  0.5071
 9064SOL     OW38650   2.786   0.813   1.856 -0.5703  0.0628  0.2097
 9064SOL    HW138651   2.789   0.753   1.780  1.7270 -2.1238  1.9949
 9064SOL    HW238652   2.866   0.784   1.899 -1.8316 -1.0333  1.7930
 9065SOL     OW38653   3.863   2.845   6.875  0.0418  0.1761 -0.4035
 9065SOL    HW138654   3.785   2.900   6.866  1.7627  2.6786 -0.0543
 9065SOL    HW238655   3.935   2.902   6.904 -1.7124  0.5002  3.2428
 9066SOL     OW38656   0.198   2.486   3.558 -0.2726 -0.2660 -0.5702
 9066SOL    HW138657   0.271   2.485   3.620  0.0049 -1.9755 -0.9203
 9066SOL    HW238658   0.241   2.511   3.476  3.8061 -1.4438  1.2232
 9067SOL     OW38659   3.452   2.416   8.084 -0.5371  0.3600  0.0467
 9067SOL    HW138660   3.474   2.498   8.127  1.7268 -0.5531  0.6406
 9067SOL    HW238661   3.430   2.364   8.162 -0.1696 -0.7965 -0.6098
 9068SOL     OW38662   3.899   2.626  16.985 -0.2303  0.6685 -0.1882
 9068SOL    HW138663   3.869   2.559  16.924 -1.4429  0.3694  0.7336
 9068SOL    HW238664   3.918   2.582  17.069  2.1445 -0.9811 -1.5949
 9069SOL     OW38665   2.620   2.621  10.456  0.0380 -0.5199 -0.1332
 9069SOL    HW138666   2.712   2.645  10.471 -0.4696  2.2643 -1.3135
 9069SOL    HW238667   2.576   2.694  10.500  1.4442  0.4670 -0.3426
 9070SOL     OW38668   4.405   3.667   5.166  0.0318  0.3570 -0.0342
 9070SOL    HW138669   4.487   3.657   5.119  0.3345 -0.0638  0.5884
 9070SOL    HW238670   4.430   3.637   5.254  0.2252  2.7776  0.7316
 9071SOL     OW38671   4.184   0.569   9.144 -0.4282  0.2738  0.5306
 9071SOL    HW138672   4.117   0.633   9.167 -1.0130  0.0448 -0.5527
 9071SOL    HW238673   4.247   0.618   9.093  0.2952 -1.1442  0.0590
 9072SOL     OW38674   0.821   3.887   8.985 -0.4138 -0.4730 -0.7458
 9072SOL    HW138675   0.825   3.957   8.920 -1.1701  0.6868  0.4511
 9072SOL    HW238676   0.882   3.821   8.954  0.7247 -0.9812  2.5123
 9073SOL     OW38677   2.353   2.820  10.544 -0.0090 -0.4032  0.6188
 9073SOL    HW138678   2.287   2.868  10.593 -0.0915 -1.2891  1.3745
 9073SOL    HW238679   2.418   2.887  10.522  2.4507 -2.7044  0.9174
 9074SOL     OW38680   0.056   0.478  10.610  0.3356 -0.2804 -0.1225
 9074SOL    HW138681   4.701   0.418  10.602 -0.6613  0.5018  2.9930
 9074SOL    HW238682   0.062   0.483  10.705 -0.0944  1.6684 -0.1987
 9075SOL     OW38683   3.400   4.680  12.262 -1.2297  0.2177  0.0075
 9075SOL    HW138684   3.450   0.042  12.269 -0.9062  0.2936 -2.9721
 9075SOL    HW238685   3.400   4.659  12.168 -0.3003  0.3216 -0.0207
 9076SOL     OW38686   1.855   0.476  15.065 -0.5772 -0.0133  0.0781
 9076SOL    HW138687   1.913   0.507  14.996 -2.8404 -0.7005 -2.1217
 9076SOL    HW238688   1.913   0.419  15.115 -1.0077 -0.3009  0.2527
 9077SOL     OW38689   1.970   2.773   3.479 -0.2265  0.2689  0.2951
 9077SOL    HW138690   2.038   2.789   3.545 -0.5124  3.0404 -0.0903
 9077SOL    HW238691   2.028   2.726   3.419 -2.0205 -0.7758 -0.6161
 9078SOL     OW38692   0.508   3.098   3.354 -0.0528 -0.2810  1.0350
 9078SOL    HW138693   0.515   3.104   3.259 -0.3133  1.8164  1.1528
 9078SOL    HW238694   0.520   3.187   3.386 -0.1271 -0.0261  0.3463
 9079SOL     OW38695   4.437   1.283   8.580 -0.0162 -0.5411 -0.1018
 9079SOL    HW138696   4.494   1.248   8.648  1.0624  1.4842  0.0462
 9079SOL    HW238697   4.391   1.349   8.632 -0.1459 -0.4591 -0.3202
 9080SOL     OW38698   2.757   0.949   8.178 -0.4529  0.7018 -0.3161
 9080SOL    HW138699   2.673   0.904   8.164 -0.8661  1.8014 -1.3290
 9080SOL    HW238700   2.763   0.930   8.271 -0.4146 -1.5490 -0.7612
 9081SOL     OW38701   0.081   3.523  17.254 -0.8007  0.0891  0.0280
 9081SOL    HW138702   0.011   3.522  17.319 -0.4712 -2.1885  0.3429
 9081SOL    HW238703   0.153   3.487  17.306  1.0777  0.2545 -2.4295
 9082SOL     OW38704   2.049   4.340  13.752  0.3440 -0.3681 -0.2651
 9082SOL    HW138705   2.046   4.316  13.844 -2.1011  3.4252  0.6496
 9082SOL    HW238706   2.071   4.433  13.760  0.4226 -0.4248  0.1366
 9083SOL     OW38707   4.510   4.712   2.145  0.5067 -0.1794 -0.6064
 9083SOL    HW138708   4.584   4.682   2.092  1.2496  0.8369 -0.1453
 9083SOL    HW238709   4.501   0.083   2.116  0.2047  0.7024  2.2042
 9084SOL     OW38710   0.005   0.301   9.722 -0.5143 -0.2671  0.6342
 9084SOL    HW138711   4.653   0.364   9.737 -0.7005 -0.1077 -0.9214
 9084SOL    HW238712   0.028   0.285   9.813  1.5857 -0.9288 -0.0171
 9085SOL     OW38713   3.896   1.992   4.123 -0.2430 -0.1528 -0.0720
 9085SOL    HW138714   3.917   1.943   4.203  0.4987 -0.7394 -0.6361
 9085SOL    HW238715   3.879   1.925   4.057 -0.9535 -0.5284  0.4849
 9086SOL     OW38716   3.277   0.335   0.316 -0.7547 -0.1513  0.1796
 9086SOL    HW138717   3.276   0.316   0.223 -1.8702  0.4749  0.0692
 9086SOL    HW238718   3.281   0.431   0.318 -0.0499 -0.1519 -1.6978
 9087SOL     OW38719   4.591   0.147  16.869  0.4143  0.0658 -0.3180
 9087SOL    HW138720   4.551   0.076  16.818 -1.2156  0.2453  0.7132
 9087SOL    HW238721   4.686   0.133  16.862  0.1138 -2.1843 -0.1330
 9088SOL     OW38722   0.763   0.352  16.952  0.2952 -0.0160 -0.6187
 9088SOL    HW138723   0.722   0.319  16.872  0.2105 -0.4458 -0.3988
 9088SOL    HW238724   0.749   0.447  16.944 -0.1586 -0.1111 -0.9640
 9089SOL     OW38725   0.710   1.032  11.927 -0.4057  0.1450 -0.1101
 9089SOL    HW138726   0.686   1.115  11.887  0.9883 -0.8165 -3.0152
 9089SOL    HW238727   0.762   1.000  11.852  0.0638  0.4155  0.1049
 9090SOL     OW38728   2.278   3.064   5.748 -0.2715  0.4681 -0.0331
 9090SOL    HW138729   2.186   3.060   5.776 -0.2690  0.4191 -0.0326
 9090SOL    HW238730   2.301   2.972   5.757  0.6126  0.6890 -0.0292
 9091SOL     OW38731   3.467   0.480  12.652 -0.1004 -0.1536  0.3637
 9091SOL    HW138732   3.482   0.573  12.636  0.7908 -0.7624 -2.3620
 9091SOL    HW238733   3.555   0.448  12.674 -0.5276 -1.0760  0.7245
 9092SOL     OW38734   4.571   1.917   5.036  0.4917  0.2601 -0.0399
 9092SOL    HW138735   4.584   2.011   5.020  0.5979  0.3889  0.7640
 9092SOL    HW238736   4.494   1.917   5.092  0.6113 -2.3635  0.0905
 9093SOL     OW38737   3.225   1.585   9.522 -0.3834 -0.5014 -0.3088
 9093SOL    HW138738   3.262   1.666   9.558 -0.2868 -0.1436 -1.2373
 9093SOL    HW238739   3.167   1.611   9.451 -0.5340  1.3695  0.4927
 9094SOL     OW38740   0.503   4.214   5.779 -0.5779  0.2469  0.4988
 9094SOL    HW138741   0.556   4.163   5.718 -0.7452  0.2848  0.3258
 9094SOL    HW238742   0.433   4.243   5.721  1.8257  2.0017 -1.5217
 9095SOL     OW38743   4.467   1.840  11.671  0.3153  0.2210 -0.6089
 9095SOL    HW138744   4.476   1.935  11.675  0.3687  0.1903 -0.0434
 9095SOL    HW238745   4.375   1.814  11.679  0.4885 -0.0058  0.6259
 9096SOL     OW38746   1.747   0.904   4.430  0.4213  0.0105  0.3889
 9096SOL    HW138747   1.672   0.847   4.415 -0.0273  0.1723  1.9715
 9096SOL    HW238748   1.740   0.928   4.523  0.1967  1.3108  0.0302
 9097SOL     OW38749   3.145   4.290   9.919  0.1532 -0.2688 -0.1882
 9097SOL    HW138750   3.152   4.223   9.851  0.8487  0.4974 -0.8856
 9097SOL    HW238751   3.053   4.316   9.920  0.2502  0.1494 -1.2816
 9098SOL     OW38752   4.587   2.665   3.571 -0.2943 -0.0508 -0.5857
 9098SOL    HW138753   4.616   2.753   3.549 -0.7244  0.3501  0.4388
 9098SOL    HW238754   4.497   2.671   3.539 -0.7989 -1.2749  0.5839
 9099SOL     OW38755   0.032   4.541   3.938 -0.6909 -0.2245 -0.4221
 9099SOL    HW138756   0.099   4.593   3.894 -1.0890 -0.3422 -1.1694
 9099SOL    HW238757   4.678   4.603   3.939 -0.9950 -0.6050  1.0881
 9100SOL     OW38758   2.379   2.566   7.576 -0.6290  0.3610  0.5213
 9100SOL    HW138759   2.443   2.519   7.523 -0.5680  1.0416 -0.0002
 9100SOL    HW238760   2.351   2.637   7.518 -0.4611 -1.1272 -1.3797
 9101SOL     OW38761   1.658   3.511   7.568 -0.0732 -0.2669  0.0552
 9101SOL    HW138762   1.725   3.556   7.620 -0.7196  1.3449 -0.4886
 9101SOL    HW238763   1.685   3.543   7.481 -2.0018  2.6343  0.5040
 9102SOL     OW38764   2.053   0.036   2.671 -0.3529 -0.0249  0.0347
 9102SOL    HW138765   1.972   0.050   2.621 -0.9274  2.2274  1.5966
 9102SOL    HW238766   2.098   4.695   2.612  1.1227  0.5509  0.5820
 9103SOL     OW38767   1.512   4.561   7.009  0.0763  0.1328 -0.0753
 9103SOL    HW138768   1.491   4.623   6.939  0.5798 -1.3837 -1.5815
 9103SOL    HW238769   1.552   4.614   7.079 -0.9036  4.3341 -2.6706
 9104SOL     OW38770   2.279   3.700   9.665 -0.6242 -0.7400 -0.6840
 9104SOL    HW138771   2.216   3.636   9.632  1.0634 -2.0464 -1.4072
 9104SOL    HW238772   2.290   3.674   9.756  0.7566 -2.2426 -1.2778
 9105SOL     OW38773   3.455   1.651   9.868  0.3532 -0.2121 -0.4814
 9105SOL    HW138774   3.421   1.685   9.950 -1.5183 -1.0499 -0.8935
 9105SOL    HW238775   3.444   1.559   9.893  1.0081  0.3535  1.7983
 9106SOL     OW38776   2.295   3.244   2.302  0.3683 -0.0673  0.0427
 9106SOL    HW138777   2.329   3.170   2.352  0.6714  0.5852  0.7975
 9106SOL    HW238778   2.335   3.317   2.348 -2.4531  0.4652  1.6588
 9107SOL     OW38779   4.674   3.814  15.079  0.2423  0.3707 -0.5748
 9107SOL    HW138780   0.024   3.857  15.030  1.3119 -1.5032 -0.7099
 9107SOL    HW238781   0.009   3.783  15.151  1.0051  0.4289 -1.1273
 9108SOL     OW38782   0.451   3.019   6.472 -0.6457 -0.2493 -0.2336
 9108SOL    HW138783   0.481   3.110   6.470  2.6322 -1.3604 -0.1240
 9108SOL    HW238784   0.535   2.981   6.495 -1.1629 -0.6016  1.0801
 9109SOL     OW38785   1.929   2.827  12.157  0.3017 -0.2488 -0.2043
 9109SOL    HW138786   1.949   2.903  12.101 -1.1360  0.6636  0.5076
 9109SOL    HW238787   2.013   2.810  12.199 -0.0437 -3.3755 -0.8471
 9110SOL     OW38788   3.245   0.784   5.003  0.1314  0.1985 -0.3258
 9110SOL    HW138789   3.327   0.813   5.043 -0.8149  1.6301  0.5444
 9110SOL    HW238790   3.230   0.856   4.941 -0.5683  1.1374  0.9478
 9111SOL     OW38791   4.026   2.506   3.350 -0.7699 -0.1337  0.0317
 9111SOL    HW138792   4.032   2.422   3.394 -2.6971 -0.2884  0.0219
 9111SOL    HW238793   4.112   2.515   3.310 -0.5842  0.7096  0.5954
 9112SOL     OW38794   2.010   1.946  17.414 -0.5369 -0.0989  0.0395
 9112SOL    HW138795   2.040   2.034  17.437  0.0579  0.0978 -1.4697
 9112SOL    HW238796   2.007   1.950  17.319 -0.8098 -0.2494  0.0398
 9113SOL     OW38797   0.312   1.415  11.061 -0.1200  0.6513 -0.1404
 9113SOL    HW138798   0.395   1.453  11.089  0.3853 -0.9203  0.5295
 9113SOL    HW238799   0.286   1.470  10.987 -2.7948 -2.0257 -1.2056
 9114SOL     OW38800   1.962   3.804   4.098 -0.4521  0.3508  0.5073
 9114SOL    HW138801   1.928   3.887   4.064  1.2333  0.7629 -0.1249
 9114SOL    HW238802   2.034   3.777   4.043 -1.6965  0.3066 -1.0992
 9115SOL     OW38803   3.920   3.729  17.429  0.4258  0.1786  0.1220
 9115SOL    HW138804   3.853   3.660  17.436 -0.5516  1.2276  1.0385
 9115SOL    HW238805   3.887   3.765  17.346  0.5864 -3.1648 -1.4048
 9116SOL     OW38806   3.367   4.136   0.689  0.2920 -0.4948 -0.0233
 9116SOL    HW138807   3.398   4.129   0.779  0.0555 -1.6417 -0.0295
 9116SOL    HW238808   3.451   4.141   0.644  1.6245  0.2355  2.5581
 9117SOL     OW38809   1.601   3.892  15.039  0.6717  0.0814  0.3058
 9117SOL    HW138810   1.507   3.879  15.054  0.5941  0.2733 -0.0124
 9117SOL    HW238811   1.615   3.809  14.994 -0.9111  0.0326 -0.1032
 9118SOL     OW38812   0.219   1.395   3.933  0.5367  0.5536 -0.4153
 9118SOL    HW138813   0.296   1.344   3.959 -0.1117 -0.8844 -1.3157
 9118SOL    HW238814   0.210   1.454   4.008  0.2930 -2.4950  1.9645
 9119SOL     OW38815   4.536   1.475   0.965 -0.1900 -0.3083  0.7097
 9119SOL    HW138816   4.461   1.498   0.911  1.0857  1.8899 -0.1096
 9119SOL    HW238817   4.614   1.513   0.925 -0.0134 -0.0754  1.2740
 9120SOL     OW38818   3.524   3.143   3.678 -0.0036 -0.2443 -0.3417
 9120SOL    HW138819   3.551   3.187   3.758 -0.0144  0.2839 -0.6317
 9120SOL    HW238820   3.460   3.210   3.652 -0.3714  0.2124  1.7325
 9121SOL     OW38821   2.171   3.923  10.023 -0.4775  0.1089  0.1250
 9121SOL    HW138822   2.259   3.913  10.060 -0.0390  2.2266 -0.3600
 9121SOL    HW238823   2.125   3.983  10.082  0.9481  2.9050 -1.5840
 9122SOL     OW38824   4.446   0.135  12.478  0.1021  0.3266 -0.0589
 9122SOL    HW138825   4.462   0.043  12.456 -0.6870  0.4316 -1.0903
 9122SOL    HW238826   4.351   0.133  12.477  0.1216 -0.6498  0.4109
 9123SOL     OW38827   2.709   3.004   8.174 -0.0229 -0.4237  0.1392
 9123SOL    HW138828   2.756   2.964   8.101  2.4079  2.4418  0.1513
 9123SOL    HW238829   2.752   2.964   8.250  2.0162 -1.3824 -1.5175
 9124SOL     OW38830   4.645   3.640   5.056 -0.1337 -0.1005 -0.0103
 9124SOL    HW138831   4.676   3.615   4.969 -0.5291 -1.0447  0.1121
 9124SOL    HW238832   4.710   3.705   5.081  1.0821 -1.0124 -0.7889
 9125SOL     OW38833   3.506   3.532   9.426  0.0654  0.2911 -0.2434
 9125SOL    HW138834   3.550   3.544   9.510 -0.1142 -0.2482 -0.0761
 9125SOL    HW238835   3.440   3.468   9.453 -1.1057  1.6959  0.2557
 9126SOL     OW38836   4.118   3.961   6.403  0.0028 -0.0327 -0.1642
 9126SOL    HW138837   4.047   3.905   6.371 -0.6903  0.7164  0.0558
 9126SOL    HW238838   4.177   3.952   6.328  0.0957 -1.0766  0.0257
 9127SOL     OW38839   2.472   3.900   7.842 -0.1818  0.2635  0.4843
 9127SOL    HW138840   2.546   3.958   7.826  0.3072 -0.6061 -0.4368
 9127SOL    HW238841   2.399   3.950   7.804  1.9749  0.3074 -3.6072
 9128SOL     OW38842   1.324   2.935   2.208 -0.1030  0.0673  0.0256
 9128SOL    HW138843   1.374   2.944   2.126 -1.0560  1.0445 -0.4548
 9128SOL    HW238844   1.310   3.028   2.227 -2.6605  0.1046 -1.9495
 9129SOL     OW38845   2.051   1.326   3.972  0.0796  0.1786  0.0404
 9129SOL    HW138846   2.036   1.337   3.878 -0.1532  0.6527  0.1336
 9129SOL    HW238847   1.962   1.332   4.005 -0.5557 -1.2155 -1.4591
 9130SOL     OW38848   1.943   0.614  16.693  0.3411 -0.0593  0.9763
 9130SOL    HW138849   1.945   0.524  16.723  0.6615 -0.2484  0.3802
 9130SOL    HW238850   1.991   0.611  16.610  0.2287  1.3240  0.8475
 9131SOL     OW38851   2.041   0.261  11.145  0.1761 -0.2330 -0.0118
 9131SOL    HW138852   2.094   0.188  11.113  2.0011  1.1339 -0.1691
 9131SOL    HW238853   1.960   0.225  11.110  1.6842 -1.8587 -1.8369
 9132SOL     OW38854   4.649   3.825   1.206 -0.6219  0.5020 -0.8086
 9132SOL    HW138855   4.704   3.862   1.275 -0.9016  1.2970 -1.0058
 9132SOL    HW238856   4.650   3.730   1.217 -1.2209  0.6686  0.6112
 9133SOL     OW38857   4.573   3.277   9.961  1.0976 -0.1754 -0.1712
 9133SOL    HW138858   4.655   3.238   9.990  0.5529  0.2720  2.0101
 9133SOL    HW238859   4.515   3.203   9.976 -1.8775  2.5507  1.8782
 9134SOL     OW38860   4.451   0.587  11.730  0.3220  0.0463  0.1568
 9134SOL    HW138861   4.513   0.602  11.801  0.3964 -1.4286  0.3900
 9134SOL    HW238862   4.482   0.506  11.690  2.5553  1.6444 -1.3420
 9135SOL     OW38863   0.615   2.972   7.540 -0.2485 -0.4364  0.2864
 9135SOL    HW138864   0.682   2.954   7.607 -0.2649  0.8440  0.6471
 9135SOL    HW238865   0.549   3.027   7.582 -1.2668 -3.0571  2.1100
 9136SOL     OW38866   3.129   3.509   9.312  0.2710  0.3950 -0.6127
 9136SOL    HW138867   3.055   3.563   9.284  1.9411  2.0474 -1.8310
 9136SOL    HW238868   3.160   3.471   9.230  4.6657 -2.7615  2.5167
 9137SOL     OW38869   2.729   3.236   8.780  0.3346 -0.1414 -0.0668
 9137SOL    HW138870   2.793   3.271   8.717 -0.1017  0.5162 -0.1387
 9137SOL    HW238871   2.665   3.217   8.711  0.5038  0.2213 -0.3283
 9138SOL     OW38872   2.764   1.040   2.995 -0.6798  0.1475 -0.2817
 9138SOL    HW138873   2.859   1.055   3.003 -0.8220  1.4390 -1.0544
 9138SOL    HW238874   2.761   1.016   2.903 -1.1048  0.5722 -0.3737
 9139SOL     OW38875   0.394   2.234   5.252 -0.1707 -0.0136  0.5811
 9139SOL    HW138876   0.368   2.176   5.323 -1.0719  0.1694  0.4100
 9139SOL    HW238877   0.488   2.223   5.264 -0.4133 -0.9684  1.5733
 9140SOL     OW38878   2.400   2.983   7.325  0.0823  0.5303  0.1451
 9140SOL    HW138879   2.338   3.054   7.310 -0.6762 -0.0460  0.5470
 9140SOL    HW238880   2.460   3.004   7.254 -0.5402  1.5580 -0.0814
 9141SOL     OW38881   2.582   0.507   9.504 -0.1700  0.2076 -0.3045
 9141SOL    HW138882   2.640   0.578   9.529  0.2553  0.1798 -1.2138
 9141SOL    HW238883   2.495   0.541   9.523  0.8045  3.8802 -2.4061
 9142SOL     OW38884   3.967   0.767   7.795 -0.2610  0.1343 -0.1027
 9142SOL    HW138885   3.906   0.840   7.804 -1.3395 -0.9959  1.7692
 9142SOL    HW238886   3.936   0.741   7.708 -0.6816 -1.5096  0.5264
 9143SOL     OW38887   1.865   2.533   3.376  0.5115 -0.0875  0.5644
 9143SOL    HW138888   1.770   2.544   3.382  0.4410  1.0902 -2.8746
 9143SOL    HW238889   1.895   2.618   3.408 -2.3763  1.6559 -1.3397
 9144SOL     OW38890   0.950   0.503   5.420  0.5696 -0.1470 -0.6694
 9144SOL    HW138891   0.876   0.551   5.457 -0.0934 -0.5396 -1.4779
 9144SOL    HW238892   0.900   0.421   5.412  1.4147 -0.7042 -0.1774
 9145SOL     OW38893   1.956   0.163   8.599 -0.4798  0.4336 -0.4120
 9145SOL    HW138894   1.992   0.196   8.681 -0.3140 -0.2348 -0.2237
 9145SOL    HW238895   1.988   0.233   8.541 -0.7808  0.6755 -0.2894
 9146SOL     OW38896   1.863   0.786   1.726  0.4084  0.2517  0.2308
 9146SOL    HW138897   1.768   0.776   1.719  0.4378  0.9879 -1.2137
 9146SOL    HW238898   1.875   0.871   1.684 -0.7323  0.0210 -0.5858
 9147SOL     OW38899   2.644   0.638  11.753 -0.0027 -0.2092 -0.1993
 9147SOL    HW138900   2.684   0.724  11.738 -3.1608  0.7436 -3.2212
 9147SOL    HW238901   2.684   0.617  11.837  1.9083  1.0620 -0.7820
 9148SOL     OW38902   3.303   3.876  15.704  0.2516  0.2138  0.0196
 9148SOL    HW138903   3.262   3.953  15.743  0.4109  0.4563 -0.2969
 9148SOL    HW238904   3.367   3.858  15.774 -3.2570  0.4724  3.3250
 9149SOL     OW38905   2.567   3.925   9.355  0.7312  0.0636 -0.2229
 9149SOL    HW138906   2.661   3.919   9.369  0.9143  4.0815  0.1509
 9149SOL    HW238907   2.538   3.836   9.377  1.2105 -1.0040 -3.8892
 9150SOL     OW38908   0.416   0.330  13.580  0.5205 -0.3012  0.2060
 9150SOL    HW138909   0.443   0.345  13.671 -1.2761 -3.6960  1.3042
 9150SOL    HW238910   0.327   0.364  13.578  0.2016 -1.2252 -0.8014
 9151SOL     OW38911   1.949   3.941   3.384 -0.0748  0.0845 -0.2543
 9151SOL    HW138912   1.899   3.913   3.461  1.3704  0.6546  0.8966
 9151SOL    HW238913   1.880   3.964   3.322  0.4370 -2.6192 -1.8053
 9152SOL     OW38914   3.499   2.660   4.503 -0.0061  0.1489  0.2194
 9152SOL    HW138915   3.456   2.715   4.438  1.3904  0.1784 -0.6827
 9152SOL    HW238916   3.592   2.679   4.489 -0.4148  1.2491 -1.0559
 9153SOL     OW38917   1.129   1.069   8.268 -0.1393 -0.4137  0.0338
 9153SOL    HW138918   1.082   1.072   8.184 -0.2058 -1.0068  0.0505
 9153SOL    HW238919   1.218   1.051   8.239 -0.2291  1.2215 -1.3032
 9154SOL     OW38920   3.990   0.145  14.411  0.2428 -0.3333 -0.5568
 9154SOL    HW138921   4.031   0.220  14.453  0.5749  0.5159 -2.3765
 9154SOL    HW238922   4.073   0.096  14.413  0.1720 -0.3175  2.3321
 9155SOL     OW38923   0.488   2.569   8.331  0.2717 -0.4470 -0.1676
 9155SOL    HW138924   0.566   2.536   8.376  0.9975  0.2434 -0.9257
 9155SOL    HW238925   0.506   2.661   8.348 -3.8821 -0.0253  1.9262
 9156SOL     OW38926   0.153   3.067   4.251 -0.1270 -0.2675  0.2965
 9156SOL    HW138927   0.119   2.988   4.209  0.7167 -0.3977 -0.1560
 9156SOL    HW238928   0.230   3.082   4.195 -0.8840  1.4540 -0.2852
 9157SOL     OW38929   0.216   2.268   1.874  0.2690 -0.3874  0.3573
 9157SOL    HW138930   0.270   2.320   1.932 -0.6183 -1.5523  2.2342
 9157SOL    HW238931   0.229   2.183   1.916 -1.0116 -1.6363 -1.7342
 9158SOL     OW38932   0.671   2.426   2.103  0.3275  0.2027 -0.2426
 9158SOL    HW138933   0.760   2.457   2.124  0.7963 -3.3577  2.9506
 9158SOL    HW238934   0.685   2.428   2.008  0.5577 -1.3835 -0.2380
 9159SOL     OW38935   1.395   4.315  16.512 -0.2144  0.1813 -0.1961
 9159SOL    HW138936   1.415   4.222  16.526 -2.0972 -0.2460 -0.2849
 9159SOL    HW238937   1.477   4.353  16.482 -0.4450 -0.0041 -1.0808
 9160SOL     OW38938   3.098   3.922   8.504  0.6086  0.2116 -0.2494
 9160SOL    HW138939   3.045   4.002   8.502  0.5759  0.2322  1.3913
 9160SOL    HW238940   3.185   3.942   8.469  0.2411  1.5485 -0.4002
 9161SOL     OW38941   4.709   2.626  12.091 -0.1697  0.1038 -0.0929
 9161SOL    HW138942   4.629   2.605  12.138  0.2316 -0.4538  0.3361
 9161SOL    HW238943   4.684   2.635  11.999  1.8566  0.2467 -0.6344
 9162SOL     OW38944   3.135   4.146   3.333 -0.2067 -0.2470  0.4858
 9162SOL    HW138945   3.085   4.214   3.287  1.4644  0.5489 -0.1459
 9162SOL    HW238946   3.153   4.096   3.253  1.7823  1.9488 -0.4441
 9163SOL     OW38947   0.008   1.935   0.745 -0.1804  0.0741  0.1389
 9163SOL    HW138948   4.669   2.011   0.744 -0.9055 -0.4927 -0.6955
 9163SOL    HW238949   0.075   1.971   0.686  0.1529  1.9146  1.6470
 9164SOL     OW38950   0.834   3.355   6.715  0.0934 -0.0104  0.6694
 9164SOL    HW138951   0.859   3.444   6.688 -0.5458  0.6014  2.0625
 9164SOL    HW238952   0.741   3.366   6.736  0.3967  0.2381  1.9072
 9165SOL     OW38953   0.459   0.276  14.246  0.1621  0.2436  0.1930
 9165SOL    HW138954   0.458   0.340  14.174  0.9155  0.9315  0.8053
 9165SOL    HW238955   0.500   0.198  14.209  0.3124 -0.0106  0.9110
 9166SOL     OW38956   2.730   1.700   2.352  0.0159  0.3832  0.1175
 9166SOL    HW138957   2.775   1.699   2.437 -0.5355  2.7684  0.4393
 9166SOL    HW238958   2.716   1.606   2.343 -0.7448  0.3678  1.3405
 9167SOL     OW38959   2.566   0.908   7.450 -0.7715  0.3732  0.3402
 9167SOL    HW138960   2.605   0.900   7.537  1.0062 -1.9426 -0.6715
 9167SOL    HW238961   2.603   0.831   7.407 -1.2529 -0.2727  1.0636
 9168SOL     OW38962   1.955   3.557   3.056 -0.2400 -0.3893  0.3328
 9168SOL    HW138963   1.887   3.614   3.093 -0.7384 -1.2310  0.7036
 9168SOL    HW238964   1.912   3.497   2.995  3.2156 -2.4475 -0.0462
 9169SOL     OW38965   0.734   4.331   8.286  0.5416 -0.2857  0.0947
 9169SOL    HW138966   0.663   4.360   8.229  2.5086  0.1833 -2.1165
 9169SOL    HW238967   0.690   4.322   8.370  2.9728  1.4440  1.5549
 9170SOL     OW38968   1.003   4.511   3.123 -0.0069  0.1499  0.0172
 9170SOL    HW138969   1.039   4.600   3.124 -1.2248  0.6251  1.3174
 9170SOL    HW238970   0.976   4.494   3.032  0.6627 -0.7906 -0.0076
 9171SOL     OW38971   2.693   3.499   0.485 -0.3892  0.4765 -0.6261
 9171SOL    HW138972   2.664   3.587   0.506  0.3300  0.4336  0.5428
 9171SOL    HW238973   2.784   3.512   0.460 -0.6659  0.6895 -1.5010
 9172SOL     OW38974   1.661   1.973   7.659  0.2785  0.2747 -0.3367
 9172SOL    HW138975   1.662   2.034   7.733  3.7776 -0.7547  0.5091
 9172SOL    HW238976   1.591   1.910   7.679  2.2577 -1.4238  1.3530
 9173SOL     OW38977   4.146   3.251   9.167  0.0621 -0.3435 -0.6845
 9173SOL    HW138978   4.171   3.326   9.219 -2.5358  1.5354 -2.1356
 9173SOL    HW238979   4.069   3.227   9.219  1.6961 -1.8884  1.0326
 9174SOL     OW38980   0.180   2.421   3.145 -0.2506 -0.4167 -0.0882
 9174SOL    HW138981   0.155   2.329   3.146  1.5370 -0.9569 -3.4974
 9174SOL    HW238982   0.135   2.450   3.224  0.9266  0.3572  0.3014
 9175SOL     OW38983   3.109   4.140   7.456 -0.6100 -0.3400  0.2270
 9175SOL    HW138984   3.201   4.118   7.473 -0.9322 -0.7023  1.4599
 9175SOL    HW238985   3.077   4.053   7.434  1.0674 -0.2262 -2.6492
 9176SOL     OW38986   4.358   2.988   9.300 -0.2337  0.1465  0.1411
 9176SOL    HW138987   4.442   2.953   9.270 -0.7047 -0.4853 -0.4291
 9176SOL    HW238988   4.391   3.049   9.365 -0.4586  2.2479 -1.7018
 9177SOL     OW38989   3.529   1.558  12.494 -0.4042  0.3603  0.6100
 9177SOL    HW138990   3.535   1.471  12.532  1.6334  1.0129  1.7748
 9177SOL    HW238991   3.515   1.606  12.576  1.4551  1.3248  0.3763
 9178SOL     OW38992   1.047   1.809   2.863  0.6080  0.3390  0.0574
 9178SOL    HW138993   1.040   1.713   2.862  1.6470  0.2710 -0.9581
 9178SOL    HW238994   1.086   1.818   2.776  2.7911  1.4868  1.1428
 9179SOL     OW38995   4.436   4.197   3.256 -0.0756 -0.1870 -0.3000
 9179SOL    HW138996   4.474   4.113   3.281  0.6323  0.2073 -0.0556
 9179SOL    HW238997   4.347   4.163   3.243 -0.8696  2.5043 -1.7790
 9180SOL     OW38998   3.217   0.860   3.666  0.5152 -0.0344 -0.1603
 9180SOL    HW138999   3.149   0.799   3.694 -1.0186  1.0268 -1.5918
 9180SOL    HW239000   3.221   0.915   3.745 -2.1455  0.8905 -0.6451
 9181SOL     OW39001   3.154   0.456   4.051 -0.2991 -0.4531 -0.1006
 9181SOL    HW139002   3.178   0.365   4.064  0.4747 -0.3354 -0.7139
 9181SOL    HW239003   3.160   0.467   3.956 -0.4906 -1.4482 -0.2257
 9182SOL     OW39004   4.453   1.199   4.276 -0.0118  0.0166 -0.6886
 9182SOL    HW139005   4.489   1.287   4.278 -0.1776  0.0430  1.0214
 9182SOL    HW239006   4.448   1.200   4.180 -1.8430  1.2792 -0.5845
 9183SOL     OW39007   0.909   3.087  17.456  0.4706 -0.0744 -1.0631
 9183SOL    HW139008   0.832   3.053  17.503  1.1480 -0.5465 -0.2949
 9183SOL    HW239009   0.961   3.007  17.448  1.4021  0.1569  2.6073
 9184SOL     OW39010   2.161   0.315   7.979 -0.4496  0.1870  0.3467
 9184SOL    HW139011   2.241   0.323   8.031  0.1767 -1.4924 -0.3505
 9184SOL    HW239012   2.124   0.403   7.984  0.6577  0.5226  2.4792
 9185SOL     OW39013   4.440   1.131   2.010  0.2153  0.4814 -0.2314
 9185SOL    HW139014   4.400   1.125   2.097  2.4132  0.7742  0.8104
 9185SOL    HW239015   4.515   1.071   2.008  0.8497  1.3455 -2.3888
 9186SOL     OW39016   3.519   1.361  14.801 -0.1228  0.2728  0.6935
 9186SOL    HW139017   3.500   1.435  14.743 -0.7766  1.1256  1.9930
 9186SOL    HW239018   3.602   1.323  14.773 -0.6070 -1.2976  1.4085
 9187SOL     OW39019   2.942   3.692   6.100  0.6302 -0.0712 -0.3773
 9187SOL    HW139020   2.951   3.762   6.035 -1.6557 -1.3829 -2.1015
 9187SOL    HW239021   2.924   3.612   6.051 -0.4846  0.0406 -0.1464
 9188SOL     OW39022   0.126   3.978   4.569 -0.7302 -0.5449 -0.0279
 9188SOL    HW139023   0.038   4.001   4.539 -1.7300 -0.6008  2.8461
 9188SOL    HW239024   0.136   4.046   4.636 -0.0055 -1.0882  0.4247
 9189SOL     OW39025   4.528   3.756   4.570  0.8504  0.1687  0.2275
 9189SOL    HW139026   4.576   3.707   4.503 -1.1513  1.4271 -2.1413
 9189SOL    HW239027   4.541   3.846   4.539 -4.2656  1.0502  0.6133
 9190SOL     OW39028   3.082   2.974   2.158 -0.0234  0.4570  0.3043
 9190SOL    HW139029   3.111   2.894   2.201 -0.4303 -0.0936 -0.4577
 9190SOL    HW239030   3.039   2.942   2.079  1.7390  1.4965 -1.0834
 9191SOL     OW39031   2.177   0.037   5.811 -0.0661  0.0137  0.4877
 9191SOL    HW139032   2.091   0.059   5.777  0.8877  0.4069 -1.6966
 9191SOL    HW239033   2.193   4.685   5.749  0.5167 -1.9050  2.8563
 9192SOL     OW39034   4.679   2.539   1.337  0.7401 -0.5865 -0.2895
 9192SOL    HW139035   4.634   2.540   1.252  0.5161  1.1014 -0.1451
 9192SOL    HW239036   4.606   2.505   1.388 -0.5261  1.2542 -0.8454
 9193SOL     OW39037   3.364   1.362   7.903 -0.5119 -0.0873 -0.5906
 9193SOL    HW139038   3.332   1.370   7.812 -0.1740  1.7251 -0.5499
 9193SOL    HW239039   3.386   1.454   7.918 -1.4461  0.1685 -0.7345
 9194SOL     OW39040   1.841   3.130  13.445 -0.1753  0.3879 -0.1994
 9194SOL    HW139041   1.865   3.204  13.501  2.6985 -1.2360  0.6976
 9194SOL    HW239042   1.911   3.068  13.465 -0.4942 -0.2045 -0.9052
 9195SOL     OW39043   0.466   0.316   0.449  0.3187  0.1836  0.5001
 9195SOL    HW139044   0.460   0.400   0.495 -0.2022  0.6141 -0.3316
 9195SOL    HW239045   0.549   0.319   0.401 -0.4733  1.8646 -0.7646
 9196SOL     OW39046   2.912   0.082   4.276 -0.4139  0.0251 -0.4281
 9196SOL    HW139047   2.846   0.150   4.293  0.2823  0.1034  1.9327
 9196SOL    HW239048   2.975   0.141   4.234 -1.0750 -1.9825 -4.2372
 9197SOL     OW39049   2.964   0.391   1.581 -0.5613 -0.2663 -0.1411
 9197SOL    HW139050   2.891   0.376   1.521 -0.4268 -1.0274 -0.1134
 9197SOL    HW239051   3.032   0.394   1.514 -0.3208  1.3514  0.1649
 9198SOL     OW39052   4.335   1.549   0.782 -0.1978 -0.6865 -0.5433
 9198SOL    HW139053   4.273   1.607   0.827 -1.2707 -1.9451 -0.4127
 9198SOL    HW239054   4.358   1.607   0.709  0.7639 -2.6868 -1.8070
 9199SOL     OW39055   3.749   1.211  13.886  0.3727 -0.1414 -0.4390
 9199SOL    HW139056   3.680   1.213  13.952  0.7682 -0.9491 -0.0097
 9199SOL    HW239057   3.730   1.121  13.860 -1.1025  0.1380 -0.3411
 9200SOL     OW39058   0.771   2.909   4.412 -0.3355 -0.3582 -0.4090
 9200SOL    HW139059   0.736   2.925   4.500 -1.3241  0.2062 -0.9103
 9200SOL    HW239060   0.843   2.849   4.430  1.5399  2.0248 -0.0356
 9201SOL     OW39061   1.079   2.508  15.270 -0.5952  0.0226 -0.3491
 9201SOL    HW139062   1.053   2.476  15.183 -1.6512 -0.6473  0.2125
 9201SOL    HW239063   1.003   2.542  15.317 -0.5747 -0.5844  0.1246
 9202SOL     OW39064   1.007   3.039   0.504  0.0934  0.1173  0.0516
 9202SOL    HW139065   1.080   3.011   0.559 -0.6997 -2.6124 -0.2619
 9202SOL    HW239066   0.973   3.101   0.568 -0.0443 -0.4508  0.5327
 9203SOL     OW39067   2.893   3.237   8.557 -0.0028 -0.0815 -0.1759
 9203SOL    HW139068   2.917   3.145   8.547  1.0015  0.2176 -0.4151
 9203SOL    HW239069   2.892   3.269   8.467  0.6440  0.9079  0.1722
 9204SOL     OW39070   4.360   0.905   1.650  0.4929 -0.2656 -0.0655
 9204SOL    HW139071   4.352   0.898   1.555 -1.0814 -1.5408  0.1761
 9204SOL    HW239072   4.445   0.949   1.661 -1.2186  2.3534  2.6192
 9205SOL     OW39073   4.319   4.610   7.150 -0.0807  0.0767  0.4828
 9205SOL    HW139074   4.402   4.565   7.137  0.9285  2.3943 -1.0467
 9205SOL    HW239075   4.341   4.669   7.222 -2.1552  0.9674  0.3720
 9206SOL     OW39076   4.157   0.551   1.567  0.4324 -0.3009 -0.3135
 9206SOL    HW139077   4.163   0.457   1.547 -0.1871 -0.3325 -0.3356
 9206SOL    HW239078   4.230   0.577   1.511 -0.2534 -0.4337 -1.2800
 9207SOL     OW39079   0.847   4.324   3.909 -0.4492  0.1142 -0.0809
 9207SOL    HW139080   0.842   4.356   3.819  0.0764  1.0129  0.2112
 9207SOL    HW239081   0.850   4.229   3.891 -1.3993  0.0269  0.2534
 9208SOL     OW39082   1.520   2.589   2.882  0.1514 -0.3780 -0.0638
 9208SOL    HW139083   1.566   2.645   2.945  2.0710 -2.9484  0.8594
 9208SOL    HW239084   1.593   2.547   2.837 -0.0821 -1.4284  0.5415
 9209SOL     OW39085   3.271   2.579   3.428  0.1006  0.0708 -0.0319
 9209SOL    HW139086   3.344   2.569   3.488 -1.5375 -1.9403  1.6135
 9209SOL    HW239087   3.196   2.559   3.484  0.6517 -0.7846  0.4024
 9210SOL     OW39088   3.177   2.158   5.349  0.0602  0.1122  0.8565
 9210SOL    HW139089   3.107   2.099   5.377 -1.5723  1.8289  0.3341
 9210SOL    HW239090   3.132   2.240   5.329  2.6101  0.9360 -1.5885
 9211SOL     OW39091   3.045   2.168   6.150  0.5001 -0.3720  0.4741
 9211SOL    HW139092   3.054   2.228   6.224 -0.9288 -0.6566  0.8769
 9211SOL    HW239093   3.123   2.182   6.096  1.2102 -1.5472  1.1988
 9212SOL     OW39094   0.480   1.949   8.684  0.4522  0.5577 -0.3325
 9212SOL    HW139095   0.430   1.996   8.618 -1.7815 -1.1980  0.1049
 9212SOL    HW239096   0.411   1.891   8.714  0.8123 -0.0702 -0.7077
 9213SOL     OW39097   1.613   0.829   8.449  0.5791  0.2501 -0.1277
 9213SOL    HW139098   1.649   0.875   8.373  0.6742  0.0494 -0.2054
 9213SOL    HW239099   1.619   0.888   8.524 -2.1854  0.1010  0.1991
 9214SOL     OW39100   4.057   4.032   4.103 -0.1689 -0.2081  0.1670
 9214SOL    HW139101   4.065   3.971   4.176  1.3796 -1.9215 -1.4188
 9214SOL    HW239102   4.041   4.114   4.150  1.2826 -0.2541  0.7193
 9215SOL     OW39103   1.637   3.721   2.261  0.0539  0.1124  0.0686
 9215SOL    HW139104   1.543   3.723   2.247  0.2495 -1.7270 -1.5783
 9215SOL    HW239105   1.667   3.647   2.208 -0.9112 -0.5634  0.4832
 9216SOL     OW39106   0.487   4.261  12.637 -0.4668  0.1287 -0.0026
 9216SOL    HW139107   0.439   4.294  12.713 -3.3621  0.7566 -2.0896
 9216SOL    HW239108   0.540   4.338  12.619  0.3338 -0.2580  0.7147
 9217SOL     OW39109   0.907   0.361  12.069  0.1982 -0.1575  0.3285
 9217SOL    HW139110   0.961   0.422  12.019  1.1474  0.4636  2.1110
 9217SOL    HW239111   0.821   0.357  12.026 -0.3871  1.7150  1.3166
 9218SOL     OW39112   1.895   1.205   3.495 -0.6173 -0.5009  0.2040
 9218SOL    HW139113   1.881   1.110   3.503  1.3423 -0.8704 -0.5972
 9218SOL    HW239114   1.990   1.201   3.508 -0.5507  1.8436  0.3970
 9219SOL     OW39115   2.178   1.131   6.902 -0.2300 -0.5140  0.2844
 9219SOL    HW139116   2.137   1.081   6.973 -0.5272  2.0722  1.9461
 9219SOL    HW239117   2.239   1.188   6.949 -1.6533  1.0331  0.2724
 9220SOL     OW39118   4.687   2.082   1.879 -0.5802 -0.3984  0.5706
 9220SOL    HW139119   4.604   2.065   1.834 -1.2570  1.0991  1.2334
 9220SOL    HW239120   4.677   2.163   1.928  0.5796  1.0098 -1.5422
 9221SOL     OW39121   2.353   0.606   4.560  0.1598  0.0535  0.5744
 9221SOL    HW139122   2.340   0.544   4.489  1.3298  0.1479  0.2864
 9221SOL    HW239123   2.400   0.545   4.617  1.6858 -0.1621 -0.9311
 9222SOL     OW39124   3.122   3.469   2.628  0.2226  0.0721  0.3927
 9222SOL    HW139125   3.088   3.380   2.629  1.6991 -0.4991  1.0824
 9222SOL    HW239126   3.116   3.468   2.533 -0.9152 -0.7968  0.4748
 9223SOL     OW39127   4.461   3.683   3.208  0.8241  0.1809 -0.4130
 9223SOL    HW139128   4.433   3.602   3.253  1.1028 -1.0610 -2.4896
 9223SOL    HW239129   4.424   3.673   3.120  0.9664 -1.8233 -0.2530
 9224SOL     OW39130   0.920   0.514   8.759  0.8161  0.1086  0.0362
 9224SOL    HW139131   1.002   0.520   8.808 -0.2728 -1.4948  2.0700
 9224SOL    HW239132   0.865   0.490   8.834  1.5717 -3.1760 -0.4889
 9225SOL     OW39133   3.730   0.117   4.384  0.5277  0.0827 -0.3039
 9225SOL    HW139134   3.656   0.153   4.434  0.0107  1.6908 -2.2282
 9225SOL    HW239135   3.681   0.079   4.311 -0.8239  1.0667  0.0956
 9226SOL     OW39136   4.055   0.921   6.624  0.2758 -0.0430 -0.2758
 9226SOL    HW139137   4.048   1.017   6.620  0.5565 -0.0181 -0.1753
 9226SOL    HW239138   3.966   0.891   6.640 -1.0360  3.0735 -1.7815
 9227SOL     OW39139   3.236   4.628   3.915  0.9377  0.0875 -0.3880
 9227SOL    HW139140   3.211   4.582   3.995 -2.6901 -0.2477 -1.7059
 9227SOL    HW239141   3.331   4.633   3.926  0.7768  2.7300 -0.0994
 9228SOL     OW39142   1.869   3.478  11.827 -0.3741 -0.0442  0.3193
 9228SOL    HW139143   1.943   3.445  11.776  0.2241 -0.8109  1.6797
 9228SOL    HW239144   1.921   3.518  11.896 -2.1100  0.7591  1.1762
 9229SOL     OW39145   1.208   4.653   8.650 -0.0796  0.1204 -0.1897
 9229SOL    HW139146   1.279   4.630   8.590  1.5526  0.1056  1.7360
 9229SOL    HW239147   1.224   4.579   8.709  0.8227  0.8797  0.5249
 9230SOL     OW39148   4.302   3.995   8.840  0.5890  0.2369  0.3624
 9230SOL    HW139149   4.206   3.997   8.833  0.5428  0.1596  1.0388
 9230SOL    HW239150   4.319   4.082   8.877  1.9417  0.4563 -0.7503
 9231SOL     OW39151   2.304   1.102   1.279  0.4035 -0.4787  0.6473
 9231SOL    HW139152   2.236   1.168   1.265  0.6196 -0.3164  0.3523
 9231SOL    HW239153   2.272   1.035   1.219  0.3427  0.7572 -0.6948
 9232SOL     OW39154   4.217   1.901   3.145 -0.5267 -0.6377 -0.0191
 9232SOL    HW139155   4.150   1.968   3.135  0.6178  0.7019  1.2985
 9232SOL    HW239156   4.286   1.941   3.197 -0.8275 -0.7329  0.4515
 9233SOL     OW39157   3.330   2.151  10.377  0.1544  0.0854  0.3204
 9233SOL    HW139158   3.262   2.217  10.392 -1.1767 -1.4507  1.1858
 9233SOL    HW239159   3.360   2.172  10.289  1.8914  1.8222  1.3367
 9234SOL     OW39160   0.523   4.154   3.249  0.1083 -0.8056  0.5005
 9234SOL    HW139161   0.593   4.202   3.206 -1.6533  0.9114 -0.4621
 9234SOL    HW239162   0.532   4.071   3.203  2.1009 -1.8561  2.8007
 9235SOL     OW39163   3.425   1.636   7.889 -0.1204  0.4177 -0.0985
 9235SOL    HW139164   3.463   1.712   7.933  0.0279 -0.5313  1.4413
 9235SOL    HW239165   3.391   1.670   7.807  0.2286 -0.4725 -0.6171
 9236SOL     OW39166   0.523   4.227   6.239 -0.5147 -0.4396 -0.4177
 9236SOL    HW139167   0.448   4.213   6.182 -1.8030 -0.4300  1.2828
 9236SOL    HW239168   0.575   4.292   6.191  0.0715 -0.8975 -0.4052
 9237SOL     OW39169   2.674   2.091  11.029 -0.5038 -0.1618  0.0149
 9237SOL    HW139170   2.599   2.035  11.047 -0.2632 -0.6772 -0.6123
 9237SOL    HW239171   2.634   2.170  10.993  0.3314  1.4705  2.6483
 9238SOL     OW39172   4.182   0.797  17.486 -0.4449  0.1547  0.3676
 9238SOL    HW139173   4.173   0.877  17.433 -0.3630 -0.4541 -0.5642
 9238SOL    HW239174   4.159   0.725  17.428  0.2202  0.8325 -0.7324
 9239SOL     OW39175   0.748   2.064   7.390 -0.5159 -0.4747  0.6738
 9239SOL    HW139176   0.821   2.025   7.439 -1.4639 -0.9817  1.6874
 9239SOL    HW239177   0.680   2.072   7.457 -2.9481 -1.4268 -1.6891
 9240SOL     OW39178   1.945   2.466   2.309  0.5657  0.2492  0.1996
 9240SOL    HW139179   2.027   2.459   2.259 -0.9451 -1.6308 -2.0456
 9240SOL    HW239180   1.913   2.555   2.293 -1.4453 -0.3226  1.1408
 9241SOL     OW39181   1.263   1.796   4.744  0.2726 -0.1478  0.1168
 9241SOL    HW139182   1.287   1.704   4.730 -1.1147 -0.5324  0.2788
 9241SOL    HW239183   1.224   1.809   4.658 -1.9210  0.4572  1.1933
 9242SOL     OW39184   1.311   0.996  11.499 -0.0240  0.2317 -0.2739
 9242SOL    HW139185   1.327   0.937  11.426  1.0391 -0.1130  0.2369
 9242SOL    HW239186   1.384   1.057  11.490  0.7533 -0.4729  1.2099
 9243SOL     OW39187   1.592   0.714  16.406  0.5605  0.2146  1.1448
 9243SOL    HW139188   1.653   0.647  16.376 -0.3082 -1.2577  2.6827
 9243SOL    HW239189   1.659   0.761  16.456  2.8067 -0.7430 -0.9539
 9244SOL     OW39190   2.671   1.095  14.169  0.5941 -0.7812  0.1247
 9244SOL    HW139191   2.635   1.033  14.106  0.9751 -0.0964 -0.7709
 9244SOL    HW239192   2.612   1.082  14.243 -0.5568  0.6194 -0.5586
 9245SOL     OW39193   0.851   0.941   5.163  0.2988 -0.1755 -0.7771
 9245SOL    HW139194   0.935   0.959   5.121  0.4420 -0.5083 -0.6357
 9245SOL    HW239195   0.862   0.996   5.240 -0.1369 -2.8650  1.2283
 9246SOL     OW39196   2.162   2.601   9.140  0.0467  0.1421 -0.2026
 9246SOL    HW139197   2.212   2.660   9.084  1.0712 -2.3761 -1.9572
 9246SOL    HW239198   2.163   2.652   9.221  0.5950  0.2348 -0.2714
 9247SOL     OW39199   0.191   4.502   5.724 -0.5901 -0.3005  0.0426
 9247SOL    HW139200   0.121   4.442   5.696 -0.5093 -0.3859  0.0219
 9247SOL    HW239201   0.156   4.587   5.698 -0.9639 -0.2303  0.7808
 9248SOL     OW39202   3.842   1.980  15.309  0.3633  0.5852 -0.4377
 9248SOL    HW139203   3.934   1.997  15.290  0.7662  2.8762  3.6310
 9248SOL    HW239204   3.835   2.007  15.400 -2.8772  0.0842 -0.5440
 9249SOL     OW39205   0.975   2.324   8.193  0.6150  0.0153 -0.7096
 9249SOL    HW139206   0.917   2.276   8.252  1.2461  1.1034  0.8009
 9249SOL    HW239207   0.929   2.309   8.110 -0.0931  0.4422 -0.3950
 9250SOL     OW39208   1.853   4.616  12.800 -0.1871  0.1433  0.2545
 9250SOL    HW139209   1.851   4.582  12.890 -0.9223  0.3274  0.3064
 9250SOL    HW239210   1.837   4.534  12.754 -2.2995  0.6618  0.0538
 9251SOL     OW39211   3.472   3.005  14.654  0.2720 -0.5128 -0.0545
 9251SOL    HW139212   3.456   3.094  14.622  0.8970 -1.3158 -2.6295
 9251SOL    HW239213   3.388   2.984  14.695  0.4816  0.4754  0.8626
 9252SOL     OW39214   0.318   4.299  14.539  0.0853  0.0189 -0.2337
 9252SOL    HW139215   0.226   4.273  14.550  1.0787 -2.8725  1.3248
 9252SOL    HW239216   0.330   4.242  14.463 -1.5346 -0.1656 -0.3614
 9253SOL     OW39217   3.087   4.273   7.176  0.0349  0.1680 -0.1463
 9253SOL    HW139218   3.105   4.235   7.262 -2.5451 -3.5533 -1.2734
 9253SOL    HW239219   3.084   4.364   7.206 -0.7524 -0.9109  3.0521
 9254SOL     OW39220   1.276   0.364   2.680 -0.3352  0.5225 -0.0610
 9254SOL    HW139221   1.333   0.434   2.649  0.7593  0.7707  2.5139
 9254SOL    HW239222   1.188   0.400   2.673  0.6641  2.2957 -3.3355
 9255SOL     OW39223   3.471   1.634   5.088 -0.4900  0.1028 -0.0223
 9255SOL    HW139224   3.491   1.645   5.181 -0.2978 -2.5657  0.2526
 9255SOL    HW239225   3.513   1.712   5.051 -1.6270 -0.3848 -2.3340
 9256SOL     OW39226   1.472   3.381   7.025 -1.0921  0.3034  0.5706
 9256SOL    HW139227   1.413   3.320   7.069 -2.8176  0.8690 -0.9833
 9256SOL    HW239228   1.409   3.415   6.962  0.6815 -0.7468 -1.7537
 9257SOL     OW39229   2.511   2.405   6.864  0.5549 -0.6736 -0.2627
 9257SOL    HW139230   2.444   2.472   6.876  0.7331 -0.9925  2.4917
 9257SOL    HW239231   2.595   2.451   6.865 -0.2262  0.7573 -0.0949
 9258SOL     OW39232   2.346   2.658   5.329  0.0526 -0.0672  0.3905
 9258SOL    HW139233   2.270   2.600   5.338 -0.5043  0.4743 -0.7366
 9258SOL    HW239234   2.378   2.645   5.240 -1.5924  0.9285 -0.3459
 9259SOL     OW39235   0.825   0.660   0.070 -0.1718 -0.8699 -0.5186
 9259SOL    HW139236   0.862   0.585   0.115  1.9527  0.2564 -0.3978
 9259SOL    HW239237   0.834   0.731   0.134 -2.0005  0.4113 -1.6919
 9260SOL     OW39238   0.993   3.174   7.940 -0.7357 -0.1482  0.2221
 9260SOL    HW139239   0.910   3.207   7.975  0.2709  0.1470  2.2971
 9260SOL    HW239240   0.980   3.081   7.958 -0.6871 -1.1508 -4.9082
 9261SOL     OW39241   0.003   0.173  11.376  0.0183  0.2303 -0.3146
 9261SOL    HW139242   0.020   0.236  11.446 -0.1814  1.5223 -1.4401
 9261SOL    HW239243   4.666   0.111  11.424 -1.3490  0.9299 -1.0179
 9262SOL     OW39244   1.280   3.342   7.856 -0.3055 -0.2779 -0.0232
 9262SOL    HW139245   1.347   3.274   7.852  0.4157  0.4425 -0.2542
 9262SOL    HW239246   1.247   3.323   7.943 -1.5130  1.5072 -0.0762
 9263SOL     OW39247   2.821   0.099   8.643 -0.4187  0.7255  0.2564
 9263SOL    HW139248   2.874   0.176   8.666  0.3796  0.1801  0.2094
 9263SOL    HW239249   2.861   0.032   8.698 -1.0229 -0.9465 -1.3484
 9264SOL     OW39250   3.838   1.542   5.981  0.9665 -0.4233 -0.1375
 9264SOL    HW139251   3.925   1.572   6.009  0.0268  2.5879 -0.5144
 9264SOL    HW239252   3.829   1.591   5.899 -1.1391  2.4541  1.8287
 9265SOL     OW39253   3.307   1.204   3.432 -0.0087  0.7989 -0.1058
 9265SOL    HW139254   3.371   1.154   3.482 -1.5825 -0.8434  0.2565
 9265SOL    HW239255   3.363   1.280   3.418 -0.2481  1.2183  1.2220
 9266SOL     OW39256   0.580   2.555  16.039 -0.3939  0.5079  0.3541
 9266SOL    HW139257   0.597   2.637  16.086 -0.2539  0.8763 -0.3432
 9266SOL    HW239258   0.664   2.539  15.995 -1.0426 -1.1602 -0.2954
 9267SOL     OW39259   0.691   2.363   5.824  0.2123 -0.0147  0.0140
 9267SOL    HW139260   0.710   2.436   5.765  1.3975  0.0908  0.5304
 9267SOL    HW239261   0.606   2.341   5.786  0.7560 -1.0301 -0.6149
 9268SOL     OW39262   0.473   2.179  11.570 -0.2148 -0.0337 -0.0738
 9268SOL    HW139263   0.543   2.137  11.520 -0.2875 -0.8505  0.4972
 9268SOL    HW239264   0.397   2.174  11.512  0.0204 -0.2512 -0.3684
 9269SOL     OW39265   4.597   4.067   2.284 -0.1259 -0.6272  0.1343
 9269SOL    HW139266   4.670   4.007   2.270 -0.0610 -0.1005 -1.7892
 9269SOL    HW239267   4.567   4.073   2.194 -1.1896  0.6771  0.5756
 9270SOL     OW39268   1.102   1.551  14.195 -0.0180  0.3075 -0.5290
 9270SOL    HW139269   1.097   1.506  14.111 -0.7594 -0.6702  0.0345
 9270SOL    HW239270   1.105   1.477  14.255 -0.2865  1.0827  0.4455
 9271SOL     OW39271   0.420   2.395   5.703  0.4567  0.4242  0.2493
 9271SOL    HW139272   0.439   2.311   5.745  2.4675  1.0704  0.6152
 9271SOL    HW239273   0.332   2.423   5.728  0.2761  0.6804 -0.7084
 9272SOL     OW39274   4.153   2.641  13.406  0.0300  0.3673  0.2796
 9272SOL    HW139275   4.209   2.715  13.430  0.0390  1.3932 -2.8957
 9272SOL    HW239276   4.169   2.635  13.311  1.0246 -0.1200  0.4681
 9273SOL     OW39277   2.911   4.079   4.396  0.0268 -0.1221 -0.3931
 9273SOL    HW139278   2.883   4.170   4.399 -0.9944 -0.4642  0.7266
 9273SOL    HW239279   3.004   4.086   4.415 -0.1111 -0.6609  0.4943
 9274SOL     OW39280   3.927   1.799   5.381  0.2674  0.1970 -0.1239
 9274SOL    HW139281   3.835   1.823   5.392 -0.5516 -1.8440 -2.5342
 9274SOL    HW239282   3.963   1.841   5.459 -3.6096  1.0416  1.2447
 9275SOL     OW39283   1.488   2.793   3.860 -0.7730  0.2143  0.1101
 9275SOL    HW139284   1.554   2.844   3.908 -0.6513  0.6459 -0.5139
 9275SOL    HW239285   1.412   2.783   3.918 -2.4193  2.1583 -1.7016
 9276SOL     OW39286   3.090   4.357   8.122 -0.6073 -0.2203 -0.2466
 9276SOL    HW139287   3.167   4.399   8.084  0.1259 -0.8138  0.5776
 9276SOL    HW239288   3.047   4.319   8.046 -1.6784 -0.9518  0.7165
 9277SOL     OW39289   0.459   1.510   4.349  0.0053 -0.3517  0.5157
 9277SOL    HW139290   0.509   1.429   4.334  0.4102 -0.2082  1.0913
 9277SOL    HW239291   0.448   1.505   4.444  0.9468  0.3320  0.6531
 9278SOL     OW39292   3.810   0.746   3.463  0.6547 -0.3684 -0.6723
 9278SOL    HW139293   3.769   0.663   3.440  2.1924 -1.4932  0.6416
 9278SOL    HW239294   3.758   0.775   3.538 -0.1333 -0.2789 -1.2608
 9279SOL     OW39295   1.681   3.770   8.600 -0.5046 -0.0004 -0.1813
 9279SOL    HW139296   1.749   3.796   8.537  0.1701  1.9686  1.3737
 9279SOL    HW239297   1.681   3.841   8.664  0.1565  0.0816 -0.2707
 9280SOL     OW39298   1.855   3.094   4.343  0.3904 -0.6326  0.6057
 9280SOL    HW139299   1.773   3.075   4.297  0.8296  1.6591 -1.1244
 9280SOL    HW239300   1.869   3.186   4.320 -1.0517 -0.1438  1.6831
 9281SOL     OW39301   1.291   2.080   5.152  0.0450 -0.0644 -0.1703
 9281SOL    HW139302   1.210   2.035   5.174 -1.0393  1.4855 -0.9361
 9281SOL    HW239303   1.356   2.034   5.204 -1.4812 -1.4061  0.5129
 9282SOL     OW39304   0.659   0.241   6.175  0.0935  0.1262 -0.2632
 9282SOL    HW139305   0.661   0.147   6.162  1.2316  0.0943  0.1420
 9282SOL    HW239306   0.599   0.267   6.106 -0.0875 -1.1782 -0.5827
 9283SOL     OW39307   2.875   3.315   8.291  0.3040  0.8712  0.3557
 9283SOL    HW139308   2.914   3.255   8.227  0.1261  0.9478  0.1740
 9283SOL    HW239309   2.832   3.375   8.230 -2.3842  1.6450  3.0373
 9284SOL     OW39310   0.149   4.616   6.501 -0.1908  0.6619 -0.0295
 9284SOL    HW139311   0.118   4.528   6.520  0.3522  0.5502  0.3336
 9284SOL    HW239312   0.144   4.624   6.406 -1.3633  0.3132  0.0010
 9285SOL     OW39313   1.068   0.043  10.250  0.1638  1.1905  0.4478
 9285SOL    HW139314   1.125   4.690  10.223  0.7961  1.2208  1.7215
 9285SOL    HW239315   1.020   0.064  10.170 -1.9586 -1.2823  1.0567
 9286SOL     OW39316   1.251   1.393   2.308  0.9988  0.7334  0.3856
 9286SOL    HW139317   1.176   1.384   2.367  1.9887  0.0304  1.5352
 9286SOL    HW239318   1.325   1.398   2.368  1.9322 -2.1318 -0.5308
 9287SOL     OW39319   4.369   2.517  10.415 -0.4337  0.0722  0.2383
 9287SOL    HW139320   4.355   2.600  10.461  2.3454  0.4916  0.3320
 9287SOL    HW239321   4.411   2.463  10.482  2.4678  1.5292 -0.4155
 9288SOL     OW39322   0.190   0.249   3.824 -0.5849  0.1747  0.1817
 9288SOL    HW139323   0.221   0.340   3.826  1.3214 -0.4516 -0.7359
 9288SOL    HW239324   0.114   0.245   3.766  0.5618 -1.2601 -1.2476
 9289SOL     OW39325   4.323   0.078   2.310  0.1118  0.2062  0.5016
 9289SOL    HW139326   4.390   0.041   2.253 -0.9204  0.9121 -1.1669
 9289SOL    HW239327   4.362   0.102   2.394  1.1350 -1.0353  0.3790
 9290SOL     OW39328   2.714   2.473   4.486 -1.1604 -0.1354 -0.1043
 9290SOL    HW139329   2.651   2.427   4.540  1.4120 -1.9366  1.3217
 9290SOL    HW239330   2.755   2.525   4.555  0.1998 -0.6863 -0.4840
 9291SOL     OW39331   3.292   2.018  11.884 -0.2452 -0.3892 -0.3438
 9291SOL    HW139332   3.209   1.991  11.845 -1.7098  0.0879  2.3893
 9291SOL    HW239333   3.350   1.951  11.849  2.0514  0.8515  1.0512
 9292SOL     OW39334   1.690   0.952   5.612 -0.5635 -0.0511 -0.0143
 9292SOL    HW139335   1.700   0.950   5.517  1.4775  2.8007  0.1406
 9292SOL    HW239336   1.772   0.995   5.637 -0.3467 -0.4407 -0.0511
 9293SOL     OW39337   1.881   3.904   5.359 -0.0930  0.6992 -0.0617
 9293SOL    HW139338   1.819   3.834   5.378  1.8664 -0.5565  1.7021
 9293SOL    HW239339   1.838   3.971   5.306  3.2630  1.3241 -1.9735
 9294SOL     OW39340   1.706   4.622  15.204 -0.0939  0.0106 -0.0445
 9294SOL    HW139341   1.701   4.526  15.201 -0.4568  0.0317 -0.1839
 9294SOL    HW239342   1.650   4.636  15.128 -0.7872  0.7775  0.6083
 9295SOL     OW39343   1.989   0.009   8.355 -0.4170  0.0425 -0.0201
 9295SOL    HW139344   1.927   0.054   8.297  0.8417  0.1739 -1.2610
 9295SOL    HW239345   1.963   0.039   8.442 -0.7244 -0.2977  0.0018
 9296SOL     OW39346   4.265   2.444  16.991  0.2716  0.0152 -0.0133
 9296SOL    HW139347   4.241   2.431  16.900 -0.6143 -1.7290  0.4541
 9296SOL    HW239348   4.240   2.534  17.010  0.6835  0.4300 -1.4667
 9297SOL     OW39349   1.169   2.664   1.925 -0.0668 -0.0238 -0.2882
 9297SOL    HW139350   1.199   2.589   1.873  0.6651 -0.5180  0.8451
 9297SOL    HW239351   1.204   2.729   1.864 -0.9432  0.4014 -0.3407
 9298SOL     OW39352   0.485   1.355   8.654  0.5072  0.4660 -0.5313
 9298SOL    HW139353   0.509   1.274   8.608 -0.4572  0.2556 -0.6721
 9298SOL    HW239354   0.496   1.325   8.744  1.7296 -0.9775 -1.1560
 9299SOL     OW39355   2.319   0.470   8.270  0.4322  0.4795  0.0847
 9299SOL    HW139356   2.376   0.474   8.347 -0.1019 -1.5846  0.5795
 9299SOL    HW239357   2.233   0.495   8.305 -0.9000 -1.3654 -1.8701
 9300SOL     OW39358   4.024   4.282  16.767 -0.1138 -0.6805  0.2614
 9300SOL    HW139359   3.942   4.307  16.810  1.1358  1.4368  1.4317
 9300SOL    HW239360   3.997   4.239  16.686  0.0779 -0.4994  0.1045
 9301SOL     OW39361   2.191   1.030   8.205 -0.1900  0.8366 -0.2938
 9301SOL    HW139362   2.275   1.021   8.160  0.2245  0.4724  0.5477
 9301SOL    HW239363   2.219   1.046   8.295  0.6445  1.6000 -0.6861
 9302SOL     OW39364   0.101   2.707  15.180  0.4651  0.1284  0.3592
 9302SOL    HW139365   0.157   2.731  15.254  1.2522  0.4035 -0.3329
 9302SOL    HW239366   0.153   2.675  15.106 -1.2576  0.0562 -0.8080
 9303SOL     OW39367   1.741   2.801   3.627 -0.0958 -0.3534 -0.3106
 9303SOL    HW139368   1.824   2.805   3.580 -0.2042  1.2468 -0.3497
 9303SOL    HW239369   1.775   2.780   3.714 -0.9302 -0.4494 -0.0037
 9304SOL     OW39370   3.712   0.615  16.430 -0.0949  0.4739 -0.1800
 9304SOL    HW139371   3.749   0.581  16.349 -0.4377  0.9107 -0.5183
 9304SOL    HW239372   3.787   0.653  16.477 -1.2628  1.8233  0.6048
 9305SOL     OW39373   1.602   1.749  17.055  0.6659  0.2017  0.0040
 9305SOL    HW139374   1.512   1.718  17.048 -0.1961  2.7726 -0.3195
 9305SOL    HW239375   1.657   1.672  17.065  0.9662  0.4572  0.3246
 9306SOL     OW39376   3.985   0.115   3.610  0.3339  0.4397  0.2296
 9306SOL    HW139377   3.895   0.148   3.605  1.1000  2.4497  0.0268
 9306SOL    HW239378   4.030   0.185   3.656  0.7971 -1.9969  3.5200
 9307SOL     OW39379   4.375   3.533   0.175  0.0866  0.2526 -0.4638
 9307SOL    HW139380   4.297   3.580   0.204 -0.2597 -0.9460  0.5626
 9307SOL    HW239381   4.371   3.544   0.080  1.3565  0.7213 -0.4617
 9308SOL     OW39382   4.144   2.723   8.072 -0.6785 -0.1398 -0.3512
 9308SOL    HW139383   4.192   2.653   8.026  0.3535  0.0588  0.4163
 9308SOL    HW239384   4.076   2.664   8.105  0.1551 -1.4179 -0.8806
 9309SOL     OW39385   3.389   3.628   4.672  0.1134  0.7226  0.0408
 9309SOL    HW139386   3.316   3.571   4.693  2.0202 -2.4078 -1.7982
 9309SOL    HW239387   3.448   3.555   4.654 -0.6608  1.0806 -3.9538
 9310SOL     OW39388   2.584   0.942  15.833  0.2362  0.0313 -0.2540
 9310SOL    HW139389   2.594   0.998  15.756 -0.4745 -0.0325 -0.3875
 9310SOL    HW239390   2.642   0.987  15.895  1.3196 -2.0474  0.2518
 9311SOL     OW39391   1.642   4.114   6.304  0.1440 -0.2295 -0.3768
 9311SOL    HW139392   1.629   4.156   6.389  2.7438  0.5908 -0.3737
 9311SOL    HW239393   1.622   4.023   6.326  1.1177 -0.8521 -2.1357
 9312SOL     OW39394   3.747   4.096  11.189 -0.3224  0.3959 -0.1686
 9312SOL    HW139395   3.683   4.162  11.214  0.1859  0.4342  1.0216
 9312SOL    HW239396   3.703   4.033  11.131 -2.2826  2.2140 -0.6323
 9313SOL     OW39397   4.104   3.570   5.975  0.5404 -0.0393 -0.2284
 9313SOL    HW139398   4.053   3.511   6.031 -1.3778  1.8454 -0.0182
 9313SOL    HW239399   4.191   3.534   5.990  0.9730  1.4177  0.6758
 9314SOL     OW39400   3.694   4.421   7.921 -0.3174  0.2439  0.0959
 9314SOL    HW139401   3.714   4.354   7.987  0.0426  0.2233 -0.0331
 9314SOL    HW239402   3.635   4.364   7.870  0.4915 -1.9177  1.5827
 9315SOL     OW39403   1.227   2.422   6.217 -0.2042 -0.1180 -0.1634
 9315SOL    HW139404   1.178   2.383   6.290  3.3232 -0.2497  2.1361
 9315SOL    HW239405   1.233   2.511   6.252 -1.4083 -1.2092  2.8116
 9316SOL     OW39406   0.434   1.522  16.508  0.2974  0.3125 -0.1568
 9316SOL    HW139407   0.522   1.557  16.493  0.3435 -0.0835 -0.8020
 9316SOL    HW239408   0.386   1.604  16.519 -0.7478 -0.3202 -0.0161
 9317SOL     OW39409   1.653   3.464   0.834  0.1362  0.2080 -0.7718
 9317SOL    HW139410   1.690   3.552   0.834 -2.6316  1.3525  1.2372
 9317SOL    HW239411   1.727   3.413   0.801 -1.6354 -1.7836 -1.6700
 9318SOL     OW39412   1.496   4.352   6.410  0.4263  0.1816  0.2830
 9318SOL    HW139413   1.524   4.296   6.337 -0.0434  0.3108  0.0037
 9318SOL    HW239414   1.577   4.385   6.448  1.8621 -2.2765 -0.6458
 9319SOL     OW39415   2.085   0.242  17.675  1.0312 -0.0472  0.2831
 9319SOL    HW139416   2.128   0.280  17.598  0.8492 -0.9144 -0.2498
 9319SOL    HW239417   2.085   0.153  17.639  1.0856  0.6293 -1.4224
 9320SOL     OW39418   0.120   2.327   7.732  0.9595  0.3682  0.0059
 9320SOL    HW139419   0.197   2.381   7.751  0.9308  0.1616  0.7055
 9320SOL    HW239420   0.164   2.258   7.683  0.9891 -0.2055  0.8427
 9321SOL     OW39421   0.871   0.725   3.322 -0.1877  0.5861  0.4261
 9321SOL    HW139422   0.966   0.716   3.314 -0.4696 -2.0698 -0.0497
 9321SOL    HW239423   0.835   0.664   3.257 -3.0517  2.6022  0.1182
 9322SOL     OW39424   2.602   0.767  12.238  0.3510  0.0813  0.1672
 9322SOL    HW139425   2.620   0.824  12.312  1.2106 -0.1515  0.1314
 9322SOL    HW239426   2.590   0.836  12.172  1.6696 -0.6211 -0.7995
 9323SOL     OW39427   1.686   0.277   9.908 -0.5409  0.1474 -0.3131
 9323SOL    HW139428   1.599   0.247   9.884  0.4945 -1.6221 -1.8726
 9323SOL    HW239429   1.709   0.300   9.818  2.2823 -1.2545  0.0485
 9324SOL     OW39430   2.178   0.742   6.771 -0.2762 -0.4369  0.0640
 9324SOL    HW139431   2.212   0.822   6.732 -0.5307  1.4551  3.7398
 9324SOL    HW239432   2.123   0.775   6.842  0.6147 -0.9620  1.0142
 9325SOL     OW39433   2.200   2.599   4.087 -1.0763  0.1056 -0.5722
 9325SOL    HW139434   2.209   2.504   4.076  1.1360  0.1942  0.4466
 9325SOL    HW239435   2.266   2.623   4.023  2.1999 -2.3157  1.8858
 9326SOL     OW39436   3.061   3.021   1.722 -0.1045  0.2613 -0.4543
 9326SOL    HW139437   3.075   3.043   1.630 -1.9399 -1.2189 -1.0996
 9326SOL    HW239438   3.151   3.028   1.755 -0.9927  0.9634  1.8230
 9327SOL     OW39439   1.447   3.015   5.886  0.1747  0.0033  0.0908
 9327SOL    HW139440   1.506   2.940   5.885  0.1404 -0.0114 -0.7586
 9327SOL    HW239441   1.508   3.085   5.911 -1.9977  2.2364 -0.9006
 9328SOL     OW39442   4.490   3.260  16.502  0.0653 -0.5231  0.3761
 9328SOL    HW139443   4.523   3.336  16.549 -0.0297  0.4115 -1.0536
 9328SOL    HW239444   4.537   3.193  16.552  2.0557  0.2992 -0.3899
 9329SOL     OW39445   2.706   2.909   9.627  0.5432  0.0306  0.0475
 9329SOL    HW139446   2.755   2.990   9.611  0.1619  0.5094  1.2524
 9329SOL    HW239447   2.612   2.927   9.626  0.2251 -1.6514 -0.2044
 9330SOL     OW39448   0.494   2.649   4.879 -0.4706  0.9677 -0.6372
 9330SOL    HW139449   0.434   2.721   4.898 -2.6254 -1.0448  0.1736
 9330SOL    HW239450   0.541   2.655   4.962  1.2454 -0.8026 -1.4829
 9331SOL     OW39451   3.870   0.971   5.165  0.4393 -0.4857  0.2455
 9331SOL    HW139452   3.815   0.897   5.137  1.5730 -1.4001  0.4354
 9331SOL    HW239453   3.948   0.957   5.111 -0.4493  1.1733 -1.4733
 9332SOL     OW39454   1.094   0.469   9.575 -0.0652  0.4879 -0.2765
 9332SOL    HW139455   1.140   0.428   9.502 -1.1571 -1.0127 -0.1406
 9332SOL    HW239456   1.113   0.560   9.555 -0.8640  1.0100  1.3765
 9333SOL     OW39457   2.867   2.338  15.343 -0.0037  0.3861  0.3052
 9333SOL    HW139458   2.780   2.319  15.307 -0.2432 -2.3609  2.3281
 9333SOL    HW239459   2.887   2.249  15.372  1.5196  0.9263  0.8913
 9334SOL     OW39460   4.692   3.079  10.350 -0.4532  0.0215 -0.6117
 9334SOL    HW139461   0.007   3.077  10.440 -0.6627  0.1667 -0.5314
 9334SOL    HW239462   4.660   2.990  10.335 -0.8731 -0.0188  0.5764
 9335SOL     OW39463   0.060   2.585   2.484  0.7344 -0.6532  0.8133
 9335SOL    HW139464   0.112   2.664   2.466  1.6320 -1.1294  1.2918
 9335SOL    HW239465   4.694   2.624   2.500  1.5672  0.7260  1.9171
 9336SOL     OW39466   2.509   3.352   9.339 -0.0121 -0.0519  0.8333
 9336SOL    HW139467   2.524   3.337   9.246 -2.0271  0.0070  0.5096
 9336SOL    HW239468   2.434   3.295   9.355  1.3485 -1.9660  0.3362
 9337SOL     OW39469   1.297   3.708  16.729  0.0465  0.2674  0.0800
 9337SOL    HW139470   1.263   3.638  16.785  0.6513 -1.3060 -1.5408
 9337SOL    HW239471   1.267   3.664  16.650  0.9907  0.9085 -0.6300
 9338SOL     OW39472   1.996   3.000   5.831 -0.2600 -0.2039  0.0536
 9338SOL    HW139473   1.920   3.045   5.793 -0.8045 -0.2583  1.0722
 9338SOL    HW239474   1.974   3.000   5.924 -1.0880  3.1702 -0.1757
 9339SOL     OW39475   1.100   2.187   2.055 -0.4422 -0.1989  0.0825
 9339SOL    HW139476   1.128   2.097   2.038 -2.4509 -0.2413 -3.1228
 9339SOL    HW239477   1.023   2.168   2.109 -0.6874 -2.4359 -1.0776
 9340SOL     OW39478   3.287   3.937  10.319 -0.1620 -0.0294  0.6310
 9340SOL    HW139479   3.326   4.018  10.285 -0.3880 -0.2410 -0.1477
 9340SOL    HW239480   3.218   3.972  10.376  0.1491  2.7456 -0.6619
 9341SOL     OW39481   1.084   1.114   5.591  0.0802  0.4977  0.1110
 9341SOL    HW139482   1.154   1.155   5.643  0.3604  0.3227 -0.1291
 9341SOL    HW239483   1.097   1.020   5.597 -2.9791 -0.0007 -1.1206
 9342SOL     OW39484   1.284   1.066  13.688 -0.7418  0.3920 -0.4059
 9342SOL    HW139485   1.296   1.097  13.778  0.0087  0.1230 -0.4159
 9342SOL    HW239486   1.350   0.997  13.687  1.1424  2.1982 -0.5475
 9343SOL     OW39487   1.520   1.199   8.862  0.3128  0.0232  0.1698
 9343SOL    HW139488   1.463   1.271   8.888 -1.2085 -0.6063 -1.4573
 9343SOL    HW239489   1.581   1.210   8.936 -0.2894 -0.8169  0.8009
 9344SOL     OW39490   3.519   1.148   2.405  0.1739 -0.1458  0.1054
 9344SOL    HW139491   3.502   1.242   2.415 -0.7788 -0.3196  0.1467
 9344SOL    HW239492   3.543   1.145   2.312 -3.0437 -0.9980 -0.7115
 9345SOL     OW39493   3.004   0.669   2.809 -0.5224  0.5927 -0.5901
 9345SOL    HW139494   2.986   0.734   2.741  1.1026  2.5422  0.8337
 9345SOL    HW239495   3.097   0.687   2.826 -0.4403 -0.7241  0.3810
 9346SOL     OW39496   1.600   4.010   8.714 -0.8176 -0.3288  0.3906
 9346SOL    HW139497   1.573   4.000   8.805 -0.9747  0.3569  0.4182
 9346SOL    HW239498   1.517   4.031   8.673  0.9954  2.6624 -1.7610
 9347SOL     OW39499   4.054   0.834   8.877  0.2918  0.5554 -0.0310
 9347SOL    HW139500   4.079   0.846   8.968 -1.1803  0.5900  0.3824
 9347SOL    HW239501   4.123   0.887   8.836 -0.8028  2.1333  0.1539
 9348SOL     OW39502   3.747   0.857   1.617  0.2624  0.1138 -0.1568
 9348SOL    HW139503   3.828   0.904   1.597  0.0905 -0.7300 -2.8411
 9348SOL    HW239504   3.780   0.768   1.605 -2.2543 -0.7571 -0.6213
 9349SOL     OW39505   2.841   0.324   6.197 -0.5359  0.4765  0.0487
 9349SOL    HW139506   2.885   0.360   6.275  0.5997 -2.2990  0.6824
 9349SOL    HW239507   2.870   0.385   6.129  0.1493 -0.1968 -0.2653
 9350SOL     OW39508   4.607   1.016  11.087  0.0305  0.4547 -0.0700
 9350SOL    HW139509   4.690   0.969  11.096 -1.6330 -2.0100  2.6029
 9350SOL    HW239510   4.548   0.940  11.090 -0.0901  0.5404 -0.2585
 9351SOL     OW39511   1.880   2.748  10.735 -0.2896 -0.0014  0.7267
 9351SOL    HW139512   1.872   2.679  10.669 -3.0332 -1.3243  2.4294
 9351SOL    HW239513   1.830   2.707  10.806 -1.4077  2.1149  1.1558
 9352SOL     OW39514   2.134   4.559  11.271  0.2673  0.0496  0.4115
 9352SOL    HW139515   2.165   4.625  11.208  1.4918  0.0501  1.0364
 9352SOL    HW239516   2.197   4.550  11.341 -1.5310  0.2648  2.0545
 9353SOL     OW39517   1.374   2.627   4.076  0.2870  0.2476  0.2693
 9353SOL    HW139518   1.291   2.673   4.090  0.5295  1.0239 -0.8969
 9353SOL    HW239519   1.341   2.537   4.081 -1.2211  0.8659  1.4752
 9354SOL     OW39520   0.155   4.571   6.944  0.6721  0.0671 -0.1088
 9354SOL    HW139521   0.158   4.483   6.982  2.4731  0.3786  0.5072
 9354SOL    HW239522   0.074   4.594   6.989 -0.1669 -0.5478 -1.2883
 9355SOL     OW39523   4.025   2.509  12.152  0.4230 -0.4965  0.3051
 9355SOL    HW139524   3.955   2.446  12.135  2.5290 -2.4471 -1.3004
 9355SOL    HW239525   3.975   2.577  12.107 -0.6475 -1.5744 -0.1471
 9356SOL     OW39526   0.528   4.677   4.927  0.3909 -0.1044  0.1442
 9356SOL    HW139527   0.500   0.033   4.980 -0.7819  0.2306 -0.9190
 9356SOL    HW239528   0.495   4.707   4.842 -1.1247 -2.7520 -0.1883
 9357SOL     OW39529   2.338   1.483   4.800 -0.5089 -0.0532  0.6575
 9357SOL    HW139530   2.397   1.514   4.731 -2.1577 -1.4595 -1.4087
 9357SOL    HW239531   2.260   1.529   4.769 -2.0301 -1.6725  2.0963
 9358SOL     OW39532   3.491   1.219   4.786  0.4652 -0.5152  0.2619
 9358SOL    HW139533   3.478   1.276   4.862  2.0653  1.0060 -0.6291
 9358SOL    HW239534   3.546   1.150   4.824 -1.1334 -1.4940  0.8253
 9359SOL     OW39535   2.118   1.433   8.719 -0.0304  0.5787 -0.1913
 9359SOL    HW139536   2.095   1.517   8.760 -0.9217  0.0450  0.4174
 9359SOL    HW239537   2.197   1.468   8.677 -0.5429  0.3340 -1.3704
 9360SOL     OW39538   2.316   3.576   7.954  0.1348  0.4486  0.2589
 9360SOL    HW139539   2.269   3.610   7.878 -0.0056 -0.7204 -0.1808
 9360SOL    HW239540   2.370   3.503   7.922 -0.9667 -0.2469 -0.0256
 9361SOL     OW39541   0.377   2.619   2.431  0.2898  0.2732 -0.0566
 9361SOL    HW139542   0.405   2.602   2.521 -2.3306  0.1576  0.7346
 9361SOL    HW239543   0.303   2.562   2.411 -0.7631  0.8883  2.0107
 9362SOL     OW39544   2.888   4.494  16.558 -0.1549 -0.4638 -0.4977
 9362SOL    HW139545   2.847   4.579  16.542  0.8438  0.0752 -0.2267
 9362SOL    HW239546   2.813   4.440  16.535 -1.1609  0.6669  0.1318
 9363SOL     OW39547   3.438   0.583   3.594  0.4189 -0.1392  0.2449
 9363SOL    HW139548   3.405   0.639   3.524 -0.7888 -0.1196  0.8429
 9363SOL    HW239549   3.528   0.568   3.562 -0.4461  1.2562 -2.8595
 9364SOL     OW39550   3.324   2.947   2.801 -0.1582  0.1061 -0.2068
 9364SOL    HW139551   3.346   3.039   2.816  0.5285 -0.2597  1.0156
 9364SOL    HW239552   3.248   2.930   2.857 -0.8689 -0.8286 -1.4435
 9365SOL     OW39553   0.883   4.376   6.818  0.1206 -0.4231  0.3012
 9365SOL    HW139554   0.922   4.461   6.838 -0.9659 -0.2940  1.8702
 9365SOL    HW239555   0.797   4.403   6.785  0.2487  1.0089  1.1146
 9366SOL     OW39556   4.044   4.629   8.547  0.3283 -0.3878  0.2951
 9366SOL    HW139557   4.049   4.537   8.573  3.1852 -0.2660  0.2051
 9366SOL    HW239558   3.955   4.653   8.573  0.5443  0.0075  0.6649
 9367SOL     OW39559   3.706   0.162   3.770  0.7634 -0.3315 -0.0968
 9367SOL    HW139560   3.700   0.245   3.722 -2.7669  0.5133  1.8023
 9367SOL    HW239561   3.688   0.197   3.857 -0.6527  0.6692 -0.7926
 9368SOL     OW39562   2.520   4.668  10.801 -0.3120  0.1112  0.0490
 9368SOL    HW139563   2.522   0.044  10.812 -0.2642  0.5109 -3.5603
 9368SOL    HW239564   2.588   4.652  10.736  0.0491  0.1675  0.4113
 9369SOL     OW39565   0.399   3.215   4.570  0.1221  0.5183 -0.2667
 9369SOL    HW139566   0.385   3.235   4.478  0.0458  1.8642  0.0424
 9369SOL    HW239567   0.369   3.296   4.610 -0.8072 -0.2571  0.6308
 9370SOL     OW39568   0.399   4.105   5.438 -0.1253  0.3524 -0.0973
 9370SOL    HW139569   0.436   4.188   5.466  1.3174 -0.6230  0.9328
 9370SOL    HW239570   0.356   4.083   5.521  0.3664 -0.5867 -0.0817
 9371SOL     OW39571   2.470   1.413  13.223  0.5229 -0.1141 -0.4939
 9371SOL    HW139572   2.536   1.379  13.284 -0.9628  0.0784  1.1962
 9371SOL    HW239573   2.473   1.340  13.162  0.9961 -2.2949  2.1250
 9372SOL     OW39574   4.531   0.044  15.402 -0.3351 -0.5935  0.0482
 9372SOL    HW139575   4.479   0.024  15.325 -0.9850 -2.5311  0.9738
 9372SOL    HW239576   4.525   4.679  15.448  0.6881  0.2359  1.7417
 9373SOL     OW39577   1.720   4.717   5.345  0.9323 -0.3218  0.4677
 9373SOL    HW139578   1.670   4.640   5.321  0.7050  0.0208 -0.1357
 9373SOL    HW239579   1.662   0.048   5.402  0.0562 -0.6238 -0.1637
 9374SOL     OW39580   4.135   0.844   7.315 -0.7455  0.2624  0.9761
 9374SOL    HW139581   4.189   0.855   7.236  0.2320 -0.3454  1.5692
 9374SOL    HW239582   4.188   0.895   7.376  0.2860  1.0211 -0.5420
 9375SOL     OW39583   4.200   0.036   1.942 -0.3126 -0.0413 -0.6289
 9375SOL    HW139584   4.174   0.064   1.854 -0.6445  0.2384 -0.4405
 9375SOL    HW239585   4.294   0.053   1.942 -0.4028  0.4625 -1.8891
 9376SOL     OW39586   3.215   2.233   7.219 -0.0467  0.4209 -0.1805
 9376SOL    HW139587   3.299   2.188   7.207  0.5327  1.7328 -0.9808
 9376SOL    HW239588   3.203   2.269   7.131 -0.4950  0.6486 -0.0236
 9377SOL     OW39589   0.478   1.492   4.600  0.0636 -0.6732 -0.0051
 9377SOL    HW139590   0.434   1.411   4.627  2.5910 -1.9361  0.2299
 9377SOL    HW239591   0.557   1.484   4.653  0.4051 -0.9877 -0.5680
 9378SOL     OW39592   1.611   1.209   1.217  0.3860  0.1848 -0.4372
 9378SOL    HW139593   1.547   1.159   1.166 -0.1831  0.3220  0.1418
 9378SOL    HW239594   1.600   1.297   1.182  1.7102 -0.7478 -3.2027
 9379SOL     OW39595   0.693   4.244   4.989  0.2491 -0.2827  0.0521
 9379SOL    HW139596   0.715   4.331   4.955  1.2212 -0.2571  0.7549
 9379SOL    HW239597   0.643   4.265   5.068  1.0042 -4.2853  1.5879
 9380SOL     OW39598   4.130   4.137  17.336 -0.7139  0.0120 -0.5879
 9380SOL    HW139599   4.207   4.126  17.281  1.1076  2.9347  1.4203
 9380SOL    HW239600   4.066   4.087  17.285 -2.5071 -0.5878  2.2106
 9381SOL     OW39601   1.562   2.180   4.011  0.1965 -0.2669 -0.5293
 9381SOL    HW139602   1.610   2.172   4.094  0.5495 -1.1739 -0.8129
 9381SOL    HW239603   1.633   2.214   3.957  1.2341  2.0826  2.2932
 9382SOL     OW39604   3.047   2.600  13.036 -0.2049  0.0226 -0.0669
 9382SOL    HW139605   3.088   2.673  12.990  0.6211  1.3341  2.7837
 9382SOL    HW239606   3.086   2.532  12.981  2.1670  1.2861  0.0593
 9383SOL     OW39607   4.278   0.800  13.381  0.0958 -0.5907 -0.4142
 9383SOL    HW139608   4.372   0.782  13.375  0.3801  0.3821  1.0529
 9383SOL    HW239609   4.278   0.834  13.471 -0.7444 -0.9625 -0.2782
 9384SOL     OW39610   3.024   3.204   2.599  0.5941 -0.1898  0.2940
 9384SOL    HW139611   2.959   3.178   2.664 -0.4076  2.3534  0.3156
 9384SOL    HW239612   2.989   3.159   2.523 -1.9220  0.2367  1.1869
 9385SOL     OW39613   1.884   0.874  11.422  0.0234  0.2750 -0.0467
 9385SOL    HW139614   1.896   0.791  11.468 -2.6677 -0.2770 -0.3602
 9385SOL    HW239615   1.843   0.851  11.339  1.8657  1.4666 -1.2964
 9386SOL     OW39616   2.291   3.659   5.433  0.1283  0.9454  0.1727
 9386SOL    HW139617   2.251   3.736   5.391 -1.7948  0.9233  1.9367
 9386SOL    HW239618   2.366   3.701   5.475  0.1630 -0.4648  1.5197
 9387SOL     OW39619   0.134   2.998   4.517  0.4094  0.6962 -0.2381
 9387SOL    HW139620   0.221   2.968   4.490 -1.2711 -2.7801 -1.7528
 9387SOL    HW239621   0.117   3.048   4.438 -0.7211 -0.4845 -0.7299
 9388SOL     OW39622   1.620   4.181   4.166  0.0452 -0.6146  0.0790
 9388SOL    HW139623   1.685   4.217   4.227 -1.2824 -0.7167  1.5529
 9388SOL    HW239624   1.548   4.244   4.164  0.2965 -0.3372 -0.2449
 9389SOL     OW39625   2.635   1.735   5.907 -0.1814  0.1547 -0.0311
 9389SOL    HW139626   2.697   1.808   5.903  0.9026 -0.8371 -0.9729
 9389SOL    HW239627   2.660   1.693   5.989 -2.3602 -2.3577 -0.6554
 9390SOL     OW39628   1.263   4.412   8.792 -0.0308  0.0768 -0.0756
 9390SOL    HW139629   1.356   4.393   8.790 -0.0728 -0.0204 -1.0909
 9390SOL    HW239630   1.257   4.408   8.887 -1.2877  1.7770 -0.0781
 9391SOL     OW39631   2.967   2.614  11.408  0.0581  0.4253  0.2963
 9391SOL    HW139632   2.988   2.693  11.360  1.7681 -0.3572 -0.2595
 9391SOL    HW239633   2.979   2.641  11.499  1.3666  0.3932  0.1424
 9392SOL     OW39634   3.454   3.791   2.002  0.5984 -0.1067 -0.3787
 9392SOL    HW139635   3.447   3.854   2.074  0.6861  0.9150 -1.2633
 9392SOL    HW239636   3.361   3.771   1.999  0.6422 -0.2402 -0.8418
 9393SOL     OW39637   2.045   0.947  10.124 -0.3413 -0.3786  0.4784
 9393SOL    HW139638   2.087   0.959  10.039  0.9007  0.9631  1.2725
 9393SOL    HW239639   2.085   0.864  10.151 -0.5995 -1.0892 -1.3082
 9394SOL     OW39640   3.889   2.051   0.961  0.1707  0.5370 -0.1931
 9394SOL    HW139641   3.825   1.994   0.920  2.5405 -3.1680  1.2434
 9394SOL    HW239642   3.821   2.105   1.003  0.0021 -0.2815  0.5869
 9395SOL     OW39643   3.806   0.191  15.088  0.0259 -0.1179 -0.0079
 9395SOL    HW139644   3.870   0.179  15.018  0.8270 -1.6163  0.9846
 9395SOL    HW239645   3.731   0.205  15.031 -0.0958  0.0179  0.1858
 9396SOL     OW39646   2.018   4.459   6.836  0.5129 -0.2482  0.1536
 9396SOL    HW139647   2.069   4.531   6.873 -1.1700  1.4670 -0.8178
 9396SOL    HW239648   2.008   4.482   6.743  1.7384  1.5782  0.4788
 9397SOL     OW39649   1.623   1.855   3.732 -0.4033  0.5108 -0.3085
 9397SOL    HW139650   1.576   1.829   3.653  0.4443  0.9558 -0.9529
 9397SOL    HW239651   1.716   1.852   3.711 -0.0045  1.9317  1.2359
 9398SOL     OW39652   2.558   1.403   6.088 -0.3660 -0.1774 -0.3099
 9398SOL    HW139653   2.493   1.473   6.083 -1.1401 -0.9933 -1.5824
 9398SOL    HW239654   2.504   1.332   6.055 -1.6003  0.6182 -0.0333
 9399SOL     OW39655   2.033   0.846   8.035 -0.0174  0.2194  0.0048
 9399SOL    HW139656   2.060   0.924   8.084  1.6871 -0.1999 -0.2496
 9399SOL    HW239657   2.074   0.858   7.950 -2.0787  1.0995 -0.8547
 9400SOL     OW39658   4.002   2.372   9.487 -0.1136 -0.0511 -0.5498
 9400SOL    HW139659   3.997   2.330   9.573  0.0119 -0.9335 -0.9744
 9400SOL    HW239660   4.097   2.373   9.477 -0.1505 -0.2224 -0.9300
 9401SOL     OW39661   1.265   4.283  11.151  0.3231 -0.2826 -0.2096
 9401SOL    HW139662   1.281   4.283  11.057  1.1568  0.0837 -0.0671
 9401SOL    HW239663   1.320   4.212  11.182  0.4289  0.4208  1.2435
 9402SOL     OW39664   1.175   4.413   6.152  0.3535  0.4605  0.7122
 9402SOL    HW139665   1.255   4.432   6.103  1.1419 -1.6658  1.1790
 9402SOL    HW239666   1.134   4.346   6.097  0.2734 -0.2530  1.6335
 9403SOL     OW39667   1.090   4.659   2.449 -0.5123  0.1533  0.1140
 9403SOL    HW139668   1.131   4.707   2.521 -0.2039  0.1233 -0.0425
 9403SOL    HW239669   1.173   4.643   2.404  0.0075 -2.8029  2.1440
 9404SOL     OW39670   0.974   3.978   3.075 -0.0030  0.5499 -0.2219
 9404SOL    HW139671   0.927   3.924   3.011 -2.0609  1.0902  0.8174
 9404SOL    HW239672   0.944   4.063   3.044  0.6629 -0.2847 -3.1534
 9405SOL     OW39673   4.111   3.572   6.514  0.5032  0.2191 -0.1640
 9405SOL    HW139674   4.201   3.591   6.540  0.9880  0.6199 -2.1546
 9405SOL    HW239675   4.077   3.632   6.581  1.3182  1.3706 -0.7694
 9406SOL     OW39676   3.331   3.044   1.761  0.0204  0.1181  0.8584
 9406SOL    HW139677   3.342   3.088   1.845  0.5665  0.8113  0.4307
 9406SOL    HW239678   3.411   3.089   1.732  0.5923 -0.5140  1.4730
 9407SOL     OW39679   2.108   3.775   8.252 -0.1096  0.1761  0.1526
 9407SOL    HW139680   2.158   3.851   8.280  1.2183 -1.2951  1.8072
 9407SOL    HW239681   2.114   3.783   8.157  0.4292 -0.4482  0.1313
 9408SOL     OW39682   0.471   0.649   4.862  0.0264  0.2416 -0.0867
 9408SOL    HW139683   0.504   0.646   4.952 -1.6930 -2.2639  0.4530
 9408SOL    HW239684   0.509   0.732   4.833 -0.5781 -0.2352 -2.2694
 9409SOL     OW39685   4.371   3.314   2.980  0.0991  0.1031  0.0207
 9409SOL    HW139686   4.358   3.296   2.887  1.0410  1.6126 -0.4060
 9409SOL    HW239687   4.362   3.223   3.006  1.5003 -0.3771 -1.1438
 9410SOL     OW39688   4.513   0.479   8.675 -0.4231 -0.7942 -0.2058
 9410SOL    HW139689   4.443   0.434   8.722 -3.9502  2.4429 -2.3725
 9410SOL    HW239690   4.565   0.520   8.744  1.0077  0.4342 -2.0257
 9411SOL     OW39691   0.780   0.865   6.044  0.2459  0.2103 -0.7002
 9411SOL    HW139692   0.860   0.900   6.005  0.9496  0.5116  0.9802
 9411SOL    HW239693   0.719   0.937   6.057 -2.2836 -1.7570 -1.8225
 9412SOL     OW39694   3.197   2.358   4.307  0.0278 -0.0473 -0.0983
 9412SOL    HW139695   3.224   2.382   4.395 -0.9074 -1.2578  0.5123
 9412SOL    HW239696   3.266   2.404   4.260 -0.3776  1.1796  0.5180
 9413SOL     OW39697   1.127   0.683   0.113 -0.4115  0.4554  0.4733
 9413SOL    HW139698   1.129   0.617   0.043 -0.1201  0.1621  0.7613
 9413SOL    HW239699   1.122   0.623   0.187 -3.0607 -1.0582 -0.9405
 9414SOL     OW39700   4.069   0.972   5.375 -0.1700 -0.4131 -0.9420
 9414SOL    HW139701   4.014   1.005   5.303  1.3129 -0.6300 -2.1651
 9414SOL    HW239702   4.005   0.921   5.425  1.9418 -0.8448  1.2685
 9415SOL     OW39703   0.884   2.763   2.374  0.7108  0.1155 -0.2521
 9415SOL    HW139704   0.889   2.803   2.287 -0.0744 -0.3141 -0.4983
 9415SOL    HW239705   0.794   2.730   2.364  0.2836  1.1848  0.0307
 9416SOL     OW39706   0.428   0.958  10.909 -0.2929 -0.2953  0.1670
 9416SOL    HW139707   0.338   0.982  10.929 -0.5513 -0.0286 -1.2867
 9416SOL    HW239708   0.475   1.041  10.907 -1.0337  0.1189 -0.0796
 9417SOL     OW39709   1.101   1.316   2.528 -0.1185 -0.2628 -0.4793
 9417SOL    HW139710   1.008   1.335   2.541  0.1026  0.3163  0.2752
 9417SOL    HW239711   1.128   1.307   2.619  2.3073  2.4448 -0.9272
 9418SOL     OW39712   2.202   3.076   3.959 -0.2398  0.0882 -0.5354
 9418SOL    HW139713   2.207   3.054   4.052  2.7852  1.9707 -0.2380
 9418SOL    HW239714   2.129   3.019   3.937 -1.1925  0.7364  0.9285
 9419SOL     OW39715   0.780   4.496   3.280  0.1474 -0.0236 -0.2954
 9419SOL    HW139716   0.862   4.488   3.231 -0.9118  0.4822 -2.1542
 9419SOL    HW239717   0.805   4.571   3.335 -2.1088  0.1525  0.4884
 9420SOL     OW39718   4.094   2.396   4.841  0.2730 -0.0465 -0.1338
 9420SOL    HW139719   4.105   2.399   4.746  0.8365  0.8569 -0.0413
 9420SOL    HW239720   4.005   2.430   4.855  0.0553 -0.6753  0.0146
 9421SOL     OW39721   2.284   1.768   2.958 -0.5373  0.0345 -0.3071
 9421SOL    HW139722   2.311   1.853   2.991 -1.0415 -0.7530  2.1434
 9421SOL    HW239723   2.189   1.778   2.970 -0.1975  0.7223  1.7081
 9422SOL     OW39724   0.400   3.078  12.140  0.0105 -0.0095 -0.0085
 9422SOL    HW139725   0.406   2.983  12.141  0.2817  0.0009 -1.5016
 9422SOL    HW239726   0.350   3.098  12.061  0.7601  0.0174 -0.4677
 9423SOL     OW39727   0.008   2.333  11.652 -0.2828 -0.6366 -0.0702
 9423SOL    HW139728   0.008   2.355  11.558  0.9550  1.4993  0.4141
 9423SOL    HW239729   4.634   2.326  11.674 -0.4685  0.2749 -0.5500
 9424SOL     OW39730   3.703   2.864   2.948  0.5336 -0.4536 -0.0625
 9424SOL    HW139731   3.756   2.839   3.023  1.0010  0.9406  0.0621
 9424SOL    HW239732   3.719   2.792   2.887  0.1446  0.9217 -1.8039
 9425SOL     OW39733   4.058   4.178  17.016  0.8660  0.0298 -0.2848
 9425SOL    HW139734   4.065   4.083  17.005  2.0796  0.3857 -2.5997
 9425SOL    HW239735   4.059   4.211  16.926  1.4439 -0.9834 -0.6496
 9426SOL     OW39736   3.212   3.920   6.021 -0.2144  0.2438  0.8747
 9426SOL    HW139737   3.270   3.868   5.965  2.5574  2.6885  1.4786
 9426SOL    HW239738   3.125   3.896   5.988  1.2112 -2.5789 -0.8064
 9427SOL     OW39739   0.358   4.502   7.334 -0.1530 -0.7974  0.3532
 9427SOL    HW139740   0.345   4.590   7.298  1.0801 -0.2447  1.2479
 9427SOL    HW239741   0.391   4.469   7.251 -0.3141  2.3497 -0.9892
 9428SOL     OW39742   0.290   2.204   7.550 -0.3735 -0.2800 -0.7481
 9428SOL    HW139743   0.331   2.278   7.505 -1.9045  1.6669  1.0237
 9428SOL    HW239744   0.364   2.146   7.567 -1.0951 -0.8365  0.5145
 9429SOL     OW39745   1.379   2.257  13.592  0.0837  0.1490  0.6887
 9429SOL    HW139746   1.293   2.298  13.591  0.7373  1.5194 -0.3257
 9429SOL    HW239747   1.373   2.207  13.510  0.3848  0.0568  0.7207
 9430SOL     OW39748   3.211   4.530   6.716 -0.0630 -0.3169 -0.4945
 9430SOL    HW139749   3.228   4.622   6.695 -0.1073 -0.0375  0.6922
 9430SOL    HW239750   3.132   4.537   6.769 -0.3596  1.4749 -1.1829
 9431SOL     OW39751   2.604   1.224   3.113 -0.1496  0.3794 -0.1405
 9431SOL    HW139752   2.668   1.199   3.179 -0.7104 -2.2300 -0.5859
 9431SOL    HW239753   2.651   1.182   3.041  0.8202  1.5655 -0.1935
 9432SOL     OW39754   0.399   4.139  12.362 -0.2102 -0.0997  0.3370
 9432SOL    HW139755   0.440   4.208  12.310 -0.4143 -0.3603 -0.1699
 9432SOL    HW239756   0.310   4.143  12.329 -1.3005 -1.7253  3.0679
 9433SOL     OW39757   0.792   1.711   3.529  0.2878  0.8112 -0.3873
 9433SOL    HW139758   0.848   1.689   3.603  0.7355 -1.2899 -1.3445
 9433SOL    HW239759   0.711   1.660   3.537 -0.2717  1.9042  0.9634
 9434SOL     OW39760   3.835   1.274  11.306  0.0373 -0.1459 -0.2077
 9434SOL    HW139761   3.739   1.272  11.307  0.0375 -0.3888 -0.5492
 9434SOL    HW239762   3.847   1.344  11.370 -0.6217  0.2071 -0.4678
 9435SOL     OW39763   1.394   0.102   3.675 -0.0364 -0.4730  0.2031
 9435SOL    HW139764   1.380   0.192   3.646  2.5620  0.0428  0.6100
 9435SOL    HW239765   1.427   0.056   3.597 -0.3971  1.7757 -1.2746
 9436SOL     OW39766   2.154   3.781  13.224 -0.3638 -0.0394  0.1917
 9436SOL    HW139767   2.242   3.787  13.185 -1.3650  0.6865 -2.0033
 9436SOL    HW239768   2.127   3.692  13.203 -2.5455  0.5489  0.5172
 9437SOL     OW39769   0.988   1.586   8.483  0.3321 -0.6476  0.5793
 9437SOL    HW139770   1.008   1.508   8.431  0.9693 -0.1451  0.0743
 9437SOL    HW239771   0.982   1.540   8.567 -1.6971 -1.5715 -0.0670
 9438SOL     OW39772   4.666   3.095  15.536 -0.2067 -0.0370 -0.3301
 9438SOL    HW139773   4.581   3.068  15.573 -0.3899  2.6967  1.2487
 9438SOL    HW239774   4.642   3.097  15.444  1.8464 -1.8179 -0.8937
 9439SOL     OW39775   1.790   3.910   2.044  0.4812 -0.1013 -0.1864
 9439SOL    HW139776   1.701   3.874   2.043 -0.0656  1.2959 -0.9063
 9439SOL    HW239777   1.781   4.003   2.023 -0.2996  0.0942  0.9737
 9440SOL     OW39778   1.676   2.950   8.153 -0.2749  0.3144  0.4178
 9440SOL    HW139779   1.650   2.914   8.237 -4.0311 -1.9591 -1.7536
 9440SOL    HW239780   1.636   3.037   8.163  0.0289  0.4906  0.1299
 9441SOL     OW39781   0.802   1.492  14.902  0.6188  0.1483  0.7969
 9441SOL    HW139782   0.837   1.505  14.990  1.5812  0.8293  0.3106
 9441SOL    HW239783   0.726   1.439  14.925 -0.0305  1.0303  0.6472
 9442SOL     OW39784   0.868   2.151   0.285 -1.0891 -0.1928  0.3886
 9442SOL    HW139785   0.832   2.234   0.315  2.6737  0.9297  1.8102
 9442SOL    HW239786   0.824   2.082   0.334  0.2854 -1.8653 -0.6969
 9443SOL     OW39787   1.537   3.165   6.669 -0.2240 -0.0964 -0.7109
 9443SOL    HW139788   1.620   3.203   6.641 -1.5168  1.6844 -2.1082
 9443SOL    HW239789   1.560   3.152   6.761 -2.2139 -1.4414 -0.3726
 9444SOL     OW39790   1.204   1.714   5.602  0.1814 -0.0532 -0.0238
 9444SOL    HW139791   1.288   1.712   5.648 -0.3140  0.4805  0.9050
 9444SOL    HW239792   1.223   1.704   5.509  0.6298  0.5947 -0.0019
 9445SOL     OW39793   2.428   0.318   6.558  0.1783 -0.3865 -0.7221
 9445SOL    HW139794   2.403   0.237   6.602  0.9177  0.0163  0.4467
 9445SOL    HW239795   2.419   0.390   6.622 -0.2413  0.3362 -1.5987
 9446SOL     OW39796   1.351   1.084   5.976  0.6855 -0.1056  0.5117
 9446SOL    HW139797   1.446   1.074   5.966  0.7468 -0.3940  1.4298
 9446SOL    HW239798   1.345   1.085   6.071  2.8845  2.4554  0.6336
 9447SOL     OW39799   4.068   0.062   0.733  0.8971 -0.2752 -0.2823
 9447SOL    HW139800   4.086   0.044   0.641 -1.7832  2.5702 -1.3615
 9447SOL    HW239801   3.973   0.073   0.729  1.2605  2.6636 -0.2301
 9448SOL     OW39802   3.933   1.787   6.244 -1.4607  0.1860  0.1718
 9448SOL    HW139803   3.937   1.811   6.337  0.6773  0.1001  0.0960
 9448SOL    HW239804   3.874   1.713   6.260 -2.3415  0.9511  0.4877
 9449SOL     OW39805   0.535   1.609   5.037  0.1356  0.7558 -0.3278
 9449SOL    HW139806   0.456   1.655   5.065  0.2191  1.2764 -0.9585
 9449SOL    HW239807   0.567   1.668   4.969 -0.8283  0.6367 -0.8759
 9450SOL     OW39808   3.127   2.036   2.149  0.0914 -0.1664  0.0403
 9450SOL    HW139809   3.080   1.952   2.151 -1.4949  0.7740  1.6790
 9450SOL    HW239810   3.218   2.013   2.169  0.5929  1.4444 -0.3880
 9451SOL     OW39811   1.092   1.917   8.123  0.6273  0.0372  0.1657
 9451SOL    HW139812   1.001   1.893   8.141  0.0608  1.2422 -1.0077
 9451SOL    HW239813   1.108   1.970   8.201 -0.2384  1.2738 -0.4839
 9452SOL     OW39814   3.607   3.471   6.419 -0.0034 -0.8547  0.1873
 9452SOL    HW139815   3.520   3.510   6.424 -0.9438 -3.0562  1.2444
 9452SOL    HW239816   3.641   3.500   6.334  3.5660  0.5017  2.0856
 9453SOL     OW39817   3.979   2.380   4.104 -0.0701 -0.3027 -0.6854
 9453SOL    HW139818   3.945   2.362   4.017 -0.5533  0.3219 -0.6261
 9453SOL    HW239819   3.927   2.316   4.154 -0.3191 -0.3107 -0.9568
 9454SOL     OW39820   1.880   2.964  16.982  0.1064  0.2700 -0.3854
 9454SOL    HW139821   1.816   2.928  17.043 -2.2140  0.2297 -2.8012
 9454SOL    HW239822   1.960   2.923  17.013  1.6237  1.5599 -2.5685
 9455SOL     OW39823   3.102   4.596   3.684 -0.3743 -0.2568  0.2251
 9455SOL    HW139824   3.160   4.614   3.758  1.0469  2.0325 -1.4562
 9455SOL    HW239825   3.151   4.525   3.642  0.5253  0.7123 -0.3708
 9456SOL     OW39826   1.767   0.336   3.815  0.6226  0.3530 -0.3398
 9456SOL    HW139827   1.862   0.333   3.817  0.6679  0.9062 -1.8380
 9456SOL    HW239828   1.752   0.294   3.731  0.4101  1.4095 -0.8343
 9457SOL     OW39829   0.757   0.636  17.011 -0.1585 -0.7462 -0.3576
 9457SOL    HW139830   0.715   0.687  16.942 -1.6884 -0.6978  0.6116
 9457SOL    HW239831   0.683   0.631  17.071  1.5591 -2.0856  1.6368
 9458SOL     OW39832   3.626   4.567   6.262  0.3801 -0.3660  0.2089
 9458SOL    HW139833   3.569   4.491   6.277 -1.0603  0.4630 -1.1604
 9458SOL    HW239834   3.635   4.597   6.353  0.5249 -3.0253  1.0939
 9459SOL     OW39835   2.071   2.379   6.191  0.1712 -0.2380  0.3106
 9459SOL    HW139836   1.991   2.332   6.212  0.4160 -0.1673  1.3705
 9459SOL    HW239837   2.085   2.437   6.266 -1.3125 -0.0783  0.4605
 9460SOL     OW39838   1.154   3.792   4.348  0.1488 -0.1066 -0.1624
 9460SOL    HW139839   1.154   3.703   4.385 -1.0828  0.7943  2.0311
 9460SOL    HW239840   1.234   3.825   4.387  0.3911 -2.8218  1.6449
 9461SOL     OW39841   1.889   1.797   8.300 -0.3592 -0.1001 -0.2133
 9461SOL    HW139842   1.968   1.849   8.291  1.3699 -2.7935 -0.7905
 9461SOL    HW239843   1.858   1.803   8.210 -0.2372  0.4558 -0.2163
 9462SOL     OW39844   1.077   1.548  13.818  0.3425 -0.1344 -0.2071
 9462SOL    HW139845   0.991   1.555  13.776 -0.4448 -1.2959  1.1764
 9462SOL    HW239846   1.083   1.461  13.859 -2.2436  0.8909  2.3797
 9463SOL     OW39847   4.571   1.057  11.906 -0.1671 -0.0676  0.4168
 9463SOL    HW139848   4.480   1.035  11.927  0.6564 -1.9853  1.9703
 9463SOL    HW239849   4.564   1.041  11.812  0.1116 -1.5227  0.6433
 9464SOL     OW39850   2.095   3.063  12.415 -0.3247 -0.5431  0.3479
 9464SOL    HW139851   2.108   2.974  12.382  0.1048 -0.9108  1.5471
 9464SOL    HW239852   2.111   3.052  12.508 -3.0722  2.4903  1.1819
 9465SOL     OW39853   0.394   1.925  14.588 -0.0711  0.1535  0.3104
 9465SOL    HW139854   0.337   1.857  14.625  0.0016 -0.1474 -0.1318
 9465SOL    HW239855   0.469   1.868  14.573 -0.1048  0.8125 -2.3681
 9466SOL     OW39856   4.161   0.713   4.158  0.3431 -0.4725  0.3503
 9466SOL    HW139857   4.253   0.736   4.166 -0.0121  1.4658 -1.0304
 9466SOL    HW239858   4.157   0.638   4.217 -0.4408 -1.0603 -0.4468
 9467SOL     OW39859   0.254   3.729   8.803 -0.5387  0.1415 -0.3031
 9467SOL    HW139860   0.287   3.809   8.764 -1.2811  1.3855  1.6430
 9467SOL    HW239861   0.336   3.680   8.804 -1.0811 -0.7468  0.5579
 9468SOL     OW39862   3.760   0.497   5.508 -0.0394 -0.5444 -0.2385
 9468SOL    HW139863   3.760   0.433   5.579 -0.3407  1.3334  1.4262
 9468SOL    HW239864   3.825   0.454   5.452  0.3728  1.8721 -1.6185
 9469SOL     OW39865   3.116   0.597   3.281  0.1863  1.0177 -0.3539
 9469SOL    HW139866   3.146   0.682   3.248 -2.0197  1.6224 -0.8149
 9469SOL    HW239867   3.150   0.530   3.221 -0.3133 -0.8853  1.5083
 9470SOL     OW39868   0.040   2.665  11.570 -0.2346 -0.4396 -0.8381
 9470SOL    HW139869   0.117   2.720  11.555  1.6381 -1.9261  3.1020
 9470SOL    HW239870   4.702   2.695  11.500 -1.2009 -1.1830 -0.3604
 9471SOL     OW39871   1.799   2.434   5.605 -0.1982 -0.4218  0.3509
 9471SOL    HW139872   1.800   2.396   5.693  1.0149  1.4185  1.1362
 9471SOL    HW239873   1.708   2.463   5.601  0.1405  0.7687  1.0021
 9472SOL     OW39874   4.261   1.064   6.900 -0.0861  0.0336  0.4051
 9472SOL    HW139875   4.321   1.138   6.891  1.3676 -0.9000  2.7126
 9472SOL    HW239876   4.189   1.104   6.849  1.9596  1.4329 -1.3839
 9473SOL     OW39877   2.033   0.757  15.862  0.2084  0.2895 -0.3517
 9473SOL    HW139878   2.123   0.788  15.850  0.6509 -0.7414  0.2754
 9473SOL    HW239879   1.978   0.832  15.840  2.2388  2.1147  0.7798
 9474SOL     OW39880   3.751   3.806  10.462  0.2824 -0.4083  0.3483
 9474SOL    HW139881   3.781   3.783  10.550  0.2602 -2.0697 -0.0772
 9474SOL    HW239882   3.658   3.824  10.468  0.4423  1.6144 -3.3994
 9475SOL     OW39883   0.930   2.378   6.663  0.3527 -0.9834  0.3786
 9475SOL    HW139884   1.006   2.326   6.690  2.2740  2.1134  0.8669
 9475SOL    HW239885   0.921   2.441   6.734  3.0957  0.4318 -0.5805
 9476SOL     OW39886   1.942   0.562   6.824 -0.4783 -0.3348  0.5230
 9476SOL    HW139887   1.946   0.516   6.740 -1.7365  2.7461 -1.2277
 9476SOL    HW239888   1.948   0.655   6.802 -0.3139 -0.6781 -0.8809
 9477SOL     OW39889   2.422   3.974  17.261 -0.4019  0.4029 -0.6114
 9477SOL    HW139890   2.357   3.912  17.292  0.1933 -0.0630 -0.2948
 9477SOL    HW239891   2.484   3.919  17.212 -2.4143 -1.5052 -1.0088
 9478SOL     OW39892   0.963   2.850  14.224 -0.3024  0.1256 -0.2161
 9478SOL    HW139893   0.922   2.823  14.142 -1.1951  1.2615 -0.1528
 9478SOL    HW239894   0.888   2.849  14.284 -1.2909  0.2322 -1.4517
 9479SOL     OW39895   1.290   3.491   8.224  0.0825  0.3263 -0.5849
 9479SOL    HW139896   1.275   3.401   8.194  0.8810 -0.7128  2.0779
 9479SOL    HW239897   1.350   3.525   8.158 -1.7492  0.3129 -2.2501
 9480SOL     OW39898   0.068   0.233  15.015  0.7039  0.2160  0.2607
 9480SOL    HW139899   4.693   0.248  15.018  0.3897 -1.4869 -1.5246
 9480SOL    HW239900   0.070   0.174  14.940 -1.0414  1.1754 -0.5354
 9481SOL     OW39901   0.947   1.270  17.455  0.1827  0.4944  0.4968
 9481SOL    HW139902   0.994   1.198  17.412  0.1953 -0.3298  1.8840
 9481SOL    HW239903   0.914   1.325  17.385  0.7945 -0.2702 -0.4005
 9482SOL     OW39904   4.372   1.310   1.506  0.1052 -0.3883 -0.0445
 9482SOL    HW139905   4.452   1.275   1.467  0.2063 -1.1335  0.8258
 9482SOL    HW239906   4.409   1.368   1.571  2.2318  0.5002 -2.0463
 9483SOL     OW39907   3.767   2.009  15.578 -0.5560  0.8570 -0.1487
 9483SOL    HW139908   3.681   1.982  15.612 -0.2050  0.5248  0.4807
 9483SOL    HW239909   3.825   1.948  15.624 -1.8894 -0.0214  0.3793
 9484SOL     OW39910   0.636   0.604  15.149  0.0350 -0.4749  0.4700
 9484SOL    HW139911   0.601   0.668  15.211 -0.1317  0.7553 -0.8873
 9484SOL    HW239912   0.612   0.646  15.066 -1.9768  0.1237  1.3407
 9485SOL     OW39913   1.864   3.570   8.717 -1.0031 -0.1095  0.4888
 9485SOL    HW139914   1.856   3.584   8.622  1.8275  1.2530  0.4326
 9485SOL    HW239915   1.873   3.661   8.748  2.7301 -0.8420  1.6190
 9486SOL     OW39916   0.047   3.331   4.510 -0.0565  0.7911 -0.0594
 9486SOL    HW139917   4.713   3.268   4.461  2.9630 -1.8361  0.0661
 9486SOL    HW239918   0.114   3.350   4.445 -0.4840 -1.3064 -1.1180
 9487SOL     OW39919   3.998   4.577   4.359  0.5108 -0.3087 -0.7421
 9487SOL    HW139920   3.991   4.551   4.451 -1.5655  1.5079 -0.3656
 9487SOL    HW239921   3.910   4.570   4.321 -0.3416  0.5775  1.0413
 9488SOL     OW39922   4.092   1.659  11.951  0.2509  0.4548  0.0884
 9488SOL    HW139923   4.157   1.595  11.978 -3.8278 -3.9347 -0.6699
 9488SOL    HW239924   4.138   1.736  11.985  0.1963  1.1864 -1.4672
 9489SOL     OW39925   0.364   2.405   2.058  0.7931 -0.6438  0.1061
 9489SOL    HW139926   0.414   2.360   2.125  2.7292  1.0843 -0.1910
 9489SOL    HW239927   0.435   2.443   2.006 -0.8807  0.7011 -1.2053
 9490SOL     OW39928   3.361   0.523  15.479 -0.0546 -0.0304  0.2692
 9490SOL    HW139929   3.431   0.485  15.426 -1.3404 -4.0031  1.4058
 9490SOL    HW239930   3.409   0.518  15.562 -1.7996 -0.8950  1.2371
 9491SOL     OW39931   4.218   2.452   6.985  0.6432 -0.1601  0.4849
 9491SOL    HW139932   4.310   2.430   7.001  1.1377  1.4818 -0.1235
 9491SOL    HW239933   4.215   2.547   6.987  2.5279 -0.0998  1.1292
 9492SOL     OW39934   4.014   1.743   2.324 -0.1237 -0.3544  0.2348
 9492SOL    HW139935   3.992   1.659   2.284  2.9269 -0.8040 -0.4232
 9492SOL    HW239936   3.947   1.793   2.278  0.7117  0.0464 -0.5367
 9493SOL     OW39937   1.562   1.819   5.048 -0.8255 -0.2347  0.5254
 9493SOL    HW139938   1.536   1.840   5.138  0.3859 -2.6174  1.4474
 9493SOL    HW239939   1.509   1.740   5.036  1.3200 -1.3993 -1.1984
 9494SOL     OW39940   3.184   3.436   1.943 -0.1258 -0.2308 -0.3715
 9494SOL    HW139941   3.119   3.376   1.980 -1.0508  2.1638  1.8567
 9494SOL    HW239942   3.162   3.424   1.851  1.0150 -1.2207 -0.5260
 9495SOL     OW39943   3.253   4.120   2.330  0.1939 -0.4375 -0.0455
 9495SOL    HW139944   3.220   4.057   2.395  0.5252 -0.4283  0.1333
 9495SOL    HW239945   3.215   4.202   2.361  0.4818 -0.3330  0.0330
 9496SOL     OW39946   3.200   0.060   4.574  0.5471 -0.0558  0.0574
 9496SOL    HW139947   3.118   0.077   4.620  0.6808 -0.4789  0.4477
 9496SOL    HW239948   3.173   4.716   4.507  0.1172  1.0537 -0.8150
 9497SOL     OW39949   2.582   1.567   4.976  0.3310 -0.2114 -0.2514
 9497SOL    HW139950   2.599   1.473   4.964  0.3657 -0.2367  0.0094
 9497SOL    HW239951   2.487   1.564   4.980  0.4227 -1.0796  1.1124
 9498SOL     OW39952   1.877   1.686   2.311  0.3040  0.0334  0.9245
 9498SOL    HW139953   1.850   1.731   2.231  1.0019 -0.1471  0.5889
 9498SOL    HW239954   1.795   1.641   2.332 -0.2936  0.1003 -1.2486
 9499SOL     OW39955   1.476   1.751  11.461  0.7202 -0.2804  0.3293
 9499SOL    HW139956   1.507   1.672  11.504 -1.4780 -1.0787  0.4783
 9499SOL    HW239957   1.541   1.769  11.394  1.8872 -1.0779  1.2522
 9500SOL     OW39958   2.425   0.510   7.783  0.4609 -0.6283 -0.2610
 9500SOL    HW139959   2.489   0.453   7.741  3.3488  3.5840 -1.5689
 9500SOL    HW239960   2.452   0.506   7.875 -0.8256 -1.2782  0.0832
 9501SOL     OW39961   1.681   3.406   0.503 -0.1247  0.1524 -1.1670
 9501SOL    HW139962   1.596   3.371   0.531 -0.6020  1.0168 -1.5060
 9501SOL    HW239963   1.734   3.327   0.509 -1.3477 -0.6893 -1.3161
 9502SOL     OW39964   1.583   3.116  15.739  0.1485 -0.0680 -0.1497
 9502SOL    HW139965   1.533   3.039  15.766  0.2942  1.0402  3.3174
 9502SOL    HW239966   1.675   3.096  15.760  0.3280  0.0098 -0.8742
 9503SOL     OW39967   3.053   4.469   5.647 -0.6932 -0.3690  0.0054
 9503SOL    HW139968   2.962   4.465   5.675 -0.0932 -1.3319  1.8120
 9503SOL    HW239969   3.099   4.411   5.708  0.5235  1.5791  0.9434
 9504SOL     OW39970   2.332   3.148   9.339  0.2964 -0.2018  0.1692
 9504SOL    HW139971   2.335   3.158   9.244  1.4811 -0.4932  0.1803
 9504SOL    HW239972   2.248   3.104   9.352  1.3255 -2.4466 -0.6620
 9505SOL     OW39973   0.486   0.796  11.629 -0.5380  0.0516  0.2424
 9505SOL    HW139974   0.552   0.751  11.682  1.0087  0.2503 -1.5018
 9505SOL    HW239975   0.408   0.797  11.684  0.4588 -1.3011  1.6609
 9506SOL     OW39976   4.518   0.919   2.717  0.5019 -0.1140 -0.1064
 9506SOL    HW139977   4.451   0.869   2.670  1.7337 -1.1527 -0.7785
 9506SOL    HW239978   4.486   0.904   2.806 -3.3451  0.5044 -1.3961
 9507SOL     OW39979   1.172   4.492   4.591  0.5294 -0.3677  0.1619
 9507SOL    HW139980   1.186   4.484   4.496 -2.6896  0.2473 -0.3422
 9507SOL    HW239981   1.239   4.556   4.614  0.2295  0.6180 -1.7290
 9508SOL     OW39982   3.791   4.045   6.349  0.4830 -0.3730  0.6282
 9508SOL    HW139983   3.824   3.974   6.294  0.6109 -0.0385  0.2736
 9508SOL    HW239984   3.698   4.048   6.329  0.7624  0.3358 -0.5492
 9509SOL     OW39985   1.355   2.777   8.791 -0.4163  0.3949 -0.0601
 9509SOL    HW139986   1.326   2.719   8.862  0.8605  1.9658  1.7723
 9509SOL    HW239987   1.372   2.867   8.822 -0.2189 -0.0363  1.1014
 9510SOL     OW39988   0.675   2.737  17.343  0.3378  0.1798 -0.8069
 9510SOL    HW139989   0.650   2.648  17.319  0.6748 -0.3609  0.8315
 9510SOL    HW239990   0.702   2.779  17.261 -0.3811 -0.8010 -1.5420
 9511SOL     OW39991   4.120   3.907  16.996  0.0443 -0.2398 -0.4245
 9511SOL    HW139992   4.188   3.892  16.930  0.6520  0.4711  0.0426
 9511SOL    HW239993   4.163   3.883  17.078 -1.2994  0.2061  0.4054
 9512SOL     OW39994   4.698   2.946   2.731 -1.0195 -0.0368 -0.0289
 9512SOL    HW139995   4.629   3.012   2.722 -1.2236 -0.5382 -2.2158
 9512SOL    HW239996   4.646   2.869   2.709  0.4730 -0.9421 -0.3829
 9513SOL     OW39997   2.736   2.156   8.493 -0.2184  0.4126  0.2787
 9513SOL    HW139998   2.822   2.195   8.475 -0.9833  2.2999  0.8275
 9513SOL    HW239999   2.688   2.228   8.533  0.2992  0.3801  0.9507
 9514SOL     OW40000   3.978   1.567   5.257  0.5950  0.5442  0.1806
 9514SOL    HW140001   3.956   1.645   5.308  2.8200 -1.0297  3.5661
 9514SOL    HW240002   4.072   1.583   5.245  0.4736  0.7211 -0.4998
 9515SOL     OW40003   2.225   3.648   2.252 -0.0094  0.2424 -0.4204
 9515SOL    HW140004   2.295   3.596   2.290  0.7226  0.0773 -2.0036
 9515SOL    HW240005   2.222   3.601   2.168 -0.0203  1.9695 -1.3922
 9516SOL     OW40006   1.103   0.933  11.651 -0.1044 -0.6697 -0.0735
 9516SOL    HW140007   1.183   0.953  11.603  0.4211 -3.1210 -0.2169
 9516SOL    HW240008   1.129   0.846  11.680  0.7777 -0.1104  0.8160
 9517SOL     OW40009   1.534   2.148   2.818  0.2583  0.1941  0.6406
 9517SOL    HW140010   1.563   2.110   2.901  0.6528 -1.0230 -0.0545
 9517SOL    HW240011   1.605   2.209   2.802 -1.2835  1.5804 -0.8625
 9518SOL     OW40012   0.239   3.550   8.496  0.0925 -0.1130  0.4497
 9518SOL    HW140013   0.189   3.488   8.549  0.0497 -2.0084 -1.8277
 9518SOL    HW240014   0.271   3.484   8.434 -1.5783 -0.9374  0.4776
 9519SOL     OW40015   0.085   0.530  14.940 -0.2911 -0.5092  0.0527
 9519SOL    HW140016   0.124   0.451  14.979  0.5567  1.3882  3.0747
 9519SOL    HW240017   0.163   0.581  14.917  1.9634 -4.2361 -0.6919
 9520SOL     OW40018   2.533   4.019   3.971  0.1206  0.2458  0.3393
 9520SOL    HW140019   2.531   3.929   4.002 -1.2848  0.0676 -0.2771
 9520SOL    HW240020   2.616   4.048   4.011 -0.1064  0.3348  0.7400
 9521SOL     OW40021   2.228   3.627  11.346  0.4565 -0.1148  0.1314
 9521SOL    HW140022   2.193   3.642  11.434 -0.9551 -1.3231 -0.2215
 9521SOL    HW240023   2.148   3.594  11.304  0.6115 -0.2840 -0.0322
 9522SOL     OW40024   3.577   1.871   6.043  0.1500  0.5523  0.4752
 9522SOL    HW140025   3.594   1.818   6.122 -3.4018 -2.1258 -0.5355
 9522SOL    HW240026   3.498   1.825   6.014  1.0968  0.4890 -2.0099
 9523SOL     OW40027   4.332   3.871  16.852 -0.2322  0.1641  0.3099
 9523SOL    HW140028   4.396   3.800  16.863 -0.2367  0.1739  0.4011
 9523SOL    HW240029   4.376   3.938  16.905  0.7170  1.2999 -1.9123
 9524SOL     OW40030   4.693   2.547   7.756 -0.1317  0.2796 -0.5668
 9524SOL    HW140031   0.011   2.460   7.740 -0.7940 -0.3308  1.1676
 9524SOL    HW240032   0.010   2.573   7.841  0.8894 -0.2309 -0.8437
 9525SOL     OW40033   0.833   2.022   2.697 -0.6585  0.7510 -0.1327
 9525SOL    HW140034   0.890   1.948   2.718 -1.0758 -0.1611 -2.1699
 9525SOL    HW240035   0.894   2.095   2.707  0.1881  0.0498 -0.2060
 9526SOL     OW40036   2.460   4.345   2.395 -0.2297  0.3956 -0.2859
 9526SOL    HW140037   2.424   4.362   2.308  0.8096 -0.3017 -0.8468
 9526SOL    HW240038   2.552   4.353   2.372  0.2072 -0.9654  1.0054
 9527SOL     OW40039   0.895   4.002   8.590  0.0813  0.0556  0.0836
 9527SOL    HW140040   0.895   4.048   8.506  1.1018 -0.4224 -0.1724
 9527SOL    HW240041   0.925   3.916   8.559  0.2835 -0.9321  3.0527
 9528SOL     OW40042   2.860   0.057  10.217  0.6019  0.0375 -0.1512
 9528SOL    HW140043   2.908   0.063  10.300  0.2094 -0.4140  0.1155
 9528SOL    HW240044   2.862   0.147  10.185 -0.1495  0.8498  2.0317
 9529SOL     OW40045   4.689   2.273  17.193 -0.1059  0.0926 -0.0076
 9529SOL    HW140046   4.602   2.309  17.176 -0.5838 -0.2913  1.6691
 9529SOL    HW240047   0.019   2.353  17.212  1.0200 -0.6274  0.1188
 9530SOL     OW40048   2.004   0.935   8.577 -0.2246  0.7624 -0.4851
 9530SOL    HW140049   2.054   0.979   8.646 -2.1388  1.0970  0.7120
 9530SOL    HW240050   1.947   0.874   8.626  1.8038 -2.8523 -2.6633
 9531SOL     OW40051   0.723   4.252  16.651  0.3634  0.6046  0.4496
 9531SOL    HW140052   0.674   4.332  16.668 -0.4941  0.3749 -0.9782
 9531SOL    HW240053   0.811   4.288  16.640 -0.2726  1.6392 -1.2185
 9532SOL     OW40054   2.184   1.461   7.005  0.4423  0.1648  0.1471
 9532SOL    HW140055   2.143   1.432   7.087 -0.2967  3.0229  0.7754
 9532SOL    HW240056   2.277   1.467   7.025  0.0852  2.8215  0.9344
 9533SOL     OW40057   1.653   4.184   5.165  0.1342  0.2240  0.2676
 9533SOL    HW140058   1.680   4.249   5.231  1.8172  3.2935 -3.4709
 9533SOL    HW240059   1.630   4.102   5.209  1.3107  0.4625  1.3248
 9534SOL     OW40060   1.212   0.891   6.835  0.0540 -0.1902  0.2976
 9534SOL    HW140061   1.225   0.861   6.745 -0.1188  1.6597 -0.3247
 9534SOL    HW240062   1.166   0.811   6.862  0.5989 -1.1998 -1.7611
 9535SOL     OW40063   3.408   2.223   2.807  0.8543  0.2476 -0.2663
 9535SOL    HW140064   3.454   2.255   2.730 -0.6974 -0.0418 -1.3107
 9535SOL    HW240065   3.403   2.300   2.863  1.3260  0.0447  0.0524
 9536SOL     OW40066   1.924   3.350  13.607 -0.1630 -0.3869  0.4717
 9536SOL    HW140067   1.855   3.404  13.647 -0.3072 -0.7779  0.7479
 9536SOL    HW240068   1.997   3.411  13.596  1.5222 -2.1035  2.3581
 9537SOL     OW40069   0.347   4.078  13.105 -0.1085 -0.2635 -0.2404
 9537SOL    HW140070   0.260   4.095  13.069 -0.4637  0.7260  1.0704
 9537SOL    HW240071   0.364   3.988  13.080 -0.3979 -0.8328  1.6040
 9538SOL     OW40072   2.202   2.872   8.318 -0.1323  0.2425 -0.0158
 9538SOL    HW140073   2.162   2.956   8.342  0.8129  0.3549  1.1646
 9538SOL    HW240074   2.258   2.846   8.391  0.2991  0.8626 -0.1286
 9539SOL     OW40075   4.217   1.075  10.956 -0.1286 -0.1754  0.9103
 9539SOL    HW140076   4.178   1.143  11.011  1.9270  0.8043  1.1530
 9539SOL    HW240077   4.214   0.997  11.012 -0.8208  0.8152  2.2623
 9540SOL     OW40078   0.429   4.559   1.126 -0.0918  0.0606  0.3655
 9540SOL    HW140079   0.463   4.469   1.127  1.0463  0.4876  0.4860
 9540SOL    HW240080   0.485   4.591   1.197  2.0634  1.2329 -1.8654
 9541SOL     OW40081   4.345   0.774   5.771 -0.5825 -0.0524 -0.5918
 9541SOL    HW140082   4.266   0.778   5.717 -1.5311 -0.1847  0.7832
 9541SOL    HW240083   4.314   0.740   5.855  3.5801  0.3528  1.1370
 9542SOL     OW40084   3.374   2.270   8.833 -0.1158  0.1830 -0.6025
 9542SOL    HW140085   3.308   2.334   8.860  0.2669  0.5334 -0.4992
 9542SOL    HW240086   3.453   2.324   8.838  0.3505 -0.4374 -1.2861
 9543SOL     OW40087   3.526   2.518   8.603  0.0740  0.3837  0.5886
 9543SOL    HW140088   3.535   2.521   8.698  0.9414 -0.0946  0.5259
 9543SOL    HW240089   3.516   2.611   8.586  1.9022  0.1428 -1.8416
 9544SOL     OW40090   2.801   0.446  12.506 -0.8427 -0.6316  0.2206
 9544SOL    HW140091   2.893   0.453  12.532 -1.7936 -0.8486  3.5956
 9544SOL    HW240092   2.813   0.397  12.424  1.3491  1.0459 -0.4558
 9545SOL     OW40093   4.020   0.834   2.775  0.3082 -0.2656 -0.0454
 9545SOL    HW140094   4.041   0.922   2.806  2.7544 -0.5140 -0.9680
 9545SOL    HW240095   3.943   0.817   2.829 -1.6685  0.3215 -2.7111
 9546SOL     OW40096   4.612   1.000   6.348 -0.0231  0.5964 -0.1688
 9546SOL    HW140097   4.606   1.049   6.430 -4.3456  0.5811 -0.4828
 9546SOL    HW240098   4.703   1.019   6.324  0.0116  0.6071 -0.0289
 9547SOL     OW40099   0.529   4.126   0.928  0.4526 -0.0915  0.8008
 9547SOL    HW140100   0.485   4.152   0.847 -1.0467 -0.0756  1.6231
 9547SOL    HW240101   0.535   4.031   0.912 -1.3232 -0.3189  1.5231
 9548SOL     OW40102   2.229   0.448   3.586  0.3658 -0.0270 -0.2473
 9548SOL    HW140103   2.300   0.474   3.527  1.1813 -0.5643  0.4916
 9548SOL    HW240104   2.151   0.462   3.532  0.3636  0.9046  0.0008
 9549SOL     OW40105   1.736   3.325   0.173  0.5546 -0.3012  0.0286
 9549SOL    HW140106   1.765   3.292   0.258  0.7733  0.0045  0.0704
 9549SOL    HW240107   1.805   3.318   0.108  2.2288  2.6465  1.4876
 9550SOL     OW40108   1.749   0.148  11.344  0.3430 -0.2540 -0.2447
 9550SOL    HW140109   1.776   0.232  11.310 -3.1081  1.9297  2.3638
 9550SOL    HW240110   1.672   0.131  11.291 -1.3167  0.3101  1.9819
 9551SOL     OW40111   3.442   4.671   8.920 -0.6390  0.4525  0.2537
 9551SOL    HW140112   3.493   0.032   8.913  0.3004  0.0340  2.4095
 9551SOL    HW240113   3.390   4.696   8.996 -1.1439 -2.3548  0.8453
 9552SOL     OW40114   1.130   0.692   5.830 -0.2031 -0.1062  0.2737
 9552SOL    HW140115   1.109   0.599   5.832 -1.7067  0.2166 -0.5431
 9552SOL    HW240116   1.041   0.723   5.819 -0.1458 -0.0773 -0.0985
 9553SOL     OW40117   1.680   4.699   2.996 -0.2092 -0.2175 -0.3396
 9553SOL    HW140118   1.615   0.020   2.938 -0.5667 -0.8639 -0.3884
 9553SOL    HW240119   1.760   4.718   2.947  0.2579 -1.8208 -0.1834
 9554SOL     OW40120   0.769   2.876  14.437  0.2419 -0.0375 -0.3652
 9554SOL    HW140121   0.773   2.971  14.447  1.4684  0.1405 -2.7274
 9554SOL    HW240122   0.711   2.859  14.512  0.3539 -0.3446 -0.3487
 9555SOL     OW40123   3.376   0.998  15.416  0.0426 -0.0728  0.3245
 9555SOL    HW140124   3.385   1.088  15.447  1.1115 -0.1923  0.3535
 9555SOL    HW240125   3.329   0.958  15.489  1.6435 -1.5587  0.5354
 9556SOL     OW40126   4.662   4.270   6.327 -0.5973  0.2766  0.2413
 9556SOL    HW140127   4.631   4.356   6.356 -1.4378 -0.1050  0.4992
 9556SOL    HW240128   4.585   4.218   6.351 -0.8471  0.1025 -0.9664
 9557SOL     OW40129   2.332   3.743   6.126 -0.5500 -0.3878 -0.6546
 9557SOL    HW140130   2.264   3.792   6.171  0.3471 -0.4416  0.7598
 9557SOL    HW240131   2.310   3.654   6.155 -2.1380  0.3864  0.5402
 9558SOL     OW40132   4.662   4.681   8.239 -0.2706 -0.5587  0.4067
 9558SOL    HW140133   0.004   4.636   8.180  0.5880 -1.1942  1.7734
 9558SOL    HW240134   4.668   0.055   8.221  0.8796 -0.6783  0.1320
 9559SOL     OW40135   1.146   3.968   7.517  0.6611 -0.2859  0.1449
 9559SOL    HW140136   1.223   3.930   7.474  1.1755  1.1440 -0.1721
 9559SOL    HW240137   1.183   3.970   7.605  1.6913 -1.1322 -0.2635
 9560SOL     OW40138   3.635   4.034  13.387 -0.0398  0.1982  0.1400
 9560SOL    HW140139   3.543   4.035  13.414  0.2408  1.9803  0.9787
 9560SOL    HW240140   3.627   4.032  13.292  1.3415 -0.2254  0.0279
 9561SOL     OW40141   4.194   2.944   3.505  0.6157  0.6333 -0.7422
 9561SOL    HW140142   4.140   3.012   3.465 -0.9737 -0.0124  0.3157
 9561SOL    HW240143   4.234   2.904   3.428  0.4175  1.0169 -1.0442
 9562SOL     OW40144   2.711   2.570  11.260  0.2104 -0.1659 -0.3888
 9562SOL    HW140145   2.623   2.597  11.286  0.7474 -0.0787  1.3633
 9562SOL    HW240146   2.764   2.594  11.336 -0.0471 -0.6309 -0.0625
 9563SOL     OW40147   0.492   2.675  10.400 -0.1447  0.3696  0.0022
 9563SOL    HW140148   0.571   2.625  10.380 -0.1278  0.4729 -0.1868
 9563SOL    HW240149   0.516   2.765  10.381  0.2150  0.4879  0.9759
 9564SOL     OW40150   0.313   0.651   3.581 -0.1403  0.0225 -0.3803
 9564SOL    HW140151   0.340   0.741   3.562  1.5837 -0.0882  1.5246
 9564SOL    HW240152   0.220   0.666   3.596  0.4088  1.8746  1.2534
 9565SOL     OW40153   1.185   3.947   8.749  0.5194 -0.1431  0.2257
 9565SOL    HW140154   1.247   4.002   8.701 -1.4023  1.9203  0.0875
 9565SOL    HW240155   1.182   3.995   8.832 -3.0413  3.7002 -2.0756
   4.71922   4.71922  17.67976
