Membrane in water
40155
    1TCq1    O1    1   3.618   3.165  10.748 -0.4758 -0.2417  0.0571
    1TCq1    C1    2   3.634   3.099  10.631 -0.2669  0.5478 -0.2491
    1TCq1    O2    3   3.710   3.136  10.540  0.2310  0.3179  0.1569
    1TCq1    C2    4   3.508   3.024  10.600  0.2787 -0.4043  0.5739
    1TCq1    C3    5   3.424   3.083  10.519 -0.6127  0.1548  0.0003
    1TCq1    C4    6   3.293   3.037  10.511 -0.7681 -1.8141 -0.0170
    1TCq1    C5    7   3.245   2.933  10.597  0.2882 -0.7867  0.5164
    1TCq1    C6    8   3.342   2.876  10.686 -0.1568 -0.0152 -0.0814
    1TCq1    C7    9   3.471   2.922  10.687 -0.4440 -0.7034 -0.2339
    1TCq1    C8   10   3.306   2.792  10.803  0.6654 -0.3588  0.0800
    1TCq1    O4   11   3.383   2.794  10.898  0.2244  0.3016  0.1672
    1TCq1    C9   12   3.204   3.108  10.419 -0.2642 -0.2868  0.0552
    1TCq1    O5   13   3.254   3.204  10.355  0.0324  0.9762  0.4726
    1TCq1    O6   14   3.086   3.072  10.426 -0.0079 -0.3318  0.3697
    1TCq1    H1   15   3.529   3.144  10.783  0.3535  0.2462  2.4705
    1TCq1    H2   16   3.454   3.174  10.469 -0.7443  0.3161  0.2134
    1TCq1    H3   17   3.146   2.890  10.591  0.3289 -1.1374  2.3363
    1TCq1    H4   18   3.546   2.880  10.752  0.2694 -0.4268 -0.8754
    2MPD2     C   19   3.022   2.507  11.113  1.1587  0.8009 -0.4929
    2MPD2    C1   20   3.118   2.606  11.140 -0.4291  0.4334 -0.5065
    2MPD2    C2   21   3.157   2.684  11.035 -0.5687 -0.2919  0.0821
    2MPD2    C3   22   3.122   2.668  10.902  0.3198  0.3314 -0.2548
    2MPD2    C4   23   3.031   2.569  10.878 -0.0656 -0.3118 -0.2180
    2MPD2    C5   24   2.981   2.494  10.978 -0.6307  0.2866 -0.7545
    2MPD2     H   25   3.226   2.764  11.061  2.9267 -2.3084 -2.8851
    2MPD2    H1   26   2.997   2.546  10.778  1.2412  0.6572 -0.9025
    2MPD2    H2   27   2.966   2.453  11.189  3.0016  0.3192  0.5236
    2MPD2    H3   28   2.894   2.433  10.958 -0.4920  0.3720 -1.6196
    2MPD2     N   29   3.178   2.730  10.794 -0.5655 -0.0731 -0.0559
    2MPD2    H5   30   3.146   2.707  10.701 -2.4759 -2.0426  1.0996
    2MPD2    N1   31   3.170   2.635  11.267 -0.1098  0.5864  0.3727
    2MPD2    H7   32   3.252   2.695  11.270 -1.3905  2.3875 -0.5728
    3TCq1    O1   33   3.122   4.085  11.130 -0.3309 -0.5722  0.3564
    3TCq1    C1   34   2.997   4.131  11.143 -0.3533 -0.7926  0.8245
    3TCq1    O2   35   2.957   4.243  11.120 -0.0408  0.0748 -0.5441
    3TCq1    C2   36   2.942   4.056  11.253 -0.6479  0.1576 -0.9206
    3TCq1    C3   37   2.977   3.922  11.272 -0.5882 -0.0045 -0.1160
    3TCq1    C4   38   2.956   3.866  11.392  0.1500  0.4872  0.3188
    3TCq1    C5   39   2.901   3.935  11.495  0.8552  0.5286  0.0503
    3TCq1    C6   40   2.864   4.063  11.466  0.8177 -0.3325  0.1498
    3TCq1    C7   41   2.884   4.126  11.351  0.2392  0.1845 -0.5360
    3TCq1    C8   42   2.757   4.120  11.545 -0.1809  0.0003 -0.4518
    3TCq1    O4   43   2.771   4.096  11.665  0.0819 -0.3239  0.0915
    3TCq1    C9   44   2.987   3.729  11.415  0.1264 -0.6771 -0.0364
    3TCq1    O5   45   2.939   3.679  11.522  0.4209  0.6277 -0.6524
    3TCq1    O6   46   3.061   3.665  11.329  0.2279  0.0095  0.4774
    3TCq1    H1   47   3.142   3.997  11.168 -0.4914 -1.2701 -1.1625
    3TCq1    H2   48   3.000   3.865  11.183  1.0674  0.8245 -0.2187
    3TCq1    H3   49   2.880   3.892  11.592  1.4771  0.5257  0.1822
    3TCq1    H4   50   2.860   4.231  11.340 -0.6497 -0.3571 -3.7489
    4MPD2     C   51   2.259   4.269  11.587  0.3969  0.8032 -0.2059
    4MPD2    C1   52   2.318   4.332  11.479 -0.2172  0.7810  0.2336
    4MPD2    C2   53   2.450   4.301  11.440  0.2141 -0.5229  0.5836
    4MPD2    C3   54   2.528   4.221  11.524 -0.8817  0.0098 -0.0248
    4MPD2    C4   55   2.469   4.161  11.629  0.4618  0.6101  0.9106
    4MPD2    C5   56   2.332   4.176  11.653  0.5516 -0.2502 -0.0324
    4MPD2     H   57   2.495   4.352  11.355  1.0830 -0.0145  1.3394
    4MPD2    H1   58   2.525   4.091  11.690  1.3809  1.8441  1.4751
    4MPD2    H2   59   2.161   4.291  11.626 -1.3096 -3.0002 -2.4310
    4MPD2    H3   60   2.282   4.139  11.742  2.1407 -3.0189 -0.2710
    4MPD2     N   61   2.656   4.186  11.474  0.2421  0.4053  0.1427
    4MPD2    H5   62   2.678   4.203  11.376 -2.1933 -4.3195 -1.1922
    4MPD2    N1   63   2.254   4.433  11.406  0.2311  0.1078  0.0880
    4MPD2    H7   64   2.295   4.451  11.315 -1.0171  0.9948 -0.3019
    5TCq1    O1   65   3.964   1.024  10.078 -0.9528  0.7509 -0.4474
    5TCq1    C1   66   3.893   1.099   9.994 -0.3640  0.4809 -0.4243
    5TCq1    O2   67   3.938   1.205   9.951 -0.4309  0.0922  0.0404
    5TCq1    C2   68   3.758   1.076  10.032 -0.5889  0.7429 -0.3249
    5TCq1    C3   69   3.663   1.178  10.037 -1.1508  0.9495 -0.4363
    5TCq1    C4   70   3.533   1.146  10.043 -0.3419 -0.0830  0.6585
    5TCq1    C5   71   3.489   1.015  10.043 -0.3956 -0.8220  0.2198
    5TCq1    C6   72   3.579   0.918  10.026 -0.8407 -0.9404  0.1856
    5TCq1    C7   73   3.719   0.947  10.027  0.4786 -0.5137  0.6674
    5TCq1    C8   74   3.553   0.774  10.045 -0.5546  0.1798 -0.6010
    5TCq1    O4   75   3.646   0.701  10.072  0.6444 -0.1125  0.1675
    5TCq1    C9   76   3.435   1.247  10.038 -0.3945 -0.3471 -0.2091
    5TCq1    O5   77   3.468   1.364   9.998  0.2551 -0.2552  0.2598
    5TCq1    O6   78   3.317   1.202  10.051 -0.2632  0.0399 -0.6441
    5TCq1    H1   79   3.907   0.965  10.132 -0.8888  1.6726  0.6312
    5TCq1    H2   80   3.703   1.278  10.036  2.1780 -0.3771  2.0033
    5TCq1    H3   81   3.386   0.991  10.069 -0.6386 -0.0274 -0.0392
    5TCq1    H4   82   3.785   0.861  10.026  0.2771 -0.6541 -1.0850
    6MPD2     C   83   3.249   0.594   9.916 -0.4793 -0.2851 -0.1799
    6MPD2    C1   84   3.369   0.613   9.981  0.2116  0.3881 -0.4857
    6MPD2    C2   85   3.426   0.499  10.036 -0.9537 -0.3395  0.0579
    6MPD2    C3   86   3.371   0.376  10.036  0.2624 -0.2631  0.0997
    6MPD2    C4   87   3.250   0.365   9.979 -1.1194 -0.1920  0.2744
    6MPD2    C5   88   3.196   0.471   9.915 -0.1031 -0.5333 -0.3539
    6MPD2     H   89   3.516   0.512  10.094 -0.8667 -3.8064  0.6751
    6MPD2    H1   90   3.193   0.273   9.973 -1.2585 -0.0797 -0.0951
    6MPD2    H2   91   3.201   0.676   9.865  0.4885  0.0661 -0.5223
    6MPD2    H3   92   3.101   0.458   9.864 -0.9040 -0.4217  1.0871
    6MPD2     N   93   3.437   0.270  10.105  0.2374 -0.0175  0.2840
    6MPD2    H5   94   3.527   0.290  10.149  0.4153  2.8151 -1.3294
    6MPD2    N1   95   3.429   0.742  10.000  0.5315  0.1779  0.2379
    6MPD2    H7   96   3.372   0.817   9.964 -0.9466 -0.3209  1.5410
    7TCq1    O1   97   0.351   0.218  12.800 -0.1335  0.2388  0.8214
    7TCq1    C1   98   0.458   0.234  12.879 -1.9661 -0.4658 -0.5151
    7TCq1    O2   99   0.490   0.336  12.934  0.8221 -0.2307  0.2879
    7TCq1    C2  100   0.494   0.104  12.931  0.1790 -0.0062 -0.2577
    7TCq1    C3  101   0.480   4.709  12.863  0.4123  0.0593 -0.4816
    7TCq1    C4  102   0.500   4.589  12.919  0.1777 -0.0149  0.8021
    7TCq1    C5  103   0.537   4.594  13.051 -0.1360  0.5325  0.2195
    7TCq1    C6  104   0.533   4.714  13.131 -0.1182 -0.7869 -0.0024
    7TCq1    C7  105   0.528   0.110  13.064  0.1496 -0.1084 -0.6893
    7TCq1    C8  106   0.571   4.693  13.274  0.0157 -0.4303  0.4717
    7TCq1    O4  107   0.579   4.580  13.317 -0.2063  0.4513 -0.4599
    7TCq1    C9  108   0.486   4.470  12.845 -0.3843  0.4497  0.7426
    7TCq1    O5  109   0.464   4.484  12.723  0.2856 -0.2271  0.0728
    7TCq1    O6  110   0.492   4.364  12.909  0.1480 -0.1902 -0.1254
    7TCq1    H1  111   0.350   0.123  12.776  0.8183  0.7770 -1.3001
    7TCq1    H2  112   0.469   4.707  12.755  2.5342 -3.0218 -0.6497
    7TCq1    H3  113   0.543   4.497  13.097 -0.0773  0.1821 -0.5207
    7TCq1    H4  114   0.546   0.207  13.108  1.4462 -0.5946 -0.1475
    8MPD2     C  115   0.724   0.172  13.718 -0.1399 -0.3294  0.2802
    8MPD2    C1  116   0.716   0.039  13.679 -0.7603  0.1336 -0.6964
    8MPD2    C2  117   0.661   0.013  13.556  0.0063 -0.4356  0.1807
    8MPD2    C3  118   0.617   0.114  13.470  0.0093  0.0470  0.3762
    8MPD2    C4  119   0.630   0.246  13.504 -0.0093 -0.1096 -0.9221
    8MPD2    C5  120   0.681   0.270  13.626 -0.0119 -0.3001 -0.2409
    8MPD2     H  121   0.661   4.632  13.528  0.9038 -0.1982 -0.7314
    8MPD2    H1  122   0.587   0.321  13.439 -2.6607 -0.1204  0.8088
    8MPD2    H2  123   0.768   0.207  13.811  0.7236  0.5000 -0.4378
    8MPD2    H3  124   0.682   0.375  13.652 -1.5832 -1.0409  2.8002
    8MPD2     N  125   0.575   0.090  13.333 -0.3732  0.1613 -0.6252
    8MPD2    H5  126   0.554   0.169  13.273 -2.5351  0.3027  0.3001
    8MPD2    N1  127   0.766   4.672  13.773  0.0982  0.2203 -0.2951
    8MPD2    H7  128   0.810   4.706  13.857  0.4186 -1.4340  0.2120
    9TCq1    O1  129   3.022   3.613  10.813 -0.3200 -0.7758 -0.2316
    9TCq1    C1  130   3.116   3.653  10.895  0.1361  0.0685 -0.1310
    9TCq1    O2  131   3.137   3.617  11.010  0.2420 -0.3730 -0.0769
    9TCq1    C2  132   3.212   3.738  10.823  0.8139  0.4867  0.6366
    9TCq1    C3  133   3.214   3.745  10.687  0.2550 -0.0612 -0.0097
    9TCq1    C4  134   3.302   3.839  10.640  0.1046  0.5315 -0.2993
    9TCq1    C5  135   3.387   3.918  10.717  0.0702  0.1176  0.0930
    9TCq1    C6  136   3.401   3.880  10.843 -0.4266 -0.2425 -0.6082
    9TCq1    C7  137   3.310   3.791  10.897 -0.2074  0.0640 -0.3580
    9TCq1    C8  138   3.516   3.921  10.913 -0.7158  0.4547  0.4423
    9TCq1    O4  139   3.597   3.987  10.852  0.0084  0.2679  0.1452
    9TCq1    C9  140   3.310   3.850  10.502  0.1345  0.2102  0.2207
    9TCq1    O5  141   3.416   3.894  10.448  0.1265  0.1843 -0.6814
    9TCq1    O6  142   3.216   3.802  10.434  0.2298 -0.2364  0.5346
    9TCq1    H1  143   3.000   3.682  10.747  0.5649  0.9453  1.2761
    9TCq1    H2  144   3.161   3.679  10.619  0.6276  1.4770 -1.7951
    9TCq1    H3  145   3.450   3.997  10.678  0.3224 -1.0587 -1.8746
    9TCq1    H4  146   3.315   3.762  11.001  0.2299 -2.8131 -1.1995
   10MPD2     C  147   3.730   3.981  11.118  0.3670 -0.4479  1.0861
   10MPD2    C1  148   3.611   3.921  11.141 -1.0152  0.8504 -0.4343
   10MPD2    C2  149   3.582   3.879  11.270  0.2398  0.0760  0.1359
   10MPD2    C3  150   3.678   3.895  11.369 -0.1828  0.6291  0.6103
   10MPD2    C4  151   3.794   3.961  11.341 -0.4277  0.0486 -0.2244
   10MPD2    C5  152   3.825   3.998  11.216 -0.2824 -0.2376 -0.1882
   10MPD2     H  153   3.487   3.832  11.291 -1.4626  3.0954 -0.8255
   10MPD2    H1  154   3.879   3.955  11.408  0.9128 -0.1803 -1.9444
   10MPD2    H2  155   3.759   4.010  11.017 -0.1662 -0.0196  1.0564
   10MPD2    H3  156   3.928   4.014  11.187 -0.7590  0.6478 -1.3887
   10MPD2     N  157   3.671   3.834  11.498  0.4174 -0.9263  0.7458
   10MPD2    H5  158   3.738   3.865  11.568  1.8812  0.0315 -1.0867
   10MPD2    N1  159   3.507   3.894  11.044 -0.0849  0.4302 -0.0631
   10MPD2    H7  160   3.424   3.844  11.076 -0.3994  0.5342 -0.7141
   11TCq1    O1  161   4.718   4.032  14.045 -0.0643 -0.5521 -0.3321
   11TCq1    C1  162   4.614   4.038  14.134  0.3092 -0.1006  0.4875
   11TCq1    O2  163   4.543   4.138  14.156  0.5923  0.6978  0.0938
   11TCq1    C2  164   4.550   3.905  14.119 -0.0657 -0.5596  0.3040
   11TCq1    C3  165   4.619   3.787  14.110 -0.8284  0.0265 -0.3623
   11TCq1    C4  166   4.552   3.671  14.108  0.3915  0.3193 -0.0579
   11TCq1    C5  167   4.414   3.677  14.101  0.7217  0.2714 -0.3896
   11TCq1    C6  168   4.348   3.799  14.100 -0.0444  0.1359 -0.1467
   11TCq1    C7  169   4.414   3.913  14.121 -0.3073 -0.3060  0.0078
   11TCq1    C8  170   4.218   3.795  14.141 -0.5650  0.0294 -0.2417
   11TCq1    O4  171   4.185   3.872  14.229 -0.4175  0.1783 -0.4989
   11TCq1    C9  172   4.622   3.546  14.095  0.3353 -0.2048 -0.2533
   11TCq1    O5  173   4.544   3.446  14.093 -0.4120  0.7938 -0.3774
   11TCq1    O6  174   0.019   3.543  14.112 -0.0091  0.3417 -0.2214
   11TCq1    H1  175   4.720   3.942  14.006  1.3706 -0.3546 -0.6970
   11TCq1    H2  176   0.003   3.782  14.116 -0.8627  2.2764  2.1366
   11TCq1    H3  177   4.358   3.585  14.091  1.0845 -0.0700  0.6745
   11TCq1    H4  178   4.352   4.002  14.123 -2.6087 -1.9371  1.8307
   12MPD2     C  179   3.923   3.782  14.151 -0.5027  0.2917 -0.2921
   12MPD2    C1  180   4.003   3.685  14.094  0.1383  1.2211 -1.0839
   12MPD2    C2  181   3.941   3.580  14.028  0.1872 -0.0018 -0.4265
   12MPD2    C3  182   3.800   3.574  14.014 -0.2136  0.4122 -0.1328
   12MPD2    C4  183   3.726   3.674  14.072 -0.3363 -0.7316 -0.3199
   12MPD2    C5  184   3.785   3.777  14.150 -0.5898  0.8195 -0.3145
   12MPD2     H  185   4.003   3.504  13.982  0.4239  0.6855 -1.2325
   12MPD2    H1  186   3.619   3.659  14.071  0.0041 -3.2314  0.2477
   12MPD2    H2  187   3.967   3.870  14.197 -0.9373  0.8339 -0.9101
   12MPD2    H3  188   3.713   3.844  14.196  0.6176  1.4020  0.7224
   12MPD2     N  189   3.728   3.470  13.951 -0.1496 -0.6407 -0.4458
   12MPD2    H5  190   3.632   3.489  13.925 -0.1690 -1.3090 -0.8757
   12MPD2    N1  191   4.146   3.690  14.087 -0.0723 -0.7491  0.3156
   12MPD2    H7  192   4.193   3.625  14.024  0.8186 -0.5847  0.8050
   13TCq1    O1  193   3.784   3.738  10.778 -0.1661  0.1558 -0.4008
   13TCq1    C1  194   3.791   3.647  10.875  0.0716  0.1224  0.1485
   13TCq1    O2  195   3.854   3.660  10.978  0.2925  0.0206 -0.0476
   13TCq1    C2  196   3.657   3.581  10.868  0.0530  0.4110  0.4238
   13TCq1    C3  197   3.599   3.544  10.753  0.2553  0.3980  0.4721
   13TCq1    C4  198   3.475   3.488  10.756 -0.0466 -0.7711  0.3080
   13TCq1    C5  199   3.410   3.453  10.869 -0.3440  0.8282 -0.4787
   13TCq1    C6  200   3.473   3.483  10.984  0.3931 -0.0653 -0.2868
   13TCq1    C7  201   3.593   3.554  10.988 -0.1047 -0.3179 -0.6593
   13TCq1    C8  202   3.424   3.423  11.114  0.6255 -0.0036 -0.1331
   13TCq1    O4  203   3.441   3.474  11.221  0.0491 -0.4082  0.7986
   13TCq1    C9  204   3.409   3.447  10.636  0.1601  0.0594 -0.0752
   13TCq1    O5  205   3.301   3.379  10.636  0.1455  0.1764  0.1563
   13TCq1    O6  206   3.471   3.465  10.525 -0.1331 -0.2111  0.1101
   13TCq1    H1  207   3.719   3.720  10.707 -1.3714  1.7299  0.3079
   13TCq1    H2  208   3.650   3.552  10.657  0.7534 -1.4954  0.5734
   13TCq1    H3  209   3.311   3.411  10.853  0.7703 -1.9291 -0.0947
   13TCq1    H4  210   3.630   3.582  11.086 -1.1900 -0.4568 -0.2079
   14MPD2     C  211   3.211   3.119  11.138  0.1559 -0.4364  0.5374
   14MPD2    C1  212   3.265   3.242  11.171 -0.3782  0.4996 -0.2183
   14MPD2    C2  213   3.218   3.297  11.293  0.5960 -0.4257 -0.2556
   14MPD2    C3  214   3.133   3.235  11.385 -0.4002 -0.4361 -0.2227
   14MPD2    C4  215   3.098   3.101  11.357  0.3105  0.0489 -0.1671
   14MPD2    C5  216   3.135   3.052  11.233  0.1788 -0.1192 -0.4174
   14MPD2     H  217   3.238   3.401  11.319 -0.3843 -0.3234  0.1050
   14MPD2    H1  218   3.034   3.043  11.422  1.4481 -1.6029 -0.5278
   14MPD2    H2  219   3.238   3.069  11.046  0.2304 -1.9670  1.3785
   14MPD2    H3  220   3.108   2.949  11.213  1.1755 -0.5737  0.5950
   14MPD2     N  221   3.096   3.310  11.507 -0.3403  0.0871 -0.2510
   14MPD2    H5  222   3.111   3.410  11.517  0.8614 -0.3980  2.9091
   14MPD2    N1  223   3.346   3.312  11.082  0.6894  0.6531  0.1169
   14MPD2    H7  224   3.343   3.283  10.985  1.7446 -0.4402  0.4077
   15TCq1    O1  225   0.454   3.171   1.876  0.4623  1.0111  0.2085
   15TCq1    C1  226   0.378   3.093   1.791 -0.0704  0.0871 -0.1420
   15TCq1    O2  227   0.380   3.105   1.668 -0.0273  0.6237 -0.1221
   15TCq1    C2  228   0.387   2.964   1.854  0.2103 -0.9966 -0.0114
   15TCq1    C3  229   0.404   2.962   1.986  0.5070 -0.7249 -0.1343
   15TCq1    C4  230   0.472   2.856   2.040 -0.3016 -0.0522 -0.5359
   15TCq1    C5  231   0.521   2.756   1.955 -0.1234  0.2885 -0.2598
   15TCq1    C6  232   0.503   2.764   1.824 -0.3049  0.2063  0.4199
   15TCq1    C7  233   0.433   2.866   1.774 -0.1812  0.0706  0.4606
   15TCq1    C8  234   0.543   2.645   1.747  0.1463 -0.7568 -0.3348
   15TCq1    O4  235   0.592   2.551   1.804  0.1253 -0.2241 -0.1145
   15TCq1    C9  236   0.500   2.850   2.180 -0.4379  0.7706 -0.0259
   15TCq1    O5  237   0.500   2.735   2.229 -0.4903 -0.6238  0.0845
   15TCq1    O6  238   0.503   2.960   2.237  0.5163  1.0468  0.3110
   15TCq1    H1  239   0.460   3.128   1.964  0.0457 -2.2652 -1.3648
   15TCq1    H2  240   0.380   3.043   2.054 -1.8082  1.0181 -3.0386
   15TCq1    H3  241   0.560   2.665   2.000  2.4641  0.9409 -1.1765
   15TCq1    H4  242   0.431   2.880   1.666  0.0472  0.8372  0.5571
   16MPD2     C  243   0.413   2.542   1.410  0.4089 -0.1783 -0.1142
   16MPD2    C1  244   0.504   2.556   1.516  0.0717  0.6802 -0.3391
   16MPD2    C2  245   0.593   2.450   1.529  0.3827 -0.0003  0.6862
   16MPD2    C3  246   0.601   2.341   1.450  0.6949 -0.2043  0.1761
   16MPD2    C4  247   0.520   2.332   1.340  0.8333 -0.1527  0.1958
   16MPD2    C5  248   0.428   2.433   1.324  0.6173 -0.1175  0.4369
   16MPD2     H  249   0.664   2.460   1.610  0.5240  2.2522  0.3133
   16MPD2    H1  250   0.525   2.267   1.253  0.9931  1.5010 -1.0322
   16MPD2    H2  251   0.338   2.616   1.387 -1.4217 -2.3248 -1.0271
   16MPD2    H3  252   0.377   2.444   1.229  0.8710 -0.5176  0.2570
   16MPD2     N  253   0.695   2.238   1.483  0.4362  0.4625 -0.0744
   16MPD2    H5  254   0.749   2.257   1.567 -0.2623 -1.2795  0.7774
   16MPD2    N1  255   0.492   2.653   1.617 -0.0284 -1.0487  0.0793
   16MPD2    H7  256   0.433   2.732   1.590  0.8534  0.1309  1.5830
   17TCq1    O1  257   2.267   1.608  10.469  0.1042 -0.4448  0.0379
   17TCq1    C1  258   2.211   1.734  10.462 -0.5991 -0.9012 -0.4175
   17TCq1    O2  259   2.130   1.760  10.372  0.3720  0.9231  0.3626
   17TCq1    C2  260   2.319   1.826  10.512 -0.4123  0.1206 -0.0441
   17TCq1    C3  261   2.313   1.950  10.456  0.5118 -0.5108 -0.3478
   17TCq1    C4  262   2.382   2.051  10.525  0.5241  0.6459  0.0240
   17TCq1    C5  263   2.454   2.029  10.633  0.2603 -0.4832  0.5610
   17TCq1    C6  264   2.464   1.903  10.685  0.3290  0.0015 -1.0601
   17TCq1    C7  265   2.394   1.798  10.624  0.5133  0.2536  0.6558
   17TCq1    C8  266   2.557   1.868  10.793 -0.5977 -0.4184 -0.6303
   17TCq1    O4  267   2.508   1.784  10.870 -0.1877  0.0147  0.0909
   17TCq1    C9  268   2.382   2.185  10.469  0.3217  0.5171 -0.1757
   17TCq1    O5  269   2.279   2.214  10.406 -0.9973 -0.4913 -0.1953
   17TCq1    O6  270   2.479   2.260  10.499  0.1645  0.4843  0.6512
   17TCq1    H1  271   2.361   1.615  10.495  0.3722 -1.1935 -0.7440
   17TCq1    H2  272   2.248   1.979  10.375 -0.6583  1.8541  1.4480
   17TCq1    H3  273   2.507   2.111  10.679 -2.2651  1.3877  0.1530
   17TCq1    H4  274   2.377   1.700  10.667  0.0692 -0.2421 -0.6451
   18MPD2     C  275   2.756   1.904  11.017  0.8455 -0.4745 -0.2817
   18MPD2    C1  276   2.762   1.969  10.898 -0.0676  0.6655 -0.2905
   18MPD2    C2  277   2.861   2.060  10.879 -0.6212 -0.4096  0.3274
   18MPD2    C3  278   2.959   2.082  10.982  0.0745 -0.1343 -0.2399
   18MPD2    C4  279   2.947   2.011  11.102 -1.0446 -0.0907  0.7507
   18MPD2    C5  280   2.839   1.925  11.119  0.1073 -0.0383  0.7003
   18MPD2     H  281   2.866   2.111  10.784  0.9801 -0.1315  0.5534
   18MPD2    H1  282   3.007   2.029  11.190 -0.3184  0.3509  0.1698
   18MPD2    H2  283   2.683   1.825  11.031  1.3015 -0.8942 -0.2461
   18MPD2    H3  284   2.823   1.884  11.218 -0.2808  1.5479  1.2867
   18MPD2     N  285   3.064   2.175  10.971  0.8225  0.3993  0.1793
   18MPD2    H5  286   3.121   2.186  11.054  1.9836  0.5769 -0.6433
   18MPD2    N1  287   2.666   1.955  10.794 -0.1335 -0.3011  0.4510
   18MPD2    H7  288   2.678   2.012  10.710 -0.4244  1.0238  1.3201
   19TMC2    C1  289   0.357   2.814  13.943  0.5384  0.2202 -0.2506
   19TMC2    C2  290   0.353   2.949  13.918  0.3674 -0.3717  0.5662
   19TMC2    C3  291   0.237   3.016  13.948 -0.1045 -0.1979 -0.3537
   19TMC2    C4  292   0.262   2.747  14.012  0.1393  0.7156 -0.1873
   19TMC2    C5  293   0.155   2.826  14.060 -0.1241 -0.1465 -0.0251
   19TMC2    C6  294   0.141   2.951  14.017  0.0186 -0.1635  0.2250
   19TMC2     C  295   0.481   2.751  13.925  0.4478  0.6696  0.5057
   19TMC2     O  296   0.474   2.628  13.918 -0.1842 -0.4483  0.0829
   19TMC2     H  297   0.426   2.994  13.852 -0.3787 -0.7225 -0.4904
   19TMC2    H1  298   0.282   2.644  14.039  1.3997 -0.2026 -4.6288
   19TMC2    H2  299   0.064   3.014  14.059  0.2933 -0.8720  1.7877
   19TMC2    C7  300   0.039   2.749  14.116  0.5843 -0.1853  0.2497
   19TMC2    C8  301   0.227   3.144  13.867  0.3119  0.0706 -0.4813
   19TMC2    O1  302   0.041   2.628  14.117 -1.1308 -0.2605 -0.3870
   19TMC2    O2  303   0.312   3.191  13.793 -0.1299  0.2260 -0.2717
   19TMC2    O5  304   0.105   3.196  13.891  0.0256  0.2994  0.6568
   19TMC2    H5  305   0.052   3.158  13.963 -1.3497  2.6323  0.8654
   20MPD2     C  306   0.755   2.683  13.867  0.4759 -0.3020  0.2103
   20MPD2    C1  307   0.721   2.797  13.934  0.2208  0.3261 -0.9626
   20MPD2    C2  308   0.816   2.869  13.994 -0.6480 -0.1014 -1.0370
   20MPD2    C3  309   0.946   2.819  14.003 -0.0124 -0.9803  0.1731
   20MPD2    C4  310   0.978   2.702  13.945  0.1029 -0.2753 -0.0338
   20MPD2    C5  311   0.882   2.633  13.876 -0.4490 -0.2257  0.3208
   20MPD2     H  312   0.797   2.964  14.044  1.3782 -1.1266  1.6962
   20MPD2    H1  313   1.073   2.651  13.948  0.8606  1.1764  0.8269
   20MPD2    H2  314   0.688   2.631  13.799  0.9259  2.2696 -2.1756
   20MPD2    H3  315   0.910   2.548  13.815 -2.1838 -0.1803 -0.5529
   20MPD2     N  316   1.036   2.872  14.096  0.8331  0.6963 -0.4434
   20MPD2    H5  317   1.125   2.826  14.108  0.5366  0.0253 -0.8083
   20MPD2    N1  318   0.586   2.837  13.944  0.6959 -0.3205 -0.0062
   20MPD2    H7  319   0.579   2.936  13.965  0.3110 -0.6709  1.4749
   21MPD2     C  320   3.238   4.220  14.591  0.3801  0.4816  0.3810
   21MPD2    C1  321   3.178   4.090  14.590 -0.0385  0.9209 -0.1270
   21MPD2    C2  322   3.050   4.064  14.639 -0.7260 -0.1736  0.5560
   21MPD2    C3  323   2.976   4.174  14.690  0.2698 -0.3987  0.9174
   21MPD2    C4  324   3.042   4.294  14.697  0.2937 -0.3368 -0.6241
   21MPD2    C5  325   3.170   4.315  14.657  0.3690 -0.0548 -0.3962
   21MPD2     H  326   3.020   3.960  14.629 -1.8201  0.1129  0.8473
   21MPD2    H1  327   2.993   4.383  14.735  0.3461 -0.3992 -0.4134
   21MPD2    H2  328   3.338   4.248  14.562 -0.1095  0.2971 -1.5057
   21MPD2    H3  329   3.212   4.415  14.655 -3.1185  1.4274  0.9845
   21MPD2     N  330   2.843   4.168  14.747  0.6062  0.2141 -0.3083
   21MPD2    H5  331   2.812   4.251  14.797 -1.1945 -1.2055  0.9538
   21MPD2    N1  332   3.256   3.980  14.551  0.5334 -0.1463  0.3487
   21MPD2    H7  333   3.246   3.888  14.593 -0.8330 -0.8897 -1.6314
   22TCq2    C1  334   2.770   4.050  14.732  0.3243 -0.4986  0.5348
   22TCq2    O2  335   2.794   3.952  14.664  0.1772  0.0678  0.1025
   22TCq2    C2  336   2.646   4.033  14.809 -0.4310 -0.1757  0.1992
   22TCq2    C3  337   2.614   3.904  14.847  0.4775  0.0759  0.3050
   22TCq2    C4  338   2.528   3.889  14.956 -0.0888 -0.0988  0.4797
   22TCq2    C5  339   2.472   3.995  15.024 -0.2097  0.0630  0.0266
   22TCq2    C6  340   2.491   4.117  14.967 -0.0470  1.0646 -0.5283
   22TCq2    C7  341   2.580   4.141  14.862  0.2970  0.3065  0.1589
   22TCq2    C8  342   2.425   4.228  15.030 -0.2325  0.0189  0.3871
   22TCq2    O4  343   2.402   4.212  15.149 -0.5093  0.0018  0.1724
   22TCq2    C9  344   2.493   3.754  14.992  0.1066 -0.4622  0.0082
   22TCq2    O5  345   2.490   3.657  14.906  0.3713 -0.4476  0.2240
   22TCq2    O6  346   2.473   3.737  15.115  0.2292  0.0386  0.8710
   22TCq2    H2  347   2.663   3.816  14.808  1.4551 -0.3436  2.4762
   22TCq2    H3  348   2.405   3.987  15.108  2.2265 -0.3227  1.9480
   22TCq2    H4  349   2.608   4.239  14.825  1.0194  0.2070  0.4551
   23MPD2     C  350   4.167   0.287  14.562 -0.7285  0.2719  0.0092
   23MPD2    C1  351   4.085   0.195  14.622 -0.3756  0.3019 -0.0673
   23MPD2    C2  352   3.965   0.162  14.563 -0.2285  0.4281  1.2569
   23MPD2    C3  353   3.924   0.224  14.448 -0.6163  0.4734 -0.0353
   23MPD2    C4  354   4.002   0.324  14.392  0.3095  0.2332  0.2270
   23MPD2    C5  355   4.125   0.357  14.455  0.3584 -0.0150 -0.3628
   23MPD2     H  356   3.900   0.092  14.614 -0.6085  0.7061  1.1563
   23MPD2    H1  357   3.982   0.364  14.293  0.0999  0.3813  0.3309
   23MPD2    H2  358   4.255   0.326  14.612 -1.9198  3.1807 -0.2160
   23MPD2    H3  359   4.183   0.443  14.424  0.3221 -0.0705 -0.5835
   23MPD2     N  360   3.803   0.206  14.383 -0.0740 -0.4311  0.0258
   23MPD2    H5  361   3.778   0.280  14.318  0.4774 -2.5004 -2.5141
   23MPD2    N1  362   4.121   0.132  14.748  0.4475  0.0396 -0.1553
   23MPD2    H7  363   4.057   0.060  14.778  0.1262  0.0748 -0.7640
   24TCq2    C1  364   3.704   0.114  14.412 -0.5134  0.2295 -0.4383
   24TCq2    O2  365   3.721   4.721  14.449  0.6803  0.1401  0.2156
   24TCq2    C2  366   3.575   0.164  14.363 -0.2834 -0.0128 -0.2154
   24TCq2    C3  367   3.537   0.286  14.394  0.2127  0.6686  0.0641
   24TCq2    C4  368   3.410   0.321  14.374 -0.7007 -0.3285 -0.2713
   24TCq2    C5  369   3.331   0.246  14.295  0.1937  0.1424  0.2189
   24TCq2    C6  370   3.367   0.117  14.262  0.9612  0.3452  0.3408
   24TCq2    C7  371   3.489   0.067  14.307 -0.2487 -0.1312  0.0417
   24TCq2    C8  372   3.313   0.047  14.154 -0.3227  0.0705  0.1986
   24TCq2    O4  373   3.383   4.695  14.094 -0.0254  0.3959 -0.3525
   24TCq2    C9  374   3.381   0.456  14.408  0.0011 -0.5877  0.4818
   24TCq2    O5  375   3.262   0.494  14.383  0.1392 -0.0784 -0.2285
   24TCq2    O6  376   3.463   0.520  14.483 -0.2286  0.3159  0.0242
   24TCq2    H2  377   3.605   0.354  14.443  0.7621  1.2295 -1.4868
   24TCq2    H3  378   3.235   0.291  14.274  1.0966  0.6755 -2.7500
   24TCq2    H4  379   3.529   4.694  14.279 -0.3666 -0.4261  0.8890
   25TMC2    C1  380   2.667   2.557  11.425  0.0109 -0.1926  0.5275
   25TMC2    C2  381   2.773   2.642  11.426  0.1434 -0.3647  1.3027
   25TMC2    C3  382   2.788   2.701  11.548 -0.7006  1.1280  0.1263
   25TMC2    C4  383   2.579   2.540  11.534 -0.3977 -0.2742 -0.3423
   25TMC2    C5  384   2.604   2.606  11.646  0.1272 -0.0460  0.2602
   25TMC2    C6  385   2.714   2.679  11.659 -0.4812 -0.2529  0.3845
   25TMC2     C  386   2.649   2.472  11.311  0.3770 -0.3369  0.0268
   25TMC2     O  387   2.690   2.514  11.201 -0.1304  0.2225  0.3275
   25TMC2     H  388   2.832   2.656  11.337  1.6885 -2.8244  1.9543
   25TMC2    H1  389   2.483   2.494  11.516  1.4716 -3.1570 -3.0535
   25TMC2    H2  390   2.736   2.737  11.748 -0.4782  0.1585  0.1199
   25TMC2    C7  391   2.514   2.589  11.757 -0.0468 -0.3282 -0.8506
   25TMC2    C8  392   2.914   2.765  11.580 -0.3638  0.1716 -0.4294
   25TMC2    O1  393   2.558   2.621  11.866 -0.0198 -0.0323 -0.0947
   25TMC2    O2  394   2.977   2.747  11.684 -0.2268  0.5887  0.0827
   25TMC2    O5  395   2.954   2.827  11.467  0.2708 -0.0673  0.2640
   25TMC2    H5  396   2.882   2.839  11.402  1.9910  1.4978 -1.3262
   26MPD2     C  397   2.431   2.041  11.107  0.7674  0.3918 -0.3430
   26MPD2    C1  398   2.405   2.045  11.247  0.0416 -0.2884  0.1787
   26MPD2    C2  399   2.464   2.154  11.315 -0.0582  0.9203  0.8664
   26MPD2    C3  400   2.536   2.255  11.255  0.3830 -0.1799  0.5834
   26MPD2    C4  401   2.556   2.246  11.110  0.2962  0.1386  0.1775
   26MPD2    C5  402   2.504   2.136  11.042 -0.5955  0.4936  0.6023
   26MPD2     H  403   2.443   2.161  11.421  0.9241 -0.4996  1.1552
   26MPD2    H1  404   2.617   2.323  11.063 -0.5081 -0.0269 -1.1443
   26MPD2    H2  405   2.394   1.958  11.049  1.8538 -0.9829  0.9399
   26MPD2    H3  406   2.508   2.133  10.934  0.0646 -1.4991  0.6835
   26MPD2     N  407   2.587   2.350  11.342 -0.2490  0.2428  1.0566
   26MPD2    H5  408   2.568   2.328  11.439 -2.0109  0.1092  0.6945
   26MPD2    N1  409   2.341   1.937  11.314 -0.2046  0.1071 -0.6051
   26MPD2    H7  410   2.301   1.864  11.255 -0.6531 -0.5401  0.4835
   27TMC2    C1  411   1.757   3.951  12.310  0.3344  0.6644 -0.1735
   27TMC2    C2  412   1.827   3.877  12.222 -0.7784  0.0978  0.3374
   27TMC2    C3  413   1.829   3.916  12.095 -0.0411  0.1027  0.4159
   27TMC2    C4  414   1.690   4.069  12.275 -0.3543 -0.6191  0.4521
   27TMC2    C5  415   1.703   4.106  12.144  0.3701  0.0447  0.0506
   27TMC2    C6  416   1.766   4.029  12.055  0.5396  0.1442  0.1396
   27TMC2     C  417   1.742   3.902  12.444  0.2321 -0.9103 -0.0453
   27TMC2     O  418   1.792   3.789  12.464  0.3549  0.2584  0.2552
   27TMC2     H  419   1.882   3.790  12.256  0.8194  1.2039  0.5868
   27TMC2    H1  420   1.643   4.132  12.350  1.5110  0.6447  0.5723
   27TMC2    H2  421   1.798   4.073  11.961 -0.2235 -1.0374 -0.6703
   27TMC2    C7  422   1.682   4.247  12.113 -0.4876  0.4200  0.2267
   27TMC2    C8  423   1.908   3.828  12.011  0.7356  0.1528 -0.3855
   27TMC2    O1  424   1.696   4.320  12.208  0.6134 -0.0713  0.3662
   27TMC2    O2  425   2.014   3.792  12.048 -0.9168  0.4243 -0.2026
   27TMC2    O5  426   1.886   3.872  11.883  0.5491 -0.3189  0.0076
   27TMC2    H5  427   1.792   3.888  11.861  1.0927 -0.7742 -2.6667
   28MPD2     C  428   1.570   3.874  12.927  0.6169 -0.4033 -0.3559
   28MPD2    C1  429   1.517   3.988  12.871 -0.5052 -0.1554  0.4704
   28MPD2    C2  430   1.564   4.023  12.746  0.7843  0.0381  0.0065
   28MPD2    C3  431   1.638   3.937  12.663  0.1816 -0.2214 -1.1812
   28MPD2    C4  432   1.671   3.814  12.719  0.6221 -0.2002 -0.2872
   28MPD2    C5  433   1.645   3.795  12.853 -0.0832  0.1124 -0.3144
   28MPD2     H  434   1.539   4.116  12.695  2.0628  0.0516 -0.6149
   28MPD2    H1  435   1.720   3.731  12.669  0.2885  1.6330 -3.6062
   28MPD2    H2  436   1.545   3.838  13.026  0.9171 -1.2198 -0.5733
   28MPD2    H3  437   1.678   3.708  12.909 -0.1453  0.7679  0.7231
   28MPD2     N  438   1.657   3.972  12.529  0.1077  0.2406 -0.0437
   28MPD2    H5  439   1.615   4.059  12.496 -1.1827  0.2233  1.5562
   28MPD2    N1  440   1.417   4.066  12.941 -0.0513  0.2317  0.0318
   28MPD2    H7  441   1.393   4.037  13.036  3.3280 -0.6685  0.6403
   29MPD2     C  442   1.314   1.823  14.114  0.1533  0.4650  0.2481
   29MPD2    C1  443   1.433   1.879  14.168  0.1366 -0.5609 -0.3346
   29MPD2    C2  444   1.428   1.995  14.243 -0.2320 -0.6573  0.0738
   29MPD2    C3  445   1.307   2.043  14.278  0.0984 -0.0951  0.1709
   29MPD2    C4  446   1.186   1.983  14.243  0.3046 -0.4032  0.4931
   29MPD2    C5  447   1.194   1.875  14.161 -0.3571 -0.0591  0.5094
   29MPD2     H  448   1.526   2.026  14.277  0.6130 -4.1573  0.8106
   29MPD2    H1  449   1.091   2.031  14.260  1.3670  1.2132  1.9345
   29MPD2    H2  450   1.301   1.737  14.049  1.3110 -0.7174  1.5966
   29MPD2    H3  451   1.101   1.828  14.132 -0.7038 -1.4704  3.8385
   29MPD2     N  452   1.300   2.160  14.359  0.2164 -0.3401  0.4566
   29MPD2    H5  453   1.208   2.190  14.391 -0.6212 -1.1227 -1.1785
   29MPD2    N1  454   1.564   1.821  14.154  0.2730 -0.0450 -0.4605
   29MPD2    H7  455   1.642   1.881  14.180  0.6584 -0.5074 -0.5381
   30TCq2    C1  456   1.406   2.247  14.385 -0.1080 -0.4359  0.3035
   30TCq2    O2  457   1.525   2.259  14.344  0.2325  0.9889 -0.2244
   30TCq2    C2  458   1.370   2.358  14.477 -0.3397 -0.5342  0.0622
   30TCq2    C3  459   1.345   2.331  14.609  0.2595 -0.7688  0.5947
   30TCq2    C4  460   1.369   2.429  14.700  0.8567 -0.0986 -0.0621
   30TCq2    C5  461   1.420   2.551  14.661 -0.1207 -0.1316 -0.4475
   30TCq2    C6  462   1.430   2.574  14.532 -1.0507  0.1163 -0.3670
   30TCq2    C7  463   1.418   2.477  14.442 -0.2961 -0.0443  0.4707
   30TCq2    C8  464   1.460   2.707  14.483  0.0440  0.7167 -0.9807
   30TCq2    O4  465   1.435   2.732  14.366  0.5874  0.3226  1.0469
   30TCq2    C9  466   1.350   2.403  14.836  0.8199 -0.0344  0.6406
   30TCq2    O5  467   1.328   2.283  14.869 -0.4837  0.0042  0.8485
   30TCq2    O6  468   1.405   2.487  14.910  0.2667  0.0641 -0.6200
   30TCq2    H2  469   1.310   2.232  14.637 -0.0665 -0.8014  0.0765
   30TCq2    H3  470   1.424   2.626  14.740 -2.9663  0.7696 -1.1685
   30TCq2    H4  471   1.456   2.488  14.341 -2.2000  0.6537 -0.1684
   31MPD2     C  472   3.692   0.667  14.954  0.2568  0.0599 -0.0897
   31MPD2    C1  473   3.616   0.773  14.989  1.1139 -0.3365 -0.2341
   31MPD2    C2  474   3.599   0.799  15.129 -0.0279  0.5987 -0.2830
   31MPD2    C3  475   3.649   0.710  15.227 -0.4517 -0.2655 -0.3800
   31MPD2    C4  476   3.720   0.599  15.183 -0.5276 -0.0056  0.4761
   31MPD2    C5  477   3.739   0.576  15.045  0.5629 -0.0579 -0.3782
   31MPD2     H  478   3.548   0.888  15.164  1.8858  1.1343  1.1062
   31MPD2    H1  479   3.766   0.527  15.249  0.8644  0.4952  0.0453
   31MPD2    H2  480   3.715   0.631  14.854  1.2853 -1.9008  0.8615
   31MPD2    H3  481   3.800   0.496  15.007  0.5791 -0.3680  0.3060
   31MPD2     N  482   3.644   0.737  15.364  0.3132  0.6317  0.1902
   31MPD2    H5  483   3.706   0.674  15.414 -1.0482 -0.2873  0.7019
   31MPD2    N1  484   3.582   0.864  14.886  0.4177  0.2889  0.5373
   31MPD2    H7  485   3.594   0.832  14.790 -0.8059  0.3052  0.3804
   32TCq2    C1  486   3.556   0.830  15.414  0.1970  0.2309  0.1132
   32TCq2    O2  487   3.453   0.877  15.366 -0.3003  0.4166 -0.3322
   32TCq2    C2  488   3.570   0.839  15.562 -0.6157  0.4424  0.0007
   32TCq2    C3  489   3.469   0.901  15.636  0.0712 -0.1385  0.5286
   32TCq2    C4  490   3.468   0.884  15.776 -0.1739  0.3422  0.6256
   32TCq2    C5  491   3.572   0.819  15.838  0.3900 -0.6132  0.0127
   32TCq2    C6  492   3.683   0.782  15.760 -0.1684 -0.2283  0.7284
   32TCq2    C7  493   3.681   0.790  15.621 -0.3494 -0.3311  0.9420
   32TCq2    C8  494   3.792   0.699  15.821  0.9318  1.1494 -0.4076
   32TCq2    O4  495   3.867   0.644  15.744 -0.0304 -0.6017  0.4724
   32TCq2    C9  496   3.357   0.934  15.855  0.0755  0.7087 -0.6646
   32TCq2    O5  497   3.246   0.950  15.801  0.0356 -0.0779 -0.7869
   32TCq2    O6  498   3.382   0.942  15.984  0.3494 -0.1461  0.8510
   32TCq2    H2  499   3.378   0.938  15.590 -0.6989 -1.9858  0.5753
   32TCq2    H3  500   3.550   0.793  15.941 -0.4636  1.1029  0.2786
   32TCq2    H4  501   3.778   0.790  15.574  0.3090  0.1961  2.2891
   33MPD2     C  502   3.700   2.690  10.536  0.5402 -0.6776 -0.0966
   33MPD2    C1  503   3.566   2.659  10.539 -0.5664 -0.3153 -0.2506
   33MPD2    C2  504   3.487   2.712  10.438 -0.2137 -0.9949 -0.3313
   33MPD2    C3  505   3.534   2.803  10.347  0.4809  0.3036 -0.4262
   33MPD2    C4  506   3.668   2.844  10.354  0.1403  0.7216  0.3920
   33MPD2    C5  507   3.750   2.782  10.442 -0.3874 -0.0463  0.1023
   33MPD2     H  508   3.382   2.685  10.428 -0.8147  1.5864 -0.9568
   33MPD2    H1  509   3.704   2.925  10.291  0.6463 -0.7575 -1.1956
   33MPD2    H2  510   3.768   2.655  10.613  1.2588  2.1130  0.5574
   33MPD2    H3  511   3.851   2.821  10.455 -0.0521 -1.1996  0.9386
   33MPD2     N  512   3.454   2.865  10.247 -0.5040  0.2643  0.5063
   33MPD2    H5  513   3.506   2.935  10.194  1.2188 -0.8886  0.6485
   33MPD2    N1  514   3.522   2.582  10.651  0.6342  0.3170 -0.2428
   33MPD2    H7  515   3.585   2.563  10.729  1.4215  1.8377 -0.5071
   34TCq2    C1  516   3.325   2.818  10.210 -0.2405  0.1838  0.5257
   34TCq2    O2  517   3.262   2.719  10.249 -0.3345  0.1492  0.0797
   34TCq2    C2  518   3.262   2.905  10.113 -0.9100  0.2080 -0.4128
   34TCq2    C3  519   3.162   2.846  10.041  1.1643 -0.3039  0.0631
   34TCq2    C4  520   3.125   2.901   9.917 -0.9784  0.6344 -0.2825
   34TCq2    C5  521   3.181   3.016   9.866  0.2892 -0.2079 -0.6106
   34TCq2    C6  522   3.274   3.076   9.942 -1.0422 -0.0786 -0.7550
   34TCq2    C7  523   3.318   3.022  10.063 -0.4745 -0.4406 -0.2225
   34TCq2    C8  524   3.343   3.196   9.898  0.4207  0.6437 -0.4212
   34TCq2    O4  525   3.409   3.265   9.973  0.1412 -0.1139 -0.2269
   34TCq2    C9  526   3.016   2.836   9.846 -0.1325 -0.1685 -0.3830
   34TCq2    O5  527   3.023   2.838   9.723  0.3233  0.5668  0.0869
   34TCq2    O6  528   2.935   2.786   9.917 -0.2142  0.1597 -0.2568
   34TCq2    H2  529   3.126   2.747  10.067  1.3116 -0.2912  0.3164
   34TCq2    H3  530   3.137   3.053   9.774  1.0104  2.1332 -0.0038
   34TCq2    H4  531   3.384   3.081  10.126 -1.0108  0.1255 -0.1890
   35MPD2     C  532   0.753   3.819  12.288 -0.0314  0.0444 -0.0531
   35MPD2    C1  533   0.789   3.943  12.252  0.0373 -0.5156  0.3733
   35MPD2    C2  534   0.700   4.018  12.177  0.2847 -0.4249  0.5713
   35MPD2    C3  535   0.583   3.965  12.131  0.3637 -0.0014 -0.2676
   35MPD2    C4  536   0.549   3.832  12.159  0.3204  0.0104  0.1388
   35MPD2    C5  537   0.634   3.761  12.239  0.2256  0.1469 -0.4256
   35MPD2     H  538   0.725   4.123  12.167  1.4745 -0.8004 -0.3910
   35MPD2    H1  539   0.459   3.783  12.124 -0.5920  1.0236  1.0582
   35MPD2    H2  540   0.812   3.769  12.364 -0.3409 -2.5801 -1.5312
   35MPD2    H3  541   0.618   3.657  12.267  0.3812  0.2288 -0.0376
   35MPD2     N  542   0.503   4.050  12.053  0.2136  0.1263  0.1225
   35MPD2    H5  543   0.547   4.137  12.027 -1.1369  0.1717 -1.9444
   35MPD2    N1  544   0.912   3.997  12.305  0.2195  0.3731 -0.7168
   35MPD2    H7  545   0.961   3.940  12.373  2.4584  0.7161 -2.0507
   36TCq2    C1  546   0.365   4.036  12.046 -1.0306 -0.0022  0.3886
   36TCq2    O2  547   0.298   3.943  12.085  0.6344  0.0008  0.1144
   36TCq2    C2  548   0.299   4.133  11.958  0.2546  0.8661  0.0586
   36TCq2    C3  549   0.370   4.234  11.903  0.4686  0.4038  0.0595
   36TCq2    C4  550   0.293   4.334  11.843  0.4244  0.3425 -0.5106
   36TCq2    C5  551   0.155   4.333  11.841 -0.0400 -0.1168 -0.9027
   36TCq2    C6  552   0.098   4.226  11.898 -0.6443 -0.1647  0.2186
   36TCq2    C7  553   0.162   4.129  11.958 -0.0772  0.4512  0.4604
   36TCq2    C8  554   4.680   4.222  11.917  0.4133 -0.4290  0.4517
   36TCq2    O4  555   4.637   4.331  11.935 -0.0149 -0.0127 -0.0717
   36TCq2    C9  556   0.350   4.454  11.791 -0.3757  0.0551  0.0952
   36TCq2    O5  557   0.450   4.505  11.848 -0.7579  0.3318 -0.9552
   36TCq2    O6  558   0.289   4.502  11.695 -0.1058  0.0749 -0.0904
   36TCq2    H2  559   0.478   4.242  11.905  0.2888  3.2179 -0.9321
   36TCq2    H3  560   0.107   4.420  11.797 -2.3219 -1.2197 -0.6193
   36TCq2    H4  561   0.107   4.041  11.991 -0.7483  0.6359 -0.1549
   37TMC2    C1  562   2.659   4.619  11.419  0.8287 -0.1915  0.7878
   37TMC2    C2  563   2.623   4.668  11.299  0.4858  0.0032  0.4157
   37TMC2    C3  564   2.694   4.644  11.188  0.0652  0.6793 -0.0912
   37TMC2    C4  565   2.766   4.537  11.430 -0.5831  0.3350 -0.0383
   37TMC2    C5  566   2.844   4.514  11.320 -0.2734  0.4616  0.0583
   37TMC2    C6  567   2.806   4.569  11.199  0.2609  0.1415 -0.5085
   37TMC2     C  568   2.556   4.623  11.517  0.1820  0.3206 -0.1445
   37TMC2     O  569   2.445   4.659  11.480 -0.0476  0.0610  0.0496
   37TMC2     H  570   2.550   0.024  11.292 -0.0460 -0.4172  1.2087
   37TMC2    H1  571   2.770   4.481  11.522  0.1245 -2.0332 -1.5230
   37TMC2    H2  572   2.870   4.577  11.112  3.0798 -1.1992  1.4390
   37TMC2    C7  573   2.983   4.506  11.351  0.4538 -0.3451 -0.1277
   37TMC2    C8  574   2.705   0.043  11.105  0.3105 -0.2169 -0.0967
   37TMC2    O1  575   3.003   4.502  11.471 -0.1594 -1.1366 -0.1984
   37TMC2    O2  576   2.808   0.105  11.097 -0.0461 -1.3794 -0.0245
   37TMC2    O5  577   2.591   0.081  11.051  0.0068  0.2244 -0.1334
   37TMC2    H5  578   2.520   0.013  11.062 -0.0856  0.1209 -1.3444
   38MPD2     C  579   2.333   4.503  11.962  0.3470  0.0794  0.2521
   38MPD2    C1  580   2.469   4.498  11.977 -0.8113 -0.7481  0.1785
   38MPD2    C2  581   2.551   4.531  11.871 -0.7765  0.8815 -0.3478
   38MPD2    C3  582   2.498   4.566  11.752 -0.5085  0.0377 -0.7366
   38MPD2    C4  583   2.364   4.546  11.735 -0.2531 -0.5465  0.0757
   38MPD2    C5  584   2.284   4.527  11.841  0.4216  0.0780 -0.3490
   38MPD2     H  585   2.657   4.544  11.890 -1.3361  0.4375  3.1409
   38MPD2    H1  586   2.315   4.556  11.639  0.8116 -1.0198 -0.5141
   38MPD2    H2  587   2.263   4.477  12.041  0.1579 -0.6529 -0.1632
   38MPD2    H3  588   2.176   4.532  11.840  0.5009  1.9536  0.8373
   38MPD2     N  589   2.594   4.588  11.647 -0.0430 -0.5233  0.0016
   38MPD2    H5  590   2.689   4.559  11.669 -0.1282 -0.4589  0.4416
   38MPD2    N1  591   2.525   4.453  12.096 -0.4192  0.2442  0.1255
   38MPD2    H7  592   2.625   4.458  12.105 -0.3594 -0.0420 -0.3408
   39MPD2     C  593   0.984   1.687   1.792  0.1863  0.0923 -0.5230
   39MPD2    C1  594   0.960   1.804   1.860  0.5728 -0.0387  0.1809
   39MPD2    C2  595   0.839   1.873   1.830  0.2952  0.1218 -0.0967
   39MPD2    C3  596   0.748   1.821   1.737  0.0458  0.0097  0.0198
   39MPD2    C4  597   0.777   1.701   1.674 -0.8568  0.0038 -0.1247
   39MPD2    C5  598   0.901   1.643   1.693 -0.5440  0.4130  0.0004
   39MPD2     H  599   0.828   1.969   1.880 -1.0454 -0.2036  0.2156
   39MPD2    H1  600   0.709   1.675   1.594 -1.0954 -1.8081  0.6623
   39MPD2    H2  601   1.076   1.638   1.824 -0.3503  1.7311  3.5925
   39MPD2    H3  602   0.935   1.548   1.653 -2.6965 -0.7504  0.9259
   39MPD2     N  603   0.632   1.893   1.699 -0.2226  0.0685 -0.4251
   39MPD2    H5  604   0.565   1.844   1.641  0.7228  2.7053 -3.7677
   39MPD2    N1  605   1.063   1.843   1.949 -0.2830  0.1751 -0.6437
   39MPD2    H7  606   1.144   1.782   1.956 -0.5487 -0.3367 -1.9951
   40TCq2    C1  607   1.046   1.929   2.051 -0.4059  1.3522  0.0194
   40TCq2    O2  608   0.958   2.009   2.077  0.3458  0.3046  0.0134
   40TCq2    C2  609   1.172   1.930   2.141 -0.4604  0.5786 -0.2332
   40TCq2    C3  610   1.140   1.981   2.257  0.5022  0.1835 -0.6173
   40TCq2    C4  611   1.238   2.015   2.339  0.1584 -0.1282  0.7184
   40TCq2    C5  612   1.367   2.001   2.303  0.2414  0.4184  0.4553
   40TCq2    C6  613   1.396   1.948   2.184 -0.0424 -0.2814 -0.0661
   40TCq2    C7  614   1.299   1.906   2.092  0.7901  0.0943  0.6913
   40TCq2    C8  615   1.524   1.956   2.125  0.0775 -0.7326  0.1834
   40TCq2    O4  616   1.557   1.861   2.055 -0.3749 -0.0628  0.2234
   40TCq2    C9  617   1.207   2.068   2.473 -0.2531  0.5837 -0.0837
   40TCq2    O5  618   1.310   2.097   2.539  0.4295  0.3724 -0.3445
   40TCq2    O6  619   1.088   2.083   2.506  0.5532 -0.0061  0.7872
   40TCq2    H2  620   1.038   1.993   2.293  0.2401  0.0588 -1.3198
   40TCq2    H3  621   1.440   2.054   2.364  1.5844 -2.2197  1.1525
   40TCq2    H4  622   1.319   1.892   1.986  1.2755 -2.1903  1.0798
   41TMC2    C1  623   4.574   0.183  13.634  0.4123 -0.4923 -0.4247
   41TMC2    C2  624   4.612   0.317  13.630 -0.6098 -0.6115 -0.2989
   41TMC2    C3  625   4.633   0.369  13.506  0.3097  0.6765 -0.9916
   41TMC2    C4  626   4.563   0.109  13.521 -0.1224 -0.0073  0.0724
   41TMC2    C5  627   4.603   0.167  13.402 -0.9822  0.4829 -0.2398
   41TMC2    C6  628   4.632   0.303  13.392 -0.4127 -0.3056  0.5955
   41TMC2     C  629   4.527   0.124  13.758 -0.1892  0.2202 -0.0061
   41TMC2     O  630   4.459   0.024  13.754  0.1486 -0.6651 -0.1812
   41TMC2     H  631   4.603   0.379  13.718  1.5092  0.3599 -0.7705
   41TMC2    H1  632   4.517   0.011  13.525  2.1125 -1.0146  1.1277
   41TMC2    H2  633   4.682   0.342  13.304 -0.2725 -2.7341 -0.3840
   41TMC2    C7  634   4.554   0.099  13.281  0.3236 -0.5229 -0.0234
   41TMC2    C8  635   4.714   0.490  13.514  0.5052 -0.5740  0.3508
   41TMC2    O1  636   4.469   0.011  13.289 -0.0655 -0.5344  1.0165
   41TMC2    O2  637   0.024   0.546  13.414 -0.1254 -0.6602 -0.0899
   41TMC2    O5  638   0.074   0.445  13.600 -0.4793 -0.0939 -0.5850
   41TMC2    H5  639   0.037   0.405  13.682 -0.3449 -0.5005 -0.7216
   42MPD2     C  640   4.433   0.089  14.049  0.3297  0.3439  0.3901
   42MPD2    C1  641   4.505   0.195  13.996 -0.2226  0.1075 -0.0838
   42MPD2    C2  642   4.553   0.293  14.087 -0.7845  0.0171 -0.3601
   42MPD2    C3  643   4.496   0.310  14.210 -0.2763  0.4536 -0.4855
   42MPD2    C4  644   4.396   0.220  14.245  0.7540 -0.3740  0.6235
   42MPD2    C5  645   4.375   0.104  14.171 -0.0806  0.4171  0.3323
   42MPD2     H  646   4.625   0.368  14.055 -3.1444  2.0771 -0.8680
   42MPD2    H1  647   4.349   0.233  14.342 -0.0818 -0.3021  0.2093
   42MPD2    H2  648   4.412   0.005  13.984 -0.2176  0.8374 -0.0747
   42MPD2    H3  649   4.312   0.023  14.207  1.0758  0.2287  1.9428
   42MPD2     N  650   4.524   0.420  14.296 -0.0159 -0.3794 -0.0939
   42MPD2    H5  651   4.481   0.428  14.388  2.4053  0.9782  0.9196
   42MPD2    N1  652   4.560   0.203  13.864  0.4657  0.0025 -0.4533
   42MPD2    H7  653   4.626   0.280  13.856 -0.3676  0.9877  2.2827
   43MPD2     C  654   1.431   3.386   0.864 -0.7926 -0.4802  0.7261
   43MPD2    C1  655   1.548   3.379   0.936 -0.4879 -0.0016 -0.4526
   43MPD2    C2  656   1.579   3.477   1.029 -1.3360 -0.2184 -0.2794
   43MPD2    C3  657   1.499   3.580   1.053  0.5561 -0.4908  0.5715
   43MPD2    C4  658   1.385   3.595   0.979  0.2618 -0.7337  0.2196
   43MPD2    C5  659   1.351   3.493   0.889  0.1640 -0.2855  0.1255
   43MPD2     H  660   1.677   3.475   1.075 -1.2903 -1.0236 -0.4164
   43MPD2    H1  661   1.324   3.684   0.994  0.7323 -0.2481 -0.7322
   43MPD2    H2  662   1.400   3.305   0.799 -1.3082 -1.2056  1.8628
   43MPD2    H3  663   1.259   3.496   0.832  1.0678  0.7057 -1.2644
   43MPD2     N  664   1.523   3.685   1.144 -0.3582 -0.2810  0.0273
   43MPD2    H5  665   1.468   3.770   1.154  0.4887  0.4503 -1.5713
   43MPD2    N1  666   1.643   3.276   0.911  0.2542 -0.3972  0.3289
   43MPD2    H7  667   1.719   3.279   0.978  0.5319 -0.4113  0.0179
   44TCq2    C1  668   1.337   3.859   1.573  0.1666 -0.4760  0.2406
   44TCq2    O2  669   1.236   3.822   1.509 -0.2907  0.2194  0.0554
   44TCq2    C2  670   1.470   3.844   1.521  0.2340  0.0921  0.3210
   44TCq2    C3  671   1.582   3.848   1.607  0.3136  0.2028  0.5004
   44TCq2    C4  672   1.710   3.812   1.563 -0.1960  0.1509  0.7731
   44TCq2    C5  673   1.718   3.775   1.432 -0.5792 -0.6414  0.1149
   44TCq2    C6  674   1.607   3.773   1.346  0.0715  0.6921 -0.0322
   44TCq2    C7  675   1.483   3.810   1.389 -0.4372 -0.0321  0.2703
   44TCq2    C8  676   1.622   3.678   1.243  0.4524  0.8337 -0.5631
   44TCq2    O4  677   1.718   3.604   1.250 -0.0758 -0.0020  0.3136
   44TCq2    C9  678   1.828   3.796   1.641  0.1918  0.0347  0.3417
   44TCq2    O5  679   1.923   3.727   1.598  0.3550 -0.1531  0.1255
   44TCq2    O6  680   1.803   3.825   1.761  0.0780 -0.4801 -0.1351
   44TCq2    H2  681   1.570   3.882   1.709 -1.0667 -1.5835  0.9362
   44TCq2    H3  682   1.815   3.743   1.394 -1.6638 -1.2947 -2.1417
   44TCq2    H4  683   1.394   3.768   1.343 -2.2164  2.8087  1.1323
   45TMC2    C1  684   2.169   4.657  10.210  0.0346  0.5282  0.0977
   45TMC2    C2  685   2.136   4.592  10.329 -0.4090  0.8263  0.1110
   45TMC2    C3  686   2.224   4.595  10.434  0.3350  0.9504  0.6647
   45TMC2    C4  687   2.294   4.711  10.196 -0.5670  0.3789  0.0790
   45TMC2    C5  688   2.364   0.011  10.315  0.0616 -0.1227 -0.2606
   45TMC2    C6  689   2.342   4.666  10.432  0.5243 -0.1925 -0.0039
   45TMC2     C  690   2.092   4.647  10.089 -0.2453 -0.2312  0.2197
   45TMC2     O  691   2.152   4.660   9.986 -0.2011 -0.1602 -0.0646
   45TMC2     H  692   2.040   4.543  10.340  0.2691 -0.7393 -1.0317
   45TMC2    H1  693   2.313   0.043  10.104 -2.4594 -0.4561 -0.8056
   45TMC2    H2  694   2.405   4.669  10.520  2.2459 -0.0005 -1.2473
   45TMC2    C7  695   2.451   0.128  10.308 -0.1997  0.2248  0.3597
   45TMC2    C8  696   2.180   4.558  10.566  0.2149  0.0430 -0.0973
   45TMC2    O1  697   2.491   0.156  10.199 -0.5145 -0.3876 -0.0267
   45TMC2    O2  698   2.182   4.639  10.657 -0.2123 -0.1375 -0.5658
   45TMC2    O5  699   2.079   4.471  10.556 -0.8447  0.1307 -0.2960
   45TMC2    H5  700   2.072   4.422  10.471 -0.6015 -1.0969  0.3966
   46MPD2     C  701   1.756   4.537  10.013 -0.1580  0.6783  0.4408
   46MPD2    C1  702   1.870   4.604   9.995 -0.8045  0.0389  0.2383
   46MPD2    C2  703   1.899   4.665   9.876 -0.5489  0.5696  0.4351
   46MPD2    C3  704   1.808   4.663   9.774  0.2071 -0.1503 -0.4391
   46MPD2    C4  705   1.685   4.603   9.802  0.0133 -0.4274  0.0913
   46MPD2    C5  706   1.661   4.534   9.919  0.0799  0.3151 -0.5440
   46MPD2     H  707   1.983   0.008   9.860 -0.7553  0.3792 -1.4402
   46MPD2    H1  708   1.619   4.597   9.716 -0.5439  1.1532  0.4219
   46MPD2    H2  709   1.736   4.473  10.098  1.1223  0.2498  0.4126
   46MPD2    H3  710   1.565   4.485   9.930 -0.3903  0.9297 -1.8039
   46MPD2     N  711   1.846   4.719   9.656 -0.5088  0.3105  0.0721
   46MPD2    H5  712   1.943   0.028   9.651 -0.3675  0.2752  2.5918
   46MPD2    N1  713   1.958   4.607  10.104  0.1148  0.3790  0.2809
   46MPD2    H7  714   1.920   4.587  10.196 -1.1746 -0.6617 -0.4730
   47TMC2    C1  715   3.724   0.693   8.848 -0.0845  0.1054 -0.2144
   47TMC2    C2  716   3.717   0.772   8.734  0.1838 -0.7767  0.5974
   47TMC2    C3  717   3.659   0.722   8.622 -0.0651 -0.3017  0.3721
   47TMC2    C4  718   3.665   0.572   8.842 -0.8650 -0.5532  0.1260
   47TMC2    C5  719   3.608   0.529   8.728 -0.1359  0.3555 -0.7212
   47TMC2    C6  720   3.607   0.604   8.614  0.3419 -0.7078 -0.4872
   47TMC2     C  721   3.797   0.744   8.965 -0.0360 -0.5687  0.2733
   47TMC2     O  722   3.832   0.859   8.958  0.5696  0.1434  0.6656
   47TMC2     H  723   3.754   0.873   8.742 -0.7904 -0.4587  1.1924
   47TMC2    H1  724   3.668   0.508   8.930 -0.4862 -2.1386 -1.0420
   47TMC2    H2  725   3.563   0.571   8.521  0.1398 -0.3648 -0.5152
   47TMC2    C7  726   3.546   0.402   8.709  0.0926  0.1679 -0.3852
   47TMC2    C8  727   3.658   0.806   8.508  0.2082  0.1027  0.1713
   47TMC2    O1  728   3.462   0.399   8.624 -0.0236 -0.6239  0.5227
   47TMC2    O2  729   3.759   0.845   8.455  0.6621 -0.8062  0.4859
   47TMC2    O5  730   3.540   0.817   8.458 -0.5582  0.2455  0.4745
   47TMC2    H5  731   3.469   0.807   8.524 -0.8226  1.7314  0.4235
   48MPD2     C  732   3.943   0.777   9.225 -0.1320  0.3695  0.9844
   48MPD2    C1  733   3.941   0.663   9.153 -0.2918  0.2073  0.1044
   48MPD2    C2  734   4.012   0.551   9.190  0.5675 -0.7952 -0.5334
   48MPD2    C3  735   4.078   0.550   9.308  0.0233 -0.2865 -0.3989
   48MPD2    C4  736   4.078   0.667   9.387 -0.2328 -0.3847  0.0578
   48MPD2    C5  737   4.021   0.782   9.335 -0.0260 -0.0505 -0.5690
   48MPD2     H  738   3.999   0.466   9.124 -1.6296 -2.0193  1.4645
   48MPD2    H1  739   4.136   0.666   9.479 -0.0993 -0.4077 -0.0271
   48MPD2    H2  740   3.898   0.869   9.189  0.6711  0.3471 -0.0666
   48MPD2    H3  741   4.006   0.864   9.403 -0.3411 -1.3371  0.8994
   48MPD2     N  742   4.149   0.431   9.345  0.4736  0.3093 -0.8017
   48MPD2    H5  743   4.158   0.361   9.272  0.5600  0.1912 -0.6768
   48MPD2    N1  744   3.875   0.643   9.029  0.1144 -0.1701 -0.2912
   48MPD2    H7  745   3.876   0.549   8.991 -0.9514  1.2349 -3.7721
   49MPD2     C  746   1.380   2.878  10.122 -0.3961  0.0062  0.1003
   49MPD2    C1  747   1.373   2.750  10.178  0.2028 -0.7591 -0.0577
   49MPD2    C2  748   1.456   2.719  10.286 -0.2041  0.4214  0.2218
   49MPD2    C3  749   1.565   2.807  10.311 -0.1481 -0.0748  0.0535
   49MPD2    C4  750   1.574   2.934  10.253  0.8946  0.3202 -0.1438
   49MPD2    C5  751   1.480   2.967  10.166  0.3195 -0.1059 -0.2050
   49MPD2     H  752   1.452   2.616  10.321 -2.5359 -0.5701 -2.9172
   49MPD2    H1  753   1.661   2.994  10.277  1.2346 -0.1807 -0.1305
   49MPD2    H2  754   1.312   2.908  10.043 -0.3088 -2.1015 -0.7763
   49MPD2    H3  755   1.466   3.068  10.129 -1.5122 -1.0019 -1.9679
   49MPD2     N  756   1.666   2.774  10.402  1.1599 -0.0490 -0.5398
   49MPD2    H5  757   1.742   2.841  10.410 -0.3722  1.3928  2.0257
   49MPD2    N1  758   1.285   2.647  10.141  0.0699 -0.4236 -0.2198
   49MPD2    H7  759   1.284   2.556  10.186 -3.2094  0.0132  0.5665
   50TCq2    C1  760   1.183   2.661  10.048  0.7173 -0.3792  0.0747
   50TCq2    O2  761   1.146   2.762   9.988  0.7648 -0.3863 -0.2656
   50TCq2    C2  762   1.100   2.548  10.020  0.4528 -0.1055  0.8430
   50TCq2    C3  763   0.994   2.568   9.942  0.0498 -0.5608 -0.3043
   50TCq2    C4  764   0.895   2.463   9.938 -0.0647  0.8567 -0.1556
   50TCq2    C5  765   0.924   2.348  10.006  0.0063 -0.0292  0.0931
   50TCq2    C6  766   1.044   2.330  10.070 -0.6360 -0.2276  0.7284
   50TCq2    C7  767   1.138   2.430  10.077 -0.0524  0.5142 -0.0719
   50TCq2    C8  768   1.093   2.207  10.128 -0.2569 -1.1099  0.4182
   50TCq2    O4  769   1.164   2.224  10.230 -0.5106  0.0815  0.0375
   50TCq2    C9  770   0.771   2.498   9.870 -0.2078  0.1242 -0.1465
   50TCq2    O5  771   0.677   2.411   9.874 -0.1424 -0.2789  0.0584
   50TCq2    O6  772   0.754   2.625   9.859 -0.1303 -0.2391  0.9411
   50TCq2    H2  773   0.969   2.669   9.914  1.3072 -0.2537 -0.3093
   50TCq2    H3  774   0.850   2.269  10.014  0.3151 -0.0961  2.2084
   50TCq2    H4  775   1.233   2.408  10.123 -0.8852 -1.7937  0.5086
   51MPD2     C  776   2.700   1.264   1.413 -0.7970 -0.2572  0.1252
   51MPD2    C1  777   2.737   1.267   1.279  0.1094  0.0015 -0.0768
   51MPD2    C2  778   2.857   1.327   1.254 -0.0159 -0.0156  0.1204
   51MPD2    C3  779   2.927   1.388   1.357  0.3447  0.4212 -0.2749
   51MPD2    C4  780   2.885   1.385   1.492  0.1694  0.4732 -0.4856
   51MPD2    C5  781   2.776   1.311   1.520 -0.7200  0.2571  0.5500
   51MPD2     H  782   2.892   1.322   1.151  2.8811 -0.5623  1.1377
   51MPD2    H1  783   2.939   1.433   1.573 -0.6839 -1.3110  1.1509
   51MPD2    H2  784   2.615   1.205   1.446 -1.5462  1.5513  1.4124
   51MPD2    H3  785   2.762   1.287   1.625 -0.9914  2.2041  0.9764
   51MPD2     N  786   3.060   1.439   1.344  0.8622 -0.7987  0.1598
   51MPD2    H5  787   3.122   1.443   1.424  0.4850  0.5238  0.3863
   51MPD2    N1  788   2.667   1.200   1.171 -0.0806 -0.2902  0.3841
   51MPD2    H7  789   2.689   1.210   1.073 -1.1960  0.1654  0.1810
   52TCq2    C1  790   3.118   1.464   1.221 -0.6624  0.3244  0.2363
   52TCq2    O2  791   3.074   1.443   1.108  0.1466 -0.3044  0.2272
   52TCq2    C2  792   3.258   1.493   1.230 -0.3294  0.1783 -0.6757
   52TCq2    C3  793   3.341   1.414   1.157 -0.1941  0.4832 -0.1372
   52TCq2    C4  794   3.471   1.415   1.180  0.0573  0.8465  0.1122
   52TCq2    C5  795   3.518   1.494   1.281 -0.0269  0.3584 -0.1577
   52TCq2    C6  796   3.433   1.563   1.360 -0.1310 -0.3630  0.3435
   52TCq2    C7  797   3.300   1.568   1.335 -0.4420 -0.3133  0.1076
   52TCq2    C8  798   3.479   1.661   1.457 -0.3177  0.6926  0.1079
   52TCq2    O4  799   3.408   1.759   1.470 -0.1728  0.0487 -0.0985
   52TCq2    C9  800   3.568   1.348   1.094 -0.3420  0.1487  0.6437
   52TCq2    O5  801   3.693   1.359   1.117  0.3861 -0.2221  0.3295
   52TCq2    O6  802   3.527   1.247   1.030  0.2205  0.3285  0.1115
   52TCq2    H2  803   3.304   1.346   1.080 -0.1071  0.8785 -0.5266
   52TCq2    H3  804   3.625   1.504   1.293  0.2273 -0.6167 -1.6227
   52TCq2    H4  805   3.228   1.621   1.396  1.6018  0.8874  1.4646
   53TMC2    C1  806   3.594   4.656  11.688 -0.1639  0.3880 -0.9164
   53TMC2    C2  807   3.717   4.696  11.743  0.5737  0.0378 -0.3171
   53TMC2    C3  808   3.724   0.003  11.874  0.3855 -0.7528  0.0110
   53TMC2    C4  809   3.480   4.660  11.766 -0.1066 -0.4794 -1.3281
   53TMC2    C5  810   3.492   4.701  11.899  0.5900 -0.3067  0.1295
   53TMC2    C6  811   3.615   0.005  11.959  0.0297  0.0735 -0.3499
   53TMC2     C  812   3.580   4.656  11.538  0.0821 -0.0510  0.8840
   53TMC2     O  813   3.672   4.695  11.470  0.7695 -0.5938 -0.4159
   53TMC2     H  814   3.798   4.710  11.673 -1.3221  3.9411 -1.7095
   53TMC2    H1  815   3.380   4.651  11.724 -0.7836  1.1306 -0.0592
   53TMC2    H2  816   3.625   0.037  12.062  1.3508  2.3243 -1.1729
   53TMC2    C7  817   3.371   4.711  11.971  0.0752 -0.5083  0.0126
   53TMC2    C8  818   3.859   0.022  11.931 -0.5927 -0.0445  0.1538
   53TMC2    O1  819   3.266   4.681  11.911 -0.3306  0.0405  0.3325
   53TMC2    O2  820   3.876   0.070  12.042  0.3116  0.4459 -0.7995
   53TMC2    O5  821   3.921   4.637  11.883  0.0681  0.1839 -0.0908
   53TMC2    H5  822   3.867   4.593  11.814 -1.7817  0.5748  1.1126
   54MPD2     C  823   3.476   4.634  11.261  0.1947 -0.0692 -0.3325
   54MPD2    C1  824   3.407   4.605  11.375 -0.5806  0.2582 -0.5203
   54MPD2    C2  825   3.273   4.563  11.371 -0.5103 -0.0108  0.2154
   54MPD2    C3  826   3.205   4.560  11.253 -0.1882 -0.4513  0.0793
   54MPD2    C4  827   3.271   4.605  11.138 -0.4405 -0.2646 -0.5274
   54MPD2    C5  828   3.402   4.640  11.146  0.3932  0.0043 -1.0380
   54MPD2     H  829   3.226   4.540  11.466 -1.5721  0.7794 -0.1185
   54MPD2    H1  830   3.215   4.615  11.046  0.3047  1.9613 -0.7452
   54MPD2    H2  831   3.581   4.660  11.251 -0.4435  3.8121  3.2357
   54MPD2    H3  832   3.450   4.692  11.064  0.8494 -1.5084 -1.7247
   54MPD2     N  833   3.066   4.530  11.246  0.6043 -0.1505 -0.2082
   54MPD2    H5  834   3.032   4.529  11.151 -0.9212  0.1470  0.3445
   54MPD2    N1  835   3.455   4.614  11.506 -0.2712  0.3447 -0.1468
   54MPD2    H7  836   3.394   4.583  11.580  1.7209 -1.7842  0.5872
   55MPD2     C  837   4.357   2.124  17.462 -0.4790 -0.0970  0.8086
   55MPD2    C1  838   4.333   2.051  17.578 -0.2553  0.0614  0.1510
   55MPD2    C2  839   4.283   2.112  17.691 -0.3456 -1.0802  0.1789
   55MPD2    C3  840   4.258   2.249  17.686  0.3826 -0.0155  0.6137
   55MPD2    C4  841   4.291   2.327  17.572 -0.0085 -0.2575  0.2154
   55MPD2    C5  842   4.341   2.262  17.461 -0.0469 -0.1743  0.6520
   55MPD2     H  843   4.243   2.055   0.077 -2.7109 -0.9252 -0.8626
   55MPD2    H1  844   4.280   2.435  17.564  1.0444 -0.1763 -0.1613
   55MPD2    H2  845   4.380   2.068  17.372  0.4277 -1.0313  1.6186
   55MPD2    H3  846   4.361   2.324  17.375 -0.0997  1.4600  1.8132
   55MPD2     N  847   4.197   2.307   0.109  0.5044 -0.0909  0.1976
   55MPD2    H5  848   4.178   2.245   0.187 -0.0346  1.3920  1.2418
   55MPD2    N1  849   4.345   1.910  17.563  0.3152 -0.2625 -0.0258
   55MPD2    H7  850   4.362   1.876  17.468  3.3035  0.4508  0.2487
   56TCq2    C1  851   4.326   1.816  17.661  0.5774  0.4245 -0.5763
   56TCq2    O2  852   4.305   1.835   0.081  0.7359  0.1551  0.4180
   56TCq2    C2  853   4.340   1.679  17.617 -0.3990 -0.3711  0.2750
   56TCq2    C3  854   4.353   1.646  17.485 -0.3746  0.4348  0.3482
   56TCq2    C4  855   4.384   1.516  17.446  0.9099 -0.0574  0.0031
   56TCq2    C5  856   4.404   1.418  17.544  0.4528  0.7055 -0.4500
   56TCq2    C6  857   4.379   1.448  17.671 -0.3112  0.3240  0.0165
   56TCq2    C7  858   4.360   1.577   0.014  1.4638 -1.1890  0.2421
   56TCq2    C8  859   4.326   1.339   0.057 -0.1998  0.4551 -0.3361
   56TCq2    O4  860   4.346   1.222   0.027 -0.5498  0.3712  0.0790
   56TCq2    C9  861   4.397   1.493  17.307 -0.2797  0.4294 -0.1164
   56TCq2    O5  862   4.385   1.594  17.229 -0.3307 -0.0722  0.2594
   56TCq2    O6  863   4.442   1.380  17.272 -0.8385 -0.4107  0.4314
   56TCq2    H2  864   4.331   1.721  17.410 -2.4944 -3.3605 -2.8378
   56TCq2    H3  865   4.424   1.319  17.506 -2.9069 -0.0098 -0.3378
   56TCq2    H4  866   4.369   1.599   0.120  1.8374 -1.5711  0.2874
   57TMC2    C1  867   3.696   3.939  13.870 -0.5295  1.1420 -1.1031
   57TMC2    C2  868   3.790   4.027  13.904  0.4427 -0.5151 -0.0078
   57TMC2    C3  869   3.924   3.993  13.876 -0.6184  0.5343  0.3461
   57TMC2    C4  870   3.729   3.819  13.810  0.0290  0.7039  0.4168
   57TMC2    C5  871   3.859   3.795  13.768  0.5672 -0.4837  0.6813
   57TMC2    C6  872   3.960   3.884  13.808 -0.7810 -0.0313 -0.3226
   57TMC2     C  873   3.567   3.951  13.937 -0.0211 -0.1287  0.3325
   57TMC2     O  874   3.566   4.014  14.043 -0.0087  0.4543 -0.8436
   57TMC2     H  875   3.770   4.113  13.967  1.7440  0.4730 -0.9272
   57TMC2    H1  876   3.653   3.743  13.797 -0.0926  1.3278 -2.3548
   57TMC2    H2  877   4.067   3.871  13.800 -0.5524  0.3735  2.1794
   57TMC2    C7  878   3.882   3.675  13.686 -0.2807 -0.2983  0.4030
   57TMC2    C8  879   4.027   4.101  13.880 -0.3170 -0.7596 -0.6080
   57TMC2    O1  880   3.786   3.600  13.659 -0.0546 -0.0947 -0.1052
   57TMC2    O2  881   4.149   4.089  13.900 -0.1551  0.4173 -0.1484
   57TMC2    O5  882   3.975   4.192  13.793 -0.8888  0.1232  0.4385
   57TMC2    H5  883   3.882   4.180  13.765  0.1392 -2.0291 -2.0710
   58MPD2     C  884   3.064   3.888  13.934 -0.5564 -0.2921  0.8439
   58MPD2    C1  885   3.147   3.943  14.029 -0.3324  0.4777 -0.1198
   58MPD2    C2  886   3.280   3.934  14.013 -0.1865 -0.2288 -0.2452
   58MPD2    C3  887   3.330   3.878  13.896  0.4129  0.6911 -0.5108
   58MPD2    C4  888   3.247   3.819  13.803  0.6539  0.1819 -0.2959
   58MPD2    C5  889   3.110   3.824  13.824 -0.5998 -0.3411  0.6836
   58MPD2     H  890   3.346   3.991  14.077  0.7951 -1.1043 -0.4753
   58MPD2    H1  891   3.278   3.759  13.719 -1.0172 -1.7034  0.4557
   58MPD2    H2  892   2.957   3.894  13.950 -0.8027 -1.8246 -0.1833
   58MPD2    H3  893   3.034   3.768  13.770  1.2503 -1.3075 -0.9132
   58MPD2     N  894   3.473   3.882  13.869  0.7340 -0.3586  0.2309
   58MPD2    H5  895   3.502   3.833  13.784 -1.2916 -2.0366  0.5013
   58MPD2    N1  896   3.098   4.016  14.135 -0.3923 -0.8558 -0.0745
   58MPD2    H7  897   3.168   4.073  14.182  1.5524 -2.2910 -1.2575
   59MPD2     C  898   0.903   4.146  13.488 -0.5750 -0.4362  0.2492
   59MPD2    C1  899   0.992   4.048  13.520  0.2384 -0.3451 -0.7079
   59MPD2    C2  900   1.114   4.079  13.570  0.7610 -0.4661 -0.4473
   59MPD2    C3  901   1.149   4.214  13.589 -0.7462 -0.3188  0.9781
   59MPD2    C4  902   1.062   4.315  13.558  0.5653 -1.3063 -0.5459
   59MPD2    C5  903   0.936   4.279  13.506  0.6232 -0.0101  0.8023
   59MPD2     H  904   1.189   4.003  13.590 -1.8612 -3.3624 -1.6208
   59MPD2    H1  905   1.085   4.417  13.586 -2.5265 -0.7680  0.0788
   59MPD2    H2  906   0.811   4.114  13.440 -0.6419 -0.4538  0.3883
   59MPD2    H3  907   0.849   4.341  13.487 -0.6168 -2.1524 -0.5747
   59MPD2     N  908   1.268   4.249  13.650 -0.0620 -0.2337 -0.1698
   59MPD2    H5  909   1.296   4.346  13.638 -3.0459  0.4460 -1.6130
   59MPD2    N1  910   0.958   3.909  13.517 -0.0063 -0.5171  0.0971
   59MPD2    H7  911   1.031   3.839  13.527  0.8228  0.3548  0.1356
   60TCq2    C1  912   0.833   3.858  13.500  0.3238  0.1192  0.4410
   60TCq2    O2  913   0.722   3.916  13.513 -0.3352  0.3170 -0.0369
   60TCq2    C2  914   0.833   3.715  13.466  0.3805 -0.6523 -0.3542
   60TCq2    C3  915   0.711   3.652  13.495 -0.4128  0.3136  0.5491
   60TCq2    C4  916   0.680   3.542  13.423 -0.6530  0.1547  0.1586
   60TCq2    C5  917   0.758   3.505  13.320 -0.7989  0.0198  0.2617
   60TCq2    C6  918   0.856   3.587  13.278 -0.3635 -0.1136  0.2199
   60TCq2    C7  919   0.905   3.686  13.355  0.3700  0.4051 -0.0762
   60TCq2    C8  920   0.929   3.571  13.147 -0.0535 -0.2695 -0.5012
   60TCq2    O4  921   0.948   3.458  13.102 -0.0540 -0.3477  0.1403
   60TCq2    C9  922   0.562   3.472  13.458 -0.2392  0.0208 -0.6428
   60TCq2    O5  923   0.505   3.513  13.562  0.5136 -0.2702  0.6575
   60TCq2    O6  924   0.520   3.392  13.378  0.4286  0.6306  0.4829
   60TCq2    H2  925   0.661   3.671  13.590 -3.1654 -1.9708 -0.4173
   60TCq2    H3  926   0.724   3.421  13.259 -1.0778  0.7726 -0.6170
   60TCq2    H4  927   0.999   3.737  13.332  0.0069  0.3875 -1.6383
   61MPD2     C  928   0.374   0.697  14.378  0.1589  0.1004 -0.4435
   61MPD2    C1  929   0.408   0.791  14.469 -0.7780  0.2415  0.2339
   61MPD2    C2  930   0.504   0.884  14.432  0.1512 -0.4563  0.4554
   61MPD2    C3  931   0.552   0.889  14.299 -0.1382 -0.2084 -0.2162
   61MPD2    C4  932   0.506   0.800  14.203  0.2053  0.3051  0.2870
   61MPD2    C5  933   0.411   0.714  14.247  0.2243  0.0946 -0.2359
   61MPD2     H  934   0.541   0.957  14.503 -0.4317 -0.2963  0.5932
   61MPD2    H1  935   0.540   0.797  14.100  0.1156  0.7127  0.2475
   61MPD2    H2  936   0.298   0.622  14.395  0.9108 -0.4304  0.5508
   61MPD2    H3  937   0.358   0.657  14.172  1.1597  0.4073 -1.1358
   61MPD2     N  938   0.646   0.989  14.258 -0.0236  0.0043 -0.6329
   61MPD2    H5  939   0.685   1.039  14.338 -0.5632 -1.2979  0.4386
   61MPD2    N1  940   0.341   0.808  14.595 -0.5816 -0.1221  0.1487
   61MPD2    H7  941   0.359   0.891  14.651  2.0233 -0.7161  0.1856
   62TCq2    C1  942   0.257   0.713  14.654 -0.2890 -0.8404 -0.1616
   62TCq2    O2  943   0.242   0.595  14.621  0.0347  0.4826 -0.1173
   62TCq2    C2  944   0.192   0.758  14.776 -0.0339 -0.7124  0.6208
   62TCq2    C3  945   0.098   0.667  14.828  0.6670 -0.7214  0.0993
   62TCq2    C4  946   0.020   0.716  14.931  0.6424 -0.0308  0.4912
   62TCq2    C5  947   0.036   0.836  14.994 -0.1730 -0.3538 -0.2667
   62TCq2    C6  948   0.133   0.919  14.940  0.2905 -1.0978  0.4196
   62TCq2    C7  949   0.204   0.886  14.828  0.1888 -0.1467  0.6126
   62TCq2    C8  950   0.164   1.046  15.001 -0.2435  0.0644 -0.2343
   62TCq2    O4  951   0.280   1.082  14.998  0.4031  0.1060 -0.1722
   62TCq2    C9  952   4.644   0.627  14.984  0.7865 -0.3009  0.9819
   62TCq2    O5  953   4.648   0.504  14.954  0.1572 -0.8687 -0.5699
   62TCq2    O6  954   4.541   0.670  15.043  0.3254  0.6837  0.4781
   62TCq2    H2  955   0.087   0.565  14.792  1.2297 -0.7587  0.0267
   62TCq2    H3  956   4.697   0.847  15.081 -2.0896 -2.3134 -1.4002
   62TCq2    H4  957   0.278   0.960  14.800 -0.5138  0.4489  0.3289
   63TMC2    C1  958   0.335   0.715  11.102  0.3073 -0.4358  0.4782
   63TMC2    C2  959   0.328   0.822  11.188  0.2631  0.1577  0.3558
   63TMC2    C3  960   0.308   0.943  11.127 -0.3824 -0.2439 -0.9606
   63TMC2    C4  961   0.332   0.737  10.967  0.1789 -0.1941  0.0431
   63TMC2    C5  962   0.324   0.855  10.910  0.3696  0.4609 -0.0300
   63TMC2    C6  963   0.310   0.964  10.991 -0.2011 -0.2041 -0.4870
   63TMC2     C  964   0.324   0.589  11.160  0.0706  0.4289 -0.0111
   63TMC2     O  965   0.367   0.569  11.272  0.1055 -0.0848 -0.0984
   63TMC2     H  966   0.324   0.813  11.296 -1.3635 -1.3621  0.1708
   63TMC2    H1  967   0.346   0.660  10.892  0.9139  1.1663 -1.2211
   63TMC2    H2  968   0.257   1.047  10.946  0.9966  0.6217 -0.3631
   63TMC2    C7  969   0.289   0.869  10.766  0.1661 -0.1678 -0.1798
   63TMC2    C8  970   0.302   1.055  11.222 -0.1636  0.5608  0.0450
   63TMC2    O1  971   0.275   0.765  10.703  0.0356 -0.9147  0.0669
   63TMC2    O2  972   0.284   1.047  11.341  0.1774  0.2238  0.7809
   63TMC2    O5  973   0.352   1.163  11.152  0.3592  0.4117  0.2388
   63TMC2    H5  974   0.337   1.151  11.056  1.8731  3.5375 -0.3795
   64MPD2     C  975   0.088   0.140  11.159 -0.2134 -0.1437  0.0006
   64MPD2    C1  976   0.053   0.206  11.040  0.0485  0.8863 -0.3802
   64MPD2    C2  977   0.098   0.329  11.018  0.2000 -0.4063 -0.4305
   64MPD2    C3  978   0.200   0.379  11.100  0.3736  0.2196 -0.0819
   64MPD2    C4  979   0.245   0.313  11.210  0.3669  0.1491 -0.1700
   64MPD2    C5  980   0.187   0.190  11.237 -0.4858  0.4725  0.1900
   64MPD2     H  981   0.054   0.386  10.938 -0.2301  0.4384  0.3984
   64MPD2    H1  982   0.335   0.341  11.265 -0.6911  0.5369  1.3500
   64MPD2    H2  983   0.040   0.049  11.193  0.9552 -0.4300  0.8853
   64MPD2    H3  984   0.217   0.133  11.325  1.4703 -2.4688 -2.3858
   64MPD2     N  985   0.251   0.506  11.072  0.1446 -0.5755  0.5248
   64MPD2    H5  986   0.218   0.544  10.984  1.9366  0.4420  0.3117
   64MPD2    N1  987   4.675   0.159  10.957 -0.1711 -0.4290  0.2153
   64MPD2    H7  988   4.665   0.194  10.863 -0.2436  0.5424  0.5862
   65MPD2     C  989   0.861   0.051  15.723  0.0638 -0.2377 -0.0209
   65MPD2    C1  990   0.826   0.019  15.594  0.0915 -0.0938 -0.3977
   65MPD2    C2  991   0.808   4.612  15.555  0.0174 -0.0007  0.2449
   65MPD2    C3  992   0.794   4.516  15.650  0.0746  0.5783  0.8552
   65MPD2    C4  993   0.798   4.550  15.784  0.8905 -0.1428 -0.1135
   65MPD2    C5  994   0.842   4.674  15.817  0.1634  0.0853 -0.2288
   65MPD2     H  995   0.798   4.584  15.451 -0.8577  0.8676  0.1003
   65MPD2    H1  996   0.764   4.478  15.858  1.0773 -2.0616 -1.8833
   65MPD2    H2  997   0.896   0.146  15.763  1.3195 -0.4878 -0.5089
   65MPD2    H3  998   0.861   4.704  15.919 -0.5355 -0.8410  0.1628
   65MPD2     N  999   0.759   4.382  15.616  0.0204  0.4516  0.1698
   65MPD2    H5 1000   0.747   4.326  15.700  1.6959 -0.0857  0.0451
   65MPD2    N1 1001   0.838   0.119  15.495 -0.1652  0.3938 -0.9666
   65MPD2    H7 1002   0.818   0.094  15.398  1.4608  0.6370 -1.3662
   66TCq2    C1 1003   0.854   0.253  15.516  0.0374  0.0515  0.0374
   66TCq2    O2 1004   0.865   0.312  15.620  0.6034 -0.3215 -0.3066
   66TCq2    C2 1005   0.852   0.332  15.401  0.2983 -0.1496 -0.0046
   66TCq2    C3 1006   0.795   0.287  15.286  0.8496 -0.4720  0.0160
   66TCq2    C4 1007   0.806   0.362  15.174 -0.0008  0.3046 -0.5172
   66TCq2    C5 1008   0.876   0.474  15.170  0.1492 -0.4109  0.1610
   66TCq2    C6 1009   0.933   0.519  15.286 -0.2968 -0.0811  0.7146
   66TCq2    C7 1010   0.925   0.447  15.404  0.1406 -0.2356 -0.4729
   66TCq2    C8 1011   0.990   0.657  15.292  0.0269 -0.2073  0.8001
   66TCq2    O4 1012   0.996   0.717  15.187 -0.1247 -0.4484  0.8716
   66TCq2    C9 1013   0.757   0.297  15.055  0.2704  0.3733 -0.1322
   66TCq2    O5 1014   0.731   0.178  15.055 -0.2994  0.6527  0.1384
   66TCq2    O6 1015   0.762   0.374  14.954 -0.5389  0.1585  1.0511
   66TCq2    H2 1016   0.723   0.206  15.285 -1.0915  1.2571  0.3467
   66TCq2    H3 1017   0.883   0.528  15.077 -0.5604  0.2243  0.4764
   66TCq2    H4 1018   0.964   0.478  15.500  0.8380 -0.0216 -0.8300
   67MPD2     C 1019   0.710   4.254  14.135 -0.0231  0.1814  0.7875
   67MPD2    C1 1020   0.742   4.388  14.161 -0.6534  0.5576 -0.2932
   67MPD2    C2 1021   0.659   4.476  14.098  0.2766  0.5303 -0.1692
   67MPD2    C3 1022   0.550   4.433  14.017 -0.2864 -0.2902  0.3798
   67MPD2    C4 1023   0.525   4.303  14.002  0.0794 -0.4442  0.0590
   67MPD2    C5 1024   0.606   4.212  14.055  0.1743 -0.4140  0.0505
   67MPD2     H 1025   0.671   4.581  14.122  0.4115  1.2378 -3.4007
   67MPD2    H1 1026   0.450   4.266  13.933  0.3661  1.9780 -1.5661
   67MPD2    H2 1027   0.760   4.170  14.181 -3.6398 -1.4240  1.8454
   67MPD2    H3 1028   0.584   4.107  14.039 -1.3551  0.2442 -2.2011
   67MPD2     N 1029   0.472   4.525  13.938 -0.7633  0.4509 -0.5494
   67MPD2    H5 1030   0.397   4.495  13.876 -2.8749  1.8316  1.3620
   67MPD2    N1 1031   0.839   4.437  14.252  0.5917  0.5322  0.4919
   67MPD2    H7 1032   0.834   4.535  14.280  0.0519  0.3147  1.1736
   68TCq2    C1 1033   0.940   4.361  14.305  0.2119 -0.0776 -0.4488
   68TCq2    O2 1034   0.970   4.245  14.286  0.4274  0.0353  0.0713
   68TCq2    C2 1035   1.023   4.439  14.392  0.0119 -0.2441  0.1550
   68TCq2    C3 1036   1.003   4.576  14.414  0.9928  0.3530 -0.6895
   68TCq2    C4 1037   1.049   4.634  14.530  0.7482 -0.1802  0.3553
   68TCq2    C5 1038   1.116   4.569  14.627  0.0904 -0.2204 -0.0558
   68TCq2    C6 1039   1.127   4.434  14.608  0.1919 -0.6554 -0.2463
   68TCq2    C7 1040   1.082   4.371  14.494 -0.2189 -0.1253  0.0311
   68TCq2    C8 1041   1.164   4.354  14.729 -0.5634 -0.2312 -0.5496
   68TCq2    O4 1042   1.177   4.419  14.832 -0.4833  0.5852  0.2808
   68TCq2    C9 1043   1.046   0.054  14.553 -0.3321  0.2401 -0.4182
   68TCq2    O5 1044   0.979   0.127  14.471 -0.4277  0.0443 -0.3588
   68TCq2    O6 1045   1.052   0.094  14.673 -0.0996 -0.3414 -0.1935
   68TCq2    H2 1046   0.955   4.635  14.337  0.1193  0.4484 -0.0661
   68TCq2    H3 1047   1.145   4.620  14.718 -0.3869  2.3301 -1.3148
   68TCq2    H4 1048   1.091   4.263  14.494  1.5786  0.0389 -1.1449
   69TMC2    C1 1049   2.574   0.648  11.787 -0.0042 -0.5550 -0.2528
   69TMC2    C2 1050   2.453   0.688  11.736  0.6302 -0.0806  0.0668
   69TMC2    C3 1051   2.449   0.696  11.598  0.0632  0.3180  0.0075
   69TMC2    C4 1052   2.678   0.611  11.712  0.6288  0.2049 -0.0111
   69TMC2    C5 1053   2.665   0.624  11.578  0.2143  0.3594  0.6068
   69TMC2    C6 1054   2.559   0.684  11.519  0.5509 -0.7843  0.6005
   69TMC2     C 1055   2.594   0.636  11.937  0.3243 -0.3375 -0.3653
   69TMC2     O 1056   2.631   0.525  11.977 -0.0517  0.3754  0.1016
   69TMC2     H 1057   2.358   0.698  11.787 -0.0532 -0.8574 -1.0439
   69TMC2    H1 1058   2.774   0.583  11.755 -1.0947 -2.1522  2.2548
   69TMC2    H2 1059   2.544   0.685  11.411  1.3460  0.6995  0.5074
   69TMC2    C7 1060   2.783   0.595  11.498  0.1425 -0.3242  0.3227
   69TMC2    C8 1061   2.331   0.752  11.543 -0.3393 -0.1905  0.2687
   69TMC2    O1 1062   2.870   0.531  11.553  0.1985 -0.0128 -0.1465
   69TMC2    O2 1063   2.316   0.805  11.433 -0.5068 -0.4646 -0.1558
   69TMC2    O5 1064   2.235   0.680  11.599 -0.3293  0.3008  0.1774
   69TMC2    H5 1065   2.250   0.603  11.658 -0.5016 -1.3318 -1.9124
   70MPD2     C 1066   2.653   0.894  12.179 -0.1365 -0.2680 -0.1295
   70MPD2    C1 1067   2.627   0.769  12.135 -0.6245 -1.0144 -0.0511
   70MPD2    C2 1068   2.633   0.661  12.226  0.1749 -0.1476 -0.2146
   70MPD2    C3 1069   2.695   0.676  12.351 -0.2742  0.0817 -0.0368
   70MPD2    C4 1070   2.732   0.805  12.383 -0.2221  0.7416  0.6643
   70MPD2    C5 1071   2.709   0.913  12.305 -0.3381  0.4315 -0.3042
   70MPD2     H 1072   2.591   0.565  12.198 -0.3693 -0.5133  1.8135
   70MPD2    H1 1073   2.775   0.819  12.482  1.8169  0.9773 -0.2551
   70MPD2    H2 1074   2.638   0.984  12.121  0.1504  2.1464  3.5569
   70MPD2    H3 1075   2.749   1.010  12.332  1.7208 -0.2736 -0.7644
   70MPD2     N 1076   2.719   0.563  12.436 -0.3164 -0.6516 -0.8495
   70MPD2    H5 1077   2.781   0.580  12.514 -1.5097 -2.0194  0.3945
   70MPD2    N1 1078   2.597   0.758  11.996 -0.4148 -0.2362  0.4769
   70MPD2    H7 1079   2.585   0.840  11.937  0.1824  0.2526  1.0242
   71TMC2    C1 1080   1.728   0.820   1.122  0.4327  0.2048  0.3787
   71TMC2    C2 1081   1.825   0.724   1.095 -0.4896 -0.1751 -0.1421
   71TMC2    C3 1082   1.906   0.701   1.202  0.0676  0.0918  0.0651
   71TMC2    C4 1083   1.706   0.861   1.248  0.1944  0.1684  0.5490
   71TMC2    C5 1084   1.792   0.834   1.354  0.2604 -0.3032 -0.6365
   71TMC2    C6 1085   1.899   0.749   1.333  0.3726  1.4263 -0.7130
   71TMC2     C 1086   1.623   0.835   1.027 -0.5789  0.1573 -0.9071
   71TMC2     O 1087   1.525   0.893   1.066  0.5813  0.0756  0.0839
   71TMC2     H 1088   1.847   0.673   1.002 -2.0505 -2.3447  0.6733
   71TMC2    H1 1089   1.620   0.924   1.270 -1.2955 -1.3874 -0.7350
   71TMC2    H2 1090   1.988   0.730   1.392 -0.2766  0.3156 -0.0966
   71TMC2    C7 1091   1.752   0.849   1.487  0.1407 -0.4989  0.2466
   71TMC2    C8 1092   2.028   0.627   1.170 -0.0165  0.1451  0.1240
   71TMC2    O1 1093   1.840   0.818   1.567  0.3819 -0.3035  0.4305
   71TMC2    O2 1094   2.066   0.635   1.056 -0.4375 -0.4433 -0.2538
   71TMC2    O5 1095   2.064   0.538   1.259 -0.3181  0.7128  0.2451
   71TMC2    H5 1096   2.011   0.542   1.342 -1.7401 -1.3806 -0.5716
   72MPD2     C 1097   1.434   0.876   0.539  0.5462  0.2664 -0.0993
   72MPD2    C1 1098   1.399   0.932   0.660  0.1064 -0.5708  0.1550
   72MPD2    C2 1099   1.461   0.901   0.779  0.3539 -0.0960 -0.1292
   72MPD2    C3 1100   1.572   0.827   0.780 -0.8099  0.0394  0.3992
   72MPD2    C4 1101   1.610   0.768   0.658 -0.3905 -0.6068  0.7183
   72MPD2    C5 1102   1.546   0.798   0.538 -1.1045  0.5113  0.3592
   72MPD2     H 1103   1.429   0.948   0.872 -0.3863 -0.2144 -0.3309
   72MPD2    H1 1104   1.690   0.695   0.661  0.5301  0.2969 -1.3842
   72MPD2    H2 1105   1.380   0.905   0.450 -1.0911 -2.8952 -0.1303
   72MPD2    H3 1106   1.578   0.758   0.442  0.3964 -0.2464  1.1840
   72MPD2     N 1107   1.647   0.792   0.895 -0.3396  0.3844 -0.3676
   72MPD2    H5 1108   1.723   0.726   0.888 -2.7509 -2.6311  1.4331
   72MPD2    N1 1109   1.305   1.034   0.677  0.0454  0.1624  0.5312
   72MPD2    H7 1110   1.295   1.074   0.770  0.8814 -1.2446  1.2084
   73TMC2    C1 1111   4.705   2.294  13.849 -0.2772 -0.2094 -0.1830
   73TMC2    C2 1112   4.715   2.305  13.985 -0.4387  0.5805 -0.4781
   73TMC2    C3 1113   0.082   2.226  14.050  0.3658 -0.7658 -0.0071
   73TMC2    C4 1114   0.051   2.187  13.792 -0.8792 -0.5756 -0.1944
   73TMC2    C5 1115   0.135   2.108  13.862  0.5455  0.3129  0.3579
   73TMC2    C6 1116   0.152   2.123  13.994 -0.0803 -0.3161 -0.1421
   73TMC2     C 1117   0.014   2.419  13.785  0.7003 -0.0537  0.3009
   73TMC2     O 1118   0.100   2.405  13.694 -0.0501  0.0923 -0.0673
   73TMC2     H 1119   4.658   2.376  14.044  0.0493  0.6487 -0.0927
   73TMC2    H1 1120   0.045   2.168  13.686 -0.6456 -0.0401 -0.3038
   73TMC2    H2 1121   0.234   2.067  14.035 -0.8751 -0.2259  1.5909
   73TMC2    C7 1122   0.266   2.096  13.812 -0.2535  0.1175 -0.0771
   73TMC2    C8 1123   0.089   2.256  14.189 -0.2406  0.8392 -0.1021
   73TMC2    O1 1124   0.330   1.998  13.851  0.2355  0.2308  0.6920
   73TMC2    O2 1125   4.720   2.322  14.240 -0.0012 -0.0660 -0.4149
   73TMC2    O5 1126   0.122   2.138  14.250  0.1141  0.8548 -0.3947
   73TMC2    H5 1127   0.213   2.115  14.220 -0.1799 -1.6118  0.6436
   74MPD2     C 1128   0.000   2.930  13.725 -0.0347  0.2061 -0.0871
   74MPD2    C1 1129   0.095   2.829  13.686  0.7744 -0.5673 -0.1648
   74MPD2    C2 1130   0.077   2.691  13.721  0.0982 -0.3024  0.3203
   74MPD2    C3 1131   4.687   2.655  13.784  0.6319  0.3300  0.4517
   74MPD2    C4 1132   4.587   2.746  13.808  0.6502 -0.1150 -0.7176
   74MPD2    C5 1133   4.605   2.884  13.783 -0.3556 -0.5544 -0.0297
   74MPD2     H 1134   0.149   2.615  13.693  2.0695  2.2356 -1.4777
   74MPD2    H1 1135   4.500   2.702  13.856  1.4955 -0.3434  0.6024
   74MPD2    H2 1136   0.017   3.036  13.710 -0.7217  0.5865  1.7617
   74MPD2    H3 1137   4.522   2.951  13.801 -0.0550  0.3082 -1.8550
   74MPD2     N 1138   4.664   2.524  13.820 -0.1439  0.1350 -0.3245
   74MPD2    H5 1139   4.582   2.508  13.878 -0.3154 -0.6799 -0.7817
   74MPD2    N1 1140   0.209   2.868  13.606 -0.0697 -0.3250 -0.4298
   74MPD2    H7 1141   0.225   2.968  13.601 -0.5178 -0.1511  1.7807
   75TCq2    C1 1142   0.478   4.661  13.957  0.4863 -0.6310  0.8327
   75TCq2    O2 1143   0.553   0.013  14.026 -0.2234 -0.5647 -0.0054
   75TCq2    C2 1144   0.369   0.008  13.890 -0.4356  0.4848 -0.1965
   75TCq2    C3 1145   0.319   0.125  13.940  0.6141  0.1153  0.0849
   75TCq2    C4 1146   0.232   0.190  13.853 -0.2002  0.5523 -0.4494
   75TCq2    C5 1147   0.199   0.152  13.726 -0.2231 -0.0265 -0.5141
   75TCq2    C6 1148   0.256   0.035  13.680  0.2735  0.4513 -0.7421
   75TCq2    C7 1149   0.343   4.691  13.759  0.0844  0.1117 -0.7193
   75TCq2    C8 1150   0.253   4.715  13.536  0.2369  1.2407  0.7946
   75TCq2    O4 1151   0.258   4.595  13.523  0.3193  0.0179 -0.2883
   75TCq2    C9 1152   0.176   0.316  13.898  0.4447 -0.1362 -0.0635
   75TCq2    O5 1153   0.189   0.348  14.022 -0.0485 -0.1123 -0.0062
   75TCq2    O6 1154   0.070   0.356  13.838 -0.2413  0.5693  0.3601
   75TCq2    H2 1155   0.355   0.159  14.037  0.3361 -0.6633  0.4563
   75TCq2    H3 1156   0.129   0.208  13.664 -0.3343 -0.1437 -0.4952
   75TCq2    H4 1157   0.389   4.610  13.703 -1.1618 -1.0745 -0.0313
   76MPD2     C 1158   3.814   0.359  11.748  0.1234 -0.2542 -0.7381
   76MPD2    C1 1159   3.853   0.333  11.615  0.3653  0.3525 -0.3701
   76MPD2    C2 1160   3.995   0.341  11.592 -0.5715 -0.2233 -0.0201
   76MPD2    C3 1161   4.081   0.356  11.694 -0.5241  0.0059  0.2804
   76MPD2    C4 1162   4.033   0.382  11.821 -0.2864  0.1012 -0.2810
   76MPD2    C5 1163   3.900   0.389  11.846 -0.3555 -0.4836 -0.4167
   76MPD2     H 1164   4.030   0.313  11.494  0.1280  1.2215 -0.1792
   76MPD2    H1 1165   4.106   0.411  11.897  0.6881  0.7995 -1.4858
   76MPD2    H2 1166   3.711   0.369  11.783  1.3065  0.1424  2.6316
   76MPD2    H3 1167   3.872   0.411  11.948  1.3453  0.0676 -0.0763
   76MPD2     N 1168   4.221   0.348  11.677 -0.1906  0.5438  0.5262
   76MPD2    H5 1169   4.279   0.370  11.757  0.3076  0.2333  0.2551
   76MPD2    N1 1170   3.763   0.312  11.507  0.3025 -0.8910 -0.1812
   76MPD2    H7 1171   3.800   0.324  11.413  0.3390 -2.0272 -0.3041
   77TCq2    C1 1172   4.282   0.304  11.558  0.1005  0.2406 -0.8895
   77TCq2    O2 1173   4.237   0.240  11.465 -0.0593  0.2259 -0.4432
   77TCq2    C2 1174   4.424   0.291  11.574 -0.3051 -0.1098 -0.0565
   77TCq2    C3 1175   4.491   0.190  11.510 -0.1553  0.0084  0.0249
   77TCq2    C4 1176   4.616   0.154  11.548 -0.8767  0.3413 -0.6411
   77TCq2    C5 1177   4.691   0.238  11.618  0.4111  0.1903  0.0771
   77TCq2    C6 1178   4.625   0.334  11.685  0.4568 -0.1208  0.3864
   77TCq2    C7 1179   4.490   0.361  11.668  0.3288 -0.2100  0.1202
   77TCq2    C8 1180   4.708   0.420  11.772 -0.2459 -0.6226  0.0618
   77TCq2    O4 1181   0.105   0.423  11.742 -0.0820 -0.7837  0.2184
   77TCq2    C9 1182   4.677   0.027  11.500  0.2001 -0.1103 -0.1717
   77TCq2    O5 1183   4.605   4.659  11.448 -0.1284  0.0295 -0.4613
   77TCq2    O6 1184   0.076   0.007  11.523  0.2829 -0.0573  0.0276
   77TCq2    H2 1185   4.442   0.123  11.440 -0.8103  1.7863 -1.2242
   77TCq2    H3 1186   0.068   0.208  11.642 -0.0559 -1.9673 -0.6397
   77TCq2    H4 1187   4.447   0.446  11.720 -0.6515 -1.0189  0.6308
   78MPD1     C 1188   0.910   1.639   2.801  0.0696  0.9320  0.1529
   78MPD1    C1 1189   0.984   1.528   2.757  0.2316  0.8019  1.1490
   78MPD1    C2 1190   0.925   1.453   2.656 -0.1239  0.6888  0.2310
   78MPD1    C3 1191   0.814   1.498   2.590  0.0267  0.2729 -0.4353
   78MPD1    C4 1192   0.751   1.615   2.629 -0.1859  0.0607  0.4079
   78MPD1    C5 1193   0.792   1.679   2.745 -0.0383 -0.1535  0.4419
   78MPD1     H 1194   0.973   1.363   2.619 -1.1106  0.0382  0.5460
   78MPD1    H1 1195   0.663   1.654   2.578  0.4388 -0.3945 -1.0027
   78MPD1    H2 1196   0.935   1.682   2.897  1.2197 -0.3934  0.4508
   78MPD1    H3 1197   0.740   1.766   2.782  1.2369  0.9309 -0.2959
   78MPD1     N 1198   0.758   1.439   2.477 -0.8049  0.3792  0.3387
   78MPD1    H5 1199   0.677   1.483   2.435 -1.1523  0.2128  0.8352
   78MPD1    N1 1200   1.091   1.473   2.820 -0.2171 -0.2449 -0.6219
   78MPD1    H6 1201   1.060   1.440   2.911 -0.2536 -0.0173 -0.5503
   78MPD1    H7 1202   1.142   1.555   2.853 -0.9302 -0.3472  0.7151
   79TCq2    C1 1203   0.794   1.316   2.430 -0.2564 -0.2336  0.2562
   79TCq2    O2 1204   0.892   1.245   2.457 -1.0384 -0.2846 -0.2685
   79TCq2    C2 1205   0.704   1.265   2.324 -0.8530 -0.2041 -0.1014
   79TCq2    C3 1206   0.592   1.341   2.288 -0.5129 -0.3355 -0.0037
   79TCq2    C4 1207   0.521   1.300   2.178  0.3515  0.2026 -0.0929
   79TCq2    C5 1208   0.564   1.200   2.097 -0.4598  0.3949 -0.2189
   79TCq2    C6 1209   0.683   1.141   2.124 -0.3881 -1.0978 -0.0977
   79TCq2    C7 1210   0.746   1.164   2.242  0.6628  0.0241 -0.6875
   79TCq2    C8 1211   0.744   1.025   2.044 -0.4814  0.0110 -0.0758
   79TCq2    O4 1212   0.857   0.996   2.073  0.7604 -0.0440  0.7064
   79TCq2    C9 1213   0.387   1.358   2.162  0.0870 -0.6497  0.1607
   79TCq2    O5 1214   0.344   1.439   2.249  0.0984  0.2846 -0.1454
   79TCq2    O6 1215   0.326   1.319   2.057 -0.1543  0.5925 -0.3250
   79TCq2    H2 1216   0.550   1.412   2.359  0.1932 -0.9250  1.0007
   79TCq2    H3 1217   0.509   1.187   2.005 -1.8895 -0.2169  0.7075
   79TCq2    H4 1218   0.843   1.120   2.263 -0.9766 -1.2001  4.3823
   80MPD2     C 1219   3.276   4.606  12.718 -0.1772 -0.1998  0.8831
   80MPD2    C1 1220   3.254   4.535  12.601  1.3178  0.4230 -0.4342
   80MPD2    C2 1221   3.127   4.523  12.563 -0.5374 -0.4022 -0.4836
   80MPD2    C3 1222   3.018   4.582  12.632 -0.5112 -0.3780 -0.9960
   80MPD2    C4 1223   3.050   4.665  12.730  0.6338  0.1379 -0.5702
   80MPD2    C5 1224   3.171   4.664  12.784  0.1827  0.0340 -0.4630
   80MPD2     H 1225   3.116   4.477  12.466  1.2148  0.7609 -1.2377
   80MPD2    H1 1226   2.973   0.001  12.778  0.3437 -1.9374  1.5317
   80MPD2    H2 1227   3.377   4.620  12.753  1.3385 -1.0052 -3.2154
   80MPD2    H3 1228   3.193   4.719  12.875  0.5347 -1.2342  0.2107
   80MPD2     N 1229   2.882   4.581  12.592 -0.2071 -0.7171 -0.5825
   80MPD2    H5 1230   2.814   4.633  12.646  0.9588 -0.2734  0.4580
   80MPD2    N1 1231   3.340   4.490  12.503  0.0803 -0.0350  0.0170
   80MPD2    H7 1232   3.280   4.452  12.430 -0.1350 -1.6839  1.0449
   81TCq2    C1 1233   3.470   4.502  12.491  0.3148 -0.3327 -0.4112
   81TCq2    O2 1234   3.555   4.527  12.577  0.4332 -0.2625  0.4253
   81TCq2    C2 1235   3.524   4.465  12.356 -0.1714  0.0495  0.0320
   81TCq2    C3 1236   3.654   4.487  12.324 -0.1715 -0.1250  0.1202
   81TCq2    C4 1237   3.705   4.441  12.207  0.4297  0.2976 -0.2428
   81TCq2    C5 1238   3.622   4.378  12.119  0.2744 -0.0586 -1.2484
   81TCq2    C6 1239   3.488   4.378  12.143  0.1049 -0.1996 -0.3779
   81TCq2    C7 1240   3.438   4.417  12.262 -0.4338  0.1304 -0.4463
   81TCq2    C8 1241   3.406   4.300  12.057 -0.3494  0.0784  0.5438
   81TCq2    O4 1242   3.423   4.303  11.934 -0.2285  0.0347  0.6792
   81TCq2    C9 1243   3.850   4.443  12.183 -0.1708  0.4148 -0.3590
   81TCq2    O5 1244   3.881   4.385  12.073 -0.3901  0.1954 -0.0576
   81TCq2    O6 1245   3.935   4.461  12.274 -0.5304 -0.2600  0.3977
   81TCq2    H2 1246   3.711   4.525  12.408 -1.5346  0.4322  0.7975
   81TCq2    H3 1247   3.665   4.345  12.025 -0.3255 -1.9689 -0.8640
   81TCq2    H4 1248   3.334   4.395  12.282 -0.2132  0.9215  1.6166
   82MPD2     C 1249   1.126   4.687  10.784  0.4416 -0.5678 -1.0936
   82MPD2    C1 1250   1.070   4.564  10.745  0.2547 -0.3046  0.6549
   82MPD2    C2 1251   1.049   4.465  10.839 -0.1491  0.1205 -0.0924
   82MPD2    C3 1252   1.094   4.493  10.966 -0.3484 -0.1349  0.9119
   82MPD2    C4 1253   1.152   4.614  11.002  0.1336 -0.2323 -0.1740
   82MPD2    C5 1254   1.157   4.714  10.914  0.1192  0.5233  0.0418
   82MPD2     H 1255   1.009   4.371  10.805  2.1088 -1.4984  1.6949
   82MPD2    H1 1256   1.176   4.635  11.106  4.0788  1.1224 -1.3494
   82MPD2    H2 1257   1.144   0.046  10.716  0.7512  0.1789 -0.1021
   82MPD2    H3 1258   1.191   0.087  10.950 -0.5776  1.2563 -1.2608
   82MPD2     N 1259   1.088   4.397  11.064  0.6255  0.4635 -0.1555
   82MPD2    H5 1260   1.127   4.426  11.154  0.7555  0.3155 -0.1635
   82MPD2    N1 1261   1.031   4.549  10.614 -0.3096  0.6936  0.5852
   82MPD2    H7 1262   1.066   4.621  10.551 -1.7129 -0.4265 -1.4586
   83TCq2    C1 1263   1.016   4.279  11.060 -0.3015 -0.3205 -0.1072
   83TCq2    O2 1264   0.959   4.227  10.964  0.1505 -0.7240  0.0322
   83TCq2    C2 1265   1.025   4.208  11.186 -0.6388 -0.7637  0.7978
   83TCq2    C3 1266   1.111   4.253  11.282 -0.1069 -0.5548 -0.3572
   83TCq2    C4 1267   1.111   4.198  11.406  0.3986  1.0616 -0.3284
   83TCq2    C5 1268   1.017   4.098  11.433  0.3498  0.2459  0.7182
   83TCq2    C6 1269   0.922   4.069  11.342  0.6032  0.1953 -0.1802
   83TCq2    C7 1270   0.918   4.127  11.216 -0.3530 -0.6011  0.8201
   83TCq2    C8 1271   0.829   3.974  11.396  0.2076  0.5077  0.4267
   83TCq2    O4 1272   0.833   3.938  11.514 -0.4087 -0.1910 -0.7691
   83TCq2    C9 1273   1.225   4.227  11.490  0.1446  0.2753 -0.2654
   83TCq2    O5 1274   1.276   4.339  11.469  0.2077 -0.5405 -0.0771
   83TCq2    O6 1275   1.250   4.143  11.585  0.1608 -0.1995 -0.5521
   83TCq2    H2 1276   1.193   4.320  11.257  0.2208 -0.6455  0.4727
   83TCq2    H3 1277   1.016   4.063  11.536  1.8664  0.3334  0.7544
   83TCq2    H4 1278   0.841   4.112  11.142  0.5349 -2.1456  0.2029
   84TCq2    C1 1279   1.668   2.665  10.490 -0.1068  0.4826  0.0856
   84TCq2    O2 1280   1.577   2.592  10.526  0.0354  0.1007 -0.1889
   84TCq2    C2 1281   1.798   2.647  10.549  0.1243 -0.6430  0.3259
   84TCq2    C3 1282   1.903   2.696  10.470 -0.4883 -0.8995 -1.3120
   84TCq2    C4 1283   2.014   2.748  10.523 -0.0669 -0.3366 -0.5176
   84TCq2    C5 1284   2.026   2.744  10.659 -0.1998  0.3127  0.1781
   84TCq2    C6 1285   1.920   2.692  10.731  0.1938 -0.3263 -0.0730
   84TCq2    C7 1286   1.805   2.645  10.680  0.5534 -0.1805  0.6124
   84TCq2    C8 1287   1.933   2.708  10.874  0.4741 -0.6591  0.0286
   84TCq2    O4 1288   2.032   2.765  10.913 -0.3008  0.0333  0.2943
   84TCq2    C9 1289   2.130   2.805  10.456 -0.1167 -0.2182  0.0038
   84TCq2    O5 1290   2.120   2.821  10.333  0.0097  0.0035  0.3719
   84TCq2    O6 1291   2.240   2.820  10.521  0.0914  0.4268 -0.4359
   84TCq2    H2 1292   1.895   2.691  10.362  0.0296 -1.3322 -1.3283
   84TCq2    H3 1293   2.124   2.768  10.699  0.3287 -0.3735 -0.6964
   84TCq2    H4 1294   1.712   2.620  10.730 -0.0485  0.3763 -0.2233
   85MPD2     C 1295   3.598   0.808  16.473 -0.2544 -0.0963 -0.2475
   85MPD2    C1 1296   3.490   0.817  16.392 -0.5271 -0.7078  0.5517
   85MPD2    C2 1297   3.499   0.887  16.274  0.0509 -0.4580  0.5326
   85MPD2    C3 1298   3.619   0.940  16.227  0.0653 -0.1147  0.4396
   85MPD2    C4 1299   3.730   0.929  16.311  0.0548  0.3202 -0.1092
   85MPD2    C5 1300   3.714   0.866  16.433 -0.2744  0.0107  0.7596
   85MPD2     H 1301   3.414   0.892  16.208  0.7441  0.0399 -0.3131
   85MPD2    H1 1302   3.828   0.971  16.292 -0.3633  0.4275 -2.0371
   85MPD2    H2 1303   3.597   0.757  16.569  3.4742 -0.5617 -0.4319
   85MPD2    H3 1304   3.809   0.857  16.485 -0.3286  0.1288  0.8768
   85MPD2     N 1305   3.631   1.003  16.101  0.5241  0.5028 -0.0056
   85MPD2    H5 1306   3.544   1.010  16.049 -1.6188 -2.8304  3.1343
   85MPD2    N1 1307   3.370   0.740  16.411  0.7817  0.1325 -0.7697
   85MPD2    H7 1308   3.314   0.727  16.328 -1.8000 -0.8291  1.1373
   86TCq2    C1 1309   3.747   1.041  16.034  0.5589  0.4972 -0.0097
   86TCq2    O2 1310   3.864   1.022  16.070 -0.7418 -0.4203  0.1496
   86TCq2    C2 1311   3.738   1.135  15.923 -0.0223  0.3139 -0.8522
   86TCq2    C3 1312   3.612   1.174  15.880  0.0200 -0.0559 -0.2172
   86TCq2    C4 1313   3.593   1.290  15.808 -0.4633  0.0062  1.2180
   86TCq2    C5 1314   3.710   1.366  15.774  0.1318  0.2045 -0.0166
   86TCq2    C6 1315   3.830   1.317  15.816  0.8764  0.2904  0.3954
   86TCq2    C7 1316   3.851   1.198  15.889  0.1139  0.8802  0.0771
   86TCq2    C8 1317   3.952   1.390  15.784 -0.2786 -0.0238 -0.2762
   86TCq2    O4 1318   4.050   1.320  15.793 -0.1931 -0.2033  0.1894
   86TCq2    C9 1319   3.457   1.333  15.775  0.0847 -0.4019 -0.1492
   86TCq2    O5 1320   3.361   1.265  15.822 -0.0603  0.0062 -0.0149
   86TCq2    O6 1321   3.445   1.401  15.668  0.1005 -0.3403 -0.8773
   86TCq2    H2 1322   3.523   1.118  15.904  0.9968 -2.1506 -1.4917
   86TCq2    H3 1323   3.696   1.452  15.709 -2.4687  1.1528  1.7857
   86TCq2    H4 1324   3.949   1.168  15.925  0.7984  0.8836 -1.8142
   87MPD2     C 1325   0.491   4.409   0.754 -0.2892  0.4233 -0.1519
   87MPD2    C1 1326   0.515   4.542   0.784 -0.2326 -0.1153  0.7687
   87MPD2    C2 1327   0.449   4.643   0.706 -0.3511 -0.1880  0.3507
   87MPD2    C3 1328   0.357   4.604   0.611 -0.1818  0.4708 -0.1089
   87MPD2    C4 1329   0.326   4.475   0.593 -0.6999 -0.1973 -0.0905
   87MPD2    C5 1330   0.393   4.378   0.667  0.1595  0.3292  0.2923
   87MPD2     H 1331   0.473   0.024   0.719 -0.3841 -0.2808  1.1926
   87MPD2    H1 1332   0.257   4.436   0.519  0.4911  0.0942 -1.3653
   87MPD2    H2 1333   0.547   4.322   0.786  0.4429  1.4218  1.2912
   87MPD2    H3 1334   0.366   4.275   0.649 -0.1352  0.2422  1.2414
   87MPD2     N 1335   0.295   4.681   0.512  0.3951 -0.0640 -0.1370
   87MPD2    H5 1336   0.243   4.626   0.444  0.7990  0.8197 -1.1735
   87MPD2    N1 1337   0.612   4.572   0.886 -0.0633  0.3062  0.5694
   87MPD2    H7 1338   0.650   4.493   0.938 -1.5308 -0.2599  0.7903
   88TCq2    C1 1339   0.643   4.698   0.932  0.3915  0.0271  0.1389
   88TCq2    O2 1340   0.589   0.079   0.904 -0.1848 -0.3757  0.4070
   88TCq2    C2 1341   0.773   4.695   1.012  0.6113 -0.5344 -0.2607
   88TCq2    C3 1342   0.806   0.092   1.070 -0.1534 -0.3467  0.1076
   88TCq2    C4 1343   0.936   0.118   1.114  0.5637 -0.2517  0.7106
   88TCq2    C5 1344   1.030   0.017   1.098  0.2285  0.1909 -0.0103
   88TCq2    C6 1345   0.987   4.617   1.062  0.7825  0.4105 -0.5974
   88TCq2    C7 1346   0.867   4.593   1.009 -0.0660  0.4077 -0.8539
   88TCq2    C8 1347   1.089   4.516   1.035  0.3341 -0.1048  0.3425
   88TCq2    O4 1348   1.070   4.437   0.943  0.5543 -0.0493 -0.1611
   88TCq2    C9 1349   0.971   0.245   1.162  0.1161  0.2134  0.6907
   88TCq2    O5 1350   0.884   0.336   1.179 -0.2647 -0.4438  0.2264
   88TCq2    O6 1351   1.094   0.271   1.175  0.0778  0.1100  0.4359
   88TCq2    H2 1352   0.728   0.166   1.082  0.8734  0.7904 -0.2503
   88TCq2    H3 1353   1.134   0.042   1.115  0.9165 -2.2560 -0.6993
   88TCq2    H4 1354   0.845   4.503   0.952 -1.8462  1.3255 -1.6335
   89MPD2     C 1355   1.822   2.009   2.074  0.4320  0.4365  0.6537
   89MPD2    C1 1356   1.730   2.085   2.150  0.7942 -0.0284 -0.1588
   89MPD2    C2 1357   1.773   2.206   2.196 -0.5325  0.5206  0.2319
   89MPD2    C3 1358   1.901   2.252   2.171  0.3429  0.1562 -1.0763
   89MPD2    C4 1359   1.988   2.179   2.089  0.0641  0.3868 -0.4217
   89MPD2    C5 1360   1.949   2.048   2.048  0.0239  0.0756  0.2132
   89MPD2     H 1361   1.712   2.264   2.265  0.4146  1.7138  0.0708
   89MPD2    H1 1362   2.085   2.222   2.067  0.7417 -0.5307  0.7716
   89MPD2    H2 1363   1.795   1.909   2.041  0.7666  1.0032 -1.3512
   89MPD2    H3 1364   2.020   1.985   1.994  0.6881  1.7332 -0.8656
   89MPD2     N 1365   1.930   2.376   2.223 -0.1138 -0.0785 -0.3688
   89MPD2    H5 1366   1.868   2.419   2.291 -0.2614 -3.3938  1.5533
   89MPD2    N1 1367   1.598   2.057   2.173  0.7386 -0.1100 -0.0182
   89MPD2    H7 1368   1.550   2.135   2.217 -1.1806 -1.0510 -0.4135
   90TCq2    C1 1369   2.028   2.456   2.177 -0.1467  0.5306 -0.3243
   90TCq2    O2 1370   2.098   2.441   2.081 -0.7333 -0.3975  0.6556
   90TCq2    C2 1371   2.035   2.592   2.234 -0.3896  0.2436  0.5352
   90TCq2    C3 1372   1.999   2.608   2.365  0.1225  0.1181 -0.6605
   90TCq2    C4 1373   1.984   2.737   2.407 -0.0411  0.2814  0.1506
   90TCq2    C5 1374   2.010   2.839   2.328 -0.3475  0.1546 -0.9889
   90TCq2    C6 1375   2.058   2.811   2.201 -0.4232  0.5521 -0.5627
   90TCq2    C7 1376   2.076   2.691   2.149  0.3034 -0.0488  0.0923
   90TCq2    C8 1377   2.071   2.928   2.110  1.3369 -0.1846 -0.4577
   90TCq2    O4 1378   2.024   3.029   2.151  0.3893  0.1561  0.6064
   90TCq2    C9 1379   1.948   2.761   2.543 -0.2149 -0.9962  0.0912
   90TCq2    O5 1380   1.948   2.663   2.619 -0.0107  0.0258  0.0362
   90TCq2    O6 1381   1.925   2.877   2.578  0.0795  0.2095  0.1489
   90TCq2    H2 1382   1.966   2.526   2.428  3.1800  0.6657  1.6688
   90TCq2    H3 1383   1.992   2.941   2.361 -0.2719 -0.2304  0.2481
   90TCq2    H4 1384   2.074   2.671   2.042 -0.2589 -1.9007  0.4470
   91TMC2    C1 1385   3.583   2.029  16.832  0.6329 -0.7336 -0.2640
   91TMC2    C2 1386   3.583   2.013  16.969  0.5323 -0.4142  0.5193
   91TMC2    C3 1387   3.585   2.126  17.041 -0.1575  0.0001  0.3826
   91TMC2    C4 1388   3.560   2.152  16.776  0.4209 -0.4084  0.1053
   91TMC2    C5 1389   3.514   2.252  16.862  0.0920 -0.5356  0.1478
   91TMC2    C6 1390   3.546   2.246  16.993 -0.1706  0.1169 -0.3406
   91TMC2     C 1391   3.595   1.906  16.758  0.1721  0.0487 -0.2692
   91TMC2     O 1392   3.569   1.802  16.817 -0.4956 -0.0044 -0.6159
   91TMC2     H 1393   3.623   1.925  17.018  0.8178 -1.0624 -0.8955
   91TMC2    H1 1394   3.549   2.159  16.668 -0.7722  0.2069  0.2717
   91TMC2    H2 1395   3.541   2.331  17.061  0.3468  0.8163 -1.1734
   91TMC2    C7 1396   3.445   2.375  16.823  0.4229 -0.7286  0.0690
   91TMC2    C8 1397   3.623   2.113  17.180 -0.7528  0.3727 -0.1085
   91TMC2    O1 1398   3.433   2.464  16.906  0.1362  0.0451 -0.3489
   91TMC2    O2 1399   3.678   2.011  17.225  0.5030  0.5531  0.0627
   91TMC2    O5 1400   3.520   2.161  17.241  0.3437 -0.3505 -0.3740
   91TMC2    H5 1401   3.466   2.222  17.186  0.9545  0.6288  0.1182
   92MPD2     C 1402   3.711   1.681  16.577  0.2433  0.2975  0.4586
   92MPD2    C1 1403   3.717   1.820  16.553  0.2210 -0.5209  0.0266
   92MPD2    C2 1404   3.794   1.868  16.447  0.8163  0.5690  0.3762
   92MPD2    C3 1405   3.865   1.783  16.364  0.5295  0.1593 -0.4246
   92MPD2    C4 1406   3.867   1.646  16.396  0.0994 -0.2549  0.6930
   92MPD2    C5 1407   3.791   1.598  16.504 -0.6585 -0.2977  0.4569
   92MPD2     H 1408   3.804   1.973  16.424 -1.8543  0.0815 -3.0586
   92MPD2    H1 1409   3.925   1.580  16.331 -0.9403 -0.8206  0.3414
   92MPD2    H2 1410   3.664   1.644  16.668  1.7914  1.4979  1.7356
   92MPD2    H3 1411   3.806   1.497  16.542  0.0594 -0.2439  0.3355
   92MPD2     N 1412   3.941   1.835  16.255 -0.7362  0.0064 -0.7969
   92MPD2    H5 1413   3.940   1.937  16.257  1.4864  0.0284 -0.6856
   92MPD2    N1 1414   3.648   1.918  16.633  0.3678  0.1554  0.5799
   92MPD2    H7 1415   3.662   2.014  16.603  1.6115 -0.5039 -0.8870
   93MPD2     C 1416   0.408   1.571  13.785 -0.1011 -0.2870 -0.2482
   93MPD2    C1 1417   0.360   1.640  13.896 -0.0373 -0.2171  0.3572
   93MPD2    C2 1418   0.232   1.608  13.944 -0.5198  0.2529  0.3827
   93MPD2    C3 1419   0.159   1.509  13.887  0.5483  0.3141 -0.1006
   93MPD2    C4 1420   0.212   1.442  13.779 -0.0262 -0.6600  0.1788
   93MPD2    C5 1421   0.330   1.471  13.731  0.1207 -0.6602  0.0191
   93MPD2     H 1422   0.196   1.654  14.036  0.0687  0.4970  0.4887
   93MPD2    H1 1423   0.156   1.363  13.730  0.1173 -0.0545 -0.9464
   93MPD2    H2 1424   0.505   1.596  13.744  0.2801  0.7192  1.2623
   93MPD2    H3 1425   0.359   1.415  13.642  2.2436  1.2525 -0.4904
   93MPD2     N 1426   0.033   1.467  13.929 -0.1136 -0.5627  0.1477
   93MPD2    H5 1427   4.703   1.415  13.860 -2.6737 -0.4578  2.0444
   93MPD2    N1 1428   0.441   1.741  13.959  0.4130 -0.2837  0.2844
   93MPD2    H7 1429   0.392   1.797  14.028 -0.8733  1.3206 -1.9483
   94TCq2    C1 1430   0.573   1.768  13.931  0.2225 -0.6426  0.3909
   94TCq2    O2 1431   0.649   1.722  13.847  0.3496  0.0231  0.8644
   94TCq2    C2 1432   0.616   1.877  14.018  0.1992 -0.2583  0.5267
   94TCq2    C3 1433   0.535   1.931  14.119 -0.1585  1.3714 -1.8216
   94TCq2    C4 1434   0.571   2.044  14.184  0.6166  0.0574  0.0739
   94TCq2    C5 1435   0.687   2.105  14.154  0.4414  0.1672  0.7655
   94TCq2    C6 1436   0.760   2.058  14.048 -0.8906  0.8862  0.6190
   94TCq2    C7 1437   0.735   1.939  13.992 -0.1606  0.0285  0.0259
   94TCq2    C8 1438   0.898   2.099  14.033  0.7382  0.3399 -0.3530
   94TCq2    O4 1439   0.962   2.044  13.948  0.5330 -0.3731  0.0482
   94TCq2    C9 1440   0.479   2.107  14.272  0.6124  0.5683 -0.3204
   94TCq2    O5 1441   0.511   2.211  14.335 -0.1184  0.9935  0.2842
   94TCq2    O6 1442   0.360   2.073  14.260 -0.1413  0.1984  0.3419
   94TCq2    H2 1443   0.438   1.889  14.139  1.6322 -1.7379  0.4192
   94TCq2    H3 1444   0.697   2.207  14.189  0.2561  1.9600 -4.2824
   94TCq2    H4 1445   0.810   1.901  13.923 -0.0502  1.1892 -0.5096
   95TMC2    C1 1446   0.193   3.830  16.318 -0.1394 -0.1804 -0.1128
   95TMC2    C2 1447   0.226   3.724  16.391  0.1183  0.1315  0.4573
   95TMC2    C3 1448   0.222   3.739  16.527  0.7968  0.1338  0.7907
   95TMC2    C4 1449   0.156   3.952  16.370  0.0514 -0.4770  0.2489
   95TMC2    C5 1450   0.169   3.969  16.506 -0.9352  0.1908  0.6276
   95TMC2    C6 1451   0.194   3.865  16.587 -0.1829 -0.1101 -0.3920
   95TMC2     C 1452   0.245   3.835  16.184 -0.3555  0.1143  0.6598
   95TMC2     O 1453   0.254   3.940  16.119  0.2366  0.7829 -0.4622
   95TMC2     H 1454   0.265   3.632  16.350 -1.6921 -0.8966  1.0420
   95TMC2    H1 1455   0.126   4.038  16.311  0.4411  0.6613  1.6936
   95TMC2    H2 1456   0.227   3.884  16.689  0.4560 -2.7289 -0.1277
   95TMC2    C7 1457   0.161   4.105  16.568 -0.8125 -0.3065 -0.5992
   95TMC2    C8 1458   0.270   3.626  16.608 -0.0571 -0.8281  0.6795
   95TMC2    O1 1459   0.152   4.200  16.490  0.9788 -0.0670  0.2231
   95TMC2    O2 1460   0.319   3.524  16.564  0.0281 -0.6606 -0.1407
   95TMC2    O5 1461   0.312   3.659  16.732 -0.0924 -0.1016 -0.7317
   95TMC2    H5 1462   0.280   3.741  16.775  0.6281  0.3671 -1.0862
   96MPD2     C 1463   0.472   3.608  15.783 -0.7098 -0.0747 -0.6958
   96MPD2    C1 1464   0.475   3.743  15.823 -0.2720 -0.3950 -0.0981
   96MPD2    C2 1465   0.414   3.775  15.942  0.0684  0.1445 -0.5376
   96MPD2    C3 1466   0.349   3.680  16.017  0.4582 -0.6770 -0.4467
   96MPD2    C4 1467   0.347   3.547  15.975  0.2409 -0.8409 -0.3300
   96MPD2    C5 1468   0.412   3.515  15.858 -0.2255 -0.4072 -0.5904
   96MPD2     H 1469   0.419   3.879  15.972  1.1085  0.3982 -1.6322
   96MPD2    H1 1470   0.294   3.463  16.019 -2.6276  0.8755 -0.5234
   96MPD2    H2 1471   0.518   3.578  15.689  2.3520  0.6710  0.5671
   96MPD2    H3 1472   0.402   3.417  15.815  0.2426 -1.0531  0.7826
   96MPD2     N 1473   0.277   3.712  16.136 -0.0670  0.0287  0.3476
   96MPD2    H5 1474   0.242   3.632  16.187 -0.8286  0.4593  0.4914
   96MPD2    N1 1475   0.544   3.833  15.733 -0.0727  0.7078  0.2804
   96MPD2    H7 1476   0.572   3.793  15.645 -4.6916  0.7399 -1.2310
   97MPD2     C 1477   2.084   1.020   1.069 -0.2230 -0.4261  0.1209
   97MPD2    C1 1478   2.164   1.130   1.065 -0.1525  0.5475  0.1775
   97MPD2    C2 1479   2.191   1.191   0.944 -0.4246 -0.3181 -0.2149
   97MPD2    C3 1480   2.144   1.136   0.824  0.3950  0.0154  0.1130
   97MPD2    C4 1481   2.064   1.021   0.832 -0.1847 -1.1618 -0.4702
   97MPD2    C5 1482   2.030   0.973   0.953 -0.7904  0.1269 -0.1136
   97MPD2     H 1483   2.260   1.274   0.938  0.5990 -1.1006  0.5302
   97MPD2    H1 1484   2.039   0.956   0.748  0.4802 -2.1179  0.0712
   97MPD2    H2 1485   2.071   0.970   1.164  1.5971 -2.2591 -0.5962
   97MPD2    H3 1486   1.970   0.883   0.956 -0.5351 -0.0166  0.7185
   97MPD2     N 1487   2.162   1.187   0.690  0.4408 -0.5220 -0.0364
   97MPD2    H5 1488   2.123   1.139   0.610 -2.4117  0.3894  0.8041
   97MPD2    N1 1489   2.213   1.174   1.187  0.0063 -0.2649 -0.2467
   97MPD2    H7 1490   2.187   1.113   1.264 -0.4356 -0.5526 -0.6231
   98TCq2    C1 1491   2.252   1.281   0.665 -0.7278 -0.3785  0.2877
   98TCq2    O2 1492   2.322   1.348   0.744 -0.8650 -0.4848  0.0997
   98TCq2    C2 1493   2.248   1.323   0.526  1.1333  0.4430 -0.0553
   98TCq2    C3 1494   2.134   1.296   0.451 -0.7764 -0.9396  0.3053
   98TCq2    C4 1495   2.143   1.325   0.319 -0.2423  0.5854  0.5616
   98TCq2    C5 1496   2.253   1.387   0.273  0.2463 -0.1026 -0.1848
   98TCq2    C6 1497   2.363   1.408   0.354  0.4080  0.2590  0.3345
   98TCq2    C7 1498   2.364   1.381   0.482  0.1090  0.0210 -0.6263
   98TCq2    C8 1499   2.474   1.483   0.294 -0.2817  0.1265 -0.1313
   98TCq2    O4 1500   2.579   1.483   0.358  0.2760  0.3140  0.0031
   98TCq2    C9 1501   2.043   1.291   0.227  0.3954 -0.5928 -0.1582
   98TCq2    O5 1502   2.071   1.314   0.107 -0.5849  0.0289 -0.0833
   98TCq2    O6 1503   1.932   1.249   0.268 -0.9021  0.3914 -0.3016
   98TCq2    H2 1504   2.052   1.236   0.487 -2.9065  1.7208 -0.0838
   98TCq2    H3 1505   2.248   1.418   0.169 -0.9571 -0.7733 -0.3294
   98TCq2    H4 1506   2.454   1.394   0.541 -0.9635  2.9884  0.3551
   99MPD2     C 1507   1.031   4.056   1.920 -0.0205  0.5406 -0.0029
   99MPD2    C1 1508   1.148   4.022   1.981 -0.1608  0.5852 -0.2234
   99MPD2    C2 1509   1.246   3.962   1.903  0.4827  1.0023  0.9163
   99MPD2    C3 1510   1.223   3.935   1.770 -0.1720 -0.4175  0.2886
   99MPD2    C4 1511   1.104   3.967   1.714 -0.3778  0.0916 -0.3627
   99MPD2    C5 1512   1.012   4.033   1.789 -0.3502 -0.3092  0.5366
   99MPD2     H 1513   1.341   3.935   1.948  1.8181  1.3520 -1.7023
   99MPD2    H1 1514   1.066   3.959   1.613  0.3749  1.6606 -0.7858
   99MPD2    H2 1515   0.950   4.106   1.972  0.2193 -0.0833  0.9693
   99MPD2    H3 1516   0.925   4.069   1.735  0.6867 -1.6027 -1.9831
   99MPD2     N 1517   1.334   3.895   1.705 -0.4711  0.4296  0.0294
   99MPD2    H5 1518   1.422   3.895   1.756 -0.7296  1.2839  0.4629
   99MPD2    N1 1519   1.175   4.048   2.117  0.0222 -0.0451 -0.0304
   99MPD2    H7 1520   1.268   4.028   2.151  0.7419 -0.5861 -2.2785
  100TCq2    C1 1521   1.082   4.068   2.212  0.5746  0.2636  0.2708
  100TCq2    O2 1522   0.961   4.052   2.199 -0.3862 -0.4336 -0.5524
  100TCq2    C2 1523   1.133   4.068   2.349  0.1805 -0.2932  0.1055
  100TCq2    C3 1524   1.263   4.117   2.380  0.0857  0.7131  0.0671
  100TCq2    C4 1525   1.342   4.055   2.477  1.0229  0.8221 -0.0695
  100TCq2    C5 1526   1.287   3.948   2.540  0.8651  0.0881  0.4649
  100TCq2    C6 1527   1.158   3.906   2.520 -0.3260  0.3130  0.2053
  100TCq2    C7 1528   1.079   3.975   2.429  0.9225 -0.2186 -0.7178
  100TCq2    C8 1529   1.128   3.759   2.537 -0.4758 -0.2743 -0.6047
  100TCq2    O4 1530   1.203   3.705   2.619 -0.1207  0.5752 -0.3571
  100TCq2    C9 1531   1.468   4.100   2.514 -0.0921 -0.4898 -0.6228
  100TCq2    O5 1532   1.499   4.215   2.462  0.3638  0.5150 -0.0025
  100TCq2    O6 1533   1.518   4.037   2.610  0.5863  0.1638  0.6485
  100TCq2    H2 1534   1.304   4.194   2.316  0.7459 -0.0702 -0.4529
  100TCq2    H3 1535   1.343   3.902   2.621 -0.0040 -0.6362  0.6539
  100TCq2    H4 1536   0.982   3.935   2.404  0.4385  0.7774 -0.4560
  101MPD2     C 1537   1.899   4.411  13.037  0.4845 -0.0017 -0.0219
  101MPD2    C1 1538   1.841   4.524  13.100 -0.1607 -0.4258 -0.2602
  101MPD2    C2 1539   1.806   4.509  13.236 -0.0056 -0.2443 -0.6462
  101MPD2    C3 1540   1.825   4.386  13.297  0.6517  0.1826  0.5988
  101MPD2    C4 1541   1.890   4.276  13.228 -0.2191 -0.6505  0.6305
  101MPD2    C5 1542   1.916   4.293  13.096 -0.3715 -0.3279 -0.1669
  101MPD2     H 1543   1.784   4.595  13.299 -0.2912 -0.2946 -0.6777
  101MPD2    H1 1544   1.907   4.182  13.280  1.2728  0.3379  1.9541
  101MPD2    H2 1545   1.929   4.408  12.933  2.0577 -0.8224  0.4581
  101MPD2    H3 1546   1.952   4.205  13.043 -1.0522  0.1542 -1.4196
  101MPD2     N 1547   1.794   4.387  13.437 -0.1315 -0.1691 -0.2040
  101MPD2    H5 1548   1.769   4.479  13.471  0.2187  0.5291 -1.8728
  101MPD2    N1 1549   1.820   4.645  13.029 -0.2280 -0.6409  0.3727
  101MPD2    H7 1550   1.862   4.648  12.937 -0.5248 -2.1458  0.1905
  102TCq2    C1 1551   1.906   0.213  12.671 -0.1752 -0.4779  0.4889
  102TCq2    O2 1552   1.990   0.120  12.676  0.5940  0.6681 -0.3630
  102TCq2    C2 1553   1.814   0.228  12.784  0.4901 -0.1285  0.2584
  102TCq2    C3 1554   1.697   0.301  12.776 -0.1195 -0.6076  0.4193
  102TCq2    C4 1555   1.613   0.302  12.891 -0.5747  0.3053 -0.0253
  102TCq2    C5 1556   1.633   0.214  12.998  0.9554 -0.3948  0.1109
  102TCq2    C6 1557   1.744   0.140  12.991 -0.3846  0.8666  0.0215
  102TCq2    C7 1558   1.837   0.143  12.887  0.0121  0.2602 -0.4925
  102TCq2    C8 1559   1.754   0.033  13.084 -0.5280  0.4495  0.1028
  102TCq2    O4 1560   1.669   0.042  13.176  0.4100 -0.0612  0.2353
  102TCq2    C9 1561   1.508   0.399  12.894 -0.1962 -0.5158 -0.7571
  102TCq2    O5 1562   1.461   0.439  12.784 -0.7337  0.1734  0.3855
  102TCq2    O6 1563   1.442   0.418  13.001  0.4039  0.2762 -0.2775
  102TCq2    H2 1564   1.687   0.386  12.710 -0.6107 -0.2915  0.9004
  102TCq2    H3 1565   1.554   0.214  13.072 -0.8665 -0.7958 -1.8415
  102TCq2    H4 1566   1.929   0.086  12.893  0.2221  1.0984  4.1179
  103TMC2    C1 1567   4.491   0.707  12.481 -0.1945  0.5244 -0.1875
  103TMC2    C2 1568   4.551   0.823  12.517  0.0645  1.0964  0.2732
  103TMC2    C3 1569   4.609   0.835  12.638 -0.1236 -0.2785 -0.4777
  103TMC2    C4 1570   4.496   0.596  12.561  0.9576 -0.6430 -0.1989
  103TMC2    C5 1571   4.564   0.611  12.677 -0.2132  0.2054 -0.3724
  103TMC2    C6 1572   4.617   0.727  12.726  0.6412 -0.2845 -1.1059
  103TMC2     C 1573   4.515   0.677  12.339 -1.4620  0.6057  0.6668
  103TMC2     O 1574   4.434   0.597  12.291 -0.0092 -0.2716  0.3394
  103TMC2     H 1575   4.557   0.900  12.441  0.8159  0.2083 -0.5734
  103TMC2    H1 1576   4.472   0.498  12.521 -0.0427 -0.4038 -0.1729
  103TMC2    H2 1577   4.673   0.732  12.819 -1.4072  0.0076  0.1137
  103TMC2    C7 1578   4.586   0.497  12.769 -0.3438 -0.3355 -0.2587
  103TMC2    C8 1579   4.683   0.953  12.668 -0.3648 -0.6539 -0.0280
  103TMC2    O1 1580   4.656   0.521  12.864  0.4412 -0.4762  0.1204
  103TMC2    O2 1581   4.702   1.026  12.571 -0.1503  0.1465  0.2860
  103TMC2    O5 1582   0.054   0.929  12.756 -0.1902 -0.4095 -0.2259
  103TMC2    H5 1583   0.021   0.876  12.832 -1.1569 -1.2081 -1.2080
  104MPD2     C 1584   0.110   0.714  12.164 -0.5488  0.0280 -0.0995
  104MPD2    C1 1585   4.700   0.685  12.172 -0.1583  0.2192 -0.6492
  104MPD2    C2 1586   4.647   0.605  12.078  0.3272 -0.0591 -0.2861
  104MPD2    C3 1587   4.715   0.562  11.965  0.4070 -0.3707 -0.9339
  104MPD2    C4 1588   0.120   0.618  11.951  0.4773  0.4995  0.4898
  104MPD2    C5 1589   0.179   0.687  12.053 -0.6368 -0.2867 -0.0932
  104MPD2     H 1590   4.546   0.569  12.093 -0.4636  1.5692 -1.8600
  104MPD2    H1 1591   0.171   0.618  11.855  1.5211  0.8601  1.0419
  104MPD2    H2 1592   0.156   0.770  12.244  0.3387  0.7961 -1.1446
  104MPD2    H3 1593   0.281   0.724  12.049 -0.0946 -2.0937 -3.0861
  104MPD2     N 1594   4.649   0.477  11.876  0.3612  0.1207 -0.7247
  104MPD2    H5 1595   4.551   0.452  11.883  0.1050  1.0399 -1.0283
  104MPD2    N1 1596   4.643   0.718  12.301  0.0466  0.3142  0.1812
  104MPD2    H7 1597   4.710   0.751  12.370  0.6480  0.0844 -0.2912
  105MPD2     C 1598   2.110   3.873   0.006  0.2295  0.7779 -0.0932
  105MPD2    C1 1599   2.042   3.990  17.678 -0.1955  0.6009 -0.1641
  105MPD2    C2 1600   1.957   4.041   0.079  0.3780  0.8451  0.1135
  105MPD2    C3 1601   1.952   3.982   0.203  0.1581  0.1850  0.5209
  105MPD2    C4 1602   2.037   3.869   0.234  0.1421  0.2085 -0.0683
  105MPD2    C5 1603   2.105   3.808   0.131  0.4582  0.3029 -0.3758
  105MPD2     H 1604   1.891   4.121   0.046 -3.8684 -2.5820  0.2993
  105MPD2    H1 1605   2.036   3.829   0.334  0.7830 -1.2456 -0.6524
  105MPD2    H2 1606   2.184   3.835  17.632 -0.0784  1.7982 -0.9743
  105MPD2    H3 1607   2.171   3.723   0.143  0.6503  0.4269 -0.5652
  105MPD2     N 1608   1.861   4.038   0.296  0.0919 -0.4293 -0.6050
  105MPD2    H5 1609   1.811   4.119   0.261  0.1701 -0.9126 -1.8518
  105MPD2    N1 1610   2.037   4.042  17.546  0.2414  0.5651  0.6848
  105MPD2    H7 1611   1.975   4.121  17.539 -1.4683 -0.8630 -0.3906
  106TCq2    C1 1612   1.823   3.996   0.419 -0.3495 -0.0290 -0.2077
  106TCq2    O2 1613   1.868   3.911   0.486 -0.0601  0.0181  0.1046
  106TCq2    C2 1614   1.708   4.069   0.474  0.3615  0.3755 -0.5028
  106TCq2    C3 1615   1.633   4.133   0.376 -0.7598 -0.1278 -0.4131
  106TCq2    C4 1616   1.548   4.228   0.426  0.9539  0.2543  0.4615
  106TCq2    C5 1617   1.543   4.258   0.559  0.0509  0.6078  0.5135
  106TCq2    C6 1618   1.611   4.185   0.654 -0.2639 -0.1697  0.5520
  106TCq2    C7 1619   1.702   4.091   0.605 -0.2243  0.0082  0.7862
  106TCq2    C8 1620   1.619   4.231   0.788 -1.0591 -0.2811  0.2337
  106TCq2    O4 1621   1.716   4.189   0.854 -0.0709  0.2191 -0.4970
  106TCq2    C9 1622   1.477   4.306   0.333 -0.1056 -0.2382  0.4676
  106TCq2    O5 1623   1.371   4.357   0.373  0.0069  0.2776 -0.0414
  106TCq2    O6 1624   1.531   4.334   0.223  0.7960 -0.0169  0.0152
  106TCq2    H2 1625   1.627   4.105   0.272 -2.0648 -1.4225  0.0160
  106TCq2    H3 1626   1.485   4.348   0.580 -1.4732 -0.0807 -0.7900
  106TCq2    H4 1627   1.767   4.029   0.665 -1.0224  0.9381  2.6260
  107TMC2    C1 1628   1.890   3.274  11.602  0.3841  0.4662 -0.2724
  107TMC2    C2 1629   1.872   3.354  11.490  0.2913  0.0612 -0.7550
  107TMC2    C3 1630   1.883   3.290  11.373 -0.3665  0.1446 -0.1189
  107TMC2    C4 1631   1.925   3.139  11.602 -0.6238  0.1479 -0.7264
  107TMC2    C5 1632   1.937   3.085  11.478 -0.4254 -0.2759  0.2542
  107TMC2    C6 1633   1.923   3.158  11.365  0.0241 -0.0782  0.1096
  107TMC2     C 1634   1.889   3.344  11.727  0.6329  0.1883  0.3821
  107TMC2     O 1635   1.811   3.436  11.742  0.0006  0.0756 -0.4264
  107TMC2     H 1636   1.844   3.459  11.495 -2.1365 -0.7195  1.7768
  107TMC2    H1 1637   1.917   3.087  11.697 -0.4212 -0.8154 -1.2343
  107TMC2    H2 1638   1.946   3.122  11.266  1.1758 -2.3146  1.1775
  107TMC2    C7 1639   1.939   2.940  11.469  0.0160  0.7025 -0.6143
  107TMC2    C8 1640   1.837   3.351  11.250  0.3607  0.0524  0.8731
  107TMC2    O1 1641   1.931   2.875  11.570 -0.1757 -0.3911  0.1797
  107TMC2    O2 1642   1.894   3.321  11.146  0.3651  0.0484  0.8484
  107TMC2    O5 1643   1.777   3.470  11.273  0.3180 -0.3303 -0.1719
  107TMC2    H5 1644   1.732   3.468  11.360 -0.7082  1.0480 -0.6770
  108MPD2     C 1645   2.111   3.239  12.003 -0.0907  0.4324 -0.4308
  108MPD2    C1 1646   1.991   3.292  11.955  0.2448 -0.3772 -0.8325
  108MPD2    C2 1647   1.900   3.359  12.034  0.3153 -1.0336  0.0801
  108MPD2    C3 1648   1.917   3.370  12.168 -0.3615 -0.2083  0.0507
  108MPD2    C4 1649   2.034   3.321  12.221  0.2059 -0.6236  0.0955
  108MPD2    C5 1650   2.122   3.250  12.141  0.2291 -0.2170 -0.0497
  108MPD2     H 1651   1.814   3.406  11.987 -0.4540  0.2051  2.7565
  108MPD2    H1 1652   2.058   3.305  12.325  2.3476 -0.1602 -0.3257
  108MPD2    H2 1653   2.188   3.192  11.943  1.4334  1.3381  0.8154
  108MPD2    H3 1654   2.206   3.209  12.195 -0.6269  0.4394  1.7858
  108MPD2     N 1655   1.812   3.417  12.258 -0.4096 -0.0780  0.3296
  108MPD2    H5 1656   1.847   3.425  12.353 -1.1031  0.5894  0.5346
  108MPD2    N1 1657   1.981   3.291  11.809 -0.1651  0.2215 -0.0150
  108MPD2    H7 1658   2.054   3.237  11.764 -1.1998 -1.2083  0.0361
  109MPD2     C 1659   1.519   0.685   2.257  0.2175 -0.8943 -0.6373
  109MPD2    C1 1660   1.584   0.662   2.138  0.2273  0.5461  0.1186
  109MPD2    C2 1661   1.720   0.645   2.138 -0.3861  0.4950 -0.4414
  109MPD2    C3 1662   1.789   0.655   2.261 -0.5787 -0.0048 -0.6540
  109MPD2    C4 1663   1.722   0.686   2.377  0.0181 -0.3655  0.3068
  109MPD2    C5 1664   1.587   0.696   2.374 -0.3904  0.5985 -0.7999
  109MPD2     H 1665   1.760   0.598   2.048  1.7583  2.2675 -0.4128
  109MPD2    H1 1666   1.764   0.706   2.476  3.1221 -0.4481 -0.9955
  109MPD2    H2 1667   1.410   0.690   2.261  0.1342 -1.9370 -1.3582
  109MPD2    H3 1668   1.542   0.706   2.472  1.6680  1.4607  0.0343
  109MPD2     N 1669   1.929   0.635   2.258  0.1992 -0.2511  0.4569
  109MPD2    H5 1670   1.977   0.636   2.169 -0.7084  0.1887 -0.0243
  109MPD2    N1 1671   1.504   0.647   2.024  0.1684 -0.4368 -0.0476
  109MPD2    H7 1672   1.405   0.659   2.038  0.3423  0.4127  0.4606
  110TCq2    C1 1673   2.012   0.613   2.369  0.3733 -0.6683 -0.4560
  110TCq2    O2 1674   1.979   0.595   2.487 -0.4630  0.3380  0.3904
  110TCq2    C2 1675   2.152   0.636   2.336 -0.5380 -0.1589  0.0334
  110TCq2    C3 1676   2.248   0.554   2.385 -0.0424  0.2315 -0.0574
  110TCq2    C4 1677   2.373   0.559   2.331 -0.2523 -0.1513  0.6706
  110TCq2    C5 1678   2.406   0.640   2.226 -0.3461  1.0239 -0.4786
  110TCq2    C6 1679   2.306   0.717   2.181 -0.1430  0.0263  0.1969
  110TCq2    C7 1680   2.182   0.729   2.235  0.5918 -0.0313 -0.1605
  110TCq2    C8 1681   2.323   0.783   2.056 -0.2967 -0.0547  0.3697
  110TCq2    O4 1682   2.252   0.873   2.024  0.5913 -0.4216 -0.2515
  110TCq2    C9 1683   2.477   0.475   2.382 -0.1685  0.0349 -0.2190
  110TCq2    O5 1684   2.574   0.460   2.304 -0.1328  0.0679 -0.5252
  110TCq2    O6 1685   2.454   0.412   2.489  0.4911 -0.2733 -0.2618
  110TCq2    H2 1686   2.226   0.491   2.470 -0.6378  0.3871 -0.0987
  110TCq2    H3 1687   2.510   0.641   2.193 -0.5858  2.5453 -1.1512
  110TCq2    H4 1688   2.112   0.806   2.203  0.5292  1.2784  3.1083
  111TMC2    C1 1689   2.150   0.565  11.170 -0.0419  0.2192 -1.1130
  111TMC2    C2 1690   2.182   0.529  11.038  0.6014 -0.8195  0.2135
  111TMC2    C3 1691   2.264   0.425  11.012  0.2976 -0.0150  0.2084
  111TMC2    C4 1692   2.190   0.491  11.277 -0.1771 -0.3025 -0.8123
  111TMC2    C5 1693   2.283   0.392  11.252  0.4868  0.5832  0.9549
  111TMC2    C6 1694   2.321   0.365  11.118  0.4252  0.1045  0.6042
  111TMC2     C 1695   2.054   0.673  11.177  0.4318 -0.5826 -0.4779
  111TMC2     O 1696   1.977   0.676  11.081 -0.4643  0.3987  0.9492
  111TMC2     H 1697   2.138   0.589  10.958 -1.0469  0.0441  1.7560
  111TMC2    H1 1698   2.164   0.528  11.376  1.3489 -2.0939  0.2748
  111TMC2    H2 1699   2.396   0.290  11.097 -0.7051 -1.4482  2.1079
  111TMC2    C7 1700   2.353   0.332  11.365  0.1033 -0.0549 -0.6533
  111TMC2    C8 1701   2.321   0.422  10.878  0.7452  0.4048 -0.3807
  111TMC2    O1 1702   2.288   0.310  11.465 -0.0729 -0.3541 -0.1080
  111TMC2    O2 1703   2.342   0.527  10.824  0.0445 -0.0342 -0.1121
  111TMC2    O5 1704   2.373   0.304  10.844  0.1596 -0.6742  0.4464
  111TMC2    H5 1705   2.338   0.233  10.901 -3.6816 -0.3132 -1.4021
  112MPD2     C 1706   1.777   1.048  11.401 -0.3115 -0.0466 -0.0922
  112MPD2    C1 1707   1.798   1.011  11.271  0.1730  0.0881  0.8423
  112MPD2    C2 1708   1.885   0.912  11.228 -0.4008  0.0095  0.4063
  112MPD2    C3 1709   1.968   0.849  11.328 -0.1068 -0.4438  0.3845
  112MPD2    C4 1710   1.962   0.901  11.455 -0.0512  0.3924 -0.0831
  112MPD2    C5 1711   1.869   1.000  11.491  0.7026  0.6605 -0.1633
  112MPD2     H 1712   1.884   0.889  11.122  1.9000 -0.5426  0.5148
  112MPD2    H1 1713   2.023   0.862  11.535  2.1196 -0.8189 -2.3252
  112MPD2    H2 1714   1.706   1.117  11.446 -1.4111 -1.0700 -0.2589
  112MPD2    H3 1715   1.871   1.031  11.595 -1.7948 -1.4317  0.5009
  112MPD2     N 1716   2.057   0.745  11.301  0.2160 -0.4492 -0.0361
  112MPD2    H5 1717   2.105   0.712  11.384  0.4034 -0.1612 -0.0310
  112MPD2    N1 1718   1.716   1.066  11.171 -0.4007  0.3742 -0.1737
  112MPD2    H7 1719   1.734   1.022  11.081  2.4188  3.4504 -1.1102
  113MPD2     C 1720   0.422   3.963   0.991 -0.5041 -0.1446  0.1074
  113MPD2    C1 1721   0.297   4.009   0.968 -0.8062 -0.6366  0.0361
  113MPD2    C2 1722   0.197   3.925   0.922 -0.3367 -0.0584 -0.0870
  113MPD2    C3 1723   0.222   3.788   0.914 -0.0014  0.0150 -0.5316
  113MPD2    C4 1724   0.346   3.742   0.959 -0.5929  0.7862 -0.1309
  113MPD2    C5 1725   0.449   3.826   0.993  0.2365  0.3075  0.0982
  113MPD2     H 1726   0.095   3.959   0.907 -0.6002 -0.8366 -0.0399
  113MPD2    H1 1727   0.371   3.637   0.949 -1.3439  0.5935  0.0753
  113MPD2    H2 1728   0.501   4.034   1.011 -2.5706  1.4209  2.5636
  113MPD2    H3 1729   0.543   3.790   1.033  0.6731 -0.1256 -1.3460
  113MPD2     N 1730   0.131   3.695   0.850  0.6724 -0.4238  0.5915
  113MPD2    H5 1731   0.158   3.597   0.855  3.0045  0.1556 -0.8653
  113MPD2    N1 1732   0.262   4.150   0.977 -0.1122 -0.1206  0.3557
  113MPD2    H7 1733   0.182   4.194   0.933  1.4032  0.3766 -1.8999
  114TCq2    C1 1734   0.020   3.730   0.775 -0.3406  0.7080  0.3183
  114TCq2    O2 1735   4.716   3.842   0.730 -0.5974  0.3009  0.3265
  114TCq2    C2 1736   4.666   3.618   0.724  0.0209 -0.2014 -0.5367
  114TCq2    C3 1737   4.568   3.649   0.633  0.0577 -0.2420  0.5821
  114TCq2    C4 1738   4.497   3.549   0.578  0.2179  0.2070 -0.1883
  114TCq2    C5 1739   4.519   3.413   0.619 -0.1706  0.1511 -0.4988
  114TCq2    C6 1740   4.603   3.389   0.723  0.5771  0.2634  0.0557
  114TCq2    C7 1741   4.674   3.493   0.779  0.9094  0.0740  0.0970
  114TCq2    C8 1742   4.605   3.263   0.785  0.5357  0.3054  0.9423
  114TCq2    O4 1743   4.542   3.168   0.728  0.4645 -0.5262 -0.3074
  114TCq2    C9 1744   4.408   3.577   0.473  0.2744  0.2349  0.3000
  114TCq2    O5 1745   4.373   3.696   0.464 -0.0614  0.9462  0.2589
  114TCq2    O6 1746   4.359   3.486   0.400  0.4641  0.1456  0.2736
  114TCq2    H2 1747   4.551   3.749   0.594 -2.9559 -1.3541 -0.8746
  114TCq2    H3 1748   4.455   3.336   0.579 -3.4804  2.9735 -0.6676
  114TCq2    H4 1749   0.017   3.481   0.864 -1.7329  1.1050  2.3113
  115TMC2    C1 1750   1.660   1.529   0.084 -0.0573  0.3814 -0.7526
  115TMC2    C2 1751   1.705   1.474   0.200 -0.1859  0.5526  0.1002
  115TMC2    C3 1752   1.756   1.561   0.293 -0.6022 -0.5455  0.6729
  115TMC2    C4 1753   1.657   1.661   0.056  0.8698  0.1628 -0.2875
  115TMC2    C5 1754   1.718   1.746   0.146  0.2146 -0.2263  0.8551
  115TMC2    C6 1755   1.751   1.696   0.268  0.2579 -0.3488 -0.0960
  115TMC2     C 1756   1.574   1.433   0.010 -0.1299 -0.1083  0.0193
  115TMC2     O 1757   1.584   1.315   0.033  0.5991 -0.8011 -0.4266
  115TMC2     H 1758   1.685   1.371   0.228 -1.0739  0.1441 -2.0377
  115TMC2    H1 1759   1.632   1.692  17.651 -0.7140 -0.7962 -0.1877
  115TMC2    H2 1760   1.790   1.766   0.340  0.6934  0.9418 -1.5869
  115TMC2    C7 1761   1.721   1.888   0.141  0.4650 -0.3719  0.5706
  115TMC2    C8 1762   1.747   1.513   0.431 -0.2072  0.0441 -0.2197
  115TMC2    O1 1763   1.693   1.948   0.248 -0.0792  0.0410  0.3401
  115TMC2    O2 1764   1.716   1.587   0.524 -0.4043  0.0163 -0.4177
  115TMC2    O5 1765   1.816   1.398   0.440 -0.4938 -0.6893  0.9309
  115TMC2    H5 1766   1.849   1.354   0.359  1.6423  2.0472  0.3191
  116MPD2     C 1767   1.109   1.344  17.517 -0.9135 -0.0539 -0.0852
  116MPD2    C1 1768   1.227   1.271  17.497 -1.1647 -0.5866 -0.2264
  116MPD2    C2 1769   1.348   1.314  17.554  0.6406 -0.2602 -0.2765
  116MPD2    C3 1770   1.344   1.440  17.622  0.4494  0.1429 -0.0621
  116MPD2    C4 1771   1.228   1.511  17.623 -0.2569 -1.0053  0.0321
  116MPD2    C5 1772   1.109   1.469  17.578  0.6748  0.1581 -0.6964
  116MPD2     H 1773   1.437   1.254  17.550  1.6036  1.2445 -1.5032
  116MPD2    H1 1774   1.229   1.613  17.661 -1.7725 -0.7600 -0.5878
  116MPD2    H2 1775   1.014   1.312  17.478 -0.0583 -1.7084 -0.8348
  116MPD2    H3 1776   1.022   1.533  17.582  0.8686  0.5273 -2.4569
  116MPD2     N 1777   1.460   1.495  17.680 -0.3946 -0.1901  0.0070
  116MPD2    H5 1778   1.449   1.591   0.015  0.9415  0.1488 -0.5804
  116MPD2    N1 1779   1.210   1.155  17.420 -0.3587  0.0098  0.2762
  116MPD2    H7 1780   1.124   1.152  17.366 -1.3125 -0.2539  1.8122
  117TMC2    C1 1781   3.994   2.264  13.969 -0.7816  0.1906 -0.1837
  117TMC2    C2 1782   4.041   2.135  13.983 -0.4858  1.0528 -0.4054
  117TMC2    C3 1783   4.180   2.117  13.994 -0.2100 -0.2130  0.3849
  117TMC2    C4 1784   4.080   2.369  13.977  0.4057  0.4614  0.3851
  117TMC2    C5 1785   4.217   2.343  13.985  0.3518  0.7151 -0.3294
  117TMC2    C6 1786   4.271   2.215  13.987  0.1120  0.1872  0.3794
  117TMC2     C 1787   3.848   2.282  13.938  0.9894 -0.1637  0.2918
  117TMC2     O 1788   3.782   2.182  13.909 -0.1165 -0.4197  0.4008
  117TMC2     H 1789   3.973   2.051  13.992 -0.4101  1.2393  1.8685
  117TMC2    H1 1790   4.032   2.467  13.977 -0.8446 -0.1500  4.2614
  117TMC2    H2 1791   4.375   2.192  14.008  0.7607  2.4179 -0.4228
  117TMC2    C7 1792   4.316   2.453  14.012  0.4471 -0.2439 -0.4873
  117TMC2    C8 1793   4.214   1.981  14.015  0.2069  0.2190  0.1250
  117TMC2    O1 1794   4.423   2.440  13.959  0.5964  0.5765  0.1612
  117TMC2    O2 1795   4.138   1.896  14.055  0.5596 -0.2738 -0.1260
  117TMC2    O5 1796   4.343   1.970  13.981 -0.1466  1.4902  0.3902
  117TMC2    H5 1797   4.373   2.045  13.926 -0.5117  0.2577 -1.4988
  118MPD2     C 1798   4.265   2.754  14.227 -1.0160  0.4260 -0.7541
  118MPD2    C1 1799   4.333   2.669  14.144 -0.4162 -0.2027 -0.1480
  118MPD2    C2 1800   4.470   2.684  14.128 -0.0758 -0.1698  0.4237
  118MPD2    C3 1801   4.530   2.800  14.183 -0.4522  0.0004 -0.1738
  118MPD2    C4 1802   4.459   2.886  14.258 -0.0719 -0.1794  0.2297
  118MPD2    C5 1803   4.327   2.864  14.282  0.0847 -0.1203  0.2040
  118MPD2     H 1804   4.528   2.610  14.075 -2.0999  0.4380 -2.6446
  118MPD2    H1 1805   4.511   2.977  14.286 -3.9400  2.1031  0.0319
  118MPD2    H2 1806   4.160   2.743  14.252 -0.5294 -1.6289  0.3739
  118MPD2    H3 1807   4.270   2.939  14.336 -1.3902 -2.5064  1.9778
  118MPD2     N 1808   4.666   2.831  14.171 -0.0445 -0.1038 -0.5326
  118MPD2    H5 1809   4.693   2.926  14.196 -3.1803  0.6183  0.0365
  118MPD2    N1 1810   4.268   2.553  14.099 -0.2102  0.5046  0.8024
  118MPD2    H7 1811   4.170   2.546  14.125 -0.5703  0.9564 -0.4503
  119MPD2     C 1812   3.402   4.323  14.100  0.2431 -0.5012 -0.5635
  119MPD2    C1 1813   3.270   4.371  14.117 -0.9442 -0.2046  0.6263
  119MPD2    C2 1814   3.178   4.356  14.020  0.8234 -0.0459  0.0296
  119MPD2    C3 1815   3.212   4.285  13.907  0.0140  0.7828 -0.5069
  119MPD2    C4 1816   3.343   4.251  13.887 -0.5544 -0.6950  0.6476
  119MPD2    C5 1817   3.434   4.267  13.985  0.3140 -0.1304  0.2393
  119MPD2     H 1818   3.074   4.383  14.035  1.2724  1.4772  0.3982
  119MPD2    H1 1819   3.389   4.195  13.806  0.4624 -1.5927  1.8386
  119MPD2    H2 1820   3.486   4.329  14.169 -0.4324 -1.3819  0.3178
  119MPD2    H3 1821   3.537   4.242  13.962 -0.7164 -2.5434 -1.6221
  119MPD2     N 1822   3.118   4.246  13.808 -0.3397  0.0499 -0.3592
  119MPD2    H5 1823   3.164   4.216  13.722  0.4829  0.5041 -0.0738
  119MPD2    N1 1824   3.239   4.442  14.237 -0.6583 -0.2330 -0.0009
  119MPD2    H7 1825   3.320   4.490  14.277 -0.0201 -1.6177  0.3801
  120TCq2    C1 1826   2.980   4.232  13.826 -0.1092  0.3918 -0.0635
  120TCq2    O2 1827   2.916   4.267  13.924  0.1834 -0.2668  0.1435
  120TCq2    C2 1828   2.909   4.187  13.708 -0.3061  0.0725  0.0158
  120TCq2    C3 1829   2.963   4.086  13.632 -0.3189 -0.5501 -1.0437
  120TCq2    C4 1830   2.877   4.014  13.549  0.4232 -0.5500  0.5472
  120TCq2    C5 1831   2.742   4.032  13.562 -0.7700 -0.3512  0.4129
  120TCq2    C6 1832   2.693   4.125  13.650 -0.3183  0.2587 -0.5556
  120TCq2    C7 1833   2.775   4.200  13.731 -0.1595  0.1224 -0.0901
  120TCq2    C8 1834   2.560   4.098  13.699 -0.6180 -0.2573  0.1154
  120TCq2    O4 1835   2.488   4.017  13.644  0.2801  0.1153  0.3835
  120TCq2    C9 1836   2.922   3.918  13.453  0.5812 -0.3851  0.4237
  120TCq2    O5 1837   2.840   3.832  13.413 -0.7639 -0.2490  0.6862
  120TCq2    O6 1838   3.048   3.906  13.445 -0.6649 -0.2494 -0.0779
  120TCq2    H2 1839   3.069   4.076  13.612 -0.0199  0.5513 -0.0049
  120TCq2    H3 1840   2.671   3.970  13.510  0.2855  1.3548 -3.1172
  120TCq2    H4 1841   2.726   4.282  13.782  2.2741  1.9667 -0.7661
  121TMC2    C1 1842   3.984   0.684  14.304  0.7088  0.3209  0.2507
  121TMC2    C2 1843   3.917   0.740  14.409  0.0024  0.5573 -0.1158
  121TMC2    C3 1844   3.784   0.716  14.426 -0.0549  0.2485 -0.6543
  121TMC2    C4 1845   3.910   0.613  14.211  0.1946  0.2733  0.8645
  121TMC2    C5 1846   3.777   0.590  14.231  0.3406 -0.2784 -0.0930
  121TMC2    C6 1847   3.710   0.639  14.339  0.0295 -0.2656  0.2011
  121TMC2     C 1848   4.121   0.731  14.280  0.0863  0.0436 -0.2112
  121TMC2     O 1849   4.194   0.727  14.377 -0.1422  0.0785  0.3826
  121TMC2     H 1850   3.973   0.805  14.475 -1.2754 -1.0838  2.5743
  121TMC2    H1 1851   3.960   0.571  14.125 -1.5666  1.0520 -0.5285
  121TMC2    H2 1852   3.602   0.641  14.341 -0.0275 -1.6434 -1.4792
  121TMC2    C7 1853   3.722   0.488  14.156 -0.3217 -0.2337  0.4098
  121TMC2    C8 1854   3.715   0.793  14.524 -1.1646  0.3846 -0.5679
  121TMC2    O1 1855   3.770   0.378  14.166  0.2878  0.2056 -0.4769
  121TMC2    O2 1856   3.762   0.881  14.589 -0.5115  0.3665 -0.1621
  121TMC2    O5 1857   3.594   0.740  14.553  0.3345 -0.3377  0.0556
  121TMC2    H5 1858   3.570   0.658  14.504  3.5281 -3.1157  3.1460
  122MPD2     C 1859   4.364   0.858  14.194  0.2933 -0.1161  0.4220
  122MPD2    C1 1860   4.236   0.894  14.140  0.6698  0.2211  0.2155
  122MPD2    C2 1861   4.226   0.986  14.041  0.2752 -0.5534 -0.5728
  122MPD2    C3 1862   4.335   1.051  14.001  0.4706  0.3230  0.4291
  122MPD2    C4 1863   4.454   1.026  14.065 -0.5583 -0.1316 -0.5941
  122MPD2    C5 1864   4.475   0.921  14.148  0.5054 -0.5824 -0.6976
  122MPD2     H 1865   4.129   0.995  13.992  0.5260 -0.5553 -1.0702
  122MPD2    H1 1866   4.548   1.071  14.037 -0.2486  0.5754  1.6011
  122MPD2    H2 1867   4.379   0.775  14.261 -0.7745 -0.3742  0.3389
  122MPD2    H3 1868   4.573   0.895  14.186  0.2893  0.7345  0.7975
  122MPD2     N 1869   4.341   1.136  13.885  0.4002  0.1284  0.4108
  122MPD2    H5 1870   4.440   1.147  13.863 -0.1616  1.5912 -1.4208
  122MPD2    N1 1871   4.123   0.820  14.177  0.2334  0.4019 -0.4782
  122MPD2    H7 1872   4.048   0.815  14.108  1.0387  3.6772 -1.6090
  123MPD2     C 1873   2.065   3.580  11.083  0.2747  0.3741  0.0706
  123MPD2    C1 1874   2.013   3.576  10.957  0.0365  0.0188 -0.0379
  123MPD2    C2 1875   2.097   3.632  10.860  0.7586 -0.1714  0.0520
  123MPD2    C3 1876   2.231   3.673  10.894 -0.0702 -0.7293  0.2312
  123MPD2    C4 1877   2.274   3.669  11.027  0.1527  0.0295 -0.1624
  123MPD2    C5 1878   2.190   3.622  11.119  0.0618 -0.3476 -0.2623
  123MPD2     H 1879   2.072   3.635  10.754  1.9594  0.0795 -0.2170
  123MPD2    H1 1880   2.376   3.690  11.057 -0.3245  2.1751 -0.0486
  123MPD2    H2 1881   1.994   3.555  11.161 -0.9320  2.1073 -0.4532
  123MPD2    H3 1882   2.219   3.615  11.223 -1.6400  1.8392  0.3529
  123MPD2     N 1883   2.314   3.718  10.789 -0.2443  0.4755 -0.4254
  123MPD2    H5 1884   2.274   3.745  10.700  1.8646 -0.8373 -1.7717
  123MPD2    N1 1885   1.894   3.506  10.931  0.0071 -0.2752 -0.0535
  123MPD2    H7 1886   1.845   3.473  11.013 -0.6773 -0.1674 -0.4199
  124TCq2    C1 1887   2.454   3.737  10.813 -0.2398  0.6654  1.0606
  124TCq2    O2 1888   2.519   3.668  10.888 -0.2669  0.5546  0.0127
  124TCq2    C2 1889   2.523   3.809  10.711 -0.1761 -0.1521 -0.1756
  124TCq2    C3 1890   2.661   3.805  10.704  0.2123  0.3549 -0.3300
  124TCq2    C4 1891   2.729   3.858  10.594 -0.1439  0.2430  0.1492
  124TCq2    C5 1892   2.665   3.915  10.487 -0.0905 -0.5218 -0.3221
  124TCq2    C6 1893   2.524   3.912  10.497  0.2441 -0.0323  0.4443
  124TCq2    C7 1894   2.451   3.873  10.607 -0.2505  0.3686  0.5042
  124TCq2    C8 1895   2.454   3.935  10.372  0.2638  0.0192 -0.0858
  124TCq2    O4 1896   2.505   4.008  10.291 -0.4307  0.2533  0.3544
  124TCq2    C9 1897   2.871   3.845  10.582  0.0112  0.3658 -0.9700
  124TCq2    O5 1898   2.921   3.777  10.674  0.0508 -0.2961  0.1479
  124TCq2    O6 1899   2.930   3.934  10.514 -0.3493 -0.2964  0.5261
  124TCq2    H2 1900   2.715   3.765  10.789 -1.7436 -0.3301  0.5978
  124TCq2    H3 1901   2.724   3.929  10.397 -1.3294 -2.1476 -1.3722
  124TCq2    H4 1902   2.346   3.896  10.622 -0.5188 -0.1282 -0.6318
  125TMC2    C1 1903   2.741   4.577   8.751  0.0047  0.5992 -0.4463
  125TMC2    C2 1904   2.749   4.571   8.611  0.0699 -0.2976 -0.4590
  125TMC2    C3 1905   2.871   4.591   8.555  0.4116 -0.0246 -0.0553
  125TMC2    C4 1906   2.849   4.605   8.830 -0.0480 -0.0679 -1.0277
  125TMC2    C5 1907   2.969   4.642   8.763 -0.0296  0.1936  0.4298
  125TMC2    C6 1908   2.980   4.626   8.629  0.5767  0.1902 -0.1875
  125TMC2     C 1909   2.635   4.505   8.809 -0.1295 -0.3204 -0.8168
  125TMC2     O 1910   2.536   4.485   8.744 -0.0602 -0.2908 -0.2100
  125TMC2     H 1911   2.667   4.525   8.556 -1.3238  0.3924  1.0304
  125TMC2    H1 1912   2.845   4.602   8.938  1.0910  0.9121 -0.9489
  125TMC2    H2 1913   3.076   4.645   8.583  0.5155 -1.9769 -1.2226
  125TMC2    C7 1914   3.074   4.686   8.849 -0.3663  0.3794  0.2832
  125TMC2    C8 1915   2.871   4.620   8.411 -0.3520  0.5190 -0.0815
  125TMC2    O1 1916   3.063   4.676   8.968 -0.2059  0.0593 -0.0900
  125TMC2    O2 1917   2.940   4.704   8.352 -0.3767  0.1919  0.1055
  125TMC2    O5 1918   2.792   4.535   8.348  0.3240 -0.0648 -0.6426
  125TMC2    H5 1919   2.760   4.463   8.406 -0.7424 -0.1963 -1.3916
  126MPD1     C 1920   2.433   4.289   9.221  0.1684  0.0415  0.3899
  126MPD1    C1 1921   2.568   4.269   9.230 -0.5605  0.0198  0.2345
  126MPD1    C2 1922   2.643   4.310   9.122  0.5995  0.1498  0.4494
  126MPD1    C3 1923   2.592   4.378   9.014 -0.2699 -0.5330  0.4160
  126MPD1    C4 1924   2.459   4.421   9.022  0.0521  1.6140 -0.1002
  126MPD1    C5 1925   2.375   4.373   9.124 -0.9190 -0.4581 -0.3660
  126MPD1     H 1926   2.749   4.288   9.116  0.4615 -0.9416  2.0615
  126MPD1    H1 1927   2.419   4.481   8.941 -0.8136 -0.3299 -1.1202
  126MPD1    H2 1928   2.371   4.260   9.305 -0.3317  0.1568  0.0652
  126MPD1    H3 1929   2.268   4.391   9.118 -0.3432  3.5268  1.3430
  126MPD1     N 1930   2.683   4.432   8.922  0.0132  0.0419 -0.3171
  126MPD1    H5 1931   2.779   4.398   8.929  0.9579  2.5971 -0.7516
  126MPD1    N1 1932   2.625   4.178   9.321  0.2219 -0.1282 -0.1593
  126MPD1    H6 1933   2.726   4.186   9.332  0.7065 -1.5539 -3.3727
  126MPD1    H7 1934   2.579   4.189   9.411 -0.7111 -1.7238 -0.4437
  127MPD2     C 1935   3.850   4.235   9.306 -0.3165  0.0344  0.4172
  127MPD2    C1 1936   3.894   4.238   9.439  0.1630  0.9105  0.1548
  127MPD2    C2 1937   3.984   4.338   9.476 -0.1159 -0.4185 -0.6174
  127MPD2    C3 1938   4.028   4.438   9.386 -0.1298 -0.5261  0.0489
  127MPD2    C4 1939   3.984   4.425   9.256 -0.8261  0.0860  0.4127
  127MPD2    C5 1940   3.887   4.337   9.223  0.1658 -0.5523 -0.5461
  127MPD2     H 1941   4.035   4.341   9.572 -1.3559  2.4276 -0.0191
  127MPD2    H1 1942   4.020   4.489   9.177  0.5919 -0.9574  0.2069
  127MPD2    H2 1943   3.774   4.167   9.270 -0.1951  1.6201 -2.7954
  127MPD2    H3 1944   3.839   4.342   9.126  1.3763  1.4571 -1.0568
  127MPD2     N 1945   4.110   4.543   9.427 -0.0410  0.6737 -0.0145
  127MPD2    H5 1946   4.153   4.528   9.517 -0.7038 -1.4967 -0.0725
  127MPD2    N1 1947   3.841   4.146   9.535  0.4314  0.1678  0.0834
  127MPD2    H7 1948   3.772   4.083   9.495  0.8896 -0.9655  1.0804
  128TCq2    C1 1949   3.871   4.133   9.669 -0.1048 -0.4110 -0.4768
  128TCq2    O2 1950   3.937   4.206   9.745  0.1234  0.6842 -0.1429
  128TCq2    C2 1951   3.795   4.019   9.730 -0.1652 -0.0393  0.2381
  128TCq2    C3 1952   3.792   4.011   9.863  0.2195 -0.8080 -0.1151
  128TCq2    C4 1953   3.706   3.932   9.920 -0.5778  1.0465  0.3108
  128TCq2    C5 1954   3.621   3.842   9.860 -0.5040  0.7865 -0.3170
  128TCq2    C6 1955   3.623   3.861   9.725 -0.3250  0.2260  0.0756
  128TCq2    C7 1956   3.706   3.948   9.657 -0.2613 -1.1263 -0.0493
  128TCq2    C8 1957   3.564   3.754   9.642  0.1806 -0.5541  0.5445
  128TCq2    O4 1958   3.551   3.793   9.526  0.1901  0.3787  0.2703
  128TCq2    C9 1959   3.700   3.928  10.060 -0.0160  0.3064 -0.1750
  128TCq2    O5 1960   3.754   4.021  10.129 -0.2021  0.7499 -0.8093
  128TCq2    O6 1961   3.632   3.835  10.109  0.1697  0.3939 -0.2932
  128TCq2    H2 1962   3.855   4.069   9.930 -0.4450 -2.0274  1.5683
  128TCq2    H3 1963   3.544   3.790   9.914  0.0431 -0.4085 -0.6925
  128TCq2    H4 1964   3.709   3.961   9.549 -0.5298 -0.4033  0.0296
  129MPD2     C 1965   2.605   0.315   1.248 -0.0745  0.6098 -0.4490
  129MPD2    C1 1966   2.507   0.389   1.318  0.3173 -0.9991 -0.5827
  129MPD2    C2 1967   2.434   0.489   1.259  0.0357  0.2959  0.9932
  129MPD2    C3 1968   2.478   0.534   1.137  0.0795  0.4268 -0.1706
  129MPD2    C4 1969   2.570   0.470   1.068  0.1339  0.3242 -0.3240
  129MPD2    C5 1970   2.631   0.358   1.122  0.3558  0.2479  0.2064
  129MPD2     H 1971   2.354   0.534   1.316 -0.5760  0.3868  0.0781
  129MPD2    H1 1972   2.602   0.493   0.968  0.0467 -2.3819 -0.9780
  129MPD2    H2 1973   2.654   0.227   1.287 -0.7961  0.6916  0.6533
  129MPD2    H3 1974   2.720   0.322   1.072  1.1561  1.6704  0.6050
  129MPD2     N 1975   2.427   0.655   1.089  0.6034 -0.4940  0.1151
  129MPD2    H5 1976   2.374   0.712   1.154 -0.0237 -0.5116 -0.3679
  129MPD2    N1 1977   2.491   0.335   1.448  0.3788 -0.5075  0.4202
  129MPD2    H7 1978   2.558   0.267   1.482  1.4132  0.3887  0.1802
  130TCq2    C1 1979   2.385   0.357   1.525  0.6061 -0.9180  0.5829
  130TCq2    O2 1980   2.279   0.418   1.495 -0.0202 -0.0094  0.1910
  130TCq2    C2 1981   2.395   0.297   1.653 -0.4638  0.2129 -0.9056
  130TCq2    C3 1982   2.472   0.184   1.657 -0.1504  0.5595 -0.2781
  130TCq2    C4 1983   2.442   0.100   1.757 -0.5821 -0.0690  0.1920
  130TCq2    C5 1984   2.354   0.127   1.858  0.4901 -0.0605 -0.4408
  130TCq2    C6 1985   2.272   0.240   1.847  0.7811  0.4210 -0.4941
  130TCq2    C7 1986   2.288   0.320   1.739 -0.0168 -0.6327  0.3801
  130TCq2    C8 1987   2.179   0.280   1.951 -0.1928  0.3472  0.1656
  130TCq2    O4 1988   2.080   0.349   1.913 -0.3727  0.4034 -0.1386
  130TCq2    C9 1989   2.547   0.008   1.797 -0.2065 -0.5155  0.6447
  130TCq2    O5 1990   2.646   0.001   1.719  0.7258  0.2839 -0.3129
  130TCq2    O6 1991   2.554   4.706   1.920  0.2368  0.1577  0.3500
  130TCq2    H2 1992   2.531   0.142   1.577  2.1471 -1.0575  2.2569
  130TCq2    H3 1993   2.348   0.063   1.945  3.4290  2.5809  1.6935
  130TCq2    H4 1994   2.225   0.408   1.731 -1.1783 -1.4607  0.5788
  131MPD2     C 1995   1.374   3.844  10.178  0.1884  0.1507  0.2904
  131MPD2    C1 1996   1.490   3.873  10.250  0.8674 -0.7441 -0.4262
  131MPD2    C2 1997   1.515   3.787  10.353  0.3400  0.0083 -0.7850
  131MPD2    C3 1998   1.439   3.686  10.396  0.8280  0.4508 -0.7781
  131MPD2    C4 1999   1.326   3.663  10.320 -0.2279 -0.4699  0.5086
  131MPD2    C5 2000   1.298   3.737  10.214  0.6095 -0.0997  0.1307
  131MPD2     H 2001   1.593   3.820  10.420 -1.0233  0.0933  0.7649
  131MPD2    H1 2002   1.271   3.570  10.331 -1.8320  0.2794 -1.2695
  131MPD2    H2 2003   1.347   3.904  10.092  2.7611 -0.1357 -0.7268
  131MPD2    H3 2004   1.221   3.706  10.145  1.7161 -1.0468 -0.6874
  131MPD2     N 2005   1.478   3.623  10.514 -0.0771 -1.0855  0.0360
  131MPD2    H5 2006   1.559   3.664  10.559 -1.6930 -1.3147  3.1252
  131MPD2    N1 2007   1.577   3.963  10.184  0.2960  0.1714  0.3565
  131MPD2    H7 2008   1.540   4.011  10.102  0.4870 -0.2656  0.0153
  132TCq2    C1 2009   1.814   4.251   9.825  0.3728  0.6636  0.1770
  132TCq2    O2 2010   1.735   4.180   9.759 -0.1389  0.8351  0.1342
  132TCq2    C2 2011   1.843   4.211   9.965  0.9992 -0.5255  0.4178
  132TCq2    C3 2012   1.960   4.254  10.026 -0.4585  0.0170 -0.3876
  132TCq2    C4 2013   1.974   4.226  10.158  0.1756  0.2014 -0.0129
  132TCq2    C5 2014   1.881   4.152  10.227  0.4566  0.2711  0.0237
  132TCq2    C6 2015   1.775   4.095  10.160  0.8259 -0.3607  0.0114
  132TCq2    C7 2016   1.749   4.133  10.030 -0.2985 -0.3997  0.3302
  132TCq2    C8 2017   1.703   3.991  10.232 -0.3723  0.2187  0.1317
  132TCq2    O4 2018   1.760   3.943  10.328 -0.2364 -0.0406  0.9876
  132TCq2    C9 2019   2.079   4.283  10.241  0.3724  0.1801  0.0825
  132TCq2    O5 2020   2.054   4.300  10.362 -0.2971  0.6761 -0.0190
  132TCq2    O6 2021   2.178   4.341  10.180  0.2983 -0.5664 -0.2381
  132TCq2    H2 2022   2.024   4.334   9.992 -0.3709  0.0215 -0.2141
  132TCq2    H3 2023   1.892   4.126  10.331  1.5550 -0.3344 -0.2484
  132TCq2    H4 2024   1.663   4.111   9.968 -1.1222  2.4193  0.4960
  133MPD2     C 2025   2.644   0.334   9.272  0.9392 -0.7265  0.7188
  133MPD2    C1 2026   2.592   0.296   9.394 -0.5081  0.5297  1.0151
  133MPD2    C2 2027   2.455   0.284   9.410 -0.2872 -0.4193 -0.1057
  133MPD2    C3 2028   2.366   0.312   9.305  1.1585  0.6231 -1.3037
  133MPD2    C4 2029   2.419   0.358   9.184 -0.5359 -0.3246 -0.2763
  133MPD2    C5 2030   2.556   0.359   9.167 -0.6058  0.3431 -0.2564
  133MPD2     H 2031   2.419   0.257   9.509 -1.8715 -0.9502 -0.8338
  133MPD2    H1 2032   2.351   0.386   9.104 -1.0841 -1.3573 -0.1678
  133MPD2    H2 2033   2.746   0.366   9.256  1.0342 -1.1860  0.4003
  133MPD2    H3 2034   2.594   0.406   9.077 -1.3289  0.4549 -0.5026
  133MPD2     N 2035   2.224   0.302   9.317 -0.2539  0.3041  0.9979
  133MPD2    H5 2036   2.177   0.327   9.230  2.4448 -0.6374 -0.7657
  133MPD2    N1 2037   2.680   0.259   9.498  0.7197 -0.4641 -0.7495
  133MPD2    H7 2038   2.778   0.252   9.472  0.3899 -1.0921 -1.8237
  134TCq2    C1 2039   2.653   0.211   9.625 -0.2001  0.3155 -0.0775
  134TCq2    O2 2040   2.547   0.204   9.691  0.3617  0.4849 -0.7022
  134TCq2    C2 2041   2.777   0.188   9.695 -0.6802 -0.5168 -0.2259
  134TCq2    C3 2042   2.874   0.114   9.630 -0.2771  0.2147  0.4020
  134TCq2    C4 2043   2.968   0.067   9.715 -0.5913  0.0208  0.8599
  134TCq2    C5 2044   2.969   0.098   9.850 -0.2020 -0.2696  0.9429
  134TCq2    C6 2045   2.871   0.176   9.911  0.5394  0.3602  0.9814
  134TCq2    C7 2046   2.770   0.216   9.829 -0.0877  0.2244 -0.5481
  134TCq2    C8 2047   2.895   0.220  10.047 -0.4205  0.9030 -0.4379
  134TCq2    O4 2048   2.878   0.340  10.070  0.0711  1.2885 -0.3285
  134TCq2    C9 2049   3.070   4.707   9.662  0.0251 -0.5202  0.1588
  134TCq2    O5 2050   3.150   4.655   9.744 -0.0976 -0.3501  0.4668
  134TCq2    O6 2051   3.077   4.690   9.541 -0.5532  0.4288  0.5364
  134TCq2    H2 2052   2.870   0.082   9.527 -1.5324  1.3457  0.1098
  134TCq2    H3 2053   3.052   0.067   9.913 -1.2975 -0.8026  2.1366
  134TCq2    H4 2054   2.687   0.278   9.862  0.3679  1.4578 -1.7104
  135MPD2     C 2055   3.604   0.986   9.695  0.9841 -0.9812  0.3184
  135MPD2    C1 2056   3.686   0.876   9.683  0.3439  0.3499 -0.7934
  135MPD2    C2 2057   3.820   0.895   9.669 -0.1271 -0.7048  0.1659
  135MPD2    C3 2058   3.874   1.020   9.674 -0.7208 -0.0318  0.6672
  135MPD2    C4 2059   3.789   1.128   9.669  0.6561 -0.1697 -1.1888
  135MPD2    C5 2060   3.657   1.113   9.682  0.5577  0.4832  0.2692
  135MPD2     H 2061   3.883   0.808   9.661  0.4692 -0.2272 -0.3551
  135MPD2    H1 2062   3.827   1.228   9.657  0.1505  0.3939  1.6918
  135MPD2    H2 2063   3.496   0.984   9.701  1.0242 -4.5815 -0.0373
  135MPD2    H3 2064   3.589   1.197   9.678 -0.2923 -0.1948  0.5342
  135MPD2     N 2065   4.006   1.062   9.658  0.4059  0.2693  0.0043
  135MPD2    H5 2066   4.026   1.161   9.647  1.0121  0.4666  2.6405
  135MPD2    N1 2067   3.645   0.744   9.680 -0.2731 -0.2815  0.1392
  135MPD2    H7 2068   3.716   0.677   9.653  1.4752  1.2352  0.9629
  136TCq2    C1 2069   3.511   0.714   9.673 -0.1921 -0.0316  0.1624
  136TCq2    O2 2070   3.413   0.784   9.680 -0.5801  0.2073  0.5685
  136TCq2    C2 2071   3.488   0.566   9.661 -0.4525 -0.5492  0.1487
  136TCq2    C3 2072   3.367   0.536   9.602  0.6361 -0.2168  0.1692
  136TCq2    C4 2073   3.340   0.407   9.587  0.1722  0.4597  0.4372
  136TCq2    C5 2074   3.419   0.311   9.638 -0.1095  0.0551 -0.2348
  136TCq2    C6 2075   3.541   0.349   9.700  0.6370 -0.1896 -0.4221
  136TCq2    C7 2076   3.579   0.477   9.705 -0.8128 -0.1621 -0.7719
  136TCq2    C8 2077   3.617   0.262   9.784  0.1183  0.2613  0.5867
  136TCq2    O4 2078   3.721   0.297   9.834  0.1914  0.5526 -0.1384
  136TCq2    C9 2079   3.230   0.360   9.508 -0.7225 -0.0351 -1.6093
  136TCq2    O5 2080   3.150   0.445   9.477  0.0546  0.4658  0.5016
  136TCq2    O6 2081   3.237   0.246   9.453  0.7777  0.1569  0.1673
  136TCq2    H2 2082   3.291   0.605   9.566  0.5973 -1.2011 -1.6007
  136TCq2    H3 2083   3.396   0.206   9.623 -0.2431 -0.2469  2.0750
  136TCq2    H4 2084   3.665   0.505   9.765  0.6443 -0.7140 -2.6023
  137MPD2     C 2085   3.476   0.713   9.207  0.4451  0.6194 -0.4730
  137MPD2    C1 2086   3.433   0.588   9.160  0.1288 -0.3129  0.0043
  137MPD2    C2 2087   3.501   0.473   9.199 -0.8598 -0.0819  0.1975
  137MPD2    C3 2088   3.606   0.477   9.290 -1.2676  0.6749 -1.0338
  137MPD2    C4 2089   3.640   0.599   9.337 -0.5367  1.0225  0.4061
  137MPD2    C5 2090   3.577   0.713   9.293  0.2702 -0.6018 -0.4115
  137MPD2     H 2091   3.459   0.377   9.171 -0.5605 -0.5214  1.2739
  137MPD2    H1 2092   3.714   0.610   9.416 -0.5094 -2.0513  0.8002
  137MPD2    H2 2093   3.435   0.802   9.161 -1.3593  1.0232  1.9748
  137MPD2    H3 2094   3.604   0.808   9.337  0.2976 -2.3284  3.2815
  137MPD2     N 2095   3.658   0.362   9.327  1.0009 -0.1132  0.2046
  137MPD2    H5 2096   3.613   0.274   9.303 -1.9120  1.0298  1.4951
  137MPD2    N1 2097   3.326   0.586   9.063 -0.7038 -0.0255 -0.2854
  137MPD2    H7 2098   3.281   0.674   9.040  1.8800  1.1439 -0.8114
  138TCq2    C1 2099   3.269   0.475   9.008  0.3197 -0.2249 -0.0210
  138TCq2    O2 2100   3.260   0.359   9.041  0.2048 -0.3809  0.1210
  138TCq2    C2 2101   3.209   0.506   8.884  0.0095  0.0646 -0.3488
  138TCq2    C3 2102   3.254   0.599   8.802 -0.0157 -0.2371 -0.0421
  138TCq2    C4 2103   3.193   0.617   8.681  0.2128 -0.1876  0.1129
  138TCq2    C5 2104   3.079   0.544   8.651  0.3856  0.3589 -0.5000
  138TCq2    C6 2105   3.035   0.442   8.737  0.5049  0.1236 -0.2136
  138TCq2    C7 2106   3.110   0.417   8.851  0.4088  0.0942 -0.2966
  138TCq2    C8 2107   2.909   0.372   8.698  0.0327 -0.6226 -0.0715
  138TCq2    O4 2108   2.870   0.385   8.582  0.5568  0.5864  0.1086
  138TCq2    C9 2109   3.251   0.709   8.591 -0.0121 -0.8486 -0.3015
  138TCq2    O5 2110   3.190   0.735   8.480 -0.3982  0.1271  0.5230
  138TCq2    O6 2111   3.359   0.766   8.628 -0.2408 -0.1497  0.5844
  138TCq2    H2 2112   3.343   0.659   8.818 -0.3226 -0.3553  2.1007
  138TCq2    H3 2113   3.033   0.551   8.554  1.4128 -1.5487 -1.1408
  138TCq2    H4 2114   3.066   0.336   8.909 -0.8678  0.9054 -0.1185
  139TMC2    C1 2115   4.524   3.353  13.699  0.2818  0.6278 -0.0928
  139TMC2    C2 2116   4.654   3.346  13.653 -0.2395  0.3233  0.2721
  139TMC2    C3 2117   0.007   3.455  13.665  0.9764 -0.4721  0.2586
  139TMC2    C4 2118   4.473   3.468  13.746  0.2716  0.2368  0.5016
  139TMC2    C5 2119   4.543   3.586  13.745 -0.3540  0.0669  0.0807
  139TMC2    C6 2120   4.677   3.577  13.707  0.4219 -0.1630 -0.4573
  139TMC2     C 2121   4.454   3.230  13.690 -0.3434 -0.8821  0.7759
  139TMC2     O 2122   4.491   3.152  13.600  0.3640  0.2554 -0.4392
  139TMC2     H 2123   4.703   3.255  13.618  0.6846  1.6451 -1.8971
  139TMC2    H1 2124   4.373   3.465  13.788  0.2689 -0.4571  0.4484
  139TMC2    H2 2125   0.017   3.664  13.695  0.0715  0.0070 -1.0481
  139TMC2    C7 2126   4.465   3.713  13.741 -0.2869 -0.2770  0.5983
  139TMC2    C8 2127   0.128   3.465  13.585  0.2639  0.5291  0.5987
  139TMC2    O1 2128   4.344   3.707  13.747  0.1408 -0.1378  0.5255
  139TMC2    O2 2129   0.136   3.447  13.466 -0.3151 -0.3835 -0.1813
  139TMC2    O5 2130   0.231   3.462  13.674 -0.1188  0.4972 -0.0391
  139TMC2    H5 2131   0.197   3.492  13.760 -1.7881 -1.1168 -0.1592
  140MPD2     C 2132   4.141   3.139  13.856 -0.3361  0.1825  0.5938
  140MPD2    C1 2133   4.244   3.120  13.774  0.3663 -0.0749 -0.3289
  140MPD2    C2 2134   4.268   2.995  13.722 -0.3403 -0.0703 -0.0817
  140MPD2    C3 2135   4.191   2.888  13.760 -0.8423  0.5164 -0.6358
  140MPD2    C4 2136   4.084   2.911  13.845 -0.1117  0.6820  0.6213
  140MPD2    C5 2137   4.056   3.041  13.896 -0.0472 -0.9134 -0.0323
  140MPD2     H 2138   4.347   2.985  13.649  1.1448  2.2391  1.2023
  140MPD2    H1 2139   4.015   2.835  13.880  1.4187 -0.2648  1.5705
  140MPD2    H2 2140   4.120   3.237  13.898  0.8899  0.3676  0.7923
  140MPD2    H3 2141   3.975   3.055  13.967  1.2176  0.9157  1.0577
  140MPD2     N 2142   4.220   2.751  13.704  0.3400  0.0374  0.0824
  140MPD2    H5 2143   4.291   2.749  13.631  1.1477 -0.8834  0.9095
  140MPD2    N1 2144   4.333   3.232  13.752  0.2990 -1.0339  0.1819
  140MPD2    H7 2145   4.313   3.315  13.808 -2.0328 -1.5885  0.1997
  141TCq2    C1 2146   4.609   0.526  14.273 -0.6750 -0.2265  1.1225
  141TCq2    O2 2147   4.674   0.543  14.170  0.4112  0.4420 -0.4543
  141TCq2    C2 2148   4.607   0.630  14.376 -0.0143 -0.9053  0.4166
  141TCq2    C3 2149   4.517   0.621  14.482  0.1819 -0.0402 -0.4399
  141TCq2    C4 2150   4.509   0.724  14.570  0.5359 -0.9684  0.1880
  141TCq2    C5 2151   4.593   0.834  14.559 -0.2638  0.2544  0.6597
  141TCq2    C6 2152   4.673   0.842  14.449  0.6138  0.3520 -0.1438
  141TCq2    C7 2153   4.688   0.739  14.353  0.2522  0.1541 -0.5769
  141TCq2    C8 2154   0.036   0.952  14.425 -0.2997  0.1481 -0.3235
  141TCq2    O4 2155   0.094   0.962  14.315  0.1083 -0.3426  0.1307
  141TCq2    C9 2156   4.430   0.711  14.691  0.2328  0.8467 -0.3664
  141TCq2    O5 2157   4.431   0.807  14.775  0.3173  0.3060  0.0673
  141TCq2    O6 2158   4.379   0.600  14.718 -0.4006 -0.0389 -0.4622
  141TCq2    H2 2159   4.451   0.536  14.495  2.9901 -2.1542  0.3328
  141TCq2    H3 2160   4.580   0.918  14.626  1.0289 -0.0206  1.2533
  141TCq2    H4 2161   0.029   0.756  14.268 -0.4045 -1.0100 -1.3064
  142MPD2     C 2162   1.720   2.969  10.860 -0.7994  0.0592 -0.4204
  142MPD2    C1 2163   1.606   2.956  10.787 -0.0917  0.1409 -0.4543
  142MPD2    C2 2164   1.606   3.038  10.671  0.0533  0.0702 -0.0556
  142MPD2    C3 2165   1.709   3.128  10.634  0.1295  0.0193 -0.2925
  142MPD2    C4 2166   1.819   3.134  10.708 -0.3871 -0.0424  0.7111
  142MPD2    C5 2167   1.822   3.053  10.820 -0.0657 -0.0657  0.0122
  142MPD2     H 2168   1.525   3.027  10.600 -1.2471  2.9219  1.0008
  142MPD2    H1 2169   1.903   3.203  10.709  1.0382 -1.7459 -1.2896
  142MPD2    H2 2170   1.734   2.907  10.947  0.7790 -0.9854 -1.4248
  142MPD2    H3 2171   1.910   3.075  10.880 -0.3939  2.0820 -0.2949
  142MPD2     N 2172   1.710   3.215  10.520 -0.1255 -0.3004  0.5117
  142MPD2    H5 2173   1.796   3.265  10.501 -1.0433  1.6494  1.5487
  142MPD2    N1 2174   1.508   2.861  10.821  0.4327  0.2030 -0.8422
  142MPD2    H7 2175   1.523   2.810  10.907 -0.6369  1.2392 -0.0435
  143TCq2    C1 2176   1.600   3.242  10.445  0.8972 -0.5506 -0.6136
  143TCq2    O2 2177   1.491   3.186  10.443 -0.2185  0.1854  0.5438
  143TCq2    C2 2178   1.626   3.351  10.342 -0.4322  0.2944  0.9603
  143TCq2    C3 2179   1.535   3.360  10.239 -1.0580 -0.3202  0.3800
  143TCq2    C4 2180   1.564   3.462  10.146 -0.3947 -0.4697 -0.3038
  143TCq2    C5 2181   1.674   3.545  10.158  0.0146 -0.4619  0.2123
  143TCq2    C6 2182   1.747   3.538  10.271 -0.0324  0.8880  0.3747
  143TCq2    C7 2183   1.732   3.436  10.356  0.1487 -0.4726  0.4085
  143TCq2    C8 2184   1.866   3.623  10.287  0.0776 -0.3516  0.0416
  143TCq2    O4 2185   1.931   3.611  10.394 -0.2680 -0.1988 -0.6002
  143TCq2    C9 2186   1.487   3.480  10.028 -0.1389 -0.4827  0.5365
  143TCq2    O5 2187   1.390   3.407  10.011  0.1407 -0.2143 -0.4988
  143TCq2    O6 2188   1.534   3.554   9.941 -0.2087 -0.1141  0.1221
  143TCq2    H2 2189   1.457   3.290  10.212  0.0377 -0.5331 -2.1900
  143TCq2    H3 2190   1.686   3.629  10.090 -0.7861 -0.4725  0.0588
  143TCq2    H4 2191   1.804   3.437  10.437  0.0440 -1.5803  0.5079
  144MPD2     C 2192   0.380   2.991   0.959 -0.6905  0.0466  0.7256
  144MPD2    C1 2193   0.379   2.864   0.895  0.3573  0.1590  0.0257
  144MPD2    C2 2194   0.466   2.765   0.942 -0.0392 -0.3668  0.2782
  144MPD2    C3 2195   0.551   2.792   1.051 -0.5878 -0.0649  0.6688
  144MPD2    C4 2196   0.535   2.908   1.117  0.3367  0.3215  0.2145
  144MPD2    C5 2197   0.455   3.014   1.074  0.7866  0.9473  0.1307
  144MPD2     H 2198   0.470   2.667   0.896 -1.7670  1.0466 -2.9136
  144MPD2    H1 2199   0.594   2.934   1.204  0.1503  1.9277 -0.1266
  144MPD2    H2 2200   0.316   3.069   0.919 -0.6888 -0.6154 -0.5731
  144MPD2    H3 2201   0.464   3.115   1.114  0.9018  0.8173  0.4316
  144MPD2     N 2202   0.651   2.706   1.103  0.0237 -0.6611  0.0924
  144MPD2    H5 2203   0.695   2.730   1.191 -2.1487 -0.0940  1.0379
  144MPD2    N1 2204   0.285   2.830   0.792 -0.4759  0.1568 -1.0887
  144MPD2    H7 2205   0.265   2.732   0.773  0.2888 -0.5480  1.8306
  145TCq2    C1 2206   0.672   2.579   1.049 -0.3456  0.4567 -1.3829
  145TCq2    O2 2207   0.645   2.528   0.937  0.0891 -0.2621  0.0462
  145TCq2    C2 2208   0.766   2.504   1.126  0.4062  0.3271  0.3067
  145TCq2    C3 2209   0.833   2.397   1.072  0.4156  0.3407  0.1302
  145TCq2    C4 2210   0.942   2.347   1.131 -0.5129 -0.0469  0.2929
  145TCq2    C5 2211   0.986   2.400   1.250 -1.0251 -0.2744  0.5739
  145TCq2    C6 2212   0.919   2.502   1.314 -0.2900 -0.1219 -0.8592
  145TCq2    C7 2213   0.809   2.554   1.253 -0.5304 -0.5431  0.0480
  145TCq2    C8 2214   0.933   2.528   1.454 -0.1658  0.1781 -0.2088
  145TCq2    O4 2215   1.001   2.440   1.507 -0.8575  0.2921  0.3674
  145TCq2    C9 2216   1.016   2.238   1.068 -0.3909  0.4632  0.2643
  145TCq2    O5 2217   0.966   2.183   0.969  0.4340 -0.5955 -0.0168
  145TCq2    O6 2218   1.131   2.219   1.109  0.6052 -0.2111  0.1212
  145TCq2    H2 2219   0.802   2.351   0.978  0.6648 -3.8804  2.1122
  145TCq2    H3 2220   1.060   2.342   1.304  0.1288  0.5137 -0.1661
  145TCq2    H4 2221   0.745   2.618   1.312  0.3223 -0.3959  0.8047
  146TMC2    C1 2222   1.684   1.017  12.066  0.6240  0.1086  0.1161
  146TMC2    C2 2223   1.621   1.033  11.951 -0.5201 -0.4148  0.2439
  146TMC2    C3 2224   1.668   0.960  11.843  0.4089 -0.8607 -0.1029
  146TMC2    C4 2225   1.806   0.954  12.075 -0.2851 -0.4583 -0.1929
  146TMC2    C5 2226   1.855   0.894  11.965  0.6903 -0.2521 -0.0798
  146TMC2    C6 2227   1.790   0.898  11.844  0.1548 -0.1651  0.2517
  146TMC2     C 2228   1.623   1.060  12.191 -0.5791  0.2711  0.1652
  146TMC2     O 2229   1.569   1.167  12.188 -0.0874 -0.0411 -0.0180
  146TMC2     H 2230   1.518   1.067  11.951  0.2703  2.0207 -0.4161
  146TMC2    H1 2231   1.848   0.956  12.175  0.0470  0.4734 -0.3484
  146TMC2    H2 2232   1.825   0.838  11.760 -0.6078 -0.2862  0.0165
  146TMC2    C7 2233   1.975   0.808  11.963  0.4020 -0.5495 -0.0860
  146TMC2    C8 2234   1.589   0.931  11.727 -0.0753 -0.3525 -0.2382
  146TMC2    O1 2235   2.024   0.790  11.853 -0.8952 -0.0005 -0.6906
  146TMC2    O2 2236   1.591   0.827  11.662 -0.2940  0.0717 -0.1546
  146TMC2    O5 2237   1.522   1.039  11.676  0.2691  0.8865 -0.0776
  146TMC2    H5 2238   1.515   1.121  11.731  1.5384  0.2815  0.9619
  147MPD2     C 2239   2.308   0.501  12.186 -0.1592 -0.0423 -0.2996
  147MPD2    C1 2240   2.219   0.542  12.282 -0.8361 -0.0130  1.0464
  147MPD2    C2 2241   2.120   0.622  12.244 -0.1563  0.7041  0.4092
  147MPD2    C3 2242   2.103   0.657  12.112  0.8052 -0.3474 -0.0977
  147MPD2    C4 2243   2.187   0.606  12.017  0.1621  0.7648 -0.0253
  147MPD2    C5 2244   2.293   0.534  12.057  0.0141  0.1247 -0.6228
  147MPD2     H 2245   2.055   0.665  12.320 -1.3292 -1.6608  0.7545
  147MPD2    H1 2246   2.172   0.630  11.912  0.9305 -1.0678 -0.5460
  147MPD2    H2 2247   2.394   0.437  12.201  2.0393  2.7675 -0.8507
  147MPD2    H3 2248   2.367   0.495  11.989 -0.2585 -2.6234  0.6557
  147MPD2     N 2249   1.995   0.747  12.086  0.3132 -0.5983 -0.1088
  147MPD2    H5 2250   1.933   0.773  12.162  0.2970 -0.9597  0.0001
  147MPD2    N1 2251   2.247   0.513  12.415  0.8260  0.0871  0.0280
  147MPD2    H7 2252   2.330   0.457  12.430  0.2495 -1.2538 -1.7624
  148MPD2     C 2253   2.146   3.723  11.576  0.2616 -0.2980  0.4133
  148MPD2    C1 2254   2.134   3.825  11.483 -0.1368 -0.2034  0.0232
  148MPD2    C2 2255   2.011   3.873  11.456  0.8640 -0.2875  0.4947
  148MPD2    C3 2256   1.892   3.821  11.506 -0.8914 -0.5000  0.1942
  148MPD2    C4 2257   1.905   3.715  11.596  0.2339 -0.7696 -0.5613
  148MPD2    C5 2258   2.031   3.670  11.635 -0.9813  0.3672  0.5169
  148MPD2     H 2259   2.007   3.964  11.397 -0.3102 -0.7249 -0.1148
  148MPD2    H1 2260   1.819   3.665  11.638 -0.0420 -1.4384 -1.9047
  148MPD2    H2 2261   2.244   3.684  11.600 -0.3765 -1.4152  1.2019
  148MPD2    H3 2262   2.045   3.575  11.684  2.2956  2.7338  4.2194
  148MPD2     N 2263   1.769   3.874  11.469 -0.4841 -0.3102  0.5230
  148MPD2    H5 2264   1.693   3.819  11.508  0.0046 -0.3283  1.4561
  148MPD2    N1 2265   2.244   3.883  11.424 -0.2252 -0.1415 -0.6137
  148MPD2    H7 2266   2.227   3.963  11.365 -0.1602 -0.3295 -0.8848
  149TCq2    C1 2267   2.377   3.838  11.441  0.0403 -0.4457  0.3213
  149TCq2    O2 2268   2.425   3.754  11.515  0.1210  0.1373 -0.4631
  149TCq2    C2 2269   2.461   3.889  11.335  0.7968 -0.7289 -0.7410
  149TCq2    C3 2270   2.571   3.815  11.307  0.0323 -0.1723 -0.3359
  149TCq2    C4 2271   2.643   3.841  11.196 -0.6499  0.2024 -0.2119
  149TCq2    C5 2272   2.589   3.921  11.101  0.0609  0.1750  0.1786
  149TCq2    C6 2273   2.477   3.984  11.127  0.0798 -0.3180  0.5215
  149TCq2    C7 2274   2.410   3.977  11.247 -0.1089  0.2900  0.4314
  149TCq2    C8 2275   2.405   4.042  11.021  0.1240  0.0522 -0.0839
  149TCq2    O4 2276   2.288   4.056  11.042  0.1049 -0.3475 -0.1228
  149TCq2    C9 2277   2.741   3.744  11.161 -0.4209  1.1301 -0.8731
  149TCq2    O5 2278   2.748   3.631  11.223 -0.2956 -0.8375 -0.3979
  149TCq2    O6 2279   2.812   3.761  11.055  0.7936 -0.2952 -0.6326
  149TCq2    H2 2280   2.609   3.732  11.365  0.0150  1.1193  1.5280
  149TCq2    H3 2281   2.645   3.931  11.009 -0.8215 -0.8564 -0.4681
  149TCq2    H4 2282   2.319   4.036  11.254 -0.0061  0.6915 -1.3827
  150MPD2     C 2283   3.972   3.620  12.282  0.6999 -0.0729 -0.2082
  150MPD2    C1 2284   3.969   3.703  12.166 -0.1682 -0.0622  0.4624
  150MPD2    C2 2285   4.070   3.798  12.149  0.1479  0.7067  0.0956
  150MPD2    C3 2286   4.179   3.796  12.237  0.2256  1.5473 -0.0859
  150MPD2    C4 2287   4.187   3.692  12.339  0.4661  0.0712 -0.1126
  150MPD2    C5 2288   4.078   3.612  12.363  0.1544 -0.1745  0.3320
  150MPD2     H 2289   4.067   3.868  12.066  1.0483  0.9030  0.2275
  150MPD2    H1 2290   4.273   3.665  12.399  0.3424  0.7056  0.3479
  150MPD2    H2 2291   3.887   3.552  12.290 -0.8179  2.0863  2.0365
  150MPD2    H3 2292   4.072   3.537  12.442 -2.0702 -1.4071 -1.0106
  150MPD2     N 2293   4.279   3.894  12.219 -0.0822 -0.1173 -0.3207
  150MPD2    H5 2294   4.251   3.971  12.159 -0.7204 -0.6215 -0.6725
  150MPD2    N1 2295   3.857   3.688  12.080 -0.2387  0.0327 -0.1082
  150MPD2    H7 2296   3.785   3.639  12.133  0.4819 -1.4413 -0.4822
  151TCq2    C1 2297   4.395   3.896  12.299  0.1892  0.0156 -0.5133
  151TCq2    O2 2298   4.449   3.802  12.364 -0.0647  0.0939 -0.2945
  151TCq2    C2 2299   4.471   4.016  12.276  0.0853 -0.0534  0.2615
  151TCq2    C3 2300   4.404   4.129  12.231  0.0985 -0.2022 -0.0928
  151TCq2    C4 2301   4.470   4.244  12.242 -0.4064 -0.3071  0.1214
  151TCq2    C5 2302   4.602   4.252  12.287 -0.4185 -0.7331 -0.7650
  151TCq2    C6 2303   4.667   4.137  12.316  0.1878 -0.1133 -0.3387
  151TCq2    C7 2304   4.604   4.010  12.316 -0.6591  0.1487  0.1963
  151TCq2    C8 2305   0.086   4.146  12.355 -0.2849  0.0928  0.4303
  151TCq2    O4 2306   0.129   4.262  12.360 -0.0069 -0.0081 -0.1461
  151TCq2    C9 2307   4.402   4.369  12.216  0.3512  0.3631  0.6794
  151TCq2    O5 2308   4.472   4.470  12.225 -0.4219  0.0845  0.9086
  151TCq2    O6 2309   4.297   4.366  12.147  1.1623  0.3461  0.7518
  151TCq2    H2 2310   4.302   4.137  12.194 -0.5737  0.4718  1.9200
  151TCq2    H3 2311   4.649   4.349  12.299 -0.8210 -0.5325 -0.7799
  151TCq2    H4 2312   4.654   3.916  12.339  3.0022  1.8579 -0.6774
  152MPD2     C 2313   3.527   3.308  12.712  0.3039 -0.6635  0.2617
  152MPD2    C1 2314   3.543   3.418  12.641  0.7266  0.6390 -0.0057
  152MPD2    C2 2315   3.431   3.461  12.561  0.1211  0.4015 -0.2812
  152MPD2    C3 2316   3.315   3.386  12.555 -0.5409  0.1930 -0.9404
  152MPD2    C4 2317   3.301   3.273  12.633  0.2671 -0.7096  0.1730
  152MPD2    C5 2318   3.410   3.235  12.708  0.3311  0.3502  0.9354
  152MPD2     H 2319   3.431   3.556  12.508  2.7250  1.0607  0.9342
  152MPD2    H1 2320   3.207   3.221  12.642 -0.7326  0.9333 -0.8882
  152MPD2    H2 2321   3.606   3.280  12.781  0.7614 -3.0846 -1.2195
  152MPD2    H3 2322   3.388   3.146  12.766 -0.2896  1.0030  1.6999
  152MPD2     N 2323   3.205   3.438  12.485  0.7061  1.0409  0.4092
  152MPD2    H5 2324   3.220   3.523  12.431  3.0561  0.7993  0.6924
  152MPD2    N1 2325   3.664   3.486  12.652 -0.0505  0.6356 -0.3731
  152MPD2    H7 2326   3.731   3.440  12.712 -0.4637  0.2394 -0.2158
  153TCq2    C1 2327   3.697   3.614  12.601  0.0518 -0.2298  0.2891
  153TCq2    O2 2328   3.626   3.688  12.538 -0.0036  0.4727  0.3726
  153TCq2    C2 2329   3.829   3.663  12.644  0.5032 -0.6054  0.5159
  153TCq2    C3 2330   3.902   3.592  12.738  0.2541 -0.0668  0.3320
  153TCq2    C4 2331   4.021   3.638  12.770  0.5136 -1.5354 -0.0970
  153TCq2    C5 2332   4.065   3.756  12.716  0.4597 -0.0363  0.8552
  153TCq2    C6 2333   3.994   3.821  12.613  0.2167  0.1795  0.5929
  153TCq2    C7 2334   3.871   3.776  12.586 -0.3242 -0.0351  0.1560
  153TCq2    C8 2335   4.027   3.951  12.567  0.0614  0.0764  0.2653
  153TCq2    O4 2336   3.940   4.020  12.511 -0.1936  0.3463  0.1322
  153TCq2    C9 2337   4.089   3.575  12.883 -0.2424  0.1037 -0.1839
  153TCq2    O5 2338   4.199   3.627  12.920 -0.0849 -0.3759  0.0627
  153TCq2    O6 2339   4.027   3.488  12.947  0.1322 -0.0586  0.1473
  153TCq2    H2 2340   3.864   3.514  12.803 -1.5151  1.3547  1.0097
  153TCq2    H3 2341   4.159   3.797  12.749  1.7857 -1.6951 -0.8827
  153TCq2    H4 2342   3.816   3.804  12.498 -0.8970  0.8082  0.7792
  154MPD2     C 2343   0.169   3.458   0.475 -0.0095  0.3038 -0.0832
  154MPD2    C1 2344   0.232   3.579   0.499 -0.1708 -0.3830  0.2443
  154MPD2    C2 2345   0.183   3.689   0.437  0.1667  0.8937  0.2217
  154MPD2    C3 2346   0.064   3.683   0.360 -0.1985  0.2663  0.0331
  154MPD2    C4 2347   0.009   3.560   0.333  0.4760  0.3555 -0.0001
  154MPD2    C5 2348   0.064   3.450   0.394 -0.4993 -0.1019  0.1350
  154MPD2     H 2349   0.228   3.783   0.465  0.9205  0.7946 -0.6719
  154MPD2    H1 2350   4.645   3.558   0.269  2.0072 -0.3336 -2.0690
  154MPD2    H2 2351   0.207   3.368   0.521  0.2577  0.3440 -0.2237
  154MPD2    H3 2352   0.015   3.355   0.377  0.0064 -0.3985  0.3548
  154MPD2     N 2353   0.011   3.805   0.314  0.4348 -0.6672 -0.0437
  154MPD2    H5 2354   0.046   3.894   0.349 -1.4151 -0.3016  0.8916
  154MPD2    N1 2355   0.347   3.579   0.584 -0.0664  0.2337  0.6677
  154MPD2    H7 2356   0.380   3.491   0.623 -0.4083  0.7273  2.0884
  155TCq2    C1 2357   0.432   3.681   0.614  0.0908  0.0741  0.1920
  155TCq2    O2 2358   0.438   3.793   0.565  0.7463 -0.2445 -0.2796
  155TCq2    C2 2359   0.537   3.644   0.710  0.6835 -0.8170 -0.8269
  155TCq2    C3 2360   0.546   3.522   0.768  0.7140 -0.0106 -0.1821
  155TCq2    C4 2361   0.654   3.492   0.848  0.5696 -0.1065 -0.1268
  155TCq2    C5 2362   0.750   3.583   0.867 -0.0734  0.0875  0.0121
  155TCq2    C6 2363   0.728   3.709   0.817  0.1216  0.8203  0.0766
  155TCq2    C7 2364   0.623   3.741   0.738 -0.1190 -0.2621 -0.2283
  155TCq2    C8 2365   0.825   3.816   0.832  0.1490 -0.5067 -0.4335
  155TCq2    O4 2366   0.813   3.908   0.751  0.7961 -0.3960  0.1506
  155TCq2    C9 2367   0.654   3.362   0.917  0.5004 -0.6125 -0.0114
  155TCq2    O5 2368   0.554   3.285   0.891 -0.1631 -0.1891 -0.3375
  155TCq2    O6 2369   0.761   3.335   0.982 -0.4723 -0.1040  0.3236
  155TCq2    H2 2370   0.468   3.448   0.755  0.7143  0.1695 -1.2273
  155TCq2    H3 2371   0.824   3.560   0.943 -0.2644 -0.5144  0.0131
  155TCq2    H4 2372   0.608   3.838   0.691  0.6099  0.7653  1.6500
  156MPD2     C 2373   3.168   0.875  12.465  0.8706 -1.0211  0.1081
  156MPD2    C1 2374   3.129   0.963  12.366  0.7920 -0.3499  0.3750
  156MPD2    C2 2375   3.189   1.094  12.357 -0.3555 -0.2654 -0.1018
  156MPD2    C3 2376   3.279   1.132  12.450 -0.4590 -0.6518 -0.3315
  156MPD2    C4 2377   3.303   1.052  12.562  0.3114  0.6916  0.2198
  156MPD2    C5 2378   3.254   0.924  12.561 -0.4950  0.1648  0.4343
  156MPD2     H 2379   3.167   1.168  12.281  0.1156 -0.6104 -0.5820
  156MPD2    H1 2380   3.377   1.071  12.639  0.8827  0.7877 -0.3523
  156MPD2    H2 2381   3.124   0.776  12.474 -1.4545  0.4305  4.2234
  156MPD2    H3 2382   3.279   0.858  12.644 -0.0955 -0.1667  0.0570
  156MPD2     N 2383   3.339   1.259  12.418 -0.1522 -0.1162 -0.2064
  156MPD2    H5 2384   3.319   1.289  12.323  0.0917  1.0358  0.1031
  156MPD2    N1 2385   3.051   0.912  12.258 -0.9368 -0.5097 -0.1584
  156MPD2    H7 2386   3.029   0.813  12.256 -0.7515 -0.5390 -0.6517
  157TCq2    C1 2387   2.993   0.991  12.155  0.0999 -0.7282  0.1015
  157TCq2    O2 2388   2.984   1.108  12.139 -0.2144 -0.4788 -0.1986
  157TCq2    C2 2389   2.937   0.913  12.041  0.1846 -0.0772 -0.2533
  157TCq2    C3 2390   2.952   0.776  12.041  0.0731  0.7109 -0.7173
  157TCq2    C4 2391   2.981   0.724  11.911 -0.6203 -0.3236  0.1391
  157TCq2    C5 2392   2.988   0.803  11.803  0.0692  0.4369 -0.1332
  157TCq2    C6 2393   2.963   0.938  11.807  0.2470  0.1755  0.2768
  157TCq2    C7 2394   2.933   0.996  11.931 -0.0419  0.0884  0.1395
  157TCq2    C8 2395   2.993   1.034  11.697  0.0844  0.1761 -0.0648
  157TCq2    O4 2396   3.003   1.154  11.730  1.2673 -0.0737 -0.2612
  157TCq2    C9 2397   3.045   0.597  11.913  0.7203  0.1575  0.0594
  157TCq2    O5 2398   3.040   0.531  12.020  0.2339  0.6403  0.0551
  157TCq2    O6 2399   3.105   0.561  11.805 -0.1958 -0.0147 -0.5157
  157TCq2    H2 2400   2.957   0.710  12.127 -2.5179  0.7522 -0.5151
  157TCq2    H3 2401   3.042   0.779  11.712 -1.8671 -0.7771 -0.9453
  157TCq2    H4 2402   2.923   1.104  11.931 -0.3526  0.0608  0.0968
  158TMC2    C1 2403   4.328   0.518  13.461  0.1513 -0.5618  0.4221
  158TMC2    C2 2404   4.418   0.604  13.396  0.0245 -0.1687  0.5312
  158TMC2    C3 2405   4.427   0.585  13.263  0.6704 -0.2865  0.1606
  158TMC2    C4 2406   4.246   0.421  13.393 -0.5325 -0.7984 -0.8984
  158TMC2    C5 2407   4.271   0.413  13.256 -0.1537 -0.5019 -0.5071
  158TMC2    C6 2408   4.359   0.489  13.190 -0.3296 -1.1005 -0.0718
  158TMC2     C 2409   4.332   0.531  13.611  0.0097 -0.5518  0.3415
  158TMC2     O 2410   4.434   0.588  13.653  0.1289 -0.1102  0.0476
  158TMC2     H 2411   4.474   0.684  13.442  3.0044 -1.8257 -0.2404
  158TMC2    H1 2412   4.176   0.351  13.439 -0.1231 -1.0106 -0.5970
  158TMC2    H2 2413   4.365   0.467  13.084  0.9248  0.0608 -0.2483
  158TMC2    C7 2414   4.168   0.331  13.186 -1.1400  0.1673  1.1249
  158TMC2    C8 2415   4.498   0.683  13.190  0.9799 -0.5458  0.6685
  158TMC2    O1 2416   4.128   0.381  13.081  0.3126 -0.7890  0.5404
  158TMC2    O2 2417   4.594   0.742  13.235 -0.0313  0.3036  0.5957
  158TMC2    O5 2418   4.410   0.723  13.101 -0.4958 -0.0127  0.6275
  158TMC2    H5 2419   4.318   0.694  13.120 -0.8309  1.0961  0.6595
  159MPD2     C 2420   4.182   0.414  14.096  0.4488 -0.3296  0.3872
  159MPD2    C1 2421   4.116   0.333  14.006  0.5156  0.2012  0.3892
  159MPD2    C2 2422   4.132   0.359  13.869  0.4723  0.9682 -0.2605
  159MPD2    C3 2423   4.220   0.454  13.819 -0.3038  1.0138  0.7326
  159MPD2    C4 2424   4.281   0.542  13.913  0.1651 -0.3134 -0.4039
  159MPD2    C5 2425   4.267   0.513  14.049 -0.3664  0.1618 -0.7352
  159MPD2     H 2426   4.081   0.296  13.797 -0.8138  1.1581  0.4815
  159MPD2    H1 2427   4.353   0.617  13.886  0.5332  0.4348  2.6838
  159MPD2    H2 2428   4.164   0.410  14.203  0.6391 -0.4207  0.4168
  159MPD2    H3 2429   4.313   0.575  14.125  0.3958 -0.2686 -0.8539
  159MPD2     N 2430   4.235   0.463  13.673 -0.0361  0.1602 -0.2977
  159MPD2    H5 2431   4.179   0.401  13.616  1.4318  0.0096 -1.5827
  159MPD2    N1 2432   4.026   0.243  14.068  0.7935  0.3036 -0.1789
  159MPD2    H7 2433   4.034   0.230  14.168 -0.8517  0.5015 -0.0088
  160TMC2    C1 2434   4.144   2.971   1.386 -0.1812 -1.5441  0.2706
  160TMC2    C2 2435   4.255   2.910   1.434  0.5378  0.0404 -0.3658
  160TMC2    C3 2436   4.377   2.931   1.367 -0.6395 -0.2988 -0.3470
  160TMC2    C4 2437   4.148   3.068   1.290  0.2820 -0.3548 -0.3466
  160TMC2    C5 2438   4.273   3.104   1.246 -0.4700 -0.9769 -0.6062
  160TMC2    C6 2439   4.384   3.033   1.273 -0.3527 -0.1595  0.0559
  160TMC2     C 2440   4.035   2.889   1.406  0.1154 -0.1051  0.1217
  160TMC2     O 2441   4.051   2.769   1.404 -0.2221 -0.0356  0.1990
  160TMC2     H 2442   4.244   2.832   1.508  3.8559 -0.5378 -0.4635
  160TMC2    H1 2443   4.064   3.115   1.239  0.3645 -1.4812 -1.5181
  160TMC2    H2 2444   4.479   3.053   1.225 -0.3482  0.0391  0.1465
  160TMC2    C7 2445   4.285   3.207   1.149  0.5277 -0.2880 -0.5547
  160TMC2    C8 2446   4.492   2.856   1.421  0.3229 -0.5486  0.8879
  160TMC2    O1 2447   4.189   3.236   1.079  0.2682  0.0353 -1.0052
  160TMC2    O2 2448   4.508   2.831   1.538 -0.1494 -0.1234 -0.0538
  160TMC2    O5 2449   4.554   2.787   1.325  0.5114  0.2440  0.1253
  160TMC2    H5 2450   4.514   2.796   1.236  1.4365  0.1109 -0.3021
  161MPD2     C 2451   3.767   2.768   1.453 -1.0400 -0.6666 -0.7299
  161MPD2    C1 2452   3.791   2.905   1.435 -1.1474  0.3047  0.2097
  161MPD2    C2 2453   3.678   2.987   1.443  0.1645 -0.0503 -0.5773
  161MPD2    C3 2454   3.551   2.930   1.447 -0.0211 -0.8688  0.3422
  161MPD2    C4 2455   3.530   2.794   1.455  0.5064 -0.1577  0.7061
  161MPD2    C5 2456   3.642   2.719   1.469 -0.5549  0.0362 -0.0382
  161MPD2     H 2457   3.679   3.095   1.452 -0.8321 -0.3516  3.2395
  161MPD2    H1 2458   3.432   2.749   1.447  0.5634 -0.2318  0.4066
  161MPD2    H2 2459   3.850   2.698   1.458 -0.8213 -0.4458 -1.2571
  161MPD2    H3 2460   3.644   2.611   1.484  2.3696  0.2548  1.0236
  161MPD2     N 2461   3.437   3.012   1.428 -0.6230  0.0306  0.9557
  161MPD2    H5 2462   3.351   2.959   1.439 -0.2177 -0.9011 -0.2041
  161MPD2    N1 2463   3.917   2.960   1.408 -0.2685 -0.2991 -0.1046
  161MPD2    H7 2464   3.924   3.060   1.394  0.1237 -0.2459  0.4901
  162TMC2    C1 2465   1.606   0.047   1.141 -0.5471 -0.0972  0.1716
  162TMC2    C2 2466   1.537   0.076   1.027 -0.2219 -0.1642  0.0442
  162TMC2    C3 2467   1.418   0.153   1.043 -0.2229 -0.7075  0.3335
  162TMC2    C4 2468   1.559   0.081   1.265 -0.0657  0.5389  0.1913
  162TMC2    C5 2469   1.452   0.168   1.269  0.1275 -0.3024  0.4053
  162TMC2    C6 2470   1.376   0.203   1.163  0.5771 -0.1482  0.1720
  162TMC2     C 2471   1.733   4.704   1.128 -0.3763  0.2920 -0.5633
  162TMC2     O 2472   1.795   4.722   1.021 -0.3244  0.1463  0.1512
  162TMC2     H 2473   1.567   0.045   0.927  1.4721  1.4605  0.0518
  162TMC2    H1 2474   1.617   0.064   1.355  0.5557 -0.1636 -0.3434
  162TMC2    H2 2475   1.311   0.289   1.171 -1.7506 -1.9593  0.5920
  162TMC2    C7 2476   1.407   0.215   1.405  0.2317 -0.8208  0.2292
  162TMC2    C8 2477   1.340   0.185   0.925  0.4475  0.4717 -0.6798
  162TMC2    O1 2478   1.485   0.194   1.498 -0.4492 -0.2823 -0.6881
  162TMC2    O2 2479   1.378   0.147   0.813  0.5515 -0.5245  0.1335
  162TMC2    O5 2480   1.215   0.240   0.946  0.3251  0.4223 -0.1470
  162TMC2    H5 2481   1.181   0.278   1.030 -3.5036 -0.9119 -1.1256
  163MPD2     C 2482   2.137   4.435   1.283 -0.0385 -0.5566 -0.6972
  163MPD2    C1 2483   2.111   4.484   1.165  0.4578 -0.3689 -0.0914
  163MPD2    C2 2484   1.990   4.545   1.147  0.8546  0.1633 -0.4257
  163MPD2    C3 2485   1.894   4.566   1.247 -0.4495 -0.1269 -0.2027
  163MPD2    C4 2486   1.925   4.511   1.371 -0.6987  0.4504 -0.2031
  163MPD2    C5 2487   2.043   4.437   1.384  0.7025  0.0643  0.5799
  163MPD2     H 2488   1.969   4.590   1.051  2.1574 -0.5215 -1.0346
  163MPD2    H1 2489   1.852   4.509   1.452 -0.0303 -0.6588  0.3710
  163MPD2    H2 2490   2.237   4.401   1.306 -0.3546 -0.5231  0.7433
  163MPD2    H3 2491   2.063   4.404   1.486 -1.4200 -3.0287 -0.0160
  163MPD2     N 2492   1.776   4.635   1.238 -0.0614 -0.4793  0.2546
  163MPD2    H5 2493   1.717   4.620   1.319 -1.7194  2.3390 -0.4387
  163MPD2    N1 2494   2.213   4.483   1.072  0.2130 -0.0551 -0.2665
  163MPD2    H7 2495   2.300   4.435   1.095 -2.1668 -3.5220  1.3785
  164TCq2    C1 2496   2.145   4.508  11.444  0.4543  0.2825  0.4380
  164TCq2    O2 2497   2.082   4.509  11.548 -0.0903 -0.0696  0.1897
  164TCq2    C2 2498   2.115   4.602  11.340 -0.1133 -0.3311  0.0423
  164TCq2    C3 2499   2.197   4.613  11.231  0.4287 -0.9299  0.0500
  164TCq2    C4 2500   2.185   4.723  11.149  0.0857 -0.1889  0.0960
  164TCq2    C5 2501   2.089   0.086  11.156  0.6366  0.7370  0.5948
  164TCq2    C6 2502   2.017   0.087  11.276 -0.0083 -0.7787  0.1197
  164TCq2    C7 2503   2.028   4.708  11.373  0.0559  0.2708  0.5001
  164TCq2    C8 2504   1.965   0.220  11.320  0.7847  0.3143 -0.0492
  164TCq2    O4 2505   1.942   0.303  11.231 -0.5709  0.3810 -0.0357
  164TCq2    C9 2506   2.276   0.017  11.039 -0.8301  0.1430  0.1452
  164TCq2    O5 2507   2.375   4.663  11.034  0.4300 -0.6540  0.1592
  164TCq2    O6 2508   2.265   0.116  10.962  0.5901  0.2478  0.3291
  164TCq2    H2 2509   2.273   4.541  11.203 -1.1815 -2.1156 -1.2442
  164TCq2    H3 2510   2.093   0.179  11.102 -0.5736  0.5879  0.2562
  164TCq2    H4 2511   1.972   4.701  11.465  3.9951 -1.5733  2.7643
  165MPD2     C 2512   3.791   1.647   1.649  0.4032 -0.3057  0.3333
  165MPD2    C1 2513   3.690   1.708   1.585 -0.3861  0.0314 -0.3128
  165MPD2    C2 2514   3.672   1.849   1.602  0.0160 -0.3659  0.4833
  165MPD2    C3 2515   3.754   1.924   1.679 -0.2553 -0.8698  0.3816
  165MPD2    C4 2516   3.862   1.856   1.742 -0.1648  0.8401  0.7755
  165MPD2    C5 2517   3.879   1.720   1.718  0.1387  0.5903  0.2001
  165MPD2     H 2518   3.597   1.904   1.545 -0.0052 -0.4341  0.4448
  165MPD2    H1 2519   3.927   1.906   1.813  1.7193  1.8685 -1.7215
  165MPD2    H2 2520   3.802   1.539   1.652  1.1755 -0.2470 -0.5392
  165MPD2    H3 2521   3.955   1.658   1.764 -0.4857 -1.6590 -1.8194
  165MPD2     N 2522   3.734   2.061   1.692 -0.1992 -0.0592 -0.2594
  165MPD2    H5 2523   3.658   2.105   1.640  0.1455 -0.2062 -0.8743
  165MPD2    N1 2524   3.601   1.626   1.510  0.0100 -0.0725  0.2823
  165MPD2    H7 2525   3.623   1.527   1.499 -1.0185 -0.2168 -0.4323
  166TCq2    C1 2526   3.816   2.148   1.762 -0.3406  0.1093  0.5162
  166TCq2    O2 2527   3.921   2.131   1.814  0.1675  0.6938 -0.5222
  166TCq2    C2 2528   3.764   2.286   1.757  0.8589  0.2768  0.5430
  166TCq2    C3 2529   3.633   2.310   1.742 -0.5606 -0.0953 -0.1380
  166TCq2    C4 2530   3.589   2.441   1.763  0.5784 -0.2570  0.7225
  166TCq2    C5 2531   3.680   2.544   1.782  0.1552  0.0306  0.2478
  166TCq2    C6 2532   3.812   2.512   1.799 -0.2075  1.3217 -0.6732
  166TCq2    C7 2533   3.856   2.385   1.788 -0.1083 -0.5527 -0.3516
  166TCq2    C8 2534   3.909   2.620   1.826 -0.2798  0.3330  0.1307
  166TCq2    O4 2535   4.027   2.595   1.813  0.0548  0.3380  0.1685
  166TCq2    C9 2536   3.453   2.483   1.729 -0.1819  0.7406 -0.1916
  166TCq2    O5 2537   3.410   2.597   1.766  0.3551 -0.2834  0.0290
  166TCq2    O6 2538   3.378   2.398   1.671  0.8628  0.5178 -0.2070
  166TCq2    H2 2539   3.561   2.229   1.752  0.1434 -0.5743  1.1184
  166TCq2    H3 2540   3.638   2.643   1.762 -1.8700 -1.7090 -4.0971
  166TCq2    H4 2541   3.960   2.357   1.805  0.4130  1.4360 -0.2241
  167TMC2    C1 2542   1.456   0.167  12.261  0.4771  0.3507 -0.8931
  167TMC2    C2 2543   1.374   0.270  12.306  0.4802  0.1022 -0.4227
  167TMC2    C3 2544   1.379   0.296  12.442 -0.2377  0.4154  0.1243
  167TMC2    C4 2545   1.531   0.088  12.349  1.2580  0.9707  0.3796
  167TMC2    C5 2546   1.523   0.118  12.483  0.7984 -0.4555 -0.2731
  167TMC2    C6 2547   1.448   0.227  12.531 -1.4426 -0.5473 -0.0501
  167TMC2     C 2548   1.418   0.105  12.133  0.1057 -0.2710  0.1845
  167TMC2     O 2549   1.299   0.126  12.109  0.0807 -0.4903  0.7166
  167TMC2     H 2550   1.314   0.322  12.232 -2.6403 -2.7570  0.0989
  167TMC2    H1 2551   1.590   0.004  12.315 -0.7946 -0.5091  0.4343
  167TMC2    H2 2552   1.429   0.241  12.637 -0.5541  0.3223  0.0027
  167TMC2    C7 2553   1.556   0.015  12.580  0.6449 -0.4859 -0.1464
  167TMC2    C8 2554   1.300   0.412  12.492 -0.3190 -0.0185 -0.2966
  167TMC2    O1 2555   1.500   0.033  12.690 -0.3887  0.5406  0.1029
  167TMC2    O2 2556   1.226   0.466  12.409 -0.1674  0.0666  0.2048
  167TMC2    O5 2557   1.374   0.493  12.569 -0.0576  0.3374 -0.1732
  167TMC2    H5 2558   1.416   0.461  12.651  2.9106  0.2771 -1.7157
  168MPD2     C 2559   1.380   4.616  11.917  0.4448 -0.3255  0.4852
  168MPD2    C1 2560   1.469   4.616  12.021 -0.1463  0.7590 -0.7100
  168MPD2    C2 2561   1.544   4.504  12.043 -0.1483  0.3056 -0.1291
  168MPD2    C3 2562   1.529   4.386  11.971  0.0218  0.2732 -0.3194
  168MPD2    C4 2563   1.434   4.386  11.867  0.9390 -0.1233 -1.2626
  168MPD2    C5 2564   1.364   4.503  11.845  0.1509  0.6584 -0.0392
  168MPD2     H 2565   1.624   4.508  12.116 -1.1484  0.6024  0.9421
  168MPD2    H1 2566   1.414   4.300  11.805 -1.8402 -0.5218  0.1857
  168MPD2    H2 2567   1.308   4.696  11.903 -1.1507 -1.4097  2.3406
  168MPD2    H3 2568   1.285   4.502  11.771 -0.1388  0.7603  0.2662
  168MPD2     N 2569   1.607   4.268  12.000  0.6861 -0.2567 -0.8300
  168MPD2    H5 2570   1.590   4.188  11.939  0.4917  0.1233 -1.2758
  168MPD2    N1 2571   1.507   0.010  12.095 -0.1996  0.2275  0.1419
  168MPD2    H7 2572   1.586   4.714  12.157  2.1365  2.8582 -2.0360
  169MPD1     C 2573   4.191   2.804   8.805  0.0355 -0.6310 -0.6692
  169MPD1    C1 2574   4.227   2.793   8.937  0.0836 -0.1306 -0.2231
  169MPD1    C2 2575   4.209   2.905   9.011 -0.4877  0.0191 -0.7402
  169MPD1    C3 2576   4.180   3.025   8.954  0.2321  0.2427 -0.5296
  169MPD1    C4 2577   4.147   3.039   8.818  0.2274  0.1982  0.0310
  169MPD1    C5 2578   4.167   2.926   8.744  0.5186 -0.4118 -0.6833
  169MPD1     H 2579   4.242   2.903   9.114 -2.6560 -0.1777 -0.0525
  169MPD1    H1 2580   4.123   3.137   8.780 -1.4819  0.2704  1.3263
  169MPD1    H2 2581   4.201   2.720   8.738  1.0436 -0.4484 -0.7445
  169MPD1    H3 2582   4.156   2.923   8.636  1.4568  0.8860 -0.8096
  169MPD1     N 2583   4.174   3.138   9.038 -0.0180 -0.4686 -0.4740
  169MPD1    H5 2584   4.189   3.115   9.136 -4.0538 -1.5030 -0.0676
  169MPD1    N1 2585   4.258   2.664   8.991 -0.4457  0.5064 -0.1094
  169MPD1    H6 2586   4.333   2.672   9.060 -1.3720  0.0986  0.9630
  169MPD1    H7 2587   4.275   2.598   8.916 -0.4485  0.2725  0.0934
  170MPD1     C 2588   2.218   1.497  13.031  0.3566 -0.2194  0.3473
  170MPD1    C1 2589   2.208   1.484  13.169 -0.0508  0.8818  0.2155
  170MPD1    C2 2590   2.261   1.589  13.249 -1.0895  0.3141  0.2360
  170MPD1    C3 2591   2.335   1.687  13.195 -0.2897 -0.0669  0.0789
  170MPD1    C4 2592   2.338   1.701  13.059  0.2402 -0.4220 -0.3204
  170MPD1    C5 2593   2.281   1.602  12.981 -0.5372 -0.2799  0.4953
  170MPD1     H 2594   2.266   1.575  13.357 -1.6510 -1.2565  0.0671
  170MPD1    H1 2595   2.390   1.783  13.011 -1.7794 -0.5670 -2.7213
  170MPD1    H2 2596   2.171   1.427  12.963  2.7698 -1.7426  0.2133
  170MPD1    H3 2597   2.297   1.599  12.874 -0.4036 -0.6449  0.5269
  170MPD1     N 2598   2.388   1.782  13.286  0.4047  0.4027  0.4979
  170MPD1    H5 2599   2.375   1.761  13.384 -2.3634 -1.1773 -0.1957
  170MPD1    N1 2600   2.115   1.391  13.228 -0.4019  0.5665 -0.0098
  170MPD1    H6 2601   2.141   1.367  13.323 -0.8298 -2.4303 -0.6489
  170MPD1    H7 2602   2.097   1.311  13.168  2.9557  1.1215 -1.7475
  171MPD1     C 2603   1.429   1.765  15.903  0.2073  1.1966  0.2048
  171MPD1    C1 2604   1.436   1.808  16.037  0.5566 -1.1375 -0.3330
  171MPD1    C2 2605   1.543   1.876  16.082  0.6031  0.7275  0.4843
  171MPD1    C3 2606   1.626   1.941  15.992 -0.0704 -0.2028  0.4491
  171MPD1    C4 2607   1.620   1.906  15.861 -0.4661 -0.1835  0.3421
  171MPD1    C5 2608   1.519   1.817  15.816 -0.9151 -0.2794 -0.6138
  171MPD1     H 2609   1.539   1.904  16.187 -1.6822  1.8127  0.1200
  171MPD1    H1 2610   1.680   1.936  15.777 -1.9295  0.2458 -0.5531
  171MPD1    H2 2611   1.364   1.688  15.863  0.5198  1.4553 -0.7924
  171MPD1    H3 2612   1.508   1.788  15.712  1.4391 -0.1470 -0.8907
  171MPD1     N 2613   1.717   2.042  16.025 -0.5600  0.4971 -1.1481
  171MPD1    H5 2614   1.771   2.085  15.951 -0.2020 -0.0078 -1.1816
  171MPD1    N1 2615   1.365   1.735  16.137 -0.2851  0.0056  0.5055
  171MPD1    H6 2616   1.273   1.717  16.097  0.2900  0.8918 -1.2069
  171MPD1    H7 2617   1.354   1.778  16.229  2.8875 -0.8542  1.2783
  172MPD1     C 2618   0.333   2.332   0.429 -0.1752  0.2593  0.4917
  172MPD1    C1 2619   0.341   2.446   0.348  0.1235  0.4883 -0.2262
  172MPD1    C2 2620   0.422   2.537   0.404 -0.3923 -0.1854 -0.4462
  172MPD1    C3 2621   0.478   2.531   0.537  0.0037  0.4180 -0.3435
  172MPD1    C4 2622   0.439   2.426   0.620 -0.7083 -0.2437  0.7264
  172MPD1    C5 2623   0.368   2.325   0.562  0.4419 -1.1300 -0.2732
  172MPD1     H 2624   0.449   2.628   0.351  0.7835  0.2328  0.8447
  172MPD1    H1 2625   0.467   2.424   0.724  1.4473  3.4236  0.1881
  172MPD1    H2 2626   0.282   2.246   0.388 -2.2513  0.1300  3.3163
  172MPD1    H3 2627   0.357   2.233   0.618 -0.5803 -1.6115 -1.2840
  172MPD1     N 2628   0.557   2.630   0.595  0.2148  0.3836  0.3586
  172MPD1    H5 2629   0.599   2.604   0.684  0.7438  0.5789  0.1658
  172MPD1    N1 2630   0.317   2.424   0.212 -0.4544  0.0679  0.3431
  172MPD1    H6 2631   0.240   2.359   0.194 -0.0892  0.1159 -1.4420
  172MPD1    H7 2632   0.293   2.512   0.167  0.8334  1.0320  1.5557
  173MPD1     C 2633   2.084   2.731  13.926  0.6622  0.1919  0.1187
  173MPD1    C1 2634   2.004   2.691  14.028  0.3186  0.0632  0.5075
  173MPD1    C2 2635   2.029   2.566  14.085 -0.0031  0.0427 -0.4212
  173MPD1    C3 2636   2.107   2.478  14.024 -0.4377  0.0519 -0.0137
  173MPD1    C4 2637   2.178   2.515  13.916  0.3138 -0.4433  0.4266
  173MPD1    C5 2638   2.168   2.640  13.862  0.1780  0.9878 -0.1976
  173MPD1     H 2639   1.975   2.539  14.175 -0.7437  1.2942 -0.4846
  173MPD1    H1 2640   2.244   2.449  13.860  0.7211  0.9816 -0.7517
  173MPD1    H2 2641   2.062   2.828  13.883 -1.8582 -0.4780 -0.1057
  173MPD1    H3 2642   2.220   2.658  13.769 -3.0770  1.6718 -1.8916
  173MPD1     N 2643   2.116   2.349  14.078 -0.0612  0.0342 -0.4706
  173MPD1    H5 2644   2.053   2.334  14.156  0.6559 -1.1611 -0.1146
  173MPD1    N1 2645   1.932   2.785  14.108  0.5951  0.6225 -0.1015
  173MPD1    H6 2646   1.892   2.850  14.040  0.2342 -1.2141 -1.6369
  173MPD1    H7 2647   1.851   2.744  14.153  0.3832  1.2222  0.0561
  174MPD1     C 2648   2.889   1.778  14.344 -0.6773  0.0420 -0.2137
  174MPD1    C1 2649   2.794   1.763  14.445 -0.2217 -0.3159 -0.0120
  174MPD1    C2 2650   2.668   1.810  14.411  0.6377 -0.4766  0.2819
  174MPD1    C3 2651   2.643   1.882  14.294 -0.0614  0.0527 -0.3383
  174MPD1    C4 2652   2.740   1.894  14.200 -0.7560 -0.5259 -0.2264
  174MPD1    C5 2653   2.862   1.839  14.224 -0.2793 -0.3608 -0.5278
  174MPD1     H 2654   2.582   1.784  14.472  0.2348  0.7970  0.2463
  174MPD1    H1 2655   2.720   1.944  14.106  1.2359 -0.7447 -0.7788
  174MPD1    H2 2656   2.976   1.716  14.358  0.0871  0.7519 -1.8724
  174MPD1    H3 2657   2.934   1.842  14.144  1.3970  1.0437  1.0397
  174MPD1     N 2658   2.522   1.938  14.263 -0.1135 -0.7026  0.4358
  174MPD1    H5 2659   2.509   1.978  14.171  0.8457 -1.5618 -0.0786
  174MPD1    N1 2660   2.829   1.688  14.557  0.5245 -0.1268 -0.7309
  174MPD1    H6 2661   2.925   1.700  14.587  0.0684  1.2745  0.1158
  174MPD1    H7 2662   2.772   1.715  14.637 -0.1110 -1.1693 -0.8156
  175MPD1     C 2663   0.062   2.565  16.592  0.1122  0.0876 -0.2066
  175MPD1    C1 2664   0.047   2.681  16.522  0.3989 -0.3880 -0.3850
  175MPD1    C2 2665   0.053   2.799  16.588 -0.2441 -0.3004 -0.0409
  175MPD1    C3 2666   0.099   2.808  16.717  0.6122  0.9616  0.2844
  175MPD1    C4 2667   0.134   2.689  16.781  0.2872  0.2696  0.0539
  175MPD1    C5 2668   0.117   2.575  16.717  0.4484  0.6941 -0.1391
  175MPD1     H 2669   0.017   2.890  16.541 -0.1291  0.8304  2.0334
  175MPD1    H1 2670   0.153   2.690  16.888 -4.6426 -0.5462  0.9561
  175MPD1    H2 2671   0.063   2.467  16.544 -0.2776  0.3247 -0.6914
  175MPD1    H3 2672   0.156   2.493  16.775  1.9031  0.1171 -1.9299
  175MPD1     N 2673   0.112   2.934  16.781 -0.2444  0.1348 -0.4022
  175MPD1    H5 2674   0.149   2.945  16.875  0.3851 -1.6518 -0.4413
  175MPD1    N1 2675   0.015   2.679  16.385 -0.1795 -0.0867 -0.5201
  175MPD1    H6 2676   0.007   2.590  16.336 -0.5450 -0.7228  0.7081
  175MPD1    H7 2677   0.067   2.749  16.332  0.7676  0.4620  1.1338
  176MPD1     C 2678   3.230   1.246  17.526  0.5910  0.2090  0.6508
  176MPD1    C1 2679   3.141   1.325  17.456  0.6926 -0.0797  0.4563
  176MPD1    C2 2680   3.026   1.266  17.415  0.5813  0.0103  0.1630
  176MPD1    C3 2681   2.984   1.144  17.463  0.0637  0.2162 -0.1022
  176MPD1    C4 2682   3.056   1.079  17.558  0.3917  0.6168 -0.2766
  176MPD1    C5 2683   3.181   1.125  17.575 -0.0035 -0.3493  0.4340
  176MPD1     H 2684   2.963   1.315  17.342  0.8569  0.2884  0.1141
  176MPD1    H1 2685   3.018   0.985  17.598 -1.4568  0.9829 -1.1706
  176MPD1    H2 2686   3.322   1.287  17.564  1.2951 -1.3759  0.6621
  176MPD1    H3 2687   3.256   1.075  17.635  0.1812 -0.7973 -0.1729
  176MPD1     N 2688   2.850   1.105  17.423  0.0196 -0.0183 -0.4093
  176MPD1    H5 2689   2.793   1.178  17.382 -1.6418 -1.7039 -1.0959
  176MPD1    N1 2690   3.186   1.448  17.401 -0.2553 -0.0232  0.4112
  176MPD1    H6 2691   3.235   1.507  17.468  0.1053  0.9792 -0.7509
  176MPD1    H7 2692   3.109   1.509  17.379  0.4961  0.4242 -0.9900
  177MPD1     C 2693   4.629   4.494  10.083  0.1560  0.0172  0.3537
  177MPD1    C1 2694   4.531   4.430  10.018 -0.1876 -0.3306  0.7335
  177MPD1    C2 2695   4.472   4.498   9.915  0.3296  0.0201 -0.2235
  177MPD1    C3 2696   4.500   4.623   9.874 -0.2768  0.2980  0.7870
  177MPD1    C4 2697   4.603   4.683   9.941  0.6741 -0.3090  0.4188
  177MPD1    C5 2698   4.656   4.623  10.050  0.9959  0.3318  1.0342
  177MPD1     H 2699   4.396   4.445   9.859 -0.2779  0.8130 -0.1294
  177MPD1    H1 2700   4.622   0.064   9.921  0.6969 -0.4218 -0.1544
  177MPD1    H2 2701   4.671   4.456  10.175  1.9585  0.0781 -0.4395
  177MPD1    H3 2702   0.008   4.672  10.110  0.6960  0.2116  1.5125
  177MPD1     N 2703   4.434   4.675   9.757 -0.0605  0.1296 -0.7284
  177MPD1    H5 2704   4.374   4.609   9.707 -0.7170  0.7407 -0.7387
  177MPD1    N1 2705   4.497   4.294  10.034  0.1262 -0.1629 -0.5376
  177MPD1    H6 2706   4.522   4.256  10.124  0.2744 -0.6799 -0.7954
  177MPD1    H7 2707   4.404   4.287   9.992  0.4545 -2.5842 -0.8579
  178MPD1     C 2708   2.620   1.983  16.991 -0.0338 -0.1663  0.3189
  178MPD1    C1 2709   2.742   1.981  17.049 -0.1139 -0.2614 -0.1719
  178MPD1    C2 2710   2.813   1.866  17.051 -0.1782 -0.0901  0.2759
  178MPD1    C3 2711   2.763   1.753  16.992 -0.3567  0.3591 -0.0767
  178MPD1    C4 2712   2.650   1.756  16.918 -0.1256  0.3702  0.7373
  178MPD1    C5 2713   2.581   1.871  16.921 -0.1760  0.2295  0.1031
  178MPD1     H 2714   2.904   1.864  17.111 -1.2385 -2.7782  1.8243
  178MPD1    H1 2715   2.612   1.678  16.854 -1.8952  1.8077  0.0112
  178MPD1    H2 2716   2.555   2.070  16.993 -0.7878 -0.6804 -2.0325
  178MPD1    H3 2717   2.488   1.878  16.866  0.0000  1.4209 -0.0508
  178MPD1     N 2718   2.834   1.626  16.999 -0.7782  0.6095  0.7047
  178MPD1    H5 2719   2.792   1.559  16.936  1.6031  0.5872 -0.8620
  178MPD1    N1 2720   2.791   2.103  17.092  0.7203 -0.1482 -0.8699
  178MPD1    H6 2721   2.856   2.082  17.168 -0.9940 -2.1884  0.0396
  178MPD1    H7 2722   2.710   2.152  17.129  1.6895  0.6786  0.1619
  179MPD1     C 2723   2.786   4.647  16.309  0.2744  0.3817  0.5333
  179MPD1    C1 2724   2.664   4.713  16.281 -0.1233  0.4734 -0.6450
  179MPD1    C2 2725   2.578   4.642  16.195 -0.2540 -0.5745  0.3293
  179MPD1    C3 2726   2.597   4.504  16.175  0.5276 -0.1803 -0.8488
  179MPD1    C4 2727   2.718   4.440  16.208  0.1118  0.4399  0.8718
  179MPD1    C5 2728   2.812   4.518  16.275  0.0942 -0.3196 -0.6703
  179MPD1     H 2729   2.491   4.695  16.157  0.9658  1.5198  0.4294
  179MPD1    H1 2730   2.739   4.335  16.190  1.7798  0.8839  0.2161
  179MPD1    H2 2731   2.861   4.699  16.369 -0.2126  0.4651  1.0731
  179MPD1    H3 2732   2.910   4.473  16.283 -1.3526 -3.3998 -0.1062
  179MPD1     N 2733   2.501   4.424  16.113  0.6056 -0.1496 -0.0295
  179MPD1    H5 2734   2.518   4.324  16.104 -1.5374 -0.3939 -1.3609
  179MPD1    N1 2735   2.637   0.125  16.303 -0.4483  0.5456  0.4887
  179MPD1    H6 2736   2.690   0.157  16.384  0.0515 -1.6070  1.0084
  179MPD1    H7 2737   2.541   0.146  16.332 -0.7337  0.2725 -0.2661
  180MPD1     C 2738   2.903   0.477  14.778  0.2628 -0.2176 -0.1126
  180MPD1    C1 2739   2.826   0.371  14.748  0.1116 -0.8735  0.2081
  180MPD1    C2 2740   2.689   0.387  14.765 -0.1458 -0.2454 -0.0385
  180MPD1    C3 2741   2.633   0.492  14.832 -0.3939 -0.1983 -0.1127
  180MPD1    C4 2742   2.717   0.595  14.875  0.1890  0.7839 -0.0644
  180MPD1    C5 2743   2.851   0.586  14.846  0.5862  0.1855 -0.2620
  180MPD1     H 2744   2.621   0.313  14.724 -0.0129 -0.7169  0.6001
  180MPD1    H1 2745   2.675   0.681  14.926 -0.5351  0.3312  0.0958
  180MPD1    H2 2746   3.010   0.478  14.758  0.4664 -1.0810  0.9003
  180MPD1    H3 2747   2.912   0.667  14.884 -2.8048  1.3105  2.7511
  180MPD1     N 2748   2.493   0.504  14.828  0.4597 -1.1081  0.0074
  180MPD1    H5 2749   2.441   0.441  14.769  0.3617 -1.1511  0.1415
  180MPD1    N1 2750   2.877   0.276  14.651 -0.0892  0.5095 -0.4810
  180MPD1    H6 2751   2.828   0.188  14.663  0.0615  0.7542  2.0225
  180MPD1    H7 2752   2.974   0.254  14.674 -0.7803 -1.3890  0.6870
  181MPD1     C 2753   3.437   2.009  10.828  0.1051 -0.3392  0.0454
  181MPD1    C1 2754   3.446   2.034  10.692 -0.2058  0.1709  0.3177
  181MPD1    C2 2755   3.557   2.103  10.649  0.0296  0.0852  0.4881
  181MPD1    C3 2756   3.652   2.154  10.727 -0.1758 -0.3134  0.3834
  181MPD1    C4 2757   3.638   2.131  10.866  0.5476  0.5552  0.1490
  181MPD1    C5 2758   3.530   2.058  10.914  0.5699  0.4046 -0.1404
  181MPD1     H 2759   3.560   2.130  10.544  0.6987 -0.1596  0.4441
  181MPD1    H1 2760   3.703   2.165  10.945  1.8096 -0.3197 -0.5190
  181MPD1    H2 2761   3.351   1.952  10.863 -1.1265  1.7908  0.4649
  181MPD1    H3 2762   3.519   2.035  11.020  0.0217  0.5137 -0.1693
  181MPD1     N 2763   3.767   2.228  10.683 -0.5957 -0.4247  0.0755
  181MPD1    H5 2764   3.834   2.236  10.758 -0.3068 -0.3473 -0.1919
  181MPD1    N1 2765   3.359   1.965  10.607  0.4545 -0.0435  0.2495
  181MPD1    H6 2766   3.320   2.007  10.523 -0.4372  1.4317  1.4181
  181MPD1    H7 2767   3.278   1.931  10.659 -0.8748  1.7016 -0.6737
  182MPD1     C 2768   0.930   1.259   1.068 -0.0481  0.2070  0.2154
  182MPD1    C1 2769   0.943   1.323   1.191  0.1980  0.0483 -0.4261
  182MPD1    C2 2770   0.827   1.364   1.258 -0.1279  0.8766 -0.5238
  182MPD1    C3 2771   0.704   1.343   1.207  0.2231 -0.2253  0.2483
  182MPD1    C4 2772   0.685   1.274   1.088  0.0843 -0.0404 -0.4669
  182MPD1    C5 2773   0.804   1.235   1.020 -0.2221  0.1796  0.1186
  182MPD1     H 2774   0.836   1.417   1.352 -0.6657  0.0461 -0.0083
  182MPD1    H1 2775   0.587   1.265   1.041  0.8960 -0.0057 -2.1706
  182MPD1    H2 2776   1.017   1.226   1.013  0.1126  0.0189  0.5851
  182MPD1    H3 2777   0.781   1.186   0.926 -0.8979 -0.2827  0.5227
  182MPD1     N 2778   0.583   1.372   1.278 -0.4770  0.6373  0.1632
  182MPD1    H5 2779   0.498   1.336   1.236  0.5929 -0.7244 -0.8332
  182MPD1    N1 2780   1.064   1.336   1.255 -0.0995 -0.4532  0.0325
  182MPD1    H6 2781   1.070   1.406   1.328  0.4038  0.8748 -1.2980
  182MPD1    H7 2782   1.146   1.337   1.195 -0.8049  0.6378 -0.9127
  183MPD1     C 2783   0.716   2.469   9.262 -0.0758  0.3758 -0.2226
  183MPD1    C1 2784   0.773   2.439   9.382 -0.2989  0.1125  0.6417
  183MPD1    C2 2785   0.724   2.499   9.493 -0.0687 -0.1186 -0.7697
  183MPD1    C3 2786   0.622   2.590   9.489  0.5906 -0.0870  0.0707
  183MPD1    C4 2787   0.571   2.631   9.364  0.4504 -0.3039 -0.0517
  183MPD1    C5 2788   0.619   2.571   9.251  0.3938 -0.1005 -0.1113
  183MPD1     H 2789   0.754   2.455   9.588  0.5590  1.7474 -0.1036
  183MPD1    H1 2790   0.481   2.692   9.365  0.3502 -0.4261 -0.8910
  183MPD1    H2 2791   0.729   2.410   9.172  2.4045  0.3408  0.1726
  183MPD1    H3 2792   0.574   2.596   9.155  0.8307  0.0677 -0.2708
  183MPD1     N 2793   0.559   2.632   9.616 -0.3771  0.1859  0.4628
  183MPD1    H5 2794   0.596   2.586   9.698  1.5693 -0.5434 -0.8101
  183MPD1    N1 2795   0.861   2.332   9.391  0.4248 -0.2573 -0.5223
  183MPD1    H6 2796   0.935   2.348   9.459  0.0922  1.0859 -0.4844
  183MPD1    H7 2797   0.914   2.315   9.306  1.0453  0.5672 -0.3026
  184MPD1     C 2798   4.331   0.367  11.111 -0.8780  0.4425 -0.4086
  184MPD1    C1 2799   4.254   0.258  11.088 -0.9038  0.0443  0.2058
  184MPD1    C2 2800   4.254   0.206  10.957 -0.0659  0.0992 -0.5905
  184MPD1    C3 2801   4.331   0.257  10.857  0.3859  0.6695  0.0815
  184MPD1    C4 2802   4.409   0.369  10.892 -0.0545 -0.0933  0.7686
  184MPD1    C5 2803   4.406   0.419  11.017  0.2617 -0.3929 -0.4324
  184MPD1     H 2804   4.184   0.128  10.928  2.6620 -2.5958  0.0393
  184MPD1    H1 2805   4.468   0.412  10.812 -0.1303  0.4501  1.0051
  184MPD1    H2 2806   4.318   0.412  11.208  0.3175  0.3378 -0.2022
  184MPD1    H3 2807   4.463   0.505  11.051 -0.6616 -0.2329  0.7251
  184MPD1     N 2808   4.334   0.208  10.724  0.5018  0.7896 -0.4315
  184MPD1    H5 2809   4.402   0.255  10.664  0.6867  0.9357 -0.1064
  184MPD1    N1 2810   4.152   0.229  11.183 -0.1926 -0.6473 -0.1037
  184MPD1    H6 2811   4.134   0.129  11.189  0.7151 -0.7591  0.6241
  184MPD1    H7 2812   4.186   0.238  11.278  0.0220  2.6411 -0.4765
  185MPD1     C 2813   4.209   3.968  10.636  0.3748  0.4459  0.1933
  185MPD1    C1 2814   4.231   4.009  10.507  0.5903  0.0139 -0.0807
  185MPD1    C2 2815   4.247   4.147  10.480 -0.6503  0.2245 -0.0075
  185MPD1    C3 2816   4.250   4.248  10.577  0.1856 -0.2540  0.1061
  185MPD1    C4 2817   4.224   4.198  10.705  0.7830 -0.2057  0.1403
  185MPD1    C5 2818   4.197   4.066  10.730 -0.2510  0.4322 -0.3729
  185MPD1     H 2819   4.252   4.176  10.376 -2.7954  2.3032  0.4776
  185MPD1    H1 2820   4.209   4.273  10.782 -1.2876  0.2788 -0.7632
  185MPD1    H2 2821   4.192   3.867  10.671  0.5878  0.4895  0.4250
  185MPD1    H3 2822   4.186   4.040  10.835  1.1824  0.3968 -0.2247
  185MPD1     N 2823   4.252   4.387  10.549  0.5072 -0.1159  0.4506
  185MPD1    H5 2824   4.233   4.457  10.620  0.6288 -1.4580  1.8235
  185MPD1    N1 2825   4.210   3.918  10.405  0.6669  0.2842 -0.0753
  185MPD1    H6 2826   4.293   3.914  10.346  0.6269  0.7457 -0.1625
  185MPD1    H7 2827   4.197   3.821  10.435 -2.0877  0.7175  0.1310
  186MPD1     C 2828   2.758   3.842  16.316 -0.9495  0.2967 -0.2832
  186MPD1    C1 2829   2.853   3.915  16.259  0.1326  0.4613  0.4693
  186MPD1    C2 2830   2.876   4.044  16.312  0.3124 -0.0268  0.1235
  186MPD1    C3 2831   2.813   4.102  16.424  0.0107  0.1604  0.6568
  186MPD1    C4 2832   2.703   4.031  16.461 -0.7267  0.5316  0.2252
  186MPD1    C5 2833   2.676   3.903  16.408 -0.0609 -0.2775 -0.8379
  186MPD1     H 2834   2.966   4.092  16.275  0.0488 -0.3213 -0.8718
  186MPD1    H1 2835   2.644   4.067  16.545  0.9634  0.5515  1.4119
  186MPD1    H2 2836   2.737   3.738  16.293  1.1203 -0.3565  0.7777
  186MPD1    H3 2837   2.598   3.840  16.448 -2.0905  1.7268 -1.6082
  186MPD1     N 2838   2.844   4.217  16.495  1.0456  0.1824 -0.0215
  186MPD1    H5 2839   2.779   4.248  16.566  0.7529  1.4364 -0.8188
  186MPD1    N1 2840   2.951   3.852  16.182  0.3616 -1.0389  0.5458
  186MPD1    H6 2841   2.908   3.763  16.160 -1.5383  0.5704 -2.1857
  186MPD1    H7 2842   2.977   3.901  16.097  1.6984 -0.3703  1.3414
  187MPD1     C 2843   2.614   1.277   0.044 -0.5503 -0.3537 -0.3296
  187MPD1    C1 2844   2.477   1.257   0.049  0.6090 -0.0247  0.5996
  187MPD1    C2 2845   2.396   1.316  17.652 -0.3179 -0.1110 -0.3858
  187MPD1    C3 2846   2.450   1.400  17.560 -0.2715  0.0447 -0.1708
  187MPD1    C4 2847   2.583   1.427  17.559  0.1447 -0.2617  0.0394
  187MPD1    C5 2848   2.666   1.360  17.645 -0.3110 -0.8219  0.0708
  187MPD1     H 2849   2.291   1.292  17.646 -0.6700  1.4008 -0.3519
  187MPD1    H1 2850   2.625   1.502  17.493 -0.4901 -0.0899 -0.1679
  187MPD1    H2 2851   2.685   1.224   0.106  1.3604  2.7120  0.1111
  187MPD1    H3 2852   2.771   1.384  17.638 -1.1627  2.4780 -1.4439
  187MPD1     N 2853   2.372   1.462  17.455  0.1583 -0.4324  0.2391
  187MPD1    H5 2854   2.421   1.524  17.391  1.6553 -0.9118  0.9106
  187MPD1    N1 2855   2.423   1.160   0.141 -0.0345  0.3248  0.0497
  187MPD1    H6 2856   2.323   1.148   0.155  0.0677  0.7879  1.1942
  187MPD1    H7 2857   2.485   1.145   0.221 -0.5675  1.3069  0.6369
  188MPD1     C 2858   2.744   1.557  10.039  0.1455  0.0779 -0.2081
  188MPD1    C1 2859   2.657   1.514   9.939 -0.7805 -0.2190  0.4517
  188MPD1    C2 2860   2.592   1.398   9.963 -0.1017 -0.3772  0.0421
  188MPD1    C3 2861   2.599   1.334  10.082  0.2083  0.7586  0.3725
  188MPD1    C4 2862   2.676   1.379  10.184  0.0279 -0.8420  0.6324
  188MPD1    C5 2863   2.756   1.486  10.147  0.2727 -0.3528  0.3409
  188MPD1     H 2864   2.525   1.357   9.888  1.3087 -0.8629 -0.9488
  188MPD1    H1 2865   2.698   1.318  10.271  1.0448 -2.4273 -0.7145
  188MPD1    H2 2866   2.816   1.635  10.017  0.6315 -0.2323  0.2938
  188MPD1    H3 2867   2.826   1.533  10.216 -1.2413  0.5894  1.2556
  188MPD1     N 2868   2.532   1.211  10.091  0.8265 -0.6821 -0.0038
  188MPD1    H5 2869   2.486   1.180  10.006 -1.3684 -1.2787  1.3892
  188MPD1    N1 2870   2.649   1.576   9.819  0.0570  0.7713  0.0722
  188MPD1    H6 2871   2.552   1.568   9.788 -0.0754  0.7086  0.5028
  188MPD1    H7 2872   2.675   1.674   9.815 -3.0904  1.5680 -1.2045
  189MPD1     C 2873   3.568   1.261   0.472 -0.5363  0.6977 -0.5513
  189MPD1    C1 2874   3.440   1.274   0.514  0.1544  0.8305 -0.5173
  189MPD1    C2 2875   3.378   1.395   0.508 -0.5408 -0.8717  0.0078
  189MPD1    C3 2876   3.433   1.494   0.434 -0.2752 -0.1040 -0.0779
  189MPD1    C4 2877   3.555   1.475   0.377 -0.1882  0.1492  0.6552
  189MPD1    C5 2878   3.622   1.354   0.397 -0.7925  0.3122  1.0198
  189MPD1     H 2879   3.278   1.410   0.548 -0.0743  1.2673  0.3256
  189MPD1    H1 2880   3.605   1.552   0.319  0.3415 -0.6165  0.0884
  189MPD1    H2 2881   3.632   1.176   0.494  0.1108  0.8874 -1.7333
  189MPD1    H3 2882   3.721   1.339   0.357 -1.8910 -0.4877 -1.3855
  189MPD1     N 2883   3.353   1.605   0.395  0.0408 -0.1055  0.1495
  189MPD1    H5 2884   3.261   1.618   0.436  0.2024 -1.1567  0.8567
  189MPD1    N1 2885   3.391   1.180   0.607 -0.1794 -0.5447 -0.1142
  189MPD1    H6 2886   3.399   1.085   0.571 -0.9950 -0.5266 -0.3493
  189MPD1    H7 2887   3.291   1.198   0.612  0.0765  0.5076  1.2279
  190MPD1     C 2888   2.695   4.193  15.861  0.0429  0.4898  0.6291
  190MPD1    C1 2889   2.598   4.241  15.785  0.3701 -0.5380  0.0287
  190MPD1    C2 2890   2.584   4.376  15.776  0.3755 -0.1612  0.0636
  190MPD1    C3 2891   2.676   4.465  15.829  0.2149 -0.7676  0.0143
  190MPD1    C4 2892   2.784   4.409  15.889 -0.1687  0.6328 -1.0988
  190MPD1    C5 2893   2.793   4.280  15.899  0.2225 -0.0615  0.4640
  190MPD1     H 2894   2.498   4.421  15.728  1.0948 -0.5766 -1.6171
  190MPD1    H1 2895   2.875   4.457  15.922 -0.0883 -0.5379  0.3463
  190MPD1    H2 2896   2.713   4.091  15.894 -2.4875 -0.1689 -0.0300
  190MPD1    H3 2897   2.885   4.239  15.939 -1.3178 -1.1096  2.8853
  190MPD1     N 2898   2.658   4.604  15.826  0.6211 -0.0407 -0.7224
  190MPD1    H5 2899   2.569   4.645  15.796  0.0968 -0.2104  0.6334
  190MPD1    N1 2900   2.494   4.161  15.731 -0.9855 -0.6193 -0.0880
  190MPD1    H6 2901   2.444   4.200  15.651  0.5874 -1.3095 -1.4213
  190MPD1    H7 2902   2.529   4.073  15.694 -3.2762 -1.7866  0.5474
  191MPD1     C 2903   1.622   2.203  13.439  0.9265 -0.1419 -0.6001
  191MPD1    C1 2904   1.486   2.231  13.429 -0.3678 -0.6489 -0.4030
  191MPD1    C2 2905   1.442   2.360  13.414  0.6464 -0.2543 -0.2913
  191MPD1    C3 2906   1.533   2.460  13.382 -0.5130  0.5929 -0.3455
  191MPD1    C4 2907   1.670   2.426  13.395  0.0846  0.3525  0.6148
  191MPD1    C5 2908   1.712   2.300  13.423  0.2027 -0.5075  0.2079
  191MPD1     H 2909   1.339   2.391  13.407  0.3104 -1.7850 -2.1552
  191MPD1    H1 2910   1.746   2.501  13.378  1.5420 -1.1529  0.4912
  191MPD1    H2 2911   1.657   2.101  13.455  0.1308 -0.7467 -2.7097
  191MPD1    H3 2912   1.820   2.287  13.428  0.2709 -0.4760 -1.1797
  191MPD1     N 2913   1.476   2.585  13.353 -0.2525 -0.0204  0.2084
  191MPD1    H5 2914   1.376   2.586  13.338 -0.1694  0.1028 -0.3202
  191MPD1    N1 2915   1.399   2.130  13.459 -0.3574 -0.1487 -0.0049
  191MPD1    H6 2916   1.301   2.131  13.432  0.3953  1.8323 -2.6728
  191MPD1    H7 2917   1.432   2.041  13.424 -1.5884  0.2819 -2.2800
  192MPD1     C 2918   0.618   2.992  13.179  0.0612  0.8883 -0.3748
  192MPD1    C1 2919   0.682   2.878  13.149 -0.0613 -0.5430  0.3430
  192MPD1    C2 2920   0.819   2.883  13.167  0.2784  0.5996 -0.1713
  192MPD1    C3 2921   0.892   2.994  13.202  0.5488  0.2510  0.1332
  192MPD1    C4 2922   0.824   3.109  13.221  0.0793 -0.6508 -0.2623
  192MPD1    C5 2923   0.685   3.107  13.211  0.2702 -0.4005  0.0205
  192MPD1     H 2924   0.879   2.796  13.143 -1.2449 -0.3625 -0.4624
  192MPD1    H1 2925   0.880   3.198  13.249  1.1191 -1.2530 -0.4493
  192MPD1    H2 2926   0.510   2.999  13.174  0.0606  1.0524 -0.1421
  192MPD1    H3 2927   0.630   3.198  13.232 -0.2737 -0.2407 -2.1051
  192MPD1     N 2928   1.037   2.993  13.209  0.0216  0.4132  0.5634
  192MPD1    H5 2929   1.089   3.080  13.207  0.2881  0.2258 -0.9293
  192MPD1    N1 2930   0.616   2.760  13.114 -0.4811 -0.1542 -0.5403
  192MPD1    H6 2931   0.533   2.771  13.056  1.1141  0.8664 -2.5916
  192MPD1    H7 2932   0.676   2.697  13.061 -0.9564 -2.0770  1.2146
  193MPD1     C 2933   1.423   3.397  16.580 -0.8679 -0.3529  0.1186
  193MPD1    C1 2934   1.376   3.451  16.700  0.7650  0.2773 -0.2222
  193MPD1    C2 2935   1.467   3.476  16.805  0.3082 -0.0410  0.2920
  193MPD1    C3 2936   1.603   3.466  16.787 -0.1108 -0.3352 -0.3323
  193MPD1    C4 2937   1.649   3.431  16.660 -0.5009  0.0886 -0.9133
  193MPD1    C5 2938   1.558   3.387  16.565 -0.4351 -0.2195  0.0749
  193MPD1     H 2939   1.428   3.516  16.898  0.8456  1.4601 -0.1393
  193MPD1    H1 2940   1.756   3.422  16.650 -0.6890 -2.2412 -0.6362
  193MPD1    H2 2941   1.364   3.367  16.494 -0.3019  0.2973 -0.4962
  193MPD1    H3 2942   1.589   3.344  16.470  0.7341  1.3771 -0.2773
  193MPD1     N 2943   1.697   3.495  16.886  0.2359 -0.2555 -0.3891
  193MPD1    H5 2944   1.794   3.484  16.856  0.5302  1.8632 -0.2051
  193MPD1    N1 2945   1.233   3.459  16.721 -0.0668  0.2405  0.4771
  193MPD1    H6 2946   1.202   3.529  16.787 -2.3251 -0.6381  0.3347
  193MPD1    H7 2947   1.180   3.470  16.635 -0.4649 -1.6196  0.4758
  194MPD1     C 2948   3.366   0.932  17.334 -0.2757 -0.5496  0.4105
  194MPD1    C1 2949   3.365   0.816  17.260  1.1800  0.4063 -0.3457
  194MPD1    C2 2950   3.456   0.716  17.304  0.1871 -0.5062  0.0202
  194MPD1    C3 2951   3.567   0.740  17.390  0.2199  0.2890 -0.0204
  194MPD1    C4 2952   3.565   0.861  17.460  0.5317  0.2841  0.3536
  194MPD1    C5 2953   3.458   0.949  17.439  0.9753  0.4964 -0.0188
  194MPD1     H 2954   3.450   0.625  17.246  0.4165 -0.2260 -0.4449
  194MPD1    H1 2955   3.639   0.889  17.533 -1.3812 -0.6106  2.6297
  194MPD1    H2 2956   3.291   1.009  17.319  0.9373  0.4628 -0.3875
  194MPD1    H3 2957   3.447   1.035  17.504  1.2685  0.9053 -0.5124
  194MPD1     N 2958   3.673   0.649  17.426  0.0864 -0.2996  0.1120
  194MPD1    H5 2959   3.745   0.695  17.480 -1.5393 -0.0315  2.0640
  194MPD1    N1 2960   3.255   0.791  17.171 -0.2977 -0.2752 -0.1436
  194MPD1    H6 2961   3.276   0.712  17.110  4.3092 -0.1532  1.3364
  194MPD1    H7 2962   3.252   0.872  17.110  0.3598  1.6628  2.3867
  195MPD1     C 2963   1.808   1.272   1.301 -0.2101  0.8835 -0.6984
  195MPD1    C1 2964   1.680   1.237   1.259 -0.1973 -0.7280 -0.3581
  195MPD1    C2 2965   1.661   1.224   1.122 -0.5354  0.2800  0.0281
  195MPD1    C3 2966   1.768   1.261   1.035 -0.0596  0.1294 -0.6326
  195MPD1    C4 2967   1.890   1.300   1.079  0.3190  0.6216  0.6189
  195MPD1    C5 2968   1.906   1.308   1.211 -0.5127 -0.2626 -0.7314
  195MPD1     H 2969   1.572   1.178   1.080  0.2038 -0.1923 -1.0165
  195MPD1    H1 2970   1.973   1.317   1.013  0.0698 -1.3505 -0.2021
  195MPD1    H2 2971   1.838   1.271   1.406 -1.1216 -0.9924 -0.4556
  195MPD1    H3 2972   2.007   1.338   1.238 -0.9203  1.9635 -1.7279
  195MPD1     N 2973   1.751   1.245   0.892  0.3394 -0.3730 -0.3820
  195MPD1    H5 2974   1.830   1.266   0.832  0.6047 -2.1416 -0.6417
  195MPD1    N1 2975   1.591   1.191   1.357 -0.1111  0.4457 -0.2568
  195MPD1    H6 2976   1.497   1.193   1.317  0.5256 -0.3878 -1.7844
  195MPD1    H7 2977   1.586   1.227   1.452 -1.1080 -0.6360  0.1018
  196MPD1     C 2978   0.450   1.111   0.322  0.0933 -0.6776 -0.1438
  196MPD1    C1 2979   0.460   1.245   0.367  0.0883 -0.1528 -0.5221
  196MPD1    C2 2980   0.584   1.287   0.410 -0.3669 -1.0120  0.6571
  196MPD1    C3 2981   0.688   1.197   0.426  1.0384  0.4142  0.1330
  196MPD1    C4 2982   0.677   1.068   0.380 -0.2381 -0.3457  0.5902
  196MPD1    C5 2983   0.557   1.031   0.329  0.3974  0.6838 -0.2507
  196MPD1     H 2984   0.582   1.391   0.438 -1.4024 -0.7341 -0.4375
  196MPD1    H1 2985   0.758   0.999   0.398 -1.6236 -1.8949  0.9273
  196MPD1    H2 2986   0.353   1.082   0.284 -0.4266  2.3704 -1.1222
  196MPD1    H3 2987   0.537   0.927   0.305  0.4292  0.2603  1.5166
  196MPD1     N 2988   0.814   1.240   0.478  0.0923 -0.3940 -0.1980
  196MPD1    H5 2989   0.885   1.168   0.491 -0.6959 -1.0624  0.3819
  196MPD1    N1 2990   0.354   1.332   0.331  0.0154  0.2077  0.5177
  196MPD1    H6 2991   0.265   1.282   0.339  0.6774 -1.0833 -0.0965
  196MPD1    H7 2992   0.354   1.411   0.394 -0.8445 -0.2122  1.0452
  197MPD1     C 2993   1.000   4.110   0.245 -0.8519 -0.2709 -0.1960
  197MPD1    C1 2994   1.002   4.239   0.196 -0.0583 -0.6096 -0.8969
  197MPD1    C2 2995   0.886   4.286   0.132 -0.1301  0.6573  0.0711
  197MPD1    C3 2996   0.785   4.197   0.099 -0.1552  0.9576 -0.3948
  197MPD1    C4 2997   0.793   4.066   0.133 -0.1508  0.2277 -0.2242
  197MPD1    C5 2998   0.894   4.024   0.217 -0.4124  0.0021 -0.1488
  197MPD1     H 2999   0.877   4.393   0.118  0.1274  0.5694 -0.7611
  197MPD1    H1 3000   0.711   4.001   0.103  1.5240 -2.4650  0.9697
  197MPD1    H2 3001   1.077   4.079   0.314 -3.2905  1.3089  3.2404
  197MPD1    H3 3002   0.889   3.921   0.250 -0.7425  0.2106  0.4431
  197MPD1     N 3003   0.676   4.240   0.022 -0.0563  0.6717 -0.2503
  197MPD1    H5 3004   0.607   4.170  17.693 -1.3453  1.2383  1.7190
  197MPD1    N1 3005   1.096   4.334   0.239 -0.6293 -0.4195  0.1134
  197MPD1    H6 3006   1.187   4.293   0.259 -1.6145 -1.7626  1.8217
  197MPD1    H7 3007   1.102   4.403   0.164  0.0495 -1.1909 -0.5558
  198MPD1     C 3008   2.729   1.910  16.075 -0.0714 -0.0900 -0.5587
  198MPD1    C1 3009   2.847   1.870  16.016  0.9625 -0.2630 -0.5512
  198MPD1    C2 3010   2.930   1.975  15.973  0.0688  0.1521 -0.3173
  198MPD1    C3 3011   2.890   2.107  15.983  0.7809 -0.4307  0.4897
  198MPD1    C4 3012   2.767   2.138  16.027 -0.3109 -0.0468  0.1975
  198MPD1    C5 3013   2.685   2.043  16.077 -0.2687  0.0071 -0.6213
  198MPD1     H 3014   3.034   1.953  15.952  0.5933  1.7428  0.7239
  198MPD1    H1 3015   2.720   2.235  16.032 -2.3153 -1.1628  2.6247
  198MPD1    H2 3016   2.656   1.845  16.122  0.0457 -0.7825 -1.3445
  198MPD1    H3 3017   2.592   2.070  16.125 -0.1035 -1.2323  0.3966
  198MPD1     N 3018   2.981   2.207  15.950 -0.2229  0.4572  0.0466
  198MPD1    H5 3019   3.070   2.184  15.907 -0.4282 -1.7852  0.8607
  198MPD1    N1 3020   2.893   1.737  16.021 -0.2996 -0.4301 -0.3088
  198MPD1    H6 3021   2.955   1.704  15.947 -1.3076  0.7078 -1.6669
  198MPD1    H7 3022   2.811   1.678  16.035 -1.5379  1.9080  2.3839
  199MPD1     C 3023   3.338   2.755   8.889  0.0366 -0.2128  0.9416
  199MPD1    C1 3024   3.355   2.629   8.939 -0.3636 -0.4766  0.0852
  199MPD1    C2 3025   3.372   2.613   9.074  0.4722 -0.4058  0.0075
  199MPD1    C3 3026   3.387   2.723   9.157 -0.5295 -0.6684  0.8090
  199MPD1    C4 3027   3.365   2.843   9.099  0.1519 -0.0761  0.1619
  199MPD1    C5 3028   3.350   2.867   8.963 -0.6419  0.2868  0.0013
  199MPD1     H 3029   3.379   2.515   9.120 -0.7760  0.2592  1.6198
  199MPD1    H1 3030   3.353   2.937   9.152  1.3789 -0.8211  1.7514
  199MPD1    H2 3031   3.317   2.769   8.784 -1.9403 -3.5061  0.9037
  199MPD1    H3 3032   3.344   2.963   8.913 -1.3291  0.1781 -0.1252
  199MPD1     N 3033   3.413   2.722   9.295 -0.3345 -0.2611 -0.6594
  199MPD1    H5 3034   3.419   2.813   9.339 -0.0838  0.2439 -1.7274
  199MPD1    N1 3035   3.333   2.523   8.850 -0.5038 -0.1230 -0.1151
  199MPD1    H6 3036   3.363   2.433   8.888 -1.1308 -1.6376 -3.2062
  199MPD1    H7 3037   3.354   2.539   8.752 -0.9103  1.0336 -0.0074
  200MPD1     C 3038   2.493   2.572  14.676 -0.2927  0.5186  0.3802
  200MPD1    C1 3039   2.545   2.621  14.559  0.1805  0.2921 -0.3727
  200MPD1    C2 3040   2.682   2.658  14.561  0.7796  0.4362  0.0339
  200MPD1    C3 3041   2.766   2.644  14.675 -0.1748 -0.3890 -0.1506
  200MPD1    C4 3042   2.708   2.599  14.789  0.5092 -0.5618 -0.2976
  200MPD1    C5 3043   2.582   2.558  14.789  0.8098 -0.0740 -0.3315
  200MPD1     H 3044   2.722   2.693  14.467  1.0640 -0.2807 -0.1123
  200MPD1    H1 3045   2.758   2.586  14.885  0.1828 -1.7875 -0.2925
  200MPD1    H2 3046   2.389   2.544  14.688  0.4227 -1.4163  1.9935
  200MPD1    H3 3047   2.532   2.506  14.870 -0.6104  0.7491 -0.6656
  200MPD1     N 3048   2.896   2.701  14.652  0.0958  0.1099  0.1053
  200MPD1    H5 3049   2.921   2.727  14.557  1.0185  1.2957  0.6688
  200MPD1    N1 3050   2.461   2.650  14.444 -0.3776  0.3750 -0.1701
  200MPD1    H6 3051   2.511   2.656  14.355 -0.4613  0.7257 -0.1953
  200MPD1    H7 3052   2.397   2.572  14.434  0.0585  0.0380 -0.3426
  201MPD1     C 3053   0.388   2.252  13.291  0.8837  0.1305 -0.2794
  201MPD1    C1 3054   0.346   2.135  13.354 -0.1080  0.1540 -0.5365
  201MPD1    C2 3055   0.441   2.029  13.353 -0.0856  0.0593  0.6221
  201MPD1    C3 3056   0.570   2.052  13.313  0.1947  0.0522 -0.7048
  201MPD1    C4 3057   0.611   2.179  13.269 -0.0165  0.2607  0.2328
  201MPD1    C5 3058   0.520   2.276  13.260 -0.2673  0.7576 -0.0448
  201MPD1     H 3059   0.407   1.930  13.382 -2.3489  1.1999  1.9221
  201MPD1    H1 3060   0.713   2.205  13.242 -0.0257 -0.2615 -0.3049
  201MPD1    H2 3061   0.318   2.334  13.277  0.4077  0.2213  2.6159
  201MPD1    H3 3062   0.550   2.375  13.227 -1.7462  1.8616  1.9051
  201MPD1     N 3063   0.649   1.933  13.311 -0.2476 -0.3707  0.2588
  201MPD1    H5 3064   0.600   1.847  13.336 -2.1386  0.4839 -0.5023
  201MPD1    N1 3065   0.211   2.115  13.390  0.4708 -0.0580 -0.3989
  201MPD1    H6 3066   0.161   2.195  13.428  0.6395 -0.4287  0.5957
  201MPD1    H7 3067   0.208   2.046  13.464 -1.1380  0.9144  0.4425
  202MPD1     C 3068   0.086   1.453   9.711  0.6013  0.1295 -0.0071
  202MPD1    C1 3069   0.184   1.355   9.724  0.6040  0.0466  0.0393
  202MPD1    C2 3070   0.310   1.407   9.742 -0.6590 -0.0835  0.2943
  202MPD1    C3 3071   0.330   1.527   9.801 -0.1012 -0.7253  0.1393
  202MPD1    C4 3072   0.228   1.621   9.798  0.0776 -0.6162  0.0765
  202MPD1    C5 3073   0.105   1.578   9.759  0.2567  0.9557 -0.4381
  202MPD1     H 3074   0.382   1.326   9.751 -1.6011 -0.8982  0.5013
  202MPD1    H1 3075   0.240   1.723   9.834  2.8285 -0.4147 -1.3945
  202MPD1    H2 3076   4.714   1.420   9.672  0.6502 -0.4912  0.4003
  202MPD1    H3 3077   0.028   1.653   9.768  0.0297  0.9222 -2.0913
  202MPD1     N 3078   0.454   1.567   9.839  0.1116  0.1618 -0.1364
  202MPD1    H5 3079   0.462   1.661   9.876 -0.2650  0.1236  0.0335
  202MPD1    N1 3080   0.170   1.232   9.654 -0.5266  0.1617  0.0017
  202MPD1    H6 3081   0.077   1.196   9.675 -0.8833  0.9405 -0.2753
  202MPD1    H7 3082   0.245   1.169   9.684  0.3999  1.0592 -0.4497
  203MPD1     C 3083   3.971   2.715  12.959 -0.6097  0.7144 -0.1808
  203MPD1    C1 3084   3.957   2.626  12.857 -0.3199  0.5463  0.2671
  203MPD1    C2 3085   4.051   2.521  12.853  0.6376  0.1902  0.1488
  203MPD1    C3 3086   4.140   2.505  12.962  0.6792 -0.2884  0.4432
  203MPD1    C4 3087   4.153   2.601  13.061  0.2462  0.7360  0.6904
  203MPD1    C5 3088   4.063   2.705  13.054 -0.3556 -0.4416 -0.0486
  203MPD1     H 3089   4.044   2.443  12.779  1.3381 -1.0365  1.3813
  203MPD1    H1 3090   4.221   2.589  13.144 -0.8454 -0.8853  1.3361
  203MPD1    H2 3091   3.893   2.789  12.968 -0.0734  0.9837  2.0813
  203MPD1    H3 3092   4.067   2.790  13.121  0.2387 -1.9975  1.8667
  203MPD1     N 3093   4.222   2.390  12.960 -0.3603  0.1222  0.4741
  203MPD1    H5 3094   4.223   2.346  12.869 -0.9014 -0.7968  0.9138
  203MPD1    N1 3095   3.859   2.642  12.758 -0.3983  0.0852  0.5566
  203MPD1    H6 3096   3.783   2.709  12.776 -0.4562 -0.4903  2.4539
  203MPD1    H7 3097   3.810   2.553  12.751  0.8782 -0.6325  0.8224
  204MPD1     C 3098   3.576   2.636   0.029 -0.4913  0.1117  0.5065
  204MPD1    C1 3099   3.705   2.661  17.683  0.6087 -0.1746  0.3823
  204MPD1    C2 3100   3.778   2.561  17.620 -0.6221  0.2200 -0.8670
  204MPD1    C3 3101   3.722   2.435  17.597  0.1381 -0.7887 -1.0901
  204MPD1    C4 3102   3.593   2.411  17.633  0.6044  0.3980 -0.2084
  204MPD1    C5 3103   3.523   2.512  17.688 -0.3420 -0.2579  0.3343
  204MPD1     H 3104   3.869   2.586  17.567  0.7570  1.4778  2.0805
  204MPD1    H1 3105   3.538   2.319  17.616  0.4861  0.8527 -2.2997
  204MPD1    H2 3106   3.512   2.711   0.074 -0.6026  0.5730 -0.4366
  204MPD1    H3 3107   3.421   2.492   0.021 -0.0381 -2.3092  0.0062
  204MPD1     N 3108   3.804   2.331  17.537 -0.0765  0.1884  0.4676
  204MPD1    H5 3109   3.894   2.367  17.507 -0.1553 -0.4693 -0.5291
  204MPD1    N1 3110   3.761   2.790  17.691 -0.4748 -0.0450 -0.1654
  204MPD1    H6 3111   3.862   2.792   0.011 -0.1874  1.4696 -2.1034
  204MPD1    H7 3112   3.708   2.854   0.054 -0.7682 -0.5956  0.1624
  205MPD1     C 3113   0.114   0.918  16.805  0.0095 -0.7761 -0.4902
  205MPD1    C1 3114   4.715   0.960  16.767 -0.1838  0.3592  0.7278
  205MPD1    C2 3115   4.625   1.004  16.866  0.6464  0.4605  0.0710
  205MPD1    C3 3116   4.654   0.994  17.003 -0.7770  0.1059  0.2341
  205MPD1    C4 3117   0.049   0.948  17.031 -0.4588  0.0906  0.1671
  205MPD1    C5 3118   0.140   0.917  16.935  0.5579  0.6780 -0.3265
  205MPD1     H 3119   4.526   1.035  16.833  1.7538  3.0877 -0.7739
  205MPD1    H1 3120   0.082   0.955  17.134 -0.6698 -1.6462  0.3668
  205MPD1    H2 3121   0.188   0.903  16.727  0.0363  0.6864 -0.7441
  205MPD1    H3 3122   0.241   0.897  16.969  0.6509  0.7193 -0.5763
  205MPD1     N 3123   4.564   1.012  17.108  0.1287  0.4321 -0.1733
  205MPD1    H5 3124   4.589   0.998  17.205 -1.4678 -2.2402 -0.1375
  205MPD1    N1 3125   4.693   0.983  16.629  0.2231 -0.0152 -0.5528
  205MPD1    H6 3126   0.025   0.935  16.559  0.8972  0.5500 -0.4052
  205MPD1    H7 3127   4.599   0.985  16.592 -1.0450  0.9246  2.7083
  206MPD1     C 3128   0.239   0.137  16.345 -0.1465 -0.3273  0.8247
  206MPD1    C1 3129   0.120   0.080  16.390 -0.6804  0.2420 -0.0972
  206MPD1    C2 3130   0.014   0.093  16.310 -0.2948  0.9414  0.0735
  206MPD1    C3 3131   0.024   0.139  16.182  0.0712  0.4380  0.0074
  206MPD1    C4 3132   0.143   0.178  16.134 -0.0340 -0.5801 -0.2603
  206MPD1    C5 3133   0.248   0.182  16.220  0.8309 -0.0776 -0.8874
  206MPD1     H 3134   4.643   0.058  16.350 -0.0900  0.7466  0.3910
  206MPD1    H1 3135   0.150   0.211  16.031 -0.2329  2.9212  0.8505
  206MPD1    H2 3136   0.325   0.144  16.411 -0.7317 -0.5853  1.6144
  206MPD1    H3 3137   0.348   0.217  16.194 -0.4273  2.9133 -1.6830
  206MPD1     N 3138   4.626   0.134  16.103  0.4823  0.2160 -0.4297
  206MPD1    H5 3139   4.539   0.118  16.152  0.7562  1.6573  0.5146
  206MPD1    N1 3140   0.108   0.032  16.524  0.5953  0.1699 -0.0563
  206MPD1    H6 3141   0.177   4.688  16.555  0.0220 -1.5219 -2.4720
  206MPD1    H7 3142   0.016   4.711  16.528  0.1665  1.0374 -0.2282
  207MPD1     C 3143   0.750   2.478  10.248  0.2922 -0.0818 -0.2749
  207MPD1    C1 3144   0.802   2.377  10.324  0.0780  0.2958 -0.0623
  207MPD1    C2 3145   0.912   2.398  10.401  0.4342 -0.1942  0.0066
  207MPD1    C3 3146   0.983   2.520  10.398  0.2305 -0.7327  0.5297
  207MPD1    C4 3147   0.935   2.621  10.311  1.0049  0.3700 -0.0968
  207MPD1    C5 3148   0.815   2.595  10.246  0.2787 -0.9337  0.1097
  207MPD1     H 3149   0.949   2.319  10.464 -0.7227 -0.7832 -0.0564
  207MPD1    H1 3150   0.971   2.723  10.318 -0.6252  1.0096 -0.9315
  207MPD1    H2 3151   0.659   2.470  10.189 -0.2342  1.3832  0.3511
  207MPD1    H3 3152   0.781   2.675  10.182  1.9380  0.0011  0.3722
  207MPD1     N 3153   1.088   2.550  10.489 -0.3730 -0.1886  0.7526
  207MPD1    H5 3154   1.117   2.647  10.499 -1.6680  0.3363 -0.5067
  207MPD1    N1 3155   0.738   2.257  10.327  0.7791  0.4964  0.4047
  207MPD1    H6 3156   0.662   2.250  10.259  0.6603 -0.5105  0.6344
  207MPD1    H7 3157   0.804   2.180  10.317 -1.7239 -1.5468 -0.3486
  208MPD1     C 3158   4.321   1.893   0.847 -0.1343  0.3750  0.0767
  208MPD1    C1 3159   4.242   1.816   0.935  0.4764 -0.2568  0.5310
  208MPD1    C2 3160   4.248   1.678   0.916 -0.0430 -0.0313  0.5222
  208MPD1    C3 3161   4.303   1.616   0.802  0.1473 -0.4400  0.5411
  208MPD1    C4 3162   4.360   1.699   0.706 -0.7423  0.0394 -0.2818
  208MPD1    C5 3163   4.373   1.832   0.734 -0.7100  0.2348 -0.8282
  208MPD1     H 3164   4.187   1.621   0.985 -0.2022 -0.3680  0.1070
  208MPD1    H1 3165   4.422   1.652   0.631  0.1354  1.1448 -0.2468
  208MPD1    H2 3166   4.320   2.001   0.856 -0.6109  0.3987 -0.2604
  208MPD1    H3 3167   4.438   1.889   0.669  1.8056 -2.2826 -0.5470
  208MPD1     N 3168   4.297   1.472   0.793 -0.7327 -0.2078  0.1578
  208MPD1    H5 3169   4.253   1.426   0.872 -1.3595 -0.6799 -0.4701
  208MPD1    N1 3170   4.209   1.867   1.067  0.2501 -0.1239 -0.1473
  208MPD1    H6 3171   4.187   1.966   1.069  2.5722  0.4228 -1.5564
  208MPD1    H7 3172   4.126   1.824   1.109 -0.1745  0.6201 -0.2239
  209MPD1     C 3173   1.976   2.106  12.029  0.3731 -0.0527  0.0758
  209MPD1    C1 3174   2.104   2.163  12.014  0.2990 -0.2855 -0.3867
  209MPD1    C2 3175   2.140   2.211  11.886 -0.4984  0.4022  0.5399
  209MPD1    C3 3176   2.045   2.205  11.784  0.4944 -0.2153 -0.3502
  209MPD1    C4 3177   1.917   2.168  11.808 -0.7769  0.3582 -0.1072
  209MPD1    C5 3178   1.882   2.114  11.930 -0.3273  0.1572  0.1438
  209MPD1     H 3179   2.244   2.222  11.858 -0.4044 -1.5934  0.0796
  209MPD1    H1 3180   1.842   2.168  11.729 -0.9002  0.7366  0.0112
  209MPD1    H2 3181   1.955   2.058  12.124  0.6469  0.0424  0.1837
  209MPD1    H3 3182   1.785   2.067  11.943 -0.9219  1.5154  0.6635
  209MPD1     N 3183   2.087   2.226  11.659 -0.2278 -0.5208 -0.2415
  209MPD1    H5 3184   2.176   2.275  11.651 -0.1083 -0.7611 -0.4026
  209MPD1    N1 3185   2.202   2.136  12.112  0.0070  0.2918  0.0321
  209MPD1    H6 3186   2.161   2.108  12.200 -0.1337  0.1501 -0.0783
  209MPD1    H7 3187   2.273   2.208  12.121 -2.1618  2.5011 -0.6510
  210MPD1     C 3188   2.482   2.999  11.171 -0.1086 -0.8514 -0.4372
  210MPD1    C1 3189   2.442   2.960  11.295  0.0422  0.0547  0.5674
  210MPD1    C2 3190   2.370   2.835  11.309  0.1270  0.6290 -0.3350
  210MPD1    C3 3191   2.366   2.746  11.203  0.2416  0.2440 -0.2458
  210MPD1    C4 3192   2.420   2.785  11.082 -0.0128 -0.6988 -0.2708
  210MPD1    C5 3193   2.472   2.913  11.064 -0.7263  0.1751 -1.0940
  210MPD1     H 3194   2.326   2.811  11.405  1.1464 -0.6010 -0.1753
  210MPD1    H1 3195   2.410   2.724  10.993  0.7902 -0.0438 -0.8050
  210MPD1    H2 3196   2.532   3.093  11.148  2.9813 -2.1619  0.9292
  210MPD1    H3 3197   2.513   2.945  10.969  1.7502  0.1227 -0.0427
  210MPD1     N 3198   2.308   2.619  11.218  0.3335 -0.1303  0.4312
  210MPD1    H5 3199   2.298   2.554  11.140  2.1971  0.8925 -0.6487
  210MPD1    N1 3200   2.451   3.040  11.406 -0.1635 -0.5344 -0.2709
  210MPD1    H6 3201   2.533   3.100  11.409 -0.2620 -0.3351 -1.6411
  210MPD1    H7 3202   2.436   2.997  11.497 -2.8052  0.7773 -0.0612
  211MPD1     C 3203   0.251   1.835  15.924 -0.5774  0.1826 -0.2207
  211MPD1    C1 3204   0.199   1.958  15.953  0.3365 -0.6838  0.0330
  211MPD1    C2 3205   0.066   1.973  15.981  0.1562 -0.4909  0.1199
  211MPD1    C3 3206   4.700   1.869  15.961  0.1512 -0.3810 -0.4074
  211MPD1    C4 3207   0.025   1.749  15.916  0.3183  0.1466 -0.4371
  211MPD1    C5 3208   0.158   1.735  15.910  0.2636  0.3829  0.8878
  211MPD1     H 3209   0.045   2.072  16.020  0.8729  0.0648 -0.8981
  211MPD1    H1 3210   4.680   1.665  15.914 -1.4021  1.5519  0.0562
  211MPD1    H2 3211   0.355   1.807  15.911 -0.6765 -0.6094  0.6979
  211MPD1    H3 3212   0.198   1.637  15.889  1.5225  1.0038  0.3837
  211MPD1     N 3213   4.567   1.900  15.998  0.4792 -0.3259 -0.0835
  211MPD1    H5 3214   4.545   1.991  16.039  1.0033 -0.1228 -0.2526
  211MPD1    N1 3215   0.291   2.060  15.972 -0.1755 -0.3906  0.0568
  211MPD1    H6 3216   0.383   2.042  15.932  0.6721  1.6105  1.0949
  211MPD1    H7 3217   0.248   2.147  15.941 -0.3287 -0.6561 -0.4775
  212MPD1     C 3218   3.770   0.750  16.817 -0.5326 -0.1670  0.5563
  212MPD1    C1 3219   3.813   0.626  16.769 -0.2857 -0.3005 -0.2487
  212MPD1    C2 3220   3.782   0.512  16.839  0.3389 -0.7786 -0.0212
  212MPD1    C3 3221   3.687   0.511  16.943 -0.2547 -0.0142  0.5771
  212MPD1    C4 3222   3.643   0.633  16.985 -0.1319  0.2898 -0.1160
  212MPD1    C5 3223   3.684   0.750  16.917 -0.7140 -0.7117 -0.4053
  212MPD1     H 3224   3.833   0.421  16.808  2.0288  0.5757 -1.2333
  212MPD1    H1 3225   3.572   0.651  17.064 -0.3742  2.2552 -0.7773
  212MPD1    H2 3226   3.802   0.843  16.770 -1.4792  0.5172  1.2617
  212MPD1    H3 3227   3.657   0.844  16.964  2.7090 -0.1226  0.3682
  212MPD1     N 3228   3.645   0.393  17.009 -0.1894  0.7783 -0.5401
  212MPD1    H5 3229   3.576   0.409  17.083 -0.8452  1.1579 -1.2248
  212MPD1    N1 3230   3.922   0.621  16.681 -0.2857  0.1505  0.1976
  212MPD1    H6 3231   3.937   0.703  16.621  1.9387  1.2569  2.2950
  212MPD1    H7 3232   3.936   0.540  16.621  0.4171 -0.3579  1.0556
  213MPD1     C 3233   1.751   1.013  16.234 -0.0593  0.1674  0.8842
  213MPD1    C1 3234   1.721   0.897  16.170 -0.4986  0.2780 -0.0882
  213MPD1    C2 3235   1.666   0.912  16.043  0.2066 -0.3464 -0.1059
  213MPD1    C3 3236   1.672   1.027  15.973 -0.4834  0.2490 -1.2619
  213MPD1    C4 3237   1.711   1.145  16.034 -0.0526  0.0031 -0.3202
  213MPD1    C5 3238   1.748   1.136  16.168 -0.4657 -0.3444 -0.1753
  213MPD1     H 3239   1.618   0.825  16.001  0.2183  0.5056 -1.8737
  213MPD1    H1 3240   1.712   1.240  15.981  2.0210 -0.6701 -1.5031
  213MPD1    H2 3241   1.782   1.011  16.338 -1.5948  0.6630  1.3604
  213MPD1    H3 3242   1.778   1.221  16.228 -0.8004  0.0868 -0.6247
  213MPD1     N 3243   1.638   1.024  15.834 -1.0078  0.0924  0.5433
  213MPD1    H5 3244   1.624   0.929  15.802 -0.7158  0.4912 -0.7768
  213MPD1    N1 3245   1.671   0.801  16.255 -0.6778 -0.0998  0.2795
  213MPD1    H6 3246   1.659   0.710  16.210  0.9329 -0.0386 -0.2831
  213MPD1    H7 3247   1.732   0.785  16.336  1.3888  3.8695 -0.4904
  214MPD1     C 3248   1.344   0.325  15.572 -0.5170  0.2947 -0.1874
  214MPD1    C1 3249   1.288   0.392  15.464 -0.0622 -0.0391 -0.0591
  214MPD1    C2 3250   1.318   0.528  15.448 -0.0721  0.4047  0.0594
  214MPD1    C3 3251   1.396   0.591  15.541  0.2735 -0.0391  0.3457
  214MPD1    C4 3252   1.437   0.525  15.654 -0.0000 -0.0346 -0.2050
  214MPD1    C5 3253   1.405   0.392  15.666  1.0943 -0.2271 -0.8339
  214MPD1     H 3254   1.290   0.584  15.359 -2.3445 -1.8919 -0.6717
  214MPD1    H1 3255   1.480   0.577  15.739 -0.6651  2.2240 -1.2485
  214MPD1    H2 3256   1.326   0.220  15.590  0.5299  0.5057  2.1487
  214MPD1    H3 3257   1.433   0.335  15.754  0.0328  0.1711 -0.2393
  214MPD1     N 3258   1.432   0.728  15.545  0.3923 -0.6435  0.0996
  214MPD1    H5 3259   1.477   0.747  15.633  0.8062 -0.9494 -0.0478
  214MPD1    N1 3260   1.228   0.316  15.363  0.3546 -0.5662  0.2930
  214MPD1    H6 3261   1.196   0.227  15.399 -0.1329 -0.5747 -0.1620
  214MPD1    H7 3262   1.159   0.359  15.302  0.4640 -0.3832  0.2974
  215MPD1     C 3263   1.778   1.539  11.109  0.1921  0.0476  0.1531
  215MPD1    C1 3264   1.833   1.578  11.233  0.4318 -0.0472 -0.1644
  215MPD1    C2 3265   1.786   1.691  11.296  0.2662  0.3556  0.2469
  215MPD1    C3 3266   1.687   1.772  11.240  0.3006  0.0974  0.0175
  215MPD1    C4 3267   1.636   1.730  11.111 -0.2020  0.1141 -0.8302
  215MPD1    C5 3268   1.683   1.620  11.053  0.0846  0.0480  0.0977
  215MPD1     H 3269   1.823   1.711  11.396  1.6867 -0.6584 -0.0781
  215MPD1    H1 3270   1.566   1.792  11.056 -0.4761  0.5229 -0.0121
  215MPD1    H2 3271   1.802   1.444  11.063 -0.8748 -0.0713 -0.1751
  215MPD1    H3 3272   1.656   1.601  10.950  2.1844  0.3572 -0.5027
  215MPD1     N 3273   1.648   1.898  11.293 -0.0765  0.8485  0.8333
  215MPD1    H5 3274   1.701   1.929  11.374 -0.4202 -0.1156  1.4127
  215MPD1    N1 3275   1.959   1.529  11.270  0.5299 -0.0539  0.2548
  215MPD1    H6 3276   1.979   1.540  11.369 -0.8157  1.5963  0.3381
  215MPD1    H7 3277   1.978   1.433  11.243  0.9667  0.4686 -1.2991
  216MPD1     C 3278   4.059   4.306  16.719  0.2577  0.3653 -0.2294
  216MPD1    C1 3279   4.119   4.186  16.727 -0.5424  0.1675 -0.5979
  216MPD1    C2 3280   4.151   4.146  16.854 -0.2079  0.3056 -0.1951
  216MPD1    C3 3281   4.135   4.223  16.968 -0.6556 -0.7512  0.9764
  216MPD1    C4 3282   4.084   4.350  16.954  0.4042 -0.7849  0.5534
  216MPD1    C5 3283   4.050   4.388  16.827 -0.1572  0.0100 -0.3777
  216MPD1     H 3284   4.196   4.048  16.865  3.7241  2.1801  0.2648
  216MPD1    H1 3285   4.064   4.425  17.029 -0.1082 -0.4019  0.0331
  216MPD1    H2 3286   4.029   4.351  16.625 -2.9222  0.0220  0.6377
  216MPD1    H3 3287   4.011   4.488  16.812  1.2151  0.6965  0.5511
  216MPD1     N 3288   4.152   4.170  17.095 -0.4455 -0.0807 -0.6897
  216MPD1    H5 3289   4.182   4.073  17.097 -2.1754 -0.6006 -0.2097
  216MPD1    N1 3290   4.131   4.094  16.615  0.3023 -0.6997  1.1715
  216MPD1    H6 3291   4.166   4.135  16.529  1.5265 -2.7532  0.7064
  216MPD1    H7 3292   4.187   4.012  16.636 -0.1820 -1.9187 -2.3504
  217MPD1     C 3293   4.230   1.862   9.642 -0.1593  0.5169  0.5467
  217MPD1    C1 3294   4.312   1.813   9.549  0.1336 -0.0116  0.4161
  217MPD1    C2 3295   4.332   1.675   9.539  0.9647  0.3103 -0.3621
  217MPD1    C3 3296   4.268   1.583   9.621  0.0696  0.4820  1.2384
  217MPD1    C4 3297   4.182   1.641   9.721  0.1385 -0.1303 -0.3296
  217MPD1    C5 3298   4.173   1.778   9.728 -0.2117 -1.1303 -0.3145
  217MPD1     H 3299   4.388   1.638   9.454 -0.1647  2.7032 -2.1500
  217MPD1    H1 3300   4.142   1.581   9.801  1.0970  2.4264  2.0511
  217MPD1    H2 3301   4.206   1.967   9.659  1.1957  0.9023  0.1037
  217MPD1    H3 3302   4.104   1.829   9.794  2.1178  2.0897 -0.3627
  217MPD1     N 3303   4.273   1.445   9.601  0.0526  0.3593  0.0461
  217MPD1    H5 3304   4.200   1.397   9.652  0.3915 -1.2196 -0.9594
  217MPD1    N1 3305   4.356   1.898   9.447 -0.5091 -0.0091 -0.1853
  217MPD1    H6 3306   4.365   1.992   9.486 -0.4601 -0.5820  1.1750
  217MPD1    H7 3307   4.444   1.868   9.406 -0.5924  0.3690 -0.6444
  218MPD1     C 3308   0.772   2.647  12.858  0.3697  0.2423  0.0435
  218MPD1    C1 3309   0.808   2.530  12.921 -0.0699 -0.3333  0.4896
  218MPD1    C2 3310   0.937   2.515  12.962 -0.5147  0.5175 -0.0266
  218MPD1    C3 3311   1.036   2.602  12.936 -0.1193 -0.4141 -0.5532
  218MPD1    C4 3312   0.998   2.721  12.875 -0.2785  0.2967  0.5046
  218MPD1    C5 3313   0.872   2.731  12.823  0.1010  0.4309  1.0117
  218MPD1     H 3314   0.979   2.437  13.025 -0.8290 -0.0980 -0.5784
  218MPD1    H1 3315   1.064   2.798  12.837  0.0155  0.2999  1.0205
  218MPD1    H2 3316   0.668   2.663  12.832  0.5499  0.1419 -0.7393
  218MPD1    H3 3317   0.840   2.819  12.769 -0.3772 -0.2944  0.1183
  218MPD1     N 3318   1.171   2.561  12.955  0.0976 -0.2603 -0.2123
  218MPD1    H5 3319   1.181   2.478  13.013 -1.6200 -0.8271 -0.7187
  218MPD1    N1 3320   0.703   2.451  12.976 -0.2447 -0.0100  0.0635
  218MPD1    H6 3321   0.621   2.441  12.916  1.2295  0.8066 -2.0877
  218MPD1    H7 3322   0.741   2.358  12.986  1.7404  1.1916  3.7898
  219MPD1     C 3323   2.240   2.640  12.711  0.3508 -0.3291  0.1602
  219MPD1    C1 3324   2.138   2.703  12.644  0.4496 -0.0990 -0.8245
  219MPD1    C2 3325   2.006   2.688  12.701 -0.6213  0.6958 -0.3886
  219MPD1    C3 3326   1.985   2.627  12.822  0.3633  0.5831  0.3968
  219MPD1    C4 3327   2.094   2.574  12.886  0.2563  0.3426  0.1565
  219MPD1    C5 3328   2.214   2.583  12.831  0.0606  0.1575  0.7625
  219MPD1     H 3329   1.924   2.739  12.653 -0.7288 -0.4683 -1.4326
  219MPD1    H1 3330   2.097   2.535  12.988  1.9002  1.3724  0.5029
  219MPD1    H2 3331   2.342   2.632  12.676  0.2989  1.1385 -0.3161
  219MPD1    H3 3332   2.295   2.543  12.892  0.7175  0.9028  0.3811
  219MPD1     N 3333   1.865   2.622  12.890 -1.1049 -0.1320  0.4166
  219MPD1    H5 3334   1.867   2.594  12.988  0.9134 -1.5329 -0.0208
  219MPD1    N1 3335   2.157   2.763  12.517  0.3865 -0.4367  0.0255
  219MPD1    H6 3336   2.098   2.842  12.490 -1.2724 -2.7093 -3.0502
  219MPD1    H7 3337   2.254   2.790  12.502  0.3842 -0.5722 -0.2365
  220MPD1     C 3338   1.450   1.847  10.586 -0.1151  0.0210 -0.0225
  220MPD1    C1 3339   1.441   1.977  10.538  0.7231 -0.0503 -0.2757
  220MPD1    C2 3340   1.314   2.024  10.508 -0.8715  0.7902 -0.6047
  220MPD1    C3 3341   1.202   1.956  10.542  0.2448  0.4799 -0.4591
  220MPD1    C4 3342   1.212   1.831  10.597 -0.4023  0.8729  0.6278
  220MPD1    C5 3343   1.337   1.776  10.610 -0.1920  0.0157 -0.0501
  220MPD1     H 3344   1.306   2.116  10.452  1.3454  2.0833  1.2312
  220MPD1    H1 3345   1.122   1.774  10.617 -0.3249  0.8084  0.7912
  220MPD1    H2 3346   1.549   1.803  10.597 -0.4786 -1.4478 -2.7042
  220MPD1    H3 3347   1.347   1.678  10.656  0.8674  0.4895  0.7440
  220MPD1     N 3348   1.077   2.022  10.535  0.2412 -0.2142 -0.3552
  220MPD1    H5 3349   1.074   2.110  10.484  0.0451  1.0670  1.8919
  220MPD1    N1 3350   1.562   2.045  10.505  0.5860 -0.4400 -0.3203
  220MPD1    H6 3351   1.552   2.146  10.510 -0.7505 -0.6402  0.7745
  220MPD1    H7 3352   1.626   2.035  10.584  0.3110  1.2516  0.1023
  221MPD1     C 3353   0.731   1.304  15.705  0.3439  0.5668  0.0340
  221MPD1    C1 3354   0.748   1.388  15.814  0.2688 -0.3686 -0.1787
  221MPD1    C2 3355   0.705   1.326  15.939 -0.3333  0.0926 -1.1405
  221MPD1    C3 3356   0.642   1.196  15.942 -0.3056 -0.1038 -0.2623
  221MPD1    C4 3357   0.627   1.129  15.826  0.4607  0.1948  0.3064
  221MPD1    C5 3358   0.686   1.180  15.715  0.2411  0.5444  0.2984
  221MPD1     H 3359   0.704   1.392  16.024 -0.9917 -1.0776 -0.2442
  221MPD1    H1 3360   0.580   1.032  15.821  0.1683  0.1803  3.1372
  221MPD1    H2 3361   0.749   1.355  15.611  0.9362 -2.6796 -1.6243
  221MPD1    H3 3362   0.669   1.122  15.625  0.3287 -0.7524  1.1326
  221MPD1     N 3363   0.601   1.135  16.061 -0.0420 -0.0652 -0.0835
  221MPD1    H5 3364   0.553   1.045  16.058 -0.6603  0.2995 -0.9182
  221MPD1    N1 3365   0.823   1.504  15.802 -0.4362 -0.4730 -0.1081
  221MPD1    H6 3366   0.799   1.562  15.722  0.9153  0.3858  0.1052
  221MPD1    H7 3367   0.820   1.559  15.888  0.1054 -0.5407 -0.0469
  222MPD1     C 3368   3.822   4.416  17.471  0.2743 -0.6304 -0.7384
  222MPD1    C1 3369   3.854   4.549  17.433  0.1403 -0.4538 -0.0943
  222MPD1    C2 3370   3.795   4.653  17.505  0.1398 -0.2764  0.4122
  222MPD1    C3 3371   3.690   4.631  17.585  0.8260  0.3593 -0.1686
  222MPD1    C4 3372   3.650   4.504  17.616 -1.1262 -0.6973 -0.1313
  222MPD1    C5 3373   3.722   4.399  17.564  0.2886  0.2539  0.4131
  222MPD1     H 3374   3.830   0.029  17.481 -2.2271 -0.5543 -4.1049
  222MPD1    H1 3375   3.562   4.486  17.677 -1.2287 -0.4638 -0.2103
  222MPD1    H2 3376   3.875   4.330  17.431 -0.4050 -0.7739 -1.3279
  222MPD1    H3 3377   3.682   4.300  17.583  0.0972  0.2650  0.0687
  222MPD1     N 3378   3.611   0.010  17.646 -0.2587 -0.0597 -0.1247
  222MPD1    H5 3379   3.538   4.701   0.012 -0.8253  0.1573 -0.6759
  222MPD1    N1 3380   3.974   4.578  17.367  0.0420  0.4086  0.7714
  222MPD1    H6 3381   3.994   4.517  17.288 -0.7695  0.3457  0.6185
  222MPD1    H7 3382   4.001   4.674  17.346 -0.7784  0.3400 -0.5737
  223MPD1     C 3383   3.120   4.435   0.519 -0.3584  0.1925 -0.0056
  223MPD1    C1 3384   3.175   4.393   0.402  0.5471 -0.3746 -0.1732
  223MPD1    C2 3385   3.208   4.491   0.308  0.5861  0.2257 -0.3110
  223MPD1    C3 3386   3.193   4.630   0.334  0.3366 -0.0498 -0.0203
  223MPD1    C4 3387   3.166   4.663   0.464 -0.1387 -0.0903 -0.3259
  223MPD1    C5 3388   3.137   4.567   0.557 -0.0967  0.1182 -0.1951
  223MPD1     H 3389   3.257   4.460   0.217 -1.1782 -0.8964 -0.8596
  223MPD1    H1 3390   3.173   0.040   0.503  0.7354 -0.6331  0.9266
  223MPD1    H2 3391   3.082   4.367   0.594 -1.3024  0.3900 -0.3098
  223MPD1    H3 3392   3.109   4.597   0.657  0.2224  1.4123 -0.4979
  223MPD1     N 3393   3.240   0.007   0.243  0.3410 -0.3869 -0.5426
  223MPD1    H5 3394   3.273   4.704   0.151  0.2248  0.0924 -0.7197
  223MPD1    N1 3395   3.190   4.254   0.368 -0.9589  0.3339 -0.2182
  223MPD1    H6 3396   3.275   4.245   0.313  0.8268  1.9399  2.2937
  223MPD1    H7 3397   3.200   4.197   0.452  0.8635 -2.1092 -2.0870
  224MPD1     C 3398   0.121   2.617   9.543 -0.1292 -0.1955  0.2360
  224MPD1    C1 3399   0.204   2.504   9.526 -0.1979 -0.2768  0.2721
  224MPD1    C2 3400   0.212   2.409   9.628 -0.0520 -0.1339  0.5271
  224MPD1    C3 3401   0.126   2.412   9.734  0.7969  0.3405 -0.2202
  224MPD1    C4 3402   0.036   2.514   9.748 -0.4205 -0.0917 -1.3305
  224MPD1    C5 3403   0.039   2.613   9.652 -0.1696  0.0154 -0.0413
  224MPD1     H 3404   0.267   2.319   9.607  2.5246  1.0907  2.0526
  224MPD1    H1 3405   4.678   2.514   9.820  0.8674 -1.1850  0.1186
  224MPD1    H2 3406   0.102   2.689   9.465 -0.1249 -0.4121  0.0339
  224MPD1    H3 3407   4.679   2.683   9.655  1.7286  2.3584 -1.5628
  224MPD1     N 3408   0.125   2.303   9.835  0.2980  0.9273  0.1109
  224MPD1    H5 3409   0.062   2.308   9.914  0.0640 -2.6623  0.1437
  224MPD1    N1 3410   0.265   2.495   9.402 -0.6709  0.4847 -0.8549
  224MPD1    H6 3411   0.356   2.450   9.402 -0.1307  1.5670 -0.6796
  224MPD1    H7 3412   0.277   2.588   9.363 -0.7418  0.8147 -0.0876
  225MPD1     C 3413   1.244   3.131  11.650 -0.3900 -0.1789 -0.6236
  225MPD1    C1 3414   1.111   3.156  11.625  0.4678  0.7206  0.5159
  225MPD1    C2 3415   1.026   3.106  11.713  1.1264 -0.1382  0.0180
  225MPD1    C3 3416   1.065   3.029  11.827 -0.6208  0.3719  0.7848
  225MPD1    C4 3417   1.198   2.996  11.844 -0.2981  0.0826 -0.8808
  225MPD1    C5 3418   1.286   3.054  11.760 -0.2162  0.0270  0.0427
  225MPD1     H 3419   0.925   3.146  11.708  1.4121  0.8354  1.9808
  225MPD1    H1 3420   1.233   2.948  11.935 -1.2441  0.4394 -0.3296
  225MPD1    H2 3421   1.312   3.180  11.582  1.1465 -0.4836  0.6841
  225MPD1    H3 3422   1.390   3.027  11.777 -0.9721 -1.8688  1.6052
  225MPD1     N 3423   0.977   2.999  11.934  0.2586 -0.4571 -0.0265
  225MPD1    H5 3424   1.014   2.936  12.004 -0.3370 -0.6742  0.0946
  225MPD1    N1 3425   1.070   3.266  11.543  0.6475  0.1918  0.0485
  225MPD1    H6 3426   0.981   3.239  11.502 -0.6264  4.1734  0.2158
  225MPD1    H7 3427   1.134   3.284  11.466  0.6553 -3.5623 -0.8499
  226MPD1     C 3428   0.292   4.175  10.672 -0.7562 -0.1200  0.2285
  226MPD1    C1 3429   0.259   4.151  10.543 -0.5073 -0.3573 -0.0191
  226MPD1    C2 3430   0.227   4.017  10.513  0.4844  0.1348 -0.4480
  226MPD1    C3 3431   0.250   3.908  10.597 -0.4250  0.7794  0.7009
  226MPD1    C4 3432   0.288   3.938  10.724 -0.3838 -0.4653 -0.3146
  226MPD1    C5 3433   0.311   4.075  10.763  0.9496 -0.1448  0.4051
  226MPD1     H 3434   0.189   3.990  10.416  0.0021 -2.5244  0.5021
  226MPD1    H1 3435   0.288   3.866  10.805 -0.4564  1.7349  1.6341
  226MPD1    H2 3436   0.320   4.276  10.698 -1.8811 -0.0604  1.2315
  226MPD1    H3 3437   0.353   4.085  10.862  0.6418  1.9250  0.3184
  226MPD1     N 3438   0.210   3.777  10.554  0.5584  0.3701 -0.0088
  226MPD1    H5 3439   0.184   3.776  10.456  0.2027 -0.9212  0.1023
  226MPD1    N1 3440   0.237   4.262  10.462 -0.4311  0.5661 -0.2885
  226MPD1    H6 3441   0.255   4.227  10.368  1.4086  0.4553  0.1043
  226MPD1    H7 3442   0.303   4.337  10.480  0.5120 -0.7709  1.7223
  227MPD1     C 3443   4.678   2.942  11.075 -0.2259  0.2306  0.6744
  227MPD1    C1 3444   4.612   3.064  11.096  0.0627  0.0350  0.9912
  227MPD1    C2 3445   4.617   3.159  10.993  0.0535 -0.4828 -0.2110
  227MPD1    C3 3446   4.677   3.131  10.870 -0.0780 -0.8353 -0.2139
  227MPD1    C4 3447   0.007   3.007  10.850  0.1920  0.3497  0.2209
  227MPD1    C5 3448   0.008   2.911  10.952  0.2007 -0.4817  0.0782
  227MPD1     H 3449   4.558   3.249  11.007  0.5659 -0.4749  1.8380
  227MPD1    H1 3450   0.050   2.980  10.755 -0.8954 -1.4952  0.2546
  227MPD1    H2 3451   4.674   2.860  11.147 -1.1587 -0.0215  0.3355
  227MPD1    H3 3452   0.058   2.814  10.952  0.4008 -0.3787  0.4172
  227MPD1     N 3453   4.668   3.230  10.773  0.4990 -0.2011 -0.1894
  227MPD1    H5 3454   4.623   3.315  10.807  0.6305  0.9646 -2.9061
  227MPD1    N1 3455   4.566   3.095  11.227  0.1134 -0.4082 -0.5126
  227MPD1    H6 3456   4.521   3.186  11.231  1.2494  0.1394 -0.0401
  227MPD1    H7 3457   4.517   3.024  11.280 -1.0472 -0.9196 -2.2800
  228MPD1     C 3458   2.974   0.810  12.753 -0.9231  0.2430 -0.0464
  228MPD1    C1 3459   2.859   0.880  12.740  0.3533  0.5460  0.6823
  228MPD1    C2 3460   2.735   0.816  12.748 -0.6344  0.1826  0.1125
  228MPD1    C3 3461   2.724   0.678  12.783  0.1146  0.4644 -0.2653
  228MPD1    C4 3462   2.843   0.612  12.805 -0.0767  0.4623 -0.3149
  228MPD1    C5 3463   2.966   0.679  12.799  0.0307  0.2025  0.1169
  228MPD1     H 3464   2.640   0.861  12.720 -0.7543  0.9149  1.7502
  228MPD1    H1 3465   2.835   0.510  12.840  0.5247  0.2856 -0.7042
  228MPD1    H2 3466   3.071   0.858  12.756 -1.4546  1.3236 -0.0223
  228MPD1    H3 3467   3.056   0.627  12.828 -1.9453 -2.8794  0.6849
  228MPD1     N 3468   2.601   0.613  12.764 -0.1048 -0.3057 -0.0244
  228MPD1    H5 3469   2.525   0.663  12.717  1.3266  0.1092 -1.9193
  228MPD1    N1 3470   2.860   1.003  12.682 -0.3304 -0.7789 -0.2379
  228MPD1    H6 3471   2.780   1.060  12.706  0.4728  0.1202  0.2852
  228MPD1    H7 3472   2.947   1.051  12.705  0.4023 -1.1171 -2.3212
  229MPD1     C 3473   2.165   3.736  15.420  0.0732 -0.3241  0.4003
  229MPD1    C1 3474   2.226   3.615  15.438 -1.0990 -0.7821 -0.9335
  229MPD1    C2 3475   2.351   3.613  15.499 -0.1323  0.0077 -0.2003
  229MPD1    C3 3476   2.415   3.726  15.540 -0.3876 -0.1345  0.4198
  229MPD1    C4 3477   2.347   3.849  15.526 -0.2833  0.1160  0.4182
  229MPD1    C5 3478   2.229   3.853  15.459 -0.0979 -1.0376  1.0056
  229MPD1     H 3479   2.393   3.516  15.521  0.5639  0.6206  1.1979
  229MPD1    H1 3480   2.376   3.948  15.558 -1.1508 -0.0445  1.7113
  229MPD1    H2 3481   2.070   3.749  15.369  0.5377  0.6601 -0.2195
  229MPD1    H3 3482   2.173   3.944  15.438 -1.8428 -2.7249 -1.8030
  229MPD1     N 3483   2.541   3.710  15.592 -0.5223 -0.2663  0.2608
  229MPD1    H5 3484   2.603   3.633  15.568 -1.0459 -0.5345 -0.2424
  229MPD1    N1 3485   2.175   3.499  15.376  0.4654 -0.0789  0.2637
  229MPD1    H6 3486   2.073   3.507  15.374  0.2776 -1.8775  3.4742
  229MPD1    H7 3487   2.192   3.412  15.426  0.7274  0.1513  0.5723
  230MPD1     C 3488   3.485   3.837  16.081 -0.0665 -0.1413 -0.4298
  230MPD1    C1 3489   3.497   3.766  15.961  0.2209 -0.1008 -0.8661
  230MPD1    C2 3490   3.394   3.773  15.875 -0.1591 -0.0807 -0.4008
  230MPD1    C3 3491   3.278   3.840  15.904  0.8974  0.1430 -0.1725
  230MPD1    C4 3492   3.269   3.910  16.024 -0.1185  0.7898 -0.4772
  230MPD1    C5 3493   3.373   3.916  16.107 -0.6207 -0.0369 -0.3822
  230MPD1     H 3494   3.385   3.732  15.775 -1.3386 -0.8100  0.0024
  230MPD1    H1 3495   3.182   3.972  16.044  0.9737  1.7909  1.1885
  230MPD1    H2 3496   3.568   3.844  16.151  0.3271 -1.1461 -0.7911
  230MPD1    H3 3497   3.358   3.982  16.192 -0.8288 -1.2133  0.4836
  230MPD1     N 3498   3.171   3.855  15.803 -0.4122  0.2080 -0.6396
  230MPD1    H5 3499   3.195   3.810  15.715  2.4885 -0.7993  0.7003
  230MPD1    N1 3500   3.596   3.668  15.948 -0.3801 -0.3193 -1.0581
  230MPD1    H6 3501   3.612   3.639  15.852  0.1694  1.1248 -1.4093
  230MPD1    H7 3502   3.684   3.694  15.993 -0.7323 -0.3164 -0.3823
  231MPD1     C 3503   0.839   1.421  15.371 -0.2533  0.4725  0.6241
  231MPD1    C1 3504   0.854   1.364  15.245 -0.4894 -0.0822 -0.0162
  231MPD1    C2 3505   0.983   1.365  15.196 -0.3379  0.4019  0.3810
  231MPD1    C3 3506   1.093   1.430  15.251 -0.2520 -0.0623 -0.5859
  231MPD1    C4 3507   1.070   1.493  15.367  0.2663  0.1898 -0.2951
  231MPD1    C5 3508   0.942   1.486  15.427  0.8218  0.6463 -0.2241
  231MPD1     H 3509   1.011   1.323  15.100 -2.0773  0.7249 -0.2666
  231MPD1    H1 3510   1.143   1.539  15.432  0.5546 -1.7831  0.7818
  231MPD1    H2 3511   0.741   1.425  15.417 -0.5739 -0.9388  0.0773
  231MPD1    H3 3512   0.930   1.547  15.516  1.4049 -0.0967  0.3667
  231MPD1     N 3513   1.220   1.430  15.186  0.3834  0.3116  0.6104
  231MPD1    H5 3514   1.218   1.396  15.091  0.5932  1.0280  0.3492
  231MPD1    N1 3515   0.752   1.286  15.177  0.2173  0.0490  0.5351
  231MPD1    H6 3516   0.655   1.292  15.206  0.0774 -1.3486  0.3553
  231MPD1    H7 3517   0.752   1.290  15.075 -2.5484 -2.1005  0.4463
  232MPD1     C 3518   3.086   2.970   0.041  0.3911  0.6814 -0.5312
  232MPD1    C1 3519   3.011   2.902   0.137 -0.2486 -0.6632  0.4283
  232MPD1    C2 3520   2.894   2.960   0.179 -0.3198 -0.9383  0.1094
  232MPD1    C3 3521   2.842   3.075   0.122  0.8053 -0.4402 -0.5780
  232MPD1    C4 3522   2.922   3.139   0.032 -0.2600  0.5981  0.2166
  232MPD1    C5 3523   3.039   3.085  17.685  0.4364  0.6592 -0.4114
  232MPD1     H 3524   2.836   2.908   0.254 -0.1642 -1.4837 -0.1489
  232MPD1    H1 3525   2.885   3.227  17.677  1.5107 -0.4160 -2.7540
  232MPD1    H2 3526   3.184   2.935   0.008  0.6158  0.6215  0.1991
  232MPD1    H3 3527   3.096   3.147  17.616 -0.7439  1.8447 -0.3093
  232MPD1     N 3528   2.703   3.104   0.145  0.0244  0.2190  0.4351
  232MPD1    H5 3529   2.648   3.045   0.206 -2.3509  1.1347 -0.8212
  232MPD1    N1 3530   3.064   2.798   0.209  0.4390  0.2898  0.2930
  232MPD1    H6 3531   3.097   2.726   0.145 -0.7182  0.1230 -0.1303
  232MPD1    H7 3532   2.999   2.746   0.267 -1.7778  3.0788  0.3082
  233MPD1     C 3533   4.693   2.029   2.759 -0.1987 -0.5315  0.2190
  233MPD1    C1 3534   0.067   1.934   2.775  0.2190 -0.1085  0.2133
  233MPD1    C2 3535   0.186   1.940   2.701 -0.4289 -0.1965 -0.3615
  233MPD1    C3 3536   0.203   2.049   2.619  0.1089 -0.6574  1.5276
  233MPD1    C4 3537   0.105   2.144   2.611 -0.5055  0.3482 -1.0078
  233MPD1    C5 3538   4.717   2.141   2.682 -0.7246 -0.0151 -0.1796
  233MPD1     H 3539   0.267   1.871   2.725  0.2509  0.5167 -0.5911
  233MPD1    H1 3540   0.120   2.229   2.545 -0.4214  0.2621 -1.0996
  233MPD1    H2 3541   4.606   2.025   2.824 -1.0694 -2.4262 -1.0928
  233MPD1    H3 3542   4.646   2.222   2.679 -2.4183 -1.5082  0.0515
  233MPD1     N 3543   0.315   2.059   2.540  0.2109  0.0288 -0.0393
  233MPD1    H5 3544   0.314   2.132   2.469 -2.2524 -0.0253 -0.0603
  233MPD1    N1 3545   0.045   1.812   2.846 -0.5437  0.6930  0.0088
  233MPD1    H6 3546   0.121   1.762   2.890 -1.1473  0.4719  0.8054
  233MPD1    H7 3547   4.705   1.833   2.922 -0.3408  0.8393  0.1353
  234MPD1     C 3548   1.055   0.497   9.733 -0.2958 -0.3604  0.2225
  234MPD1    C1 3549   0.935   0.444   9.772  0.3389 -0.0855  0.1594
  234MPD1    C2 3550   0.849   0.526   9.835 -0.0904 -0.1813 -0.0442
  234MPD1    C3 3551   0.879   0.658   9.863 -0.0578  0.0465 -0.3692
  234MPD1    C4 3552   1.002   0.708   9.827 -0.0847 -0.1476 -0.0658
  234MPD1    C5 3553   1.090   0.623   9.766 -0.4956  0.1541  0.5426
  234MPD1     H 3554   0.754   0.486   9.867  0.1594 -1.3251 -0.7429
  234MPD1    H1 3555   1.036   0.807   9.853  0.3261  0.1007 -1.5891
  234MPD1    H2 3556   1.138   0.441   9.692 -0.3551  0.1140 -0.5443
  234MPD1    H3 3557   1.192   0.657   9.757 -0.1546 -0.7346  1.1174
  234MPD1     N 3558   0.780   0.742   9.918  0.0929  0.4221  0.2540
  234MPD1    H5 3559   0.690   0.695   9.926  0.8826 -0.8051  2.0345
  234MPD1    N1 3560   0.900   0.315   9.729 -0.0962 -0.3922  0.4103
  234MPD1    H6 3561   0.855   0.260   9.802 -0.0220  1.5629  1.9344
  234MPD1    H7 3562   0.983   0.258   9.714 -0.3847 -0.7064  0.0176
  235MPD1     C 3563   1.016   3.023  11.132 -0.1786  0.8847 -0.1677
  235MPD1    C1 3564   1.029   2.993  11.000  0.9632 -0.2082 -0.2592
  235MPD1    C2 3565   1.154   3.018  10.939 -0.0483 -0.0768 -0.2258
  235MPD1    C3 3566   1.248   3.096  11.001 -0.4691 -0.4187 -0.2179
  235MPD1    C4 3567   1.219   3.130  11.130 -0.0565  0.4614 -0.2596
  235MPD1    C5 3568   1.115   3.076  11.205 -0.3605 -0.5374  0.1446
  235MPD1     H 3569   1.170   2.982  10.838 -0.1348 -0.1439 -0.2147
  235MPD1    H1 3570   1.283   3.209  11.169  0.9033  0.6922 -2.2910
  235MPD1    H2 3571   0.928   2.989  11.185 -2.2627  2.2998 -2.6714
  235MPD1    H3 3572   1.095   3.118  11.303 -2.8079 -1.6660  0.1160
  235MPD1     N 3573   1.350   3.164  10.927 -0.2112  0.4720 -0.0447
  235MPD1    H5 3574   1.348   3.146  10.827  0.8476 -0.0318  0.0283
  235MPD1    N1 3575   0.934   2.916  10.934 -0.2637 -0.5388  0.1304
  235MPD1    H6 3576   0.835   2.914  10.956  0.1249 -2.6539  1.6574
  235MPD1    H7 3577   0.946   2.916  10.832 -0.6399  2.5315  0.0825
  236MPD1     C 3578   1.630   4.519  10.726 -0.1122 -0.5066  0.5005
  236MPD1    C1 3579   1.502   4.494  10.764 -0.0380 -0.6508 -0.2093
  236MPD1    C2 3580   1.469   4.398  10.863 -0.8461 -0.3401 -0.7960
  236MPD1    C3 3581   1.576   4.320  10.915  0.3199  0.8210  0.1915
  236MPD1    C4 3582   1.703   4.358  10.880 -0.3980  0.2429 -0.8222
  236MPD1    C5 3583   1.733   4.448  10.780 -0.2590 -0.2846  0.4489
  236MPD1     H 3584   1.366   4.388  10.893 -0.0690 -1.4907  1.4951
  236MPD1    H1 3585   1.777   4.305  10.939 -1.5768  1.5940  1.8853
  236MPD1    H2 3586   1.645   4.590  10.646 -2.5181 -1.1862 -0.5727
  236MPD1    H3 3587   1.839   4.460  10.764 -0.1690 -0.6518  0.7746
  236MPD1     N 3588   1.571   4.212  11.010 -0.1713 -0.2641  0.8076
  236MPD1    H5 3589   1.659   4.170  11.039  1.0697  1.8117  0.0527
  236MPD1    N1 3590   1.397   4.552  10.692  0.3027  0.0692  0.3786
  236MPD1    H6 3591   1.431   4.623  10.627  0.4290 -1.1192 -0.8627
  236MPD1    H7 3592   1.310   4.569  10.740 -0.1921  1.6138 -1.0787
  237MPD1     C 3593   1.202   3.399  15.218  0.3749  0.0145 -0.1924
  237MPD1    C1 3594   1.284   3.326  15.297  0.0622  0.5609 -0.1521
  237MPD1    C2 3595   1.250   3.189  15.319 -0.2133 -1.0225  0.0124
  237MPD1    C3 3596   1.141   3.126  15.259 -0.2861 -0.6972 -0.3526
  237MPD1    C4 3597   1.062   3.202  15.172 -0.5226  0.3877  0.5698
  237MPD1    C5 3598   1.089   3.340  15.160 -0.4517 -0.2292 -0.3279
  237MPD1     H 3599   1.331   3.133  15.366  0.4056  1.0708  1.4313
  237MPD1    H1 3600   0.970   3.167  15.127  1.2261 -0.8014 -2.0471
  237MPD1    H2 3601   1.223   3.502  15.193  0.6424  0.3996  1.5979
  237MPD1    H3 3602   1.035   3.402  15.090 -0.0939 -0.5226 -0.8636
  237MPD1     N 3603   1.101   2.996  15.291 -0.0756  0.6560  0.3295
  237MPD1    H5 3604   1.025   2.952  15.240  0.1746 -2.6617  2.8337
  237MPD1    N1 3605   1.401   3.394  15.351 -0.0551 -0.1391  0.2484
  237MPD1    H6 3606   1.408   3.389  15.453  2.1385  1.1421  0.1738
  237MPD1    H7 3607   1.405   3.496  15.344 -1.6922 -0.0739  0.4349
  238MPD1     C 3608   2.379   1.940  15.344  0.1233 -1.1376  0.4524
  238MPD1    C1 3609   2.446   1.936  15.221 -0.5676  0.2710 -0.0517
  238MPD1    C2 3610   2.426   1.823  15.148 -0.7684 -1.0022 -0.0104
  238MPD1    C3 3611   2.348   1.715  15.202 -0.3511  0.0829 -0.3315
  238MPD1    C4 3612   2.272   1.739  15.313  0.4940 -0.1644 -0.2205
  238MPD1    C5 3613   2.281   1.856  15.380 -0.0632  1.1329 -0.6475
  238MPD1     H 3614   2.499   1.803  15.071 -0.3025  2.8561 -0.5539
  238MPD1    H1 3615   2.188   1.677  15.343 -0.3685  1.1528  0.1280
  238MPD1    H2 3616   2.388   2.034  15.397  4.2435 -0.7933 -0.8408
  238MPD1    H3 3617   2.219   1.877  15.467 -2.2787 -0.7619 -1.7463
  238MPD1     N 3618   2.337   1.592  15.143  0.1383  0.7042 -0.5681
  238MPD1    H5 3619   2.283   1.521  15.191 -2.0383  0.6835 -3.0379
  238MPD1    N1 3620   2.553   2.023  15.195 -0.3058 -0.4940  0.5794
  238MPD1    H6 3621   2.549   2.113  15.242 -2.5754 -0.9826  1.3221
  238MPD1    H7 3622   2.570   2.031  15.095  0.6967  2.4530  0.9906
  239MPD1     C 3623   2.939   2.293  15.044  0.1676  0.4716 -0.1667
  239MPD1    C1 3624   3.030   2.316  14.949  0.7153  0.1465 -0.3056
  239MPD1    C2 3625   3.000   2.298  14.815 -0.0702  0.1252 -0.1448
  239MPD1    C3 3626   2.871   2.274  14.778 -0.9138 -0.1359  0.3562
  239MPD1    C4 3627   2.774   2.258  14.875 -0.1593  0.4637  0.5563
  239MPD1    C5 3628   2.806   2.271  15.010  0.1285 -0.1370  0.5524
  239MPD1     H 3629   3.085   2.305  14.749 -1.6294  0.1093 -2.1593
  239MPD1    H1 3630   2.671   2.248  14.842  0.2068  2.2345 -1.0989
  239MPD1    H2 3631   2.956   2.290  15.151  0.7574  2.1917 -0.2127
  239MPD1    H3 3632   2.732   2.272  15.090  0.1068  3.8060  0.5250
  239MPD1     N 3633   2.835   2.239  14.640 -0.5942 -0.2060 -0.0372
  239MPD1    H5 3634   2.740   2.209  14.621 -0.4653  0.8653 -2.3385
  239MPD1    N1 3635   3.167   2.336  14.983 -0.4910  0.1763  0.0034
  239MPD1    H6 3636   3.209   2.379  14.901 -1.3595  0.0271 -0.5192
  239MPD1    H7 3637   3.180   2.391  15.067 -0.6379  0.1322  0.0554
  240MPD1     C 3638   3.246   1.124  13.535 -0.2584 -0.1472 -0.1099
  240MPD1    C1 3639   3.314   1.196  13.632  0.2804  0.8866 -1.2680
  240MPD1    C2 3640   3.246   1.218  13.752  0.2950  0.1994  0.6277
  240MPD1    C3 3641   3.116   1.211  13.767  0.3075  0.3906 -0.4677
  240MPD1    C4 3642   3.047   1.147  13.665 -0.0029  0.5076  0.2902
  240MPD1    C5 3643   3.118   1.100  13.556 -0.3784 -0.6018 -0.1254
  240MPD1     H 3644   3.305   1.240  13.840 -2.3243 -2.0710  2.9434
  240MPD1    H1 3645   2.943   1.118  13.675  0.1629 -0.5377 -0.9738
  240MPD1    H2 3646   3.292   1.089  13.444 -1.3892 -0.4586 -0.5565
  240MPD1    H3 3647   3.069   1.047  13.475  1.1927  0.8913 -2.0632
  240MPD1     N 3648   3.061   1.252  13.891  0.5272  0.0771  0.6961
  240MPD1    H5 3649   3.131   1.282  13.958 -0.2801  0.4104  1.3860
  240MPD1    N1 3650   3.453   1.217  13.616  0.2455 -0.0488 -0.3662
  240MPD1    H6 3651   3.482   1.219  13.518  2.1792  2.1737  0.2580
  240MPD1    H7 3652   3.483   1.303  13.662 -2.2649  0.3565  0.4958
  241MPD1     C 3653   3.352   1.487  14.781  0.2853 -0.0331 -0.1785
  241MPD1    C1 3654   3.396   1.470  14.655  0.7269  0.2907 -0.5801
  241MPD1    C2 3655   3.301   1.446  14.553 -0.2786 -0.2424  0.4271
  241MPD1    C3 3656   3.168   1.449  14.581 -0.4676 -0.0683 -0.7684
  241MPD1    C4 3657   3.128   1.457  14.718  0.0027 -0.5839 -0.1676
  241MPD1    C5 3658   3.219   1.479  14.817  0.5754  0.1218  0.3721
  241MPD1     H 3659   3.336   1.438  14.451  2.0769 -1.5640  1.3418
  241MPD1    H1 3660   3.025   1.469  14.750  0.1148 -0.9298  0.3300
  241MPD1    H2 3661   3.420   1.496  14.864 -1.4926 -0.0908  1.2962
  241MPD1    H3 3662   3.194   1.482  14.922  2.6369 -1.2981  0.8921
  241MPD1     N 3663   3.070   1.433  14.479 -0.2797  0.1528  0.3091
  241MPD1    H5 3664   2.975   1.444  14.513 -0.5478  1.8252 -0.9846
  241MPD1    N1 3665   3.530   1.500  14.636 -0.1604 -0.8636  0.2513
  241MPD1    H6 3666   3.571   1.452  14.556  3.6059  2.6156  0.0739
  241MPD1    H7 3667   3.590   1.490  14.717  0.4376  1.4349  0.0811
  242MPD1     C 3668   2.068   1.075  15.925 -0.9719 -0.0462  0.1638
  242MPD1    C1 3669   2.172   1.078  15.844 -0.0928 -0.2357 -0.3186
  242MPD1    C2 3670   2.209   0.959  15.786  0.4731 -0.3514  0.2059
  242MPD1    C3 3671   2.131   0.845  15.786  0.7408 -0.2340  0.1905
  242MPD1    C4 3672   2.015   0.850  15.855 -0.0820 -0.8452 -0.0093
  242MPD1    C5 3673   1.988   0.965  15.926  0.8581  0.4365 -0.0608
  242MPD1     H 3674   2.294   0.955  15.718 -0.0357 -2.0222 -0.3134
  242MPD1    H1 3675   1.948   0.766  15.870  0.0819 -0.4821  2.8368
  242MPD1    H2 3676   2.037   1.161  15.983  0.0702  0.9841 -0.8324
  242MPD1    H3 3677   1.912   0.956  16.003  1.2887  2.2710  0.5802
  242MPD1     N 3678   2.157   0.728  15.703  0.1567 -0.4856  0.0089
  242MPD1    H5 3679   2.085   0.657  15.704 -1.2924  0.9703 -0.7145
  242MPD1    N1 3680   2.259   1.189  15.849 -0.3789 -0.4524  0.2588
  242MPD1    H6 3681   2.316   1.199  15.765  0.7148  0.8499  1.1693
  242MPD1    H7 3682   2.219   1.280  15.869  0.4728 -0.0506  0.1492
  243MPD1     C 3683   4.379   2.954  17.389  0.4284 -0.0705 -0.5196
  243MPD1    C1 3684   4.294   3.024  17.312  0.5492  0.1461  0.7962
  243MPD1    C2 3685   4.213   2.956  17.224  0.0529  0.2229 -0.5834
  243MPD1    C3 3686   4.234   2.816  17.198  0.1153  0.2231  0.1499
  243MPD1    C4 3687   4.341   2.758  17.265 -0.2598  0.5197 -0.6349
  243MPD1    C5 3688   4.411   2.826  17.360 -0.2335 -0.6944 -0.0001
  243MPD1     H 3689   4.132   3.008  17.174 -0.4785  0.4992  0.5768
  243MPD1    H1 3690   4.365   2.652  17.261 -1.0076  0.2460  2.2043
  243MPD1    H2 3691   4.445   3.007  17.457 -0.7335  1.0153 -0.2375
  243MPD1    H3 3692   4.494   2.780  17.413  1.0949  0.5719 -1.0185
  243MPD1     N 3693   4.150   2.746  17.105  0.1462 -0.8073 -1.1111
  243MPD1    H5 3694   4.070   2.795  17.067 -0.3696 -1.3138 -0.6758
  243MPD1    N1 3695   4.263   3.150  17.342  0.1768  0.0447  0.2174
  243MPD1    H6 3696   4.235   3.202  17.259  1.5780 -0.6175 -0.6771
  243MPD1    H7 3697   4.341   3.190  17.394  0.2869 -1.6293  1.3481
  244MPD1     C 3698   3.950   1.805  16.869  0.3449 -0.2011 -0.1001
  244MPD1    C1 3699   3.907   1.881  16.978  0.1015 -0.3656 -0.3615
  244MPD1    C2 3700   3.914   2.019  16.966 -0.3629 -0.5350 -0.1162
  244MPD1    C3 3701   3.963   2.071  16.847 -0.4420  0.1888 -0.8118
  244MPD1    C4 3702   3.998   1.999  16.735 -0.1239 -0.2026 -0.1407
  244MPD1    C5 3703   3.983   1.864  16.751 -0.7618  0.0749  0.7519
  244MPD1     H 3704   3.882   2.081  17.049  0.9228  0.3634 -0.2931
  244MPD1    H1 3705   4.018   2.042  16.638 -1.8729  2.0647  0.4997
  244MPD1    H2 3706   3.933   1.698  16.874 -0.1210 -0.1255 -0.1095
  244MPD1    H3 3707   4.015   1.796  16.673 -0.7374 -2.4870  2.9825
  244MPD1     N 3708   3.981   2.216  16.852  0.9763 -0.0938  0.1194
  244MPD1    H5 3709   3.955   2.265  16.938 -0.2287 -4.2002  2.0962
  244MPD1    N1 3710   3.890   1.819  17.105 -0.4788 -0.0024 -0.2416
  244MPD1    H6 3711   3.861   1.722  17.097 -0.1296 -0.1839  0.6677
  244MPD1    H7 3712   3.838   1.872  17.174 -0.4763 -1.2131  0.7023
  245MPD1     C 3713   0.716   3.665  13.852 -0.2140 -0.8350  0.2986
  245MPD1    C1 3714   0.619   3.764  13.834  0.2047  0.1531 -0.3977
  245MPD1    C2 3715   0.661   3.897  13.848 -0.8151 -0.5387 -0.6423
  245MPD1    C3 3716   0.796   3.929  13.874 -0.0241 -0.3390 -0.2662
  245MPD1    C4 3717   0.882   3.834  13.906  0.4295  0.2677  0.0326
  245MPD1    C5 3718   0.841   3.703  13.888  0.5084 -0.0237  0.2973
  245MPD1     H 3719   0.587   3.974  13.834 -0.6726 -0.4087 -0.6783
  245MPD1    H1 3720   0.989   3.853  13.912  0.3843  1.0110 -1.4241
  245MPD1    H2 3721   0.689   3.560  13.854 -0.3233 -0.8150 -0.2320
  245MPD1    H3 3722   0.912   3.627  13.916  1.1683  0.3582 -0.3399
  245MPD1     N 3723   0.831   4.064  13.861  0.4484 -0.6675  0.3937
  245MPD1    H5 3724   0.763   4.132  13.828  2.0305  0.6382 -0.1671
  245MPD1    N1 3725   0.485   3.724  13.816  0.1581 -0.7773 -0.0691
  245MPD1    H6 3726   0.478   3.629  13.853 -3.2482 -0.0623  1.0857
  245MPD1    H7 3727   0.428   3.774  13.883  1.1853  1.0996 -0.6172
  246MPD1     C 3728   2.997   0.107  10.540 -0.5596 -0.0645 -0.3263
  246MPD1    C1 3729   3.029   4.719  10.463 -0.4302  0.1806  0.4475
  246MPD1    C2 3730   3.007   4.723  10.326  0.0894 -0.1881 -0.3632
  246MPD1    C3 3731   2.978   0.121  10.263 -0.5164 -0.4234  0.0211
  246MPD1    C4 3732   2.964   0.234  10.341  0.3301  0.2724  0.0857
  246MPD1    C5 3733   2.971   0.229  10.479  0.5596  0.5814 -0.0518
  246MPD1     H 3734   3.041   4.636  10.271  1.0828 -0.0604  0.0401
  246MPD1    H1 3735   2.927   0.330  10.305 -0.4540  0.4043  1.2140
  246MPD1    H2 3736   3.010   0.098  10.648 -1.5957 -1.2692 -0.3044
  246MPD1    H3 3737   2.949   0.319  10.535 -1.8878 -0.1530  0.1745
  246MPD1     N 3738   2.949   0.121  10.127 -0.0827  0.1717  0.5970
  246MPD1    H5 3739   2.970   0.035  10.078 -2.8875  1.2114 -2.4351
  246MPD1    N1 3740   3.039   4.592  10.525  0.6009  0.8093 -0.2535
  246MPD1    H6 3741   3.089   4.521  10.472  1.0568 -0.8447  2.3586
  246MPD1    H7 3742   3.080   4.606  10.618 -1.8469  0.1974  0.9162
  247MPD1     C 3743   0.120   4.420  16.971  0.1102  0.7577 -0.3996
  247MPD1    C1 3744   0.094   4.444  16.840  0.2585 -0.3090 -0.1678
  247MPD1    C2 3745   0.106   4.338  16.748 -0.0107 -0.8968 -0.1340
  247MPD1    C3 3746   0.151   4.216  16.793 -0.2067 -0.5005 -0.0388
  247MPD1    C4 3747   0.186   4.200  16.928 -0.6435 -0.1512  0.2423
  247MPD1    C5 3748   0.179   4.303  17.013 -0.1114 -0.6736 -0.2581
  247MPD1     H 3749   0.084   4.354  16.643  0.3799 -0.2489 -0.1193
  247MPD1    H1 3750   0.218   4.107  16.975 -1.0946 -0.7590 -0.6474
  247MPD1    H2 3751   0.095   4.491  17.048 -0.9903  0.4025 -0.4376
  247MPD1    H3 3752   0.210   4.295  17.117  1.2338 -0.8416 -0.6718
  247MPD1     N 3753   0.173   4.104  16.704  0.7025 -0.8470 -0.0813
  247MPD1    H5 3754   0.194   4.014  16.747  0.7000 -1.7673 -2.0141
  247MPD1    N1 3755   0.070   4.568  16.793 -0.0707  0.1001  0.0929
  247MPD1    H6 3756   0.037   4.581  16.698  0.2070 -0.0767 -0.0278
  247MPD1    H7 3757   0.006   4.623  16.850 -0.7118 -0.5099 -0.0498
  248MPD1     C 3758   1.202   4.080   1.066  0.1773 -0.6869 -0.7903
  248MPD1    C1 3759   1.172   3.964   1.137  0.8922  0.0461 -0.1170
  248MPD1    C2 3760   1.090   3.866   1.080 -0.7619  0.3011  0.2507
  248MPD1    C3 3761   1.016   3.895   0.969  0.1647  0.3152  0.3474
  248MPD1    C4 3762   1.026   4.024   0.913  0.6235  0.0088  0.7533
  248MPD1    C5 3763   1.114   4.106   0.963  0.3497  0.5745 -0.5148
  248MPD1     H 3764   1.095   3.761   1.105  0.9739  0.5627  1.0746
  248MPD1    H1 3765   0.960   4.057   0.833  0.1335  1.3626  1.7089
  248MPD1    H2 3766   1.272   4.150   1.108 -0.5123 -1.0200  0.9127
  248MPD1    H3 3767   1.124   4.200   0.911 -1.1001  0.6243 -0.7041
  248MPD1     N 3768   0.916   3.801   0.932  0.8112 -0.0959 -0.1582
  248MPD1    H5 3769   0.905   3.721   0.994 -2.9720 -1.2541 -2.3148
  248MPD1    N1 3770   1.268   3.930   1.229 -0.1186  0.1836 -0.2528
  248MPD1    H6 3771   1.236   3.875   1.309  0.3303 -0.9410 -0.8554
  248MPD1    H7 3772   1.306   4.009   1.281 -0.3202 -0.8267  1.4460
  249MPD1     C 3773   1.251   1.728  10.077 -0.8507 -0.6901 -1.0048
  249MPD1    C1 3774   1.268   1.821  10.177 -0.3523  0.1749  0.1196
  249MPD1    C2 3775   1.203   1.946  10.168 -0.1927 -0.8750  0.7698
  249MPD1    C3 3776   1.113   1.971  10.070  0.5110  0.5571  0.4086
  249MPD1    C4 3777   1.089   1.876   9.976  0.3159 -0.7508 -0.2529
  249MPD1    C5 3778   1.150   1.750   9.986  0.3422  0.3132 -0.0748
  249MPD1     H 3779   1.231   2.020  10.242 -0.2429  0.9090 -0.9939
  249MPD1    H1 3780   1.024   1.894   9.891  0.4259 -0.4586 -0.2749
  249MPD1    H2 3781   1.306   1.634  10.077 -0.3390 -0.3921 -1.3409
  249MPD1    H3 3782   1.120   1.674   9.915 -2.4052  1.1497  0.1812
  249MPD1     N 3783   1.052   2.100  10.057  0.1853 -0.5950 -0.0864
  249MPD1    H5 3784   0.998   2.112   9.972  2.3903  0.1051 -1.3780
  249MPD1    N1 3785   1.375   1.798  10.268  0.0714  0.1723  0.0765
  249MPD1    H6 3786   1.389   1.698  10.270  0.3571  0.2156  0.1988
  249MPD1    H7 3787   1.360   1.828  10.364  1.8358  0.5566  0.2332
  250MPD2     C 3788   3.376   3.096  13.098 -0.3900 -0.3936 -0.4916
  250MPD2    C1 3789   3.442   2.978  13.109 -0.5047  0.7371  0.3347
  250MPD2    C2 3790   3.394   2.866  13.033  0.0492  0.0544  1.3610
  250MPD2    C3 3791   3.280   2.881  12.952 -0.4475  0.1786  0.2631
  250MPD2    C4 3792   3.217   3.005  12.949 -0.3114  0.1368  0.5340
  250MPD2    C5 3793   3.267   3.105  13.021 -0.9573  0.5026 -0.2889
  250MPD2     H 3794   3.451   2.773  13.032 -2.5005 -1.4985  1.7667
  250MPD2    H1 3795   3.123   3.015  12.895 -0.5833  0.6959  1.1154
  250MPD2    H2 3796   3.394   3.172  13.173  0.2707  0.1201 -1.1689
  250MPD2    H3 3797   3.213   3.196  13.043  0.9097  0.8605  2.8772
  250MPD2     N 3798   3.223   2.779  12.871 -0.1843  0.3813  0.4553
  250MPD2    H5 3799   3.154   2.808  12.803  1.2344  0.0298 -1.1350
  250MPD2    N1 3800   3.552   2.970  13.193  0.3625  0.2211  0.1595
  250MPD2    H7 3801   3.577   3.057  13.240 -0.4048  0.4286  0.1850
  251TMC3    C1 3802   3.736   2.879  13.323 -0.6021 -0.3275 -0.7505
  251TMC3    C2 3803   3.743   3.001  13.381  0.6266  0.4336 -0.3097
  251TMC3    C3 3804   3.855   3.027  13.456  0.7986  0.6156 -0.1309
  251TMC3    C4 3805   3.826   2.785  13.344  0.0089  0.2501  0.2464
  251TMC3    C5 3806   3.940   2.811  13.413 -0.1161 -0.1926  0.6372
  251TMC3    C6 3807   3.956   2.932  13.475  0.1815 -0.2115  0.1634
  251TMC3     C 3808   3.632   2.859  13.214 -0.2436 -0.9926  0.0071
  251TMC3     O 3809   3.637   2.747  13.163 -0.2400 -0.2213 -0.2206
  251TMC3     H 3810   3.672   3.082  13.374 -0.5495 -0.3253  2.5930
  251TMC3    H1 3811   3.829   2.692  13.288  0.3419  0.3753  0.0559
  251TMC3    H2 3812   4.044   2.955  13.534  1.2275 -2.5673 -0.4704
  251TMC3    C7 3813   4.057   2.733  13.388  0.1555 -0.0929 -0.1574
  251TMC3    C8 3814   3.875   3.166  13.494 -0.7477  0.6866 -0.5132
  251TMC3    O1 3815   4.048   2.612  13.382  0.1735  0.1505  0.4559
  251TMC3    O2 3816   3.787   3.238  13.541 -0.3551  0.0940  0.4685
  252TMC3    C1 3817   4.175   3.348   9.121  0.4128 -0.3142  0.2232
  252TMC3    C2 3818   4.265   3.452   9.103  0.4348  0.4884  0.4926
  252TMC3    C3 3819   4.285   3.536   9.214  0.1855  0.5896  0.2447
  252TMC3    C4 3820   4.093   3.334   9.228  0.1112  0.3440 -0.0275
  252TMC3    C5 3821   4.109   3.424   9.328 -0.3948  0.0203  0.4959
  252TMC3    C6 3822   4.205   3.520   9.322 -0.1059 -1.1162  0.5118
  252TMC3     C 3823   4.161   3.266   9.005  0.2410 -0.4372 -0.7243
  252TMC3     O 3824   4.182   3.328   8.899 -0.8315 -0.8120  0.3885
  252TMC3     H 3825   4.332   3.458   9.018  0.5956 -1.3788  0.4915
  252TMC3    H1 3826   4.024   3.251   9.240  1.3598 -0.5982  0.5808
  252TMC3    H2 3827   4.198   3.602   9.392 -1.9914 -0.5959 -0.2964
  252TMC3    C7 3828   4.037   3.410   9.458  0.2844  0.4574 -0.2735
  252TMC3    C8 3829   4.351   3.670   9.191  0.5997  0.2197 -0.4832
  252TMC3    O1 3830   4.031   3.511   9.527  0.0907 -0.1684 -0.3714
  252TMC3    O2 3831   4.340   3.734   9.088 -0.5957  0.0202 -0.1018
  253MPD2     C 3832   0.498   2.501  15.103  0.0336 -0.4917  0.0045
  253MPD2    C1 3833   0.362   2.538  15.096  0.3479 -0.3062 -0.2846
  253MPD2    C2 3834   0.299   2.575  15.209  0.1515  0.1102  0.2360
  253MPD2    C3 3835   0.360   2.567  15.331  0.0443  0.1817 -0.0879
  253MPD2    C4 3836   0.495   2.516  15.337 -0.1028 -0.3977 -0.6341
  253MPD2    C5 3837   0.566   2.491  15.220 -0.1701  0.0085  0.1000
  253MPD2     H 3838   0.195   2.608  15.204  0.0092 -0.4329 -0.4761
  253MPD2    H1 3839   0.539   2.494  15.433 -0.3712 -0.9456 -0.6389
  253MPD2    H2 3840   0.558   2.482  15.014 -1.1725  2.5982 -1.4719
  253MPD2    H3 3841   0.672   2.465  15.218  0.5168  2.8455  0.8070
  253MPD2     N 3842   0.299   2.602  15.453 -0.4642  0.2711 -0.4754
  253MPD2    H5 3843   0.353   2.583  15.536 -0.4975 -0.4220 -0.6083
  253MPD2    N1 3844   0.285   2.545  14.981  0.2719 -0.0326 -0.3857
  253MPD2    H7 3845   0.189   2.577  14.987 -0.2936 -1.8659  0.2139
  254TMC3    C1 3846   0.135   2.654  15.619  0.1688 -0.2011 -0.1699
  254TMC3    C2 3847   0.006   2.703  15.639  0.1422 -0.1391  0.1789
  254TMC3    C3 3848   4.667   2.677  15.757  0.1194 -0.2097 -0.2388
  254TMC3    C4 3849   0.196   2.573  15.708  0.3595  0.4112  0.5088
  254TMC3    C5 3850   0.132   2.544  15.824  0.3894  0.4942 -0.0271
  254TMC3    C6 3851   0.007   2.592  15.848 -0.1924 -0.2388  0.7657
  254TMC3     C 3852   0.170   2.647  15.471 -0.3516 -0.5901 -0.0941
  254TMC3     O 3853   0.088   2.694  15.393 -0.2556 -0.3646  0.7046
  254TMC3     H 3854   4.677   2.763  15.565  1.1427  0.2768 -0.1934
  254TMC3    H1 3855   0.286   2.521  15.678 -0.6610 -1.0601 -0.0452
  254TMC3    H2 3856   4.685   2.553  15.938  2.1454 -0.7027  1.7504
  254TMC3    C7 3857   0.200   2.494  15.945 -0.3596  0.2371  0.0752
  254TMC3    C8 3858   4.585   2.779  15.813  0.0669  0.4569 -0.3380
  254TMC3    O1 3859   0.134   2.448  16.040 -0.5395 -0.1231 -0.2706
  254TMC3    O2 3860   4.544   2.864  15.733 -0.3904  0.0080 -0.2023
  255MPD2     C 3861   3.432   4.141   9.449  0.0264 -0.3239 -0.3242
  255MPD2    C1 3862   3.468   4.184   9.573 -0.3507 -0.1304  0.3055
  255MPD2    C2 3863   3.553   4.290   9.581 -0.1307  0.3923 -0.0296
  255MPD2    C3 3864   3.577   4.373   9.472 -0.3532 -0.2881 -0.4524
  255MPD2    C4 3865   3.530   4.340   9.350  0.3007 -0.4263  0.6136
  255MPD2    C5 3866   3.462   4.223   9.334  0.5162 -0.0003  0.3685
  255MPD2     H 3867   3.586   4.309   9.683  0.7978 -0.6272 -0.1395
  255MPD2    H1 3868   3.559   4.389   9.258 -0.3861 -0.4449  0.3852
  255MPD2    H2 3869   3.389   4.044   9.426  2.9487 -1.5145 -0.7313
  255MPD2    H3 3870   3.420   4.201   9.236  2.4899 -1.9243 -0.0652
  255MPD2     N 3871   3.660   4.488   9.497 -0.0591 -0.3980  0.0526
  255MPD2    H5 3872   3.701   4.512   9.586  0.8362 -0.4567 -0.3423
  255MPD2    N1 3873   3.427   4.122   9.695  0.0998 -0.6169 -0.5634
  255MPD2    H7 3874   3.462   4.162   9.781 -1.2149 -1.3800  0.3185
  256TMC3    C1 3875   3.270   4.049   9.843 -0.4009  0.5372 -0.3406
  256TMC3    C2 3876   3.363   4.099   9.934 -0.0910  0.2833 -0.1730
  256TMC3    C3 3877   3.333   4.214  10.002 -0.0787  0.6921 -0.0532
  256TMC3    C4 3878   3.139   4.089   9.842  0.3843  0.3663  0.1550
  256TMC3    C5 3879   3.104   4.192   9.926  0.4134  0.5335 -0.5362
  256TMC3    C6 3880   3.202   4.260  10.005 -0.5215  0.1082 -0.1819
  256TMC3     C 3881   3.316   4.050   9.707  0.4577  0.0033 -0.8898
  256TMC3     O 3882   3.245   4.002   9.616 -0.1507 -0.3770 -0.1769
  256TMC3     H 3883   3.462   4.056   9.946 -0.7592 -1.1580  0.1488
  256TMC3    H1 3884   3.073   4.051   9.765  0.4507 -0.6976  0.6285
  256TMC3    H2 3885   3.170   4.339  10.072 -3.2417  0.7145 -2.2288
  256TMC3    C7 3886   2.989   4.267   9.880  0.0713 -0.6764  0.0912
  256TMC3    C8 3887   3.448   4.308  10.023  0.1279  0.1990  0.7158
  256TMC3    O1 3888   2.923   4.224   9.786  0.9694  0.2478 -0.6448
  256TMC3    O2 3889   3.557   4.262  10.057 -0.5688 -0.6145 -0.4762
  257MPD2     C 3890   2.456   2.773  13.411 -0.0221 -0.0777 -0.0840
  257MPD2    C1 3891   2.470   2.707  13.291  0.8364 -0.1036 -0.3097
  257MPD2    C2 3892   2.493   2.569  13.301  0.1465  0.3500 -0.3247
  257MPD2    C3 3893   2.478   2.505  13.421  0.1819  0.2859 -0.3584
  257MPD2    C4 3894   2.453   2.577  13.539  0.0942 -0.4627 -0.6256
  257MPD2    C5 3895   2.433   2.712  13.535  0.1969  0.3267  0.1336
  257MPD2     H 3896   2.507   2.502  13.217 -0.4789 -2.6555  1.9925
  257MPD2    H1 3897   2.446   2.528  13.635 -0.2592  1.1177  0.1554
  257MPD2    H2 3898   2.429   2.877  13.401  1.9922  0.3658 -0.9447
  257MPD2    H3 3899   2.419   2.770  13.626  2.9115 -1.6815  1.8373
  257MPD2     N 3900   2.507   2.363  13.422 -0.0816  0.1695 -0.8755
  257MPD2    H5 3901   2.529   2.315  13.335 -0.5312 -0.1496 -0.8110
  257MPD2    N1 3902   2.469   2.783  13.170 -0.0148  0.0790  0.6890
  257MPD2    H7 3903   2.473   2.884  13.179  0.8080  0.2191 -1.3409
  258TMC3    C1 3904   2.533   2.143  13.498 -0.6939  0.5179 -0.5902
  258TMC3    C2 3905   2.494   2.096  13.377  0.6316  0.6191  0.0217
  258TMC3    C3 3906   2.499   1.963  13.367 -0.1513 -0.4086  0.5474
  258TMC3    C4 3907   2.596   2.072  13.592  0.8857 -0.9142  0.6631
  258TMC3    C5 3908   2.615   1.936  13.570  0.3185 -1.0129  0.6445
  258TMC3    C6 3909   2.564   1.882  13.456  0.2647 -0.3296  0.4962
  258TMC3     C 3910   2.506   2.286  13.535  0.6433 -0.1877  0.1128
  258TMC3     O 3911   2.500   2.314  13.654 -0.0531 -0.6706  0.4656
  258TMC3     H 3912   2.428   2.157  13.317  0.4308 -0.0385 -0.4186
  258TMC3    H1 3913   2.654   2.123  13.668  0.8046  0.8686 -0.4644
  258TMC3    H2 3914   2.581   1.777  13.435  0.8466 -0.7666  3.2743
  258TMC3    C7 3915   2.700   1.871  13.669  1.1277  0.0501 -0.0119
  258TMC3    C8 3916   2.435   1.904  13.260  0.8657  0.0048 -0.0272
  258TMC3    O1 3917   2.706   1.920  13.780  0.4563 -0.6618  0.5378
  258TMC3    O2 3918   2.427   1.967  13.155  0.3182  0.3175  0.9980
  259MPD2     C 3919   1.725   4.204   1.581  0.1314  0.4632 -0.0313
  259MPD2    C1 3920   1.620   4.177   1.498  0.4643  0.4321  0.3577
  259MPD2    C2 3921   1.644   4.123   1.373 -0.1057 -0.7385  0.0859
  259MPD2    C3 3922   1.772   4.097   1.328 -0.0090 -0.1066 -0.6401
  259MPD2    C4 3923   1.878   4.123   1.419 -0.5491  0.7971  0.2510
  259MPD2    C5 3924   1.855   4.174   1.542 -0.8141 -0.5008  0.4288
  259MPD2     H 3925   1.566   4.121   1.298  0.3247 -1.4970 -0.3416
  259MPD2    H1 3926   1.980   4.093   1.399 -0.3147  0.9562  1.2174
  259MPD2    H2 3927   1.710   4.269   1.667 -0.7687 -3.0576  2.4453
  259MPD2    H3 3928   1.936   4.184   1.612  0.2327  1.7964 -1.1174
  259MPD2     N 3929   1.796   4.044   1.202  0.1338 -0.6047  0.5488
  259MPD2    H5 3930   1.716   4.019   1.145 -0.2917  2.0976 -0.0593
  259MPD2    N1 3931   1.492   4.218   1.538  0.1497 -0.5065  0.3623
  259MPD2    H7 3932   1.487   4.278   1.620 -1.0863  1.4945 -1.1629
  260TMC3    C1 3933   1.919   3.962   1.018  0.3097 -0.1719  0.4289
  260TMC3    C2 3934   2.016   3.988   0.924 -0.6325 -0.0343 -0.0178
  260TMC3    C3 3935   2.022   3.915   0.804  0.3197  0.4079  0.0643
  260TMC3    C4 3936   1.821   3.871   0.993 -0.1557 -0.4929 -0.5237
  260TMC3    C5 3937   1.838   3.789   0.878 -0.2624  0.0944  0.0505
  260TMC3    C6 3938   1.938   3.810   0.791  0.0178  0.0137 -0.8538
  260TMC3     C 3939   1.921   4.031   1.145 -0.4789  0.3310  0.1692
  260TMC3     O 3940   2.034   4.073   1.170  0.3634  0.0083 -0.1488
  260TMC3     H 3941   2.078   4.077   0.933 -2.9055  1.3147  2.3929
  260TMC3    H1 3942   1.734   3.846   1.053  0.2224  0.0401  0.2441
  260TMC3    H2 3943   1.954   3.743   0.708 -0.4059 -0.4568 -0.5541
  260TMC3    C7 3944   1.737   3.713   0.821 -0.0617 -0.5745 -0.6395
  260TMC3    C8 3945   2.119   3.958   0.696 -0.3631 -0.8033 -0.6560
  260TMC3    O1 3946   1.773   3.612   0.755  0.0886  0.3355  0.2284
  260TMC3    O2 3947   2.195   4.048   0.720 -0.2768  0.3602 -0.6111
  261MPD2     C 3948   3.351   2.270  12.249  0.1849 -0.5029  0.3257
  261MPD2    C1 3949   3.280   2.388  12.272 -0.2819 -0.3007 -0.0895
  261MPD2    C2 3950   3.255   2.474  12.167  0.0644  0.3968 -0.2095
  261MPD2    C3 3951   3.306   2.442  12.042  0.1350  0.5763  0.4219
  261MPD2    C4 3952   3.402   2.342  12.027  0.4566 -0.2149  0.8403
  261MPD2    C5 3953   3.425   2.256  12.133 -0.0110 -0.2336 -0.4183
  261MPD2     H 3954   3.209   2.572  12.173  0.6256  0.7542 -1.8356
  261MPD2    H1 3955   3.456   2.328  11.934  0.6587  3.0220  0.4407
  261MPD2    H2 3956   3.354   2.197  12.329 -0.6247 -1.6506 -0.6945
  261MPD2    H3 3957   3.494   2.174  12.122 -0.6134 -0.4355 -2.6836
  261MPD2     N 3958   3.282   2.528  11.931 -0.0873 -0.9976  0.4969
  261MPD2    H5 3959   3.221   2.609  11.939 -1.1537 -1.5236 -2.0896
  261MPD2    N1 3960   3.235   2.408  12.406 -0.1113 -0.4632 -0.1934
  261MPD2    H7 3961   3.253   2.345  12.483 -0.1163 -0.2034  0.0187
  262TMC3    C1 3962   3.245   2.591  11.721 -0.4606  0.0175  0.6324
  262TMC3    C2 3963   3.284   2.718  11.733  0.2037 -0.4261 -0.6803
  262TMC3    C3 3964   3.286   2.791  11.616  0.4266 -0.3439 -0.6529
  262TMC3    C4 3965   3.207   2.537  11.598 -0.1030  0.2012 -0.1314
  262TMC3    C5 3966   3.204   2.618  11.490 -1.0050  0.1059  0.1853
  262TMC3    C6 3967   3.251   2.751  11.493 -0.7363 -0.0754  0.2084
  262TMC3     C 3968   3.291   2.488  11.802 -0.0088 -0.1388  0.5551
  262TMC3     O 3969   3.316   2.380  11.744  0.1977  0.2214 -0.3917
  262TMC3     H 3970   3.319   2.755  11.830  0.8893 -3.4915  0.2468
  262TMC3    H1 3971   3.167   2.436  11.589 -0.9863  0.5043  0.4498
  262TMC3    H2 3972   3.251   2.823  11.412 -0.3050 -0.9561 -0.5701
  262TMC3    C7 3973   3.135   2.565  11.376 -0.5441 -0.2496  0.2293
  262TMC3    C8 3974   3.279   2.933  11.635  0.5772  0.2675  0.0139
  262TMC3    O1 3975   3.053   2.479  11.394  0.5686 -0.3185  0.2768
  262TMC3    O2 3976   3.328   3.011  11.557 -0.3507  0.3138 -0.5365
  263MPD2     C 3977   3.804   1.351  11.793  0.1901  0.3435 -0.6738
  263MPD2    C1 3978   3.870   1.468  11.823 -0.4513  0.3346 -0.2991
  263MPD2    C2 3979   3.891   1.563  11.718  0.2634  0.6427 -0.6404
  263MPD2    C3 3980   3.855   1.524  11.592  0.5361  0.8982 -0.8825
  263MPD2    C4 3981   3.782   1.409  11.577 -0.0873 -0.5107  0.0168
  263MPD2    C5 3982   3.753   1.326  11.676  0.1135  0.1435  0.2091
  263MPD2     H 3983   3.958   1.647  11.731  1.2188 -0.0183 -1.2932
  263MPD2    H1 3984   3.746   1.385  11.478  3.3057 -0.6538 -1.1901
  263MPD2    H2 3985   3.777   1.275  11.865  3.5388  1.1563  1.4402
  263MPD2    H3 3986   3.691   1.237  11.674 -1.7537  1.4999 -2.3684
  263MPD2     N 3987   3.903   1.606  11.487  0.4534 -0.0267  0.4438
  263MPD2    H5 3988   3.968   1.678  11.514  1.4353 -1.1919  1.1779
  263MPD2    N1 3989   3.927   1.476  11.953 -0.0919  0.1208  0.2130
  263MPD2    H7 3990   3.935   1.391  12.008  1.7089 -0.1135 -0.3849
  264TMC3    C1 3991   3.969   1.657  11.266 -0.5235  0.1173 -0.4618
  264TMC3    C2 3992   3.999   1.787  11.306 -0.4353 -0.6286  0.2698
  264TMC3    C3 3993   4.089   1.850  11.229  0.7157 -0.5036 -0.1148
  264TMC3    C4 3994   4.009   1.601  11.154  0.9767  0.3326 -0.5473
  264TMC3    C5 3995   4.097   1.676  11.077 -0.7735 -0.3486  0.4504
  264TMC3    C6 3996   4.141   1.796  11.111 -0.2034  0.1124  0.7562
  264TMC3     C 3997   3.875   1.589  11.356  0.0745  0.6199 -0.4754
  264TMC3     O 3998   3.798   1.508  11.309 -0.2788  0.4528 -0.5124
  264TMC3     H 3999   3.957   1.831  11.396  0.8331  2.1583 -0.4761
  264TMC3    H1 4000   3.970   1.506  11.119 -1.8514  0.2810  2.6947
  264TMC3    H2 4001   4.208   1.855  11.049 -1.6881 -0.0591 -1.0398
  264TMC3    C7 4002   4.157   1.620  10.961  0.3256  0.2547 -0.7396
  264TMC3    C8 4003   4.078   1.995  11.216  0.9903  0.6413  0.0822
  264TMC3    O1 4004   4.255   1.681  10.915  0.3729 -0.1422 -0.5526
  264TMC3    O2 4005   4.161   2.045  11.137 -0.0784  0.8073 -0.1163
  265MPD2     C 4006   1.976   2.560  15.643 -0.7666 -0.3853 -0.1485
  265MPD2    C1 4007   1.985   2.426  15.677 -0.0741  0.1960  0.0360
  265MPD2    C2 4008   2.014   2.332  15.579  0.3257  0.6096  0.0134
  265MPD2    C3 4009   2.025   2.365  15.446 -0.4206 -0.0686 -0.2490
  265MPD2    C4 4010   2.012   2.500  15.417 -0.1752 -0.1951 -0.2817
  265MPD2    C5 4011   1.996   2.594  15.512  0.6961  0.0754 -1.2254
  265MPD2     H 4012   2.022   2.227  15.606  0.1191 -0.3024 -3.4418
  265MPD2    H1 4013   2.025   2.536  15.316  1.3391 -0.9972 -0.3777
  265MPD2    H2 4014   1.951   2.638  15.713 -2.6004 -2.2561  1.2475
  265MPD2    H3 4015   1.968   2.695  15.485 -3.0361 -0.3562  1.0937
  265MPD2     N 4016   2.053   2.280  15.341 -0.3171 -0.2382  0.4309
  265MPD2    H5 4017   2.052   2.326  15.251  2.9269 -0.4869  0.2837
  265MPD2    N1 4018   1.976   2.376  15.811 -0.2941  0.4795 -0.6304
  265MPD2    H7 4019   1.978   2.275  15.817 -3.2787  0.3837 -1.3812
  266TMC3    C1 4020   1.939   2.385  16.042 -0.2304  0.0731 -0.8312
  266TMC3    C2 4021   1.976   2.433  16.161  0.0975 -0.1387  1.1304
  266TMC3    C3 4022   1.950   2.364  16.279 -0.4894 -0.1784  0.5158
  266TMC3    C4 4023   1.860   2.273  16.030  0.3272 -0.6978 -0.5235
  266TMC3    C5 4024   1.835   2.204  16.148 -0.3164 -0.1146  0.1957
  266TMC3    C6 4025   1.867   2.249  16.272  0.4110  0.5619  0.4650
  266TMC3     C 4026   1.971   2.457  15.922  0.9960  0.3965  0.1582
  266TMC3     O 4027   2.001   2.578  15.932 -0.5816 -0.0989  0.0048
  266TMC3     H 4028   2.045   2.517  16.154  1.8057 -1.4969  1.4602
  266TMC3    H1 4029   1.802   2.248  15.942 -0.2386  1.4995 -0.7960
  266TMC3    H2 4030   1.842   2.194  16.361  3.9076 -0.5219  0.7877
  266TMC3    C7 4031   1.732   2.101  16.145 -0.3741 -0.4413 -0.5839
  266TMC3    C8 4032   1.988   2.420  16.406  0.0333  0.1849  0.0459
  266TMC3    O1 4033   1.692   2.069  16.257  0.5020  0.0521  0.1217
  266TMC3    O2 4034   1.987   2.344  16.501 -0.4210  0.1255 -0.3477
  267MPD2     C 4035   3.787   4.361   0.357  0.4788 -0.3469  0.5447
  267MPD2    C1 4036   3.923   4.364   0.361  0.0089  0.0359  0.0103
  267MPD2    C2 4037   3.983   4.300   0.257 -0.3649  0.4214 -0.0839
  267MPD2    C3 4038   3.915   4.227   0.159  0.1194 -0.5602 -0.2875
  267MPD2    C4 4039   3.781   4.205   0.185  0.1564  0.0217 -0.0566
  267MPD2    C5 4040   3.717   4.284   0.272 -1.0784  0.5836 -0.1826
  267MPD2     H 4041   4.091   4.299   0.245 -0.2696  0.6071  0.8091
  267MPD2    H1 4042   3.724   4.145   0.115 -1.8840  1.7292  0.1245
  267MPD2    H2 4043   3.722   4.412   0.427  1.4494  0.2396  1.0326
  267MPD2    H3 4044   3.611   4.267   0.281 -1.0986  1.0299  0.4801
  267MPD2     N 4045   3.976   4.168   0.050  0.9885  0.4102  0.4183
  267MPD2    H5 4046   3.934   4.094  17.692  1.3590  1.0066 -0.6811
  267MPD2    N1 4047   3.994   4.433   0.460 -0.0032 -0.2579  0.0144
  267MPD2    H7 4048   3.939   4.501   0.513 -1.2852 -0.8688 -0.5243
  268TMC3    C1 4049   4.162   4.505   0.606  0.3683  0.1550 -0.5098
  268TMC3    C2 4050   4.144   4.637   0.584  0.1289  0.3243 -0.1365
  268TMC3    C3 4051   4.212   0.009   0.657  0.3431 -0.0594  0.4502
  268TMC3    C4 4052   4.248   4.464   0.713  0.0490 -0.0987  0.0346
  268TMC3    C5 4053   4.304   4.569   0.785  0.4887 -0.6922 -0.6729
  268TMC3    C6 4054   4.276   4.703   0.767  0.3376 -0.3999  0.3566
  268TMC3     C 4055   4.123   4.412   0.505  0.0550  0.2892  0.4454
  268TMC3     O 4056   4.198   4.318   0.488  0.2369  0.1155 -0.1836
  268TMC3     H 4057   4.087   4.666   0.497 -1.2396  2.6181  1.5431
  268TMC3    H1 4058   4.259   4.357   0.731  2.0077 -0.2147 -1.7605
  268TMC3    H2 4059   4.325   0.054   0.829  1.8257 -0.5363 -0.6407
  268TMC3    C7 4060   4.391   4.527   0.897  0.0037 -0.3537 -0.7586
  268TMC3    C8 4061   4.218   0.151   0.623 -0.8983 -0.1417  0.1087
  268TMC3    O1 4062   4.383   4.407   0.911  0.2539 -0.1341  0.5920
  268TMC3    O2 4063   4.249   0.228   0.714  0.1556 -0.2007 -0.3167
  269MPD2     C 4064   4.487   3.066  15.436 -0.0866 -1.0550  0.0597
  269MPD2    C1 4065   4.375   3.093  15.505 -0.2588 -0.0311  1.0519
  269MPD2    C2 4066   4.317   3.216  15.498 -0.2804 -0.0617 -0.0714
  269MPD2    C3 4067   4.363   3.312  15.409 -0.3558 -0.2530 -0.2995
  269MPD2    C4 4068   4.477   3.283  15.333 -0.1421  0.1597 -0.4579
  269MPD2    C5 4069   4.543   3.163  15.355 -0.0887 -0.4358  0.6552
  269MPD2     H 4070   4.230   3.241  15.558  0.3370  0.8563  0.4336
  269MPD2    H1 4071   4.521   3.345  15.257  2.7715  1.0754  1.9717
  269MPD2    H2 4072   4.529   2.966  15.434 -0.1611 -1.0528 -1.4473
  269MPD2    H3 4073   4.625   3.149  15.286  1.5111  1.6031  2.1488
  269MPD2     N 4074   4.308   3.438  15.411 -0.0606  0.2961 -0.5731
  269MPD2    H5 4075   4.233   3.454  15.478 -0.7292  1.2697 -1.5408
  269MPD2    N1 4076   4.319   2.985  15.576 -0.1256 -0.1201 -0.0576
  269MPD2    H7 4077   4.378   2.904  15.594 -0.3704 -0.6081 -1.5053
  270TMC3    C1 4078   4.151   2.861  15.703 -0.6454  0.3894 -0.4804
  270TMC3    C2 4079   4.013   2.843  15.710  0.0704  0.2598  0.9426
  270TMC3    C3 4080   3.959   2.714  15.713  0.8186 -0.0191  0.6322
  270TMC3    C4 4081   4.231   2.757  15.701  0.0982  0.1429  0.4744
  270TMC3    C5 4082   4.175   2.634  15.696 -0.2643 -0.3988 -0.7400
  270TMC3    C6 4083   4.040   2.608  15.694 -0.2128  0.4068  0.1055
  270TMC3     C 4084   4.198   2.991  15.646  0.6214 -0.4002  0.2884
  270TMC3     O 4085   4.110   3.075  15.656  0.1999 -0.2984  0.6050
  270TMC3     H 4086   3.947   2.929  15.709 -1.5799 -1.0180  1.4531
  270TMC3    H1 4087   4.338   2.775  15.703  0.1499 -0.1780  0.5608
  270TMC3    H2 4088   3.996   2.509  15.695 -0.5393  0.5939  2.4154
  270TMC3    C7 4089   4.264   2.525  15.668  0.2236 -0.4734 -0.1573
  270TMC3    C8 4090   3.830   2.703  15.652 -0.4392 -0.5671  0.5368
  270TMC3    O1 4091   4.379   2.541  15.705  0.6549 -0.1145 -1.1500
  270TMC3    O2 4092   3.725   2.689  15.711 -0.1338 -0.1583 -0.5760
  271MPD2     C 4093   3.145   2.451  13.982  0.9278  0.4847 -0.4301
  271MPD2    C1 4094   3.175   2.552  14.074 -0.1447  0.0827  0.5086
  271MPD2    C2 4095   3.133   2.680  14.044 -0.6949 -0.4294  0.6746
  271MPD2    C3 4096   3.064   2.710  13.927 -0.6446 -0.1815 -0.0678
  271MPD2    C4 4097   3.053   2.614  13.833  1.0581  0.3081  0.4079
  271MPD2    C5 4098   3.085   2.486  13.867  0.3171 -0.1951  0.3639
  271MPD2     H 4099   3.153   2.756  14.120  0.3075 -1.0497  1.0204
  271MPD2    H1 4100   2.995   2.627  13.742  1.4905 -2.4045 -0.2549
  271MPD2    H2 4101   3.163   2.345  13.996  1.2840  0.6186  0.1115
  271MPD2    H3 4102   3.059   2.409  13.796 -0.5519 -1.9731  2.5899
  271MPD2     N 4103   3.007   2.835  13.906 -0.3644 -0.0810 -0.6507
  271MPD2    H5 4104   2.960   2.850  13.817 -0.4086  1.2404 -0.4089
  271MPD2    N1 4105   3.242   2.523  14.195  0.5424  0.2781  0.1282
  271MPD2    H7 4106   3.244   2.609  14.249 -2.4202 -0.2346  1.0900
  272TMC3    C1 4107   3.402   2.412  14.330  0.3900  0.1087  0.0085
  272TMC3    C2 4108   3.526   2.358  14.320  0.1578 -0.8042  0.3409
  272TMC3    C3 4109   3.615   2.359  14.428 -0.2789  0.5186  0.2686
  272TMC3    C4 4110   3.360   2.466  14.449 -0.1325 -0.2345  0.0614
  272TMC3    C5 4111   3.440   2.451  14.555  0.9271  0.0106 -0.0300
  272TMC3    C6 4112   3.572   2.407  14.547 -0.3949  0.0692  0.3591
  272TMC3     C 4113   3.317   2.412  14.213  0.4376 -0.1580 -0.0438
  272TMC3     O 4114   3.345   2.324  14.134  0.1691  0.1001 -0.4584
  272TMC3     H 4115   3.561   2.294  14.240  1.5608  0.8821 -0.3866
  272TMC3    H1 4116   3.259   2.503  14.467  0.3903  2.5319 -2.6533
  272TMC3    H2 4117   3.631   2.390  14.636 -1.5098  2.7262  1.6023
  272TMC3    C7 4118   3.386   2.498  14.683  0.9878 -0.0328 -0.3440
  272TMC3    C8 4119   3.747   2.316  14.410  0.7185 -0.6877 -0.3098
  272TMC3    O1 4120   3.270   2.461  14.706  0.1576 -0.6406 -0.0735
  272TMC3    O2 4121   3.778   2.320  14.291 -0.2184  0.0695 -0.3106
  273MPD2     C 4122   0.510   0.894  11.988 -0.0468  0.3358  0.5638
  273MPD2    C1 4123   0.404   0.983  11.984  0.0157 -1.1134  0.0718
  273MPD2    C2 4124   0.313   0.979  11.884  0.7603  0.3072  0.0199
  273MPD2    C3 4125   0.324   0.885  11.784 -0.0955  0.2414  0.3790
  273MPD2    C4 4126   0.443   0.813  11.775 -0.7442 -0.3140 -0.7265
  273MPD2    C5 4127   0.534   0.814  11.881 -0.1960 -0.0743  0.2721
  273MPD2     H 4128   0.217   1.029  11.881  0.1125 -1.1293 -2.8890
  273MPD2    H1 4129   0.469   0.756  11.687 -1.8569 -0.7964 -0.7420
  273MPD2    H2 4130   0.590   0.898  12.061  0.0125  4.3199  0.2825
  273MPD2    H3 4131   0.619   0.745  11.883 -0.8186 -0.7762  2.1513
  273MPD2     N 4132   0.227   0.885  11.687 -0.0320  0.0089 -0.2952
  273MPD2    H5 4133   0.158   0.959  11.691  2.1888  1.9722  2.0132
  273MPD2    N1 4134   0.380   1.089  12.079 -0.0586 -0.2059  0.3561
  273MPD2    H7 4135   0.301   1.152  12.066  1.3565  1.1711 -1.5497
  274TMC3    C1 4136   0.118   0.858  11.481 -0.0780  0.1960 -0.5851
  274TMC3    C2 4137   0.080   0.788  11.369  0.0037  0.2052  0.3959
  274TMC3    C3 4138   4.687   0.829  11.309  0.0714 -0.1158 -0.2326
  274TMC3    C4 4139   0.051   0.973  11.515  0.2905 -0.4143 -0.0515
  274TMC3    C5 4140   4.654   1.002  11.459  0.0490 -0.0006  0.1565
  274TMC3    C6 4141   4.609   0.933  11.352  0.0611 -0.2978  0.0466
  274TMC3     C 4142   0.223   0.811  11.570  0.4033 -0.3392  0.3560
  274TMC3     O 4143   0.291   0.710  11.547  0.3419  0.4478  0.6729
  274TMC3     H 4144   0.133   0.703  11.327 -0.3088  0.7052 -1.0126
  274TMC3    H1 4145   0.098   1.047  11.579 -1.7393  0.0806  0.8604
  274TMC3    H2 4146   4.527   0.974  11.294 -0.1701  0.6788  1.0463
  274TMC3    C7 4147   4.610   1.139  11.459  0.0849  0.6135  0.4303
  274TMC3    C8 4148   4.661   0.778  11.181  0.5411 -0.5454 -0.3191
  274TMC3    O1 4149   4.587   1.194  11.351 -0.1191  0.1373 -0.1278
  274TMC3    O2 4150   0.024   0.719  11.124 -0.1505  0.1553  0.3678
  275MPD2     C 4151   4.690   3.936  14.475  0.3654  0.3813  1.2536
  275MPD2    C1 4152   0.005   3.798  14.456  0.1519  0.0771  0.0303
  275MPD2    C2 4153   4.625   3.709  14.453  0.4252  0.8828  0.3757
  275MPD2    C3 4154   4.493   3.757  14.444 -0.7051  0.3502  0.1580
  275MPD2    C4 4155   4.453   3.887  14.456 -0.0360 -0.3545  0.0567
  275MPD2    C5 4156   4.555   3.979  14.474  0.3701 -0.5902  0.3445
  275MPD2     H 4157   4.640   3.607  14.421  0.1637  0.1703  2.5127
  275MPD2    H1 4158   4.349   3.917  14.459 -0.0990 -0.4769 -0.8600
  275MPD2    H2 4159   0.035   4.017  14.494 -0.3175  0.9776  1.1847
  275MPD2    H3 4160   4.539   4.085  14.489  2.1883  0.0954 -2.4729
  275MPD2     N 4161   4.383   3.671  14.422  0.1388  0.6250  0.4674
  275MPD2    H5 4162   4.299   3.726  14.404 -0.7215 -0.5745  0.7893
  275MPD2    N1 4163   0.136   3.750  14.470 -0.0982  0.0823  0.1721
  275MPD2    H7 4164   0.143   3.649  14.468  1.3752  0.1332  3.0532
  276TMC3    C1 4165   0.358   3.765  14.527 -0.0934 -0.3629 -0.8364
  276TMC3    C2 4166   0.375   3.636  14.496 -0.1364 -0.0546 -0.6757
  276TMC3    C3 4167   0.490   3.573  14.531  0.2520 -0.4699 -0.2891
  276TMC3    C4 4168   0.443   3.823  14.615 -0.4970 -0.7964  0.2675
  276TMC3    C5 4169   0.559   3.757  14.650  0.5391 -0.0089  0.0863
  276TMC3    C6 4170   0.588   3.635  14.599 -0.5031 -0.0199  0.0588
  276TMC3     C 4171   0.245   3.833  14.492 -0.0889  0.2847  0.0563
  276TMC3     O 4172   0.254   3.951  14.471  0.3474  0.4019  0.1958
  276TMC3     H 4173   0.299   3.582  14.440  2.2220 -3.3224 -0.7318
  276TMC3    H1 4174   0.421   3.919  14.660  0.5241 -0.9001  0.9675
  276TMC3    H2 4175   0.682   3.586  14.623  0.8065  0.8511 -3.3009
  276TMC3    C7 4176   0.642   3.806  14.759  0.5785 -0.6352 -0.0330
  276TMC3    C8 4177   0.519   3.450  14.470  0.1763 -0.1198 -0.1408
  276TMC3    O1 4178   0.601   3.913  14.811 -0.6467 -0.4873 -0.4586
  276TMC3    O2 4179   0.637   3.432  14.451  0.3495  0.4620  0.1176
  277MPD2     C 4180   2.048   2.739  13.459 -0.3137 -0.2674  0.3746
  277MPD2    C1 4181   1.926   2.761  13.518 -0.0328  0.2930 -0.0378
  277MPD2    C2 4182   1.871   2.661  13.595 -0.1048 -0.0375  0.1403
  277MPD2    C3 4183   1.940   2.543  13.620 -0.8494  0.3729  0.0208
  277MPD2    C4 4184   2.061   2.521  13.552  0.3542 -0.0088 -0.9551
  277MPD2    C5 4185   2.106   2.617  13.459  1.1704  0.2666 -0.0543
  277MPD2     H 4186   1.771   2.673  13.632  0.2769 -1.7399  1.7081
  277MPD2    H1 4187   2.119   2.429  13.558  3.6067  2.0739 -0.4433
  277MPD2    H2 4188   2.095   2.815  13.397 -1.2146 -0.6137 -0.7108
  277MPD2    H3 4189   2.202   2.613  13.411  1.6926  2.0573  0.8320
  277MPD2     N 4190   1.872   2.447  13.700  0.1086 -0.1999  0.5530
  277MPD2    H5 4191   1.774   2.463  13.722  0.4841  0.5277  1.6886
  277MPD2    N1 4192   1.858   2.878  13.482 -0.1992  0.3931 -0.8225
  277MPD2    H7 4193   1.890   2.933  13.402  0.6881 -0.2255 -0.8901
  278TMC3    C1 4194   1.832   2.257  13.831  1.1305 -0.6453  0.0501
  278TMC3    C2 4195   1.821   2.124  13.806 -0.1432 -0.2349  0.0344
  278TMC3    C3 4196   1.702   2.066  13.841  0.3866  0.3389 -0.0381
  278TMC3    C4 4197   1.746   2.330  13.905 -1.0446 -0.6600 -0.1264
  278TMC3    C5 4198   1.624   2.270  13.934 -0.5552  0.1295  0.6831
  278TMC3    C6 4199   1.603   2.137  13.903  0.3207  0.1123  0.6017
  278TMC3     C 4200   1.918   2.322  13.737  0.0448 -0.2572 -0.2334
  278TMC3     O 4201   2.017   2.267  13.697 -0.4955  0.0586 -0.5433
  278TMC3     H 4202   1.905   2.073  13.758  0.0182 -3.6748  3.9644
  278TMC3    H1 4203   1.760   2.434  13.932 -0.7117 -1.0031  1.0355
  278TMC3    H2 4204   1.523   2.084  13.953 -0.7051 -0.3811 -1.5453
  278TMC3    C7 4205   1.514   2.353  13.987 -0.6164  0.5121 -0.2162
  278TMC3    C8 4206   1.662   1.933  13.784 -0.2546 -0.1185  0.5466
  278TMC3    O1 4207   1.547   2.465  14.017  0.3152 -0.2718  0.4723
  278TMC3    O2 4208   1.758   1.858  13.753  0.1350  0.3357 -0.0839
  279MPD2     C 4209   1.290   2.766   0.259 -0.4813  0.7166  0.1479
  279MPD2    C1 4210   1.161   2.716   0.295  0.4882 -0.4045  0.4267
  279MPD2    C2 4211   1.063   2.706   0.194  0.3726 -0.0294 -0.9789
  279MPD2    C3 4212   1.091   2.747   0.068  0.1884  0.4838 -0.1910
  279MPD2    C4 4213   1.223   2.778   0.040  0.4974  1.2075 -0.4810
  279MPD2    C5 4214   1.320   2.788   0.133  0.1004  0.3131  0.6563
  279MPD2     H 4215   0.962   2.678   0.222  1.0166 -1.4535 -0.0739
  279MPD2    H1 4216   1.254   2.813  17.638 -1.8578  1.7897 -1.0022
  279MPD2    H2 4217   1.360   2.790   0.338  0.0227 -2.8304  0.7820
  279MPD2    H3 4218   1.423   2.818   0.116  0.0968  0.1976  0.4440
  279MPD2     N 4219   0.998   2.763  17.654  0.0982 -0.0925 -0.1272
  279MPD2    H5 4220   1.029   2.838  17.592  1.0593 -0.6732 -0.3607
  279MPD2    N1 4221   1.121   2.713   0.430  0.2879 -0.1244  0.0242
  279MPD2    H7 4222   1.187   2.769   0.483 -1.3681  2.4749 -0.6646
  280TMC3    C1 4223   0.963   2.731   0.605  0.2323 -0.5102  0.3313
  280TMC3    C2 4224   0.834   2.691   0.624  0.2024  0.1775  0.0588
  280TMC3    C3 4225   0.738   2.783   0.606  0.0669 -0.7515  0.4610
  280TMC3    C4 4226   0.996   2.866   0.614  0.0053 -0.4502  0.9255
  280TMC3    C5 4227   0.891   2.953   0.620  0.0037  0.1672  0.3719
  280TMC3    C6 4228   0.763   2.913   0.595 -0.1671 -0.2684 -0.5572
  280TMC3     C 4229   0.998   2.672   0.480  0.1969 -0.0720 -0.7760
  280TMC3     O 4230   0.918   2.593   0.429 -0.1844  0.4272  0.3180
  280TMC3     H 4231   0.808   2.586   0.621  0.1581  0.2118 -0.8294
  280TMC3    H1 4232   1.097   2.903   0.614  0.6443 -2.1994  0.7630
  280TMC3    H2 4233   0.684   2.981   0.566  1.5604  1.4387 -1.2573
  280TMC3    C7 4234   0.927   3.098   0.595 -0.8138  0.1366 -0.5804
  280TMC3    C8 4235   0.626   2.728   0.532 -0.9307 -0.0786 -0.0027
  280TMC3    O1 4236   1.045   3.122   0.568  0.2450  0.1791  0.0506
  280TMC3    O2 4237   0.597   2.789   0.430  0.7827 -0.6972 -0.2406
  281TMC3    C1 4238   4.194   2.522  13.669 -0.1083 -0.2041 -0.2143
  281TMC3    C2 4239   4.322   2.501  13.642 -0.6811 -0.2116 -0.2828
  281TMC3    C3 4240   4.352   2.399  13.555 -0.7149  0.2465  0.3675
  281TMC3    C4 4241   4.102   2.428  13.632  0.5076  0.2293  0.4574
  281TMC3    C5 4242   4.144   2.308  13.584 -0.3821 -0.5121 -0.5366
  281TMC3    C6 4243   4.266   2.293  13.532 -0.1454  0.5588  0.5026
  281TMC3     C 4244   4.145   2.647  13.732  0.0249  0.3073  0.1439
  281TMC3     O 4245   4.044   2.633  13.792 -0.0076 -0.3334 -0.3453
  281TMC3     H 4246   4.398   2.573  13.671  0.4457 -1.3914 -0.3069
  281TMC3    H1 4247   3.998   2.455  13.648  0.6921  1.2537 -0.0588
  281TMC3    H2 4248   4.286   2.207  13.469  1.9997 -0.4762  2.5888
  281TMC3    C7 4249   4.046   2.199  13.586 -0.0185 -0.8121 -0.2968
  281TMC3    C8 4250   4.483   2.384  13.495  0.4944  0.7982 -0.3720
  281TMC3    O1 4251   3.933   2.241  13.605  0.0790 -0.5985  0.1512
  281TMC3    O2 4252   4.532   2.269  13.518 -0.3299 -0.2499 -0.0382
  282MPD2     C 4253   1.244   3.938  15.004 -0.1550  0.9074 -0.5822
  282MPD2    C1 4254   1.201   4.062  15.048 -0.5399 -0.4452 -0.8057
  282MPD2    C2 4255   1.179   4.162  14.960 -0.2397 -0.1938 -0.1674
  282MPD2    C3 4256   1.175   4.130  14.819 -0.8502 -0.3244  0.0040
  282MPD2    C4 4257   1.190   3.997  14.784 -0.5791 -0.8140  0.2802
  282MPD2    C5 4258   1.233   3.904  14.870 -0.3442  0.0662  0.1185
  282MPD2     H 4259   1.155   4.261  14.994  0.6823  0.1904 -0.6172
  282MPD2    H1 4260   1.179   3.966  14.681 -0.8891  1.0066 -0.2398
  282MPD2    H2 4261   1.283   3.859  15.067 -1.7201  0.0328 -0.6965
  282MPD2    H3 4262   1.257   3.804  14.837 -1.9674 -0.3474  0.2023
  282MPD2     N 4263   1.169   4.215  14.711  0.1239 -0.1007  0.0156
  282MPD2    H5 4264   1.151   4.172  14.621  0.1394 -0.4988  0.2041
  282MPD2    N1 4265   1.196   4.105  15.183 -0.0228  0.1915 -0.0764
  282MPD2    H7 4266   1.156   4.197  15.196 -1.4440 -0.3713 -0.5426
  283TMC3    C1 4267   1.225   4.108  15.418 -0.3046  0.2503  0.4385
  283TMC3    C2 4268   1.224   4.240  15.412 -0.5673 -0.1028  0.6683
  283TMC3    C3 4269   1.168   4.304  15.515  0.5291  0.3851  0.1295
  283TMC3    C4 4270   1.157   4.038  15.511  0.8974  0.5066 -0.0624
  283TMC3    C5 4271   1.093   4.108  15.606  0.6673  0.1227 -0.0644
  283TMC3    C6 4272   1.100   4.247  15.609  0.4626 -0.3169  0.4436
  283TMC3     C 4273   1.239   4.034  15.294 -0.0452 -0.2989 -0.0914
  283TMC3     O 4274   1.299   3.931  15.301  0.2662 -0.0572 -0.9502
  283TMC3     H 4275   1.287   4.295  15.343 -2.6497  0.2198 -0.9848
  283TMC3    H1 4276   1.144   3.931  15.500  1.1867  0.3308  1.3002
  283TMC3    H2 4277   1.056   4.303  15.691 -0.8420 -0.9959  0.2093
  283TMC3    C7 4278   1.014   4.046  15.707 -0.5106  0.2091 -0.0059
  283TMC3    C8 4279   1.237   4.413  15.572  0.1083  0.3668 -0.6290
  283TMC3    O1 4280   0.933   4.126  15.751 -0.5736  0.4321 -0.1551
  283TMC3    O2 4281   1.250   4.408  15.697  0.0899  0.1410  0.3991
  284MPD2     C 4282   3.779   3.311  12.154  0.0392 -0.2028  0.5326
  284MPD2    C1 4283   3.915   3.311  12.158 -0.5777 -0.1025  0.0266
  284MPD2    C2 4284   3.976   3.296  12.276 -1.0558 -0.1334  0.0666
  284MPD2    C3 4285   3.897   3.282  12.392 -0.7073  0.0464 -0.4850
  284MPD2    C4 4286   3.758   3.266  12.392  0.6243 -0.4753  0.3161
  284MPD2    C5 4287   3.697   3.280  12.262  0.0319  0.4003  0.3233
  284MPD2     H 4288   4.084   3.302  12.288 -1.1656 -0.4439  1.1882
  284MPD2    H1 4289   3.703   3.239  12.481 -0.3877  1.3948  0.2508
  284MPD2    H2 4290   3.719   3.331  12.066  0.7705  0.5371  0.2046
  284MPD2    H3 4291   3.590   3.262  12.254  0.0723  0.9764 -1.5943
  284MPD2     N 4292   3.978   3.292  12.505 -0.1183  0.0981  0.0801
  284MPD2    H5 4293   4.075   3.307  12.479  0.0178 -0.0057  0.5360
  284MPD2    N1 4294   3.997   3.356  12.051 -0.7746 -0.0379  0.2902
  284MPD2    H7 4295   4.096   3.375  12.063 -1.4481  3.2862  0.6119
  285TMC3    C1 4296   4.047   3.419  11.843 -0.6680  0.2705  0.3715
  285TMC3    C2 4297   4.048   3.363  11.720 -0.4831  0.0565  0.0187
  285TMC3    C3 4298   4.141   3.406  11.640  0.3153 -0.5848 -0.4562
  285TMC3    C4 4299   4.135   3.515  11.885 -0.1881  0.5208  0.2414
  285TMC3    C5 4300   4.234   3.551  11.797  0.1877 -0.5295  0.1638
  285TMC3    C6 4301   4.243   3.488  11.674 -0.4020  0.5453 -0.4116
  285TMC3     C 4302   3.947   3.362  11.927  0.1444  0.2174 -0.3294
  285TMC3     O 4303   3.837   3.336  11.877 -0.0933  0.3490 -0.1407
  285TMC3     H 4304   3.972   3.289  11.698  0.5291 -1.3486  1.2119
  285TMC3    H1 4305   4.132   3.565  11.981  0.7312 -0.4861  0.7983
  285TMC3    H2 4306   4.317   3.527  11.605  0.6762 -0.0838  0.3813
  285TMC3    C7 4307   4.313   3.673  11.811  0.3006  0.0378 -0.5130
  285TMC3    C8 4308   4.147   3.350  11.505 -0.4630 -0.0452 -0.0796
  285TMC3    O1 4309   4.422   3.669  11.761  0.1983  0.1348  0.1170
  285TMC3    O2 4310   4.105   3.234  11.497  0.2066  0.2430 -0.0448
  286MPD2     C 4311   0.147   2.741   2.002  0.0140  0.4281 -0.8935
  286MPD2    C1 4312   0.112   2.727   1.868 -0.1633  0.3925 -0.5014
  286MPD2    C2 4313   0.150   2.611   1.794 -0.3618  0.2281 -0.6503
  286MPD2    C3 4314   0.223   2.512   1.857 -0.1635  0.5851  0.1599
  286MPD2    C4 4315   0.249   2.527   1.995 -0.3144  0.4495 -0.0573
  286MPD2    C5 4316   0.211   2.639   2.069  0.3424 -0.5839  0.0258
  286MPD2     H 4317   0.129   2.600   1.688  0.9095 -2.0197 -0.6547
  286MPD2    H1 4318   0.299   2.445   2.046  0.8805  0.8779 -0.5490
  286MPD2    H2 4319   0.119   2.827   2.061  0.3841  0.6380 -1.0209
  286MPD2    H3 4320   0.232   2.643   2.175 -1.6733  0.0460  0.4004
  286MPD2     N 4321   0.276   2.395   1.804  0.7285  0.7144 -0.3665
  286MPD2    H5 4322   0.341   2.346   1.864 -2.1735 -2.2406  0.3246
  286MPD2    N1 4323   0.052   2.824   1.791  0.4832 -0.3263 -1.1381
  286MPD2    H7 4324   0.053   2.826   1.690 -0.7831 -0.3270 -1.1423
  287TMC3    C1 4325   0.318   2.225   1.641  0.5370 -0.0183 -0.8429
  287TMC3    C2 4326   0.270   2.172   1.526 -0.3490 -0.1578 -0.1009
  287TMC3    C3 4327   0.348   2.074   1.469  0.5424  0.2338 -0.3402
  287TMC3    C4 4328   0.422   2.176   1.718  0.0047  0.2979  0.5583
  287TMC3    C5 4329   0.481   2.069   1.660 -0.3821 -0.0983 -0.5723
  287TMC3    C6 4330   0.453   2.020   1.539  0.9452  0.3840  0.0150
  287TMC3     C 4331   0.248   2.344   1.678 -0.0656 -0.2809 -0.4126
  287TMC3     O 4332   0.165   2.381   1.600 -0.1449 -0.6941 -0.1903
  287TMC3     H 4333   0.187   2.216   1.473  1.1576  2.4612 -0.2851
  287TMC3    H1 4334   0.459   2.217   1.811 -1.3300 -0.5985  1.4789
  287TMC3    H2 4335   0.511   1.947   1.485  1.5938  0.8739  0.0471
  287TMC3    C7 4336   0.594   2.020   1.735  0.1220  0.1218  0.1547
  287TMC3    C8 4337   0.302   1.996   1.357 -0.2184  0.0465 -0.5423
  287TMC3    O1 4338   0.647   2.103   1.805 -0.2042 -0.1014  0.1015
  287TMC3    O2 4339   0.362   1.896   1.326 -0.4030 -0.0495 -0.0711
  288TMC3    C1 4340   2.289   2.003  14.284  0.2358  0.3128  0.0991
  288TMC3    C2 4341   2.171   1.962  14.334 -0.7161 -0.0790  0.7493
  288TMC3    C3 4342   2.061   2.024  14.275  0.1962 -0.4163 -0.2047
  288TMC3    C4 4343   2.307   2.091  14.188  0.4259 -0.5900  0.4213
  288TMC3    C5 4344   2.193   2.138  14.127 -0.1054 -0.2484  0.2809
  288TMC3    C6 4345   2.071   2.106  14.168 -0.3531 -0.6146 -0.0160
  288TMC3     C 4346   2.412   1.945  14.346  0.2124  0.6959  0.5104
  288TMC3     O 4347   2.407   1.926  14.465 -0.0684  0.6018 -0.0437
  288TMC3     H 4348   2.171   1.876  14.400 -2.2207 -0.4897  0.2013
  288TMC3    H1 4349   2.406   2.121  14.154  2.1220 -2.5137  3.7323
  288TMC3    H2 4350   1.980   2.137  14.119  1.5481  2.5121 -1.5914
  288TMC3    C7 4351   2.213   2.252  14.048  0.1410 -0.2228  0.6899
  288TMC3    C8 4352   1.941   2.033  14.349 -0.1901 -0.1515 -0.0258
  288TMC3    O1 4353   2.311   2.255  13.974  0.4212  0.6677 -0.5568
  288TMC3    O2 4354   1.851   2.085  14.288  0.0250  0.1677 -0.3837
  289MPD2     C 4355   2.447   1.552  14.559  0.4706  0.9417  0.6669
  289MPD2    C1 4356   2.457   1.515  14.427 -0.4680 -0.4579 -0.3132
  289MPD2    C2 4357   2.341   1.527  14.351  0.0606  0.4349  0.2427
  289MPD2    C3 4358   2.222   1.567  14.404 -0.8393 -0.1538  0.2909
  289MPD2    C4 4359   2.207   1.608  14.533  0.8248 -0.0236  1.0926
  289MPD2    C5 4360   2.326   1.604  14.611 -0.3088  0.3131  0.5669
  289MPD2     H 4361   2.337   1.492  14.249 -1.6259 -2.2071  1.2048
  289MPD2    H1 4362   2.122   1.655  14.581 -0.4436  0.2493 -1.4348
  289MPD2    H2 4363   2.534   1.548  14.623  0.5531 -0.8808  0.4353
  289MPD2    H3 4364   2.320   1.641  14.713  0.4596 -0.8462  1.0299
  289MPD2     N 4365   2.115   1.560  14.311  0.3561  0.0956  0.1417
  289MPD2    H5 4366   2.125   1.527  14.215  1.3618  3.4667 -0.8964
  289MPD2    N1 4367   2.580   1.460  14.382  0.2253  0.3707 -0.1569
  289MPD2    H7 4368   2.651   1.447  14.454 -1.0646 -1.5186  0.7931
  290TMC3    C1 4369   1.893   1.578  14.227  0.4214  0.3032 -0.1924
  290TMC3    C2 4370   1.784   1.658  14.214 -0.4516 -0.9246 -0.4248
  290TMC3    C3 4371   1.717   1.650  14.098 -0.1229  1.1357 -0.2338
  290TMC3    C4 4372   1.914   1.474  14.145 -0.3502 -0.1909 -0.0772
  290TMC3    C5 4373   1.842   1.466  14.030 -0.7738 -0.1613 -0.5243
  290TMC3    C6 4374   1.745   1.555  13.999  0.4789 -0.0332 -0.9926
  290TMC3     C 4375   1.983   1.593  14.340 -0.0374 -0.1371 -0.2713
  290TMC3     O 4376   1.934   1.659  14.431  1.1110 -0.2024 -0.0800
  290TMC3     H 4377   1.755   1.734  14.285 -0.2937 -0.0416 -1.3054
  290TMC3    H1 4378   1.998   1.408  14.165 -1.4040 -0.8340  2.3226
  290TMC3    H2 4379   1.685   1.548  13.909  0.3116 -1.0570 -0.8068
  290TMC3    C7 4380   1.845   1.347  13.946  0.6516 -0.1631 -0.9165
  290TMC3    C8 4381   1.585   1.706  14.090 -0.3191  0.0649 -0.0126
  290TMC3    O1 4382   1.812   1.357  13.824 -0.4423  0.1777 -0.1334
  290TMC3    O2 4383   1.512   1.640  14.020  0.0044  0.2454 -0.2221
  291MPD2     C 4384   1.056   1.489   0.286  0.6884  0.6371  0.0612
  291MPD2    C1 4385   1.094   1.368   0.234  0.4237 -0.2059 -0.5478
  291MPD2    C2 4386   1.214   1.318   0.265  0.0824 -0.1462  0.5536
  291MPD2    C3 4387   1.309   1.381   0.346  0.6568 -0.6101 -0.4743
  291MPD2    C4 4388   1.267   1.507   0.395 -0.0217 -0.1970 -0.0306
  291MPD2    C5 4389   1.141   1.559   0.367  1.1406  0.2421  0.6234
  291MPD2     H 4390   1.254   1.234   0.209 -0.0021  1.1614 -1.4961
  291MPD2    H1 4391   1.326   1.560   0.469  1.6711 -2.5583  0.2953
  291MPD2    H2 4392   0.959   1.536   0.268 -0.5787 -0.8809  2.9552
  291MPD2    H3 4393   1.101   1.657   0.391 -0.1243  0.0949 -0.9085
  291MPD2     N 4394   1.434   1.338   0.400 -0.3857 -0.6407  0.1832
  291MPD2    H5 4395   1.481   1.385   0.477  0.0899 -0.2131 -0.3661
  291MPD2    N1 4396   1.012   1.283   0.158 -0.1719  0.3839 -0.0071
  291MPD2    H7 4397   1.051   1.191   0.145  2.1087  1.5911 -1.6674
  292TMC3    C1 4398   0.833   1.192   0.039  0.4509 -0.0024 -0.1887
  292TMC3    C2 4399   0.696   1.186   0.035 -0.1005 -0.2792 -0.9890
  292TMC3    C3 4400   0.647   1.066  17.690 -0.3578  0.7012 -1.0963
  292TMC3    C4 4401   0.918   1.098  17.679  0.5964 -0.1761 -0.0877
  292TMC3    C5 4402   0.860   0.987  17.633  0.0965 -0.1917  1.0419
  292TMC3    C6 4403   0.726   0.967  17.642  0.0751 -0.1113 -0.0445
  292TMC3     C 4404   0.884   1.309   0.112 -0.1282  0.3520  0.6008
  292TMC3     O 4405   0.817   1.410   0.120 -0.0942  0.1880 -0.0401
  292TMC3     H 4406   0.636   1.248   0.100 -0.4058 -2.5422  0.9095
  292TMC3    H1 4407   1.025   1.116  17.678  0.5079  0.5085  3.4596
  292TMC3    H2 4408   0.687   0.874  17.603  0.2539 -1.6379  3.3867
  292TMC3    C7 4409   0.932   0.893  17.556 -0.4208 -0.2468  0.1969
  292TMC3    C8 4410   0.505   1.041  17.690 -0.3484  0.0867  0.3730
  292TMC3    O1 4411   1.044   0.862  17.599  0.2287  0.1104 -0.5482
  292TMC3    O2 4412   0.433   1.137  17.661 -0.2761  0.4141  0.3858
  293MPD2     C 4413   2.690   2.577  12.461 -0.5584  0.2022  0.0025
  293MPD2    C1 4414   2.601   2.519  12.545 -0.3449  0.3792 -0.4247
  293MPD2    C2 4415   2.630   2.516  12.682  0.3651 -0.0156 -0.4844
  293MPD2    C3 4416   2.745   2.568  12.736 -0.2179 -0.2992 -0.8098
  293MPD2    C4 4417   2.838   2.619  12.645  0.4275 -0.5128  0.1318
  293MPD2    C5 4418   2.810   2.618  12.509  0.1754  0.2815 -0.0828
  293MPD2     H 4419   2.558   2.463  12.743 -2.7338  2.8787 -1.5871
  293MPD2    H1 4420   2.926   2.672  12.677  0.2674  0.5193 -1.1823
  293MPD2    H2 4421   2.669   2.562  12.355 -0.9889 -1.0857  0.2626
  293MPD2    H3 4422   2.886   2.652  12.440 -0.8196 -0.3301 -1.4742
  293MPD2     N 4423   2.768   2.568  12.870  0.0563  0.1972 -0.5986
  293MPD2    H5 4424   2.705   2.519  12.932  1.2945 -0.1003  0.4214
  293MPD2    N1 4425   2.478   2.471  12.491 -0.2559 -0.0900  0.3897
  293MPD2    H7 4426   2.445   2.493  12.398 -0.3349 -1.1065  0.1711
  294TMC3    C1 4427   2.272   2.366  12.493 -0.3547 -0.3255 -0.0334
  294TMC3    C2 4428   2.191   2.258  12.543  0.3884 -0.4151 -0.6949
  294TMC3    C3 4429   2.067   2.250  12.485  0.3759  0.1336  0.3104
  294TMC3    C4 4430   2.217   2.463  12.409  0.5274 -0.1944 -0.8591
  294TMC3    C5 4431   2.089   2.453  12.371 -0.3697  0.2994 -0.6232
  294TMC3    C6 4432   2.015   2.343  12.402  0.2050 -0.3760 -0.3637
  294TMC3     C 4433   2.398   2.377  12.554 -0.8920 -0.5422 -1.0525
  294TMC3     O 4434   2.427   2.303  12.643 -0.0575 -0.2894  0.3295
  294TMC3     H 4435   2.228   2.175  12.602  1.1844 -1.5915 -2.8568
  294TMC3    H1 4436   2.271   2.554  12.386  1.5127 -0.6292 -0.3068
  294TMC3    H2 4437   1.913   2.328  12.369  1.3742 -0.8190 -3.7937
  294TMC3    C7 4438   2.052   2.503  12.244 -0.2756 -0.4517 -0.7577
  294TMC3    C8 4439   1.996   2.122  12.485  0.3170 -0.2672 -0.2158
  294TMC3    O1 4440   1.936   2.530  12.232 -0.0964 -0.0942 -0.7781
  294TMC3    O2 4441   1.984   2.062  12.377  0.0494 -0.3373 -0.3409
  295MPD2     C 4442   2.720   1.029   0.261 -0.5404 -0.2188 -0.1222
  295MPD2    C1 4443   2.757   1.109   0.369  0.5105  0.4747  0.8671
  295MPD2    C2 4444   2.689   1.106   0.483  0.3911 -0.1414  0.2419
  295MPD2    C3 4445   2.576   1.034   0.494 -0.5226 -0.4999  1.0007
  295MPD2    C4 4446   2.546   0.944   0.399 -0.1637 -0.2071  0.0779
  295MPD2    C5 4447   2.615   0.943   0.281 -0.0648  0.0056 -0.2021
  295MPD2     H 4448   2.732   1.171   0.558  0.4297 -0.4504  0.4858
  295MPD2    H1 4449   2.457   0.883   0.402  0.1420 -0.6125  0.9653
  295MPD2    H2 4450   2.776   1.020   0.169 -1.1680 -2.8259 -0.2313
  295MPD2    H3 4451   2.599   0.867   0.205 -0.3545  1.0498 -1.1957
  295MPD2     N 4452   2.507   1.034   0.618 -0.3890 -0.1239  0.1313
  295MPD2    H5 4453   2.432   0.967   0.631  0.3392 -0.6342  1.6796
  295MPD2    N1 4454   2.881   1.182   0.363  0.4992 -0.0091 -0.2404
  295MPD2    H7 4455   2.913   1.209   0.455  1.4291 -0.5832 -0.3974
  296TMC3    C1 4456   2.490   1.053   0.856  0.0443  0.3907  0.1134
  296TMC3    C2 4457   2.516   1.116   0.972  0.3684 -0.3638  0.5320
  296TMC3    C3 4458   2.522   1.049   1.085  0.4996  0.8866 -0.8233
  296TMC3    C4 4459   2.457   0.921   0.856  0.7903  0.0252 -1.0621
  296TMC3    C5 4460   2.432   0.861   0.974 -0.5386 -0.2616 -0.2265
  296TMC3    C6 4461   2.485   0.917   1.088  0.1558  0.4161 -0.3825
  296TMC3     C 4462   2.541   1.112   0.732  0.1127 -0.1128  0.1044
  296TMC3     O 4463   2.623   1.198   0.752  0.4594  0.1944 -0.1411
  296TMC3     H 4464   2.542   1.221   0.965  0.2780 -0.3520  0.3844
  296TMC3    H1 4465   2.432   0.861   0.769  0.0780 -0.7039 -0.3623
  296TMC3    H2 4466   2.493   0.864   1.182  1.0059 -0.2368 -0.8226
  296TMC3    C7 4467   2.461   0.719   0.969 -0.1031 -0.5303  0.4456
  296TMC3    C8 4468   2.588   1.097   1.205 -0.6924 -0.0575 -0.0919
  296TMC3    O1 4469   2.514   0.680   0.868  0.4635  0.1631  0.2944
  296TMC3    O2 4470   2.559   1.042   1.316  0.0323  0.1671 -0.2351
  297MPD2     C 4471   0.720   3.372  16.923 -0.0659  0.3534 -0.6410
  297MPD2    C1 4472   0.614   3.453  16.877  0.1648 -0.1822 -0.5194
  297MPD2    C2 4473   0.639   3.557  16.792  0.1556 -0.1915  0.1955
  297MPD2    C3 4474   0.770   3.581  16.754  0.5162 -1.0996  0.6583
  297MPD2    C4 4475   0.874   3.505  16.811 -0.4639  0.6893 -0.6277
  297MPD2    C5 4476   0.846   3.411  16.910  0.6790 -0.1972  0.3458
  297MPD2     H 4477   0.561   3.621  16.752 -0.0600  0.1332  1.1438
  297MPD2    H1 4478   0.979   3.530  16.798 -0.6592  1.4919 -0.6501
  297MPD2    H2 4479   0.696   3.280  16.974 -0.5785  0.7136 -0.2314
  297MPD2    H3 4480   0.919   3.339  16.945 -0.3168 -0.5233  1.7615
  297MPD2     N 4481   0.800   3.677  16.661 -0.7412  0.5792 -0.4692
  297MPD2    H5 4482   0.726   3.744  16.645  0.5870  1.8751 -1.2052
  297MPD2    N1 4483   0.477   3.423  16.900  0.0124 -0.0627  0.5547
  297MPD2    H7 4484   0.405   3.480  16.857  0.0121 -1.0790 -0.7581
  298TMC3    C1 4485   0.288   3.289  16.890 -0.3351 -0.2840 -0.1785
  298TMC3    C2 4486   0.240   3.171  16.836 -0.2163  0.3348  0.4858
  298TMC3    C3 4487   0.114   3.173  16.788 -0.5996 -0.2524  0.2781
  298TMC3    C4 4488   0.215   3.405  16.898  0.5175  0.7145  0.4751
  298TMC3    C5 4489   0.091   3.401  16.843  0.2616 -0.0758 -0.7433
  298TMC3    C6 4490   0.042   3.290  16.776  0.4423  0.2237  0.2726
  298TMC3     C 4491   0.423   3.295  16.930 -0.1014  0.4638 -0.6150
  298TMC3     O 4492   0.479   3.190  16.966 -0.2819  0.7435  0.4213
  298TMC3     H 4493   0.305   3.085  16.821 -0.0932  0.5703 -0.3423
  298TMC3    H1 4494   0.249   3.494  16.949  0.4148  0.2399  1.3605
  298TMC3    H2 4495   4.671   3.282  16.725  0.2045 -1.0025  0.9154
  298TMC3    C7 4496   0.012   3.521  16.867  0.3149 -0.3367 -0.5237
  298TMC3    C8 4497   0.050   3.047  16.742 -0.2044 -0.0479  0.3079
  298TMC3    O1 4498   0.048   3.578  16.972 -0.5074  0.1890 -0.1034
  298TMC3    O2 4499   4.680   3.053  16.657 -0.3194  0.0174  0.2889
  299MPD2     C 4500   1.119   3.190  10.326  0.3444 -0.4887 -0.3494
  299MPD2    C1 4501   1.011   3.195  10.414 -0.3304 -0.5924  0.9615
  299MPD2    C2 4502   0.904   3.110  10.384  0.0289  0.2066 -0.1518
  299MPD2    C3 4503   0.891   3.037  10.265  0.4748  0.3050 -0.2091
  299MPD2    C4 4504   0.996   3.045  10.180  0.2939 -0.1353 -0.6699
  299MPD2    C5 4505   1.102   3.122  10.209  0.3117 -0.0511 -0.0358
  299MPD2     H 4506   0.816   3.104  10.447 -0.7262  0.2679 -1.2067
  299MPD2    H1 4507   1.004   2.992  10.085  1.3000 -0.0182 -0.6528
  299MPD2    H2 4508   1.206   3.248  10.352 -0.4541  0.8814 -0.7798
  299MPD2    H3 4509   1.178   3.129  10.132 -0.6250 -0.5422 -0.9888
  299MPD2     N 4510   0.779   2.959  10.220 -0.5832  0.3754  0.1679
  299MPD2    H5 4511   0.763   2.927  10.124 -0.1258 -1.6078  0.7598
  299MPD2    N1 4512   1.018   3.276  10.533 -0.2826  0.2010  0.3303
  299MPD2    H7 4513   1.108   3.322  10.545 -0.3868 -0.1002  2.1478
  300TMC3    C1 4514   0.567   2.868  10.227  0.0365 -0.0318 -0.4614
  300TMC3    C2 4515   0.496   2.965  10.156  0.1166  0.5685  0.6808
  300TMC3    C3 4516   0.359   2.984  10.179 -0.0541  0.2813  0.0028
  300TMC3    C4 4517   0.496   2.776  10.297  0.1497  0.3266  1.0751
  300TMC3    C5 4518   0.363   2.796  10.313 -0.8397 -0.2865  0.3190
  300TMC3    C6 4519   0.290   2.902  10.260 -0.2318  0.3500 -0.7155
  300TMC3     C 4520   0.684   2.914  10.304 -0.1485  0.5047  0.0142
  300TMC3     O 4521   0.669   2.918  10.426 -0.1276 -0.2955  0.3612
  300TMC3     H 4522   0.563   3.043  10.120  1.0092 -0.9014 -0.8216
  300TMC3    H1 4523   0.529   2.680  10.334 -0.7463 -0.4257 -0.0949
  300TMC3    H2 4524   0.184   2.922  10.274 -0.2631 -0.6348  0.4372
  300TMC3    C7 4525   0.284   2.689  10.390 -0.8204 -0.7686  0.0830
  300TMC3    C8 4526   0.330   3.121  10.237 -0.4502 -0.4593  0.0403
  300TMC3    O1 4527   0.340   2.580  10.419  0.7297 -0.0946  0.8389
  300TMC3    O2 4528   0.263   3.119  10.336  0.2121 -0.5108 -0.0536
  301MPD2     C 4529   3.020   3.922   1.661 -0.0233 -0.4150  0.9914
  301MPD2    C1 4530   2.921   3.858   1.580  0.7991 -0.2772 -0.1356
  301MPD2    C2 4531   2.939   3.721   1.541  0.2719  0.2387  0.8915
  301MPD2    C3 4532   3.060   3.657   1.568  0.6557  0.2699 -0.2114
  301MPD2    C4 4533   3.154   3.722   1.640  0.2514 -0.4468  0.0239
  301MPD2    C5 4534   3.133   3.852   1.691  0.7931 -0.6767 -0.8521
  301MPD2     H 4535   2.868   3.686   1.467  0.7540  2.2734 -0.5323
  301MPD2    H1 4536   3.245   3.669   1.661  0.2345  0.5217  2.4836
  301MPD2    H2 4537   3.012   4.023   1.697  2.9856  0.1159  0.1364
  301MPD2    H3 4538   3.216   3.897   1.744  0.0592  1.7884 -1.7694
  301MPD2     N 4539   3.109   3.538   1.506 -0.0177  0.0082 -0.5088
  301MPD2    H5 4540   3.208   3.516   1.512 -0.2979 -0.6629  1.5389
  301MPD2    N1 4541   2.800   3.918   1.542  0.2032 -0.1796  0.2335
  301MPD2    H7 4542   2.735   3.863   1.488 -1.4331  0.3610  1.6761
  302TMC3    C1 4543   3.109   3.330   1.378  0.3459 -0.2786  0.0754
  302TMC3    C2 4544   3.237   3.295   1.409  0.0645 -0.7059  0.4773
  302TMC3    C3 4545   3.277   3.169   1.386 -0.2900 -0.0793  0.4407
  302TMC3    C4 4546   3.028   3.243   1.305 -1.3021  0.3690 -0.3311
  302TMC3    C5 4547   3.072   3.120   1.274 -0.2118 -0.0867 -0.0154
  302TMC3    C6 4548   3.196   3.080   1.325  0.1844 -0.3315 -0.0258
  302TMC3     C 4549   3.037   3.442   1.437 -0.4801  0.4750  0.4160
  302TMC3     O 4550   2.918   3.435   1.424  0.5019  0.0191  0.2571
  302TMC3     H 4551   3.295   3.365   1.468  1.0606 -2.1736  1.2433
  302TMC3    H1 4552   2.950   3.293   1.248  0.3641  1.2886 -1.7734
  302TMC3    H2 4553   3.229   2.982   1.292  0.9825 -1.0468  2.8672
  302TMC3    C7 4554   3.023   3.040   1.164  0.2617  0.1850 -0.4318
  302TMC3    C8 4555   3.421   3.146   1.393  0.0159  0.3891 -0.5221
  302TMC3    O1 4556   3.102   2.969   1.103  0.3783  0.1106 -0.4270
  302TMC3    O2 4557   3.501   3.241   1.371  0.8293  0.1805 -0.4524
  303MPD2     C 4558   2.883   1.560  10.973  0.2619 -1.0182 -0.7316
  303MPD2    C1 4559   2.777   1.561  10.889 -0.0561  0.7491 -0.4499
  303MPD2    C2 4560   2.800   1.613  10.762  0.4181  0.1157  0.1987
  303MPD2    C3 4561   2.924   1.662  10.711  0.1804  0.5402  0.4266
  303MPD2    C4 4562   3.025   1.647  10.801  0.1409  0.6067 -0.7810
  303MPD2    C5 4563   3.000   1.602  10.931  0.3111 -0.9620 -0.1777
  303MPD2     H 4564   2.711   1.625  10.702  0.2824  1.1681  0.5963
  303MPD2    H1 4565   3.124   1.670  10.763  0.7021 -0.4040  0.0796
  303MPD2    H2 4566   2.876   1.531  11.077 -1.2928 -1.9065 -1.0801
  303MPD2    H3 4567   3.089   1.599  10.993 -0.5031 -2.6971  0.9177
  303MPD2     N 4568   2.946   1.738  10.593 -0.3070  0.3920  0.9720
  303MPD2    H5 4569   3.032   1.791  10.585  0.4527 -0.9352  0.4397
  303MPD2    N1 4570   2.654   1.512  10.930 -0.6464 -0.3563  0.3072
  303MPD2    H7 4571   2.637   1.497  11.029 -0.4419 -2.0488  0.0911
  304TMC3    C1 4572   2.439   1.437  10.924  1.1942 -0.3555 -0.0072
  304TMC3    C2 4573   2.386   1.533  11.013  0.0624  0.6540  0.0589
  304TMC3    C3 4574   2.250   1.544  11.019  0.3661 -0.3567  0.0522
  304TMC3    C4 4575   2.352   1.362  10.846  0.5180  0.5401  0.4891
  304TMC3    C5 4576   2.214   1.386  10.861 -0.1784  0.3386 -0.4451
  304TMC3    C6 4577   2.163   1.468  10.954 -0.1610  0.3604 -0.2926
  304TMC3     C 4578   2.557   1.473  10.849 -0.1109  0.0522 -0.3676
  304TMC3     O 4579   2.561   1.433  10.733 -0.3048 -0.0942 -0.5452
  304TMC3     H 4580   2.444   1.612  11.058 -1.4790  1.1213  1.2166
  304TMC3    H1 4581   2.386   1.295  10.767 -2.2528 -0.1333 -0.1600
  304TMC3    H2 4582   2.055   1.472  10.968 -0.5315  1.5434 -3.4419
  304TMC3    C7 4583   2.123   1.378  10.744 -0.1025 -0.2612 -0.0045
  304TMC3    C8 4584   2.205   1.683  11.005 -0.1825 -0.1750 -0.0924
  304TMC3    O1 4585   2.027   1.457  10.748 -0.2329 -0.3117  0.3847
  304TMC3    O2 4586   2.251   1.766  11.082  0.1322 -0.1371 -0.4454
  305MPD2     C 4587   1.644   0.278  14.082 -0.1691  0.2862  0.1482
  305MPD2    C1 4588   1.662   0.155  14.142  0.3760 -0.2139 -0.0232
  305MPD2    C2 4589   1.635   0.043  14.063 -0.0293 -0.2313  0.6217
  305MPD2    C3 4590   1.610   0.059  13.926 -0.0199 -0.1357  0.4374
  305MPD2    C4 4591   1.604   0.180  13.870 -0.2081 -0.8427  0.1154
  305MPD2    C5 4592   1.610   0.291  13.951 -0.8373  0.6969 -0.4420
  305MPD2     H 4593   1.642   4.666  14.102 -0.6243  0.2296  1.9021
  305MPD2    H1 4594   1.576   0.199  13.767 -2.2973  1.9955  1.1999
  305MPD2    H2 4595   1.668   0.365  14.142 -1.1939  0.2789  0.5744
  305MPD2    H3 4596   1.590   0.389  13.910 -1.1729  0.7595 -0.1258
  305MPD2     N 4597   1.603   4.671  13.839  0.2701 -0.1985  0.4644
  305MPD2    H5 4598   1.581   4.688  13.741  0.2252  3.1480  1.0844
  305MPD2    N1 4599   1.692   0.148  14.274 -0.1482 -0.0644  0.0254
  305MPD2    H7 4600   1.690   0.236  14.325 -0.1689  1.5588 -2.7651
  306TMC3    C1 4601   1.778   0.063  14.483 -0.7472  0.1154 -0.1445
  306TMC3    C2 4602   1.876   4.704  14.536  0.0216 -0.0952 -1.1540
  306TMC3    C3 4603   1.926   0.013  14.657  0.0509  0.5012 -0.2650
  306TMC3    C4 4604   1.743   0.181  14.542  0.0991  0.5363 -0.4143
  306TMC3    C5 4605   1.805   0.217  14.658  0.3357  0.7207  0.5876
  306TMC3    C6 4606   1.891   0.128  14.721  0.8999 -0.1755  0.3310
  306TMC3     C 4607   1.743   0.039  14.341  0.1263  0.4226  0.0178
  306TMC3     O 4608   1.789   4.659  14.294  0.2894  0.4994 -0.7469
  306TMC3     H 4609   1.909   4.616  14.482 -0.1948 -0.0108 -1.4277
  306TMC3    H1 4610   1.660   0.245  14.514 -2.1512 -0.1788  4.6511
  306TMC3    H2 4611   1.950   0.158  14.807  1.6571 -1.4944  0.2678
  306TMC3    C7 4612   1.781   0.346  14.719  0.6721 -0.6568 -0.0216
  306TMC3    C8 4613   2.021   4.647  14.720  0.0156 -1.1189  0.0204
  306TMC3    O1 4614   1.727   0.435  14.651 -0.2244  0.5771 -0.2289
  306TMC3    O2 4615   2.104   4.596  14.645  0.3102  0.3380 -0.3623
  307MPD2     C 4616   4.150   1.184   0.238 -0.6718 -0.4927 -0.3407
  307MPD2    C1 4617   4.159   1.322   0.244  0.0903 -0.0172 -0.3935
  307MPD2    C2 4618   4.087   1.397   0.336  0.3513  0.4009 -0.6630
  307MPD2    C3 4619   4.013   1.332   0.432  0.3728  0.2409  0.1449
  307MPD2    C4 4620   4.007   1.187   0.428 -0.5883 -0.0456  0.3087
  307MPD2    C5 4621   4.070   1.116   0.327  0.3899  0.0842  0.0009
  307MPD2     H 4622   4.116   1.500   0.348  0.7768  0.0553  1.2212
  307MPD2    H1 4623   3.944   1.145   0.505  0.8819 -1.5520  0.6793
  307MPD2    H2 4624   4.203   1.125   0.165  1.1787 -0.3968  0.9451
  307MPD2    H3 4625   4.074   1.008   0.322  0.2197  0.0477  0.6236
  307MPD2     N 4626   3.950   1.411   0.533 -0.1779 -0.0858 -0.1170
  307MPD2    H5 4627   3.945   1.510   0.511 -2.4047 -0.1331  0.1334
  307MPD2    N1 4628   4.241   1.391   0.150  0.2323  0.4530 -0.0803
  307MPD2    H7 4629   4.249   1.490   0.173  1.5550  0.6145 -1.2655
  308TMC3    C1 4630   3.644   1.576   0.839 -0.4505  0.5387 -0.2705
  308TMC3    C2 4631   3.714   1.691   0.852  0.4745  0.2666 -0.5539
  308TMC3    C3 4632   3.848   1.690   0.808  0.9759 -0.6475 -0.3270
  308TMC3    C4 4633   3.701   1.467   0.780 -0.2898 -0.1592  0.1257
  308TMC3    C5 4634   3.825   1.476   0.724  0.9825  0.4276 -0.6245
  308TMC3    C6 4635   3.902   1.591   0.729 -0.6915 -0.3232 -0.5926
  308TMC3     C 4636   3.503   1.575   0.835 -1.0321 -0.0135 -0.1164
  308TMC3     O 4637   3.446   1.468   0.849 -0.5316  0.4491  0.4218
  308TMC3     H 4638   3.677   1.772   0.914 -0.3360 -0.6147  0.1165
  308TMC3    H1 4639   3.647   1.374   0.765 -0.1235 -0.5034  1.7218
  308TMC3    H2 4640   4.001   1.594   0.685 -0.0889 -0.9484  0.7289
  308TMC3    C7 4641   3.859   1.367   0.630 -1.5308 -0.5108 -0.3734
  308TMC3    C8 4642   3.902   1.827   0.792 -0.1309 -0.1839 -0.1316
  308TMC3    O1 4643   3.838   1.250   0.665 -0.4935  0.3732  0.0306
  308TMC3    O2 4644   3.930   1.858   0.677  0.0959  0.3070 -0.1982
  309MPD2     C 4645   3.627   2.635  17.167 -0.6596 -0.3546  0.1868
  309MPD2    C1 4646   3.556   2.705  17.074 -0.1828  0.0647  0.1491
  309MPD2    C2 4647   3.428   2.747  17.111 -0.5645 -0.2610 -0.0919
  309MPD2    C3 4648   3.373   2.712  17.237  0.3275  0.0115 -0.2273
  309MPD2    C4 4649   3.452   2.646  17.330  0.2542  0.0919  0.1775
  309MPD2    C5 4650   3.581   2.614  17.294 -0.2728  0.2765  0.1060
  309MPD2     H 4651   3.366   2.790  17.034 -2.6340 -0.2544  1.5921
  309MPD2    H1 4652   3.416   2.622  17.429 -0.0085 -2.2894 -0.4902
  309MPD2    H2 4653   3.726   2.598  17.143 -2.0514 -2.3225 -2.6352
  309MPD2    H3 4654   3.646   2.562  17.364 -1.7713  0.9785  2.0391
  309MPD2     N 4655   3.244   2.751  17.264  0.6708  0.0530  0.8657
  309MPD2    H5 4656   3.193   2.817  17.206  3.4644  1.6304  0.1858
  309MPD2    N1 4657   3.603   2.728  16.944  0.3145 -0.0705 -0.5968
  309MPD2    H7 4658   3.531   2.780  16.894  1.4477  2.8356  0.8164
  310TMC3    C1 4659   3.694   2.700  16.742 -0.3572  0.1469 -0.3146
  310TMC3    C2 4660   3.645   2.823  16.709  0.1034  0.1942  0.2682
  310TMC3    C3 4661   3.640   2.862  16.576  0.2101 -0.4061 -0.7164
  310TMC3    C4 4662   3.732   2.620  16.631  0.0627 -0.5178 -0.3469
  310TMC3    C5 4663   3.716   2.657  16.500 -0.1249  0.2405 -0.5228
  310TMC3    C6 4664   3.671   2.783  16.468 -0.2641  0.7618  0.0587
  310TMC3     C 4665   3.697   2.656  16.874  0.1778  0.2041  0.1081
  310TMC3     O 4666   3.769   2.564  16.921 -0.9735 -0.0080 -0.2477
  310TMC3     H 4667   3.620   2.897  16.784  0.2597  1.0029 -0.4797
  310TMC3    H1 4668   3.747   2.515  16.654 -2.1689 -1.1730 -1.9629
  310TMC3    H2 4669   3.665   2.821  16.366 -2.6682 -0.0595 -0.1206
  310TMC3    C7 4670   3.782   2.568  16.408  0.2541  0.6144  0.3197
  310TMC3    C8 4671   3.577   2.988  16.535  0.6924  0.0043  0.0326
  310TMC3    O1 4672   3.756   2.446  16.418  0.4058 -0.6524  0.5247
  310TMC3    O2 4673   3.615   3.038  16.431 -0.0055 -0.0020 -0.1603
  311MPD2     C 4674   0.753   3.944  13.198 -0.3597  0.5174  0.2968
  311MPD2    C1 4675   0.768   4.070  13.146 -0.4811  0.3200  0.0320
  311MPD2    C2 4676   0.655   4.141  13.103 -0.1662  0.0253  0.2110
  311MPD2    C3 4677   0.526   4.076  13.095 -0.3013  0.2460  0.1468
  311MPD2    C4 4678   0.519   3.946  13.147 -0.0381  0.0223 -0.1342
  311MPD2    C5 4679   0.630   3.881  13.200 -0.5815  0.6292 -0.4525
  311MPD2     H 4680   0.663   4.246  13.077 -1.3127 -0.6606 -2.9265
  311MPD2    H1 4681   0.422   3.897  13.149 -0.0776  0.1236  0.2818
  311MPD2    H2 4682   0.841   3.894  13.236 -0.2915 -0.1539 -0.7289
  311MPD2    H3 4683   0.621   3.782  13.243  0.6858  0.8515  0.3352
  311MPD2     N 4684   0.422   4.142  13.027  1.0430 -0.1299  0.4940
  311MPD2    H5 4685   0.437   4.233  12.984 -1.0410 -1.4615 -3.0758
  311MPD2    N1 4686   0.895   4.144  13.145  0.0474  0.1518 -0.3234
  311MPD2    H7 4687   0.897   4.240  13.112  0.5718  0.1475 -0.2962
  312TMC3    C1 4688   0.208   4.178  12.934  0.1517 -0.8311  0.2922
  312TMC3    C2 4689   0.115   4.130  12.851  0.3778 -0.4020  0.5294
  312TMC3    C3 4690   0.021   4.213  12.798  0.0273  0.2150  0.1374
  312TMC3    C4 4691   0.207   4.308  12.972  0.3487 -0.5286 -0.0374
  312TMC3    C5 4692   0.102   4.383  12.924  0.0458 -0.0394 -0.2566
  312TMC3    C6 4693   0.019   4.348  12.825 -0.2953 -0.0638 -0.1277
  312TMC3     C 4694   0.300   4.083  12.996 -0.2000 -0.1014  0.0409
  312TMC3     O 4695   0.249   3.972  13.016 -0.3605  0.2861  0.3795
  312TMC3     H 4696   0.113   4.025  12.823  0.0025 -0.5768  1.2093
  312TMC3    H1 4697   0.272   4.349  13.049  1.1721  1.0061 -1.5433
  312TMC3    H2 4698   4.660   4.410  12.794  1.0449  0.3871 -2.8342
  312TMC3    C7 4699   0.113   4.526  12.930  0.0703 -0.0982  0.6805
  312TMC3    C8 4700   4.620   4.149  12.752  0.4947  0.0967  0.1581
  312TMC3    O1 4701   0.061   4.595  12.846 -0.0748  0.4205 -0.6535
  312TMC3    O2 4702   4.598   4.037  12.793 -0.8117 -0.3312 -0.1380
  313MPD2     C 4703   4.154   3.851  11.464 -0.5624  0.9632  0.5460
  313MPD2    C1 4704   4.156   3.825  11.330 -0.2271 -0.5631  0.2801
  313MPD2    C2 4705   4.061   3.750  11.266 -0.6391  0.1712 -0.0363
  313MPD2    C3 4706   3.962   3.686  11.338 -0.7295  0.7764  0.7196
  313MPD2    C4 4707   3.962   3.700  11.474 -0.0497  0.6226  0.5677
  313MPD2    C5 4708   4.060   3.775  11.534 -0.2624  0.5113  0.1204
  313MPD2     H 4709   4.064   3.743  11.158 -0.7464  0.5558 -0.0644
  313MPD2    H1 4710   3.893   3.646  11.539  0.8561 -1.7309 -0.4185
  313MPD2    H2 4711   4.225   3.919  11.508  0.8419 -1.8994  2.7037
  313MPD2    H3 4712   4.065   3.777  11.642  0.5471  2.1181  0.0559
  313MPD2     N 4713   3.882   3.589  11.275  0.0720  0.7229  0.0790
  313MPD2    H5 4714   3.895   3.598  11.175 -0.0182 -0.0827 -0.0024
  313MPD2    N1 4715   4.257   3.869  11.237 -0.4369  0.2537  0.0400
  313MPD2    H7 4716   4.233   3.860  11.139  0.4769 -0.1374 -0.1517
  314TMC3    C1 4717   4.459   3.954  11.154 -0.0533  0.2239 -0.4505
  314TMC3    C2 4718   4.589   3.998  11.188 -1.4800 -0.3361 -0.1810
  314TMC3    C3 4719   4.693   3.994  11.097 -0.7445  0.2206  0.7436
  314TMC3    C4 4720   4.430   3.930  11.022 -0.0767  0.1674  1.1677
  314TMC3    C5 4721   4.532   3.940  10.927 -0.0537 -0.4540  0.4991
  314TMC3    C6 4722   4.664   3.970  10.959  0.8819  0.3965 -0.3330
  314TMC3     C 4723   4.378   3.927  11.268  0.8104  0.0546 -0.2411
  314TMC3     O 4724   4.429   3.936  11.376  0.2941 -0.5395 -0.2830
  314TMC3     H 4725   4.615   3.994  11.293 -1.3116 -1.6405 -0.2688
  314TMC3    H1 4726   4.334   3.894  10.988  1.5802 -1.1602 -2.1158
  314TMC3    H2 4727   0.014   3.986  10.881  1.4448  1.0799  0.3370
  314TMC3    C7 4728   4.519   3.850  10.810  0.1973  0.2828  0.5665
  314TMC3    C8 4729   0.105   4.039  11.139  0.3451  0.0148  0.4654
  314TMC3    O1 4730   4.494   3.730  10.836  0.2695  0.1216 -0.6227
  314TMC3    O2 4731   0.163   4.093  11.046  0.5299 -0.7885  0.4322
  315MPD2     C 4732   4.708   3.118   0.044 -0.0350 -0.7404  0.0647
  315MPD2    C1 4733   0.080   3.114   0.142 -0.2718 -0.7282  0.0406
  315MPD2    C2 4734   0.182   3.215   0.151 -0.5413  0.3116  1.3435
  315MPD2    C3 4735   0.183   3.314   0.056 -0.3301 -0.1856  0.4812
  315MPD2    C4 4736   0.095   3.301  17.641  1.1147 -0.5400 -0.0980
  315MPD2    C5 4737   4.722   3.204  17.637  0.8206  0.3917  0.2380
  315MPD2     H 4738   0.255   3.222   0.231  0.0058 -1.4015  0.9948
  315MPD2    H1 4739   0.095   3.371  17.558 -0.6834 -1.5732 -0.9648
  315MPD2    H2 4740   4.621   3.054   0.045 -0.3725 -0.2827 -0.0254
  315MPD2    H3 4741   4.646   3.199  17.560  0.6338  2.2023  0.3178
  315MPD2     N 4742   0.271   3.424   0.076 -0.0858  0.1050 -0.2765
  315MPD2    H5 4743   0.327   3.422   0.160  0.1813 -0.9778 -0.4765
  315MPD2    N1 4744   0.077   3.032   0.257  0.5132  0.4969 -0.6532
  315MPD2    H7 4745   0.138   3.057   0.334  1.2463 -0.8854 -0.7895
  316TMC3    C1 4746   0.351   3.646   0.064  0.2532  0.1813 -0.1116
  316TMC3    C2 4747   0.469   3.617   0.131  0.2881  0.8101  0.0421
  316TMC3    C3 4748   0.530   3.715   0.207 -0.7526  0.2034  0.0826
  316TMC3    C4 4749   0.300   3.774   0.054 -0.4673  0.3831 -0.4581
  316TMC3    C5 4750   0.374   3.866   0.123 -0.4017 -0.2082 -1.1125
  316TMC3    C6 4751   0.481   3.842   0.200 -0.3071  1.0307  0.2139
  316TMC3     C 4752   0.265   3.543   0.008 -0.4639  0.3958  0.8399
  316TMC3     O 4753   0.187   3.571  17.616 -0.2688 -0.4206  0.6362
  316TMC3     H 4754   0.522   3.528   0.100 -0.1286  1.0111 -1.2641
  316TMC3    H1 4755   0.200   3.791   0.015 -1.6877 -1.0475  2.0328
  316TMC3    H2 4756   0.535   3.912   0.262  0.2546  0.2197  0.6314
  316TMC3    C7 4757   0.340   4.003   0.107 -0.3280  0.0815 -0.4473
  316TMC3    C8 4758   0.653   3.691   0.278 -0.5681  0.5252 -0.5721
  316TMC3    O1 4759   0.401   4.090   0.173  0.8534 -0.2014  0.2945
  316TMC3    O2 4760   0.727   3.785   0.289 -0.0839 -0.1710 -0.2748
  317MPD2     C 4761   1.537   1.095  12.469 -0.1217  0.6887  0.0800
  317MPD2    C1 4762   1.618   0.996  12.431 -0.3933  0.5103  0.0535
  317MPD2    C2 4763   1.655   0.900  12.524 -0.3497  0.1472 -0.3444
  317MPD2    C3 4764   1.617   0.905  12.657  0.6130  0.3283 -0.0841
  317MPD2    C4 4765   1.530   1.007  12.694  0.1184 -0.1079 -0.0419
  317MPD2    C5 4766   1.495   1.102  12.600  0.5639  0.0047 -0.0871
  317MPD2     H 4767   1.711   0.813  12.490 -2.1534 -0.5513 -1.5596
  317MPD2    H1 4768   1.496   1.018  12.796 -1.3307 -0.5880 -0.4721
  317MPD2    H2 4769   1.487   1.163  12.400  1.3307  3.3431  1.6431
  317MPD2    H3 4770   1.429   1.183  12.630 -0.1719 -0.6068 -0.0477
  317MPD2     N 4771   1.646   0.798  12.743 -0.2996 -0.2326 -0.0694
  317MPD2    H5 4772   1.719   0.735  12.712 -1.1419 -0.9682 -0.5672
  317MPD2    N1 4773   1.648   0.975  12.299 -0.3108  0.1706 -0.4183
  317MPD2    H7 4774   1.696   0.889  12.275  2.6237  1.4371  0.9550
  318TMC3    C1 4775   1.699   0.695  12.948  0.4654  0.3648 -0.0021
  318TMC3    C2 4776   1.644   0.629  13.051 -0.4322 -0.0587  0.0008
  318TMC3    C3 4777   1.726   0.544  13.120 -1.0525  0.2446  0.5828
  318TMC3    C4 4778   1.831   0.692  12.913 -0.0810 -0.6475  0.0381
  318TMC3    C5 4779   1.906   0.610  12.984 -0.1176 -0.4968  0.1142
  318TMC3    C6 4780   1.861   0.537  13.088 -1.3021 -0.5328  0.2661
  318TMC3     C 4781   1.610   0.783  12.874  0.6385 -0.8786  0.9923
  318TMC3     O 4782   1.530   0.851  12.940  0.2656  0.5082  0.9911
  318TMC3     H 4783   1.539   0.648  13.066 -0.6511 -1.0140 -0.3136
  318TMC3    H1 4784   1.876   0.767  12.848 -2.4425  2.6833  2.2132
  318TMC3    H2 4785   1.928   0.459  13.122 -2.7732 -1.0274  2.0059
  318TMC3    C7 4786   2.044   0.651  12.980  0.6609 -0.3545 -0.3682
  318TMC3    C8 4787   1.684   0.476  13.238 -0.1007  0.2954 -0.4678
  318TMC3    O1 4788   2.080   0.719  12.888 -0.6409 -0.2805 -0.0155
  318TMC3    O2 4789   1.759   0.394  13.292 -0.3719 -0.1817  0.1838
  319MPD2     C 4790   2.883   2.789  16.405 -0.1377  0.3941  0.2717
  319MPD2    C1 4791   2.756   2.831  16.424  0.1241  0.2467  0.0365
  319MPD2    C2 4792   2.687   2.882  16.314 -0.0080 -0.8198 -0.3123
  319MPD2    C3 4793   2.745   2.880  16.184  0.7859 -0.3086  0.5456
  319MPD2    C4 4794   2.878   2.833  16.167 -0.1742 -0.9033  0.0723
  319MPD2    C5 4795   2.942   2.786  16.283  0.4835 -0.5880  0.2554
  319MPD2     H 4796   2.589   2.922  16.337  1.8329  2.0186  2.6058
  319MPD2    H1 4797   2.926   2.833  16.070 -1.2838 -0.9885 -0.4755
  319MPD2    H2 4798   2.936   2.751  16.492  3.6116  0.7962 -1.8345
  319MPD2    H3 4799   3.044   2.748  16.285  1.3898  1.8334  0.0568
  319MPD2     N 4800   2.670   2.920  16.071  0.0644  0.0422 -0.4357
  319MPD2    H5 4801   2.717   2.920  15.981  1.2566 -0.5278  0.1834
  319MPD2    N1 4802   2.695   2.833  16.551  0.3208  0.8501 -0.4240
  319MPD2    H7 4803   2.596   2.856  16.545 -0.2356 -0.9154  1.8947
  320TMC3    C1 4804   2.458   2.908  15.961 -0.5468  0.4153  0.5783
  320TMC3    C2 4805   2.331   2.960  15.953 -0.7773 -0.2412 -0.4087
  320TMC3    C3 4806   2.238   2.875  15.898  0.0550 -0.1212 -0.6602
  320TMC3    C4 4807   2.494   2.791  15.908 -0.4738  0.7684 -0.3108
  320TMC3    C5 4808   2.394   2.713  15.852  0.8189  0.2624 -1.0024
  320TMC3    C6 4809   2.263   2.753  15.847  0.2937 -0.5015 -0.4254
  320TMC3     C 4810   2.543   2.969  16.071  0.5591 -0.2465 -0.4936
  320TMC3     O 4811   2.481   3.020  16.165 -0.4737  0.1745 -0.0616
  320TMC3     H 4812   2.301   3.052  16.002 -2.2226 -1.1496  0.4045
  320TMC3    H1 4813   2.592   2.747  15.926 -0.3695  0.0110 -2.7805
  320TMC3    H2 4814   2.181   2.691  15.812 -3.3461  4.0436  0.1620
  320TMC3    C7 4815   2.422   2.572  15.850  0.3047  0.2621  0.3202
  320TMC3    C8 4816   2.111   2.940  15.864  0.4100 -0.3055 -0.2754
  320TMC3    O1 4817   2.479   2.534  15.748  0.0098  0.4382  0.3316
  320TMC3    O2 4818   2.103   3.058  15.870 -0.3784  0.2633 -0.2023
  321TMC3    C1 4819   2.638   2.807  16.773 -0.6445 -0.2456 -0.8957
  321TMC3    C2 4820   2.550   2.707  16.733 -0.7772 -0.2292 -0.6002
  321TMC3    C3 4821   2.503   2.619  16.825  0.5000 -0.2601 -0.0206
  321TMC3    C4 4822   2.667   2.820  16.907  0.5347 -0.1773  0.3209
  321TMC3    C5 4823   2.602   2.746  17.004  0.5785  0.5154  0.0709
  321TMC3    C6 4824   2.520   2.645  16.962  0.4905 -0.6065 -0.0863
  321TMC3     C 4825   2.747   2.838  16.679  0.5236 -0.2950 -0.2647
  321TMC3     O 4826   2.862   2.828  16.714 -0.1259  0.4366  0.8799
  321TMC3     H 4827   2.510   2.691  16.633  2.3067  0.7750 -1.9973
  321TMC3    H1 4828   2.745   2.891  16.933  0.9489 -1.0918  1.6321
  321TMC3    H2 4829   2.466   2.580  17.029 -0.0733 -1.9582 -1.8626
  321TMC3    C7 4830   2.690   2.712  17.113 -0.0007 -0.1966  0.1280
  321TMC3    C8 4831   2.582   2.494  16.794 -0.3245  0.6550  0.0683
  321TMC3    O1 4832   2.810   2.722  17.082  0.0445 -0.1832  0.2574
  321TMC3    O2 4833   2.558   2.401  16.876 -0.0744 -0.4074  0.6948
  322MPD2     C 4834   1.436   3.983  14.147  0.2924  0.7393  0.0841
  322MPD2    C1 4835   1.566   3.969  14.186 -0.1088  0.1019 -0.2998
  322MPD2    C2 4836   1.619   3.839  14.199 -0.1929 -0.1218 -0.0072
  322MPD2    C3 4837   1.542   3.731  14.164 -0.0640  0.4802 -0.5329
  322MPD2    C4 4838   1.409   3.744  14.125 -0.6387 -0.0118  0.4089
  322MPD2    C5 4839   1.356   3.869  14.113 -0.1504 -0.3890  0.3294
  322MPD2     H 4840   1.710   3.817  14.254 -0.7615 -3.4451 -0.3887
  322MPD2    H1 4841   1.341   3.663  14.102 -0.5847  0.2449 -0.6970
  322MPD2    H2 4842   1.386   4.079  14.136 -1.3563 -0.2324 -1.0137
  322MPD2    H3 4843   1.252   3.878  14.083 -0.1874 -2.6991 -0.1958
  322MPD2     N 4844   1.594   3.610  14.195  0.3543 -0.4529  0.2834
  322MPD2    H5 4845   1.684   3.608  14.242  1.0858 -2.2604 -1.1385
  322MPD2    N1 4846   1.638   4.080  14.227 -0.2708 -0.0833  0.6018
  322MPD2    H7 4847   1.590   4.169  14.238  0.5040  0.4254 -0.1244
  323TMC3    C1 4848   1.809   4.200  14.326 -0.1709 -0.4196 -0.4665
  323TMC3    C2 4849   1.931   4.250  14.307  0.4053 -0.2902  0.0652
  323TMC3    C3 4850   1.993   4.318  14.409  0.0516 -0.3343 -0.2036
  323TMC3    C4 4851   1.757   4.192  14.454  0.2361 -1.2282 -0.1515
  323TMC3    C5 4852   1.836   4.223  14.557  0.6977  0.1485  0.1576
  323TMC3    C6 4853   1.959   4.283  14.537 -0.0613  0.1699  0.5745
  323TMC3     C 4854   1.771   4.080  14.251 -0.8123 -0.5240 -0.3206
  323TMC3     O 4855   1.854   3.996  14.216 -0.0962  0.2736 -0.3455
  323TMC3     H 4856   1.976   4.242  14.208 -2.1500  1.2782 -1.2060
  323TMC3    H1 4857   1.667   4.135  14.474 -1.8737  1.4342 -1.9449
  323TMC3    H2 4858   2.025   4.310  14.619  0.2762  2.1109 -0.3393
  323TMC3    C7 4859   1.839   4.122  14.661  0.7286  0.7498 -0.1078
  323TMC3    C8 4860   2.129   4.356  14.384 -0.1510  0.3562 -0.2093
  323TMC3    O1 4861   1.798   4.010  14.632  0.1274  0.4676  0.1038
  323TMC3    O2 4862   2.212   4.340  14.471  0.1844  0.2707 -0.1793
  324MPD2     C 4863   3.153   4.672  13.932  0.0872  0.0913 -0.2168
  324MPD2    C1 4864   3.103   0.036  14.023 -0.1238  0.2716 -0.3362
  324MPD2    C2 4865   2.978   0.090  14.002 -0.8369 -0.2240 -0.3091
  324MPD2    C3 4866   2.913   0.067  13.883 -0.8098  0.7422 -1.1590
  324MPD2    C4 4867   2.960   4.698  13.796 -0.0737 -0.1379  0.4308
  324MPD2    C5 4868   3.079   4.631  13.825  0.1004 -0.4152  0.3584
  324MPD2     H 4869   2.938   0.167  14.067  1.2754  0.4817  0.1445
  324MPD2    H1 4870   2.898   4.669  13.712 -0.8176  0.0340  0.9164
  324MPD2    H2 4871   3.249   4.623  13.943 -0.4420 -1.1247 -1.0159
  324MPD2    H3 4872   3.119   4.557  13.756  0.6666  0.5128 -0.3108
  324MPD2     N 4873   2.777   0.117  13.865 -0.3814 -0.1488  0.4102
  324MPD2    H5 4874   2.731   0.075  13.784  0.6251  1.4880 -0.9935
  324MPD2    N1 4875   3.191   0.087  14.118 -0.3461 -0.2913 -0.1847
  324MPD2    H7 4876   3.152   0.154  14.183 -1.6803 -0.7687 -0.4912
  325TMC3    C1 4877   2.564   0.219  13.899  0.1284 -0.1881 -0.5240
  325TMC3    C2 4878   2.517   0.130  13.801  0.6671 -0.4255  0.3908
  325TMC3    C3 4879   2.389   0.142  13.765  0.3080 -0.4759  0.2611
  325TMC3    C4 4880   2.477   0.303  13.963 -0.0832  0.4844 -0.3954
  325TMC3    C5 4881   2.349   0.306  13.913  0.2190 -0.4312  0.0406
  325TMC3    C6 4882   2.302   0.224  13.823  0.3685 -0.4580  0.7157
  325TMC3     C 4883   2.708   0.210  13.939 -0.0672 -0.7622 -0.1609
  325TMC3     O 4884   2.738   0.250  14.053 -0.4745 -0.6136  0.2783
  325TMC3     H 4885   2.581   0.073  13.734 -0.5467 -1.6349  0.2557
  325TMC3    H1 4886   2.518   0.370  14.038 -1.8176  0.5474  0.5062
  325TMC3    H2 4887   2.207   0.244  13.776  0.3373  0.5733  1.2258
  325TMC3    C7 4888   2.270   0.427  13.941 -0.3700  0.8590 -0.0493
  325TMC3    C8 4889   2.340   0.044  13.669 -0.7220  0.0163 -0.1940
  325TMC3    O1 4890   2.189   0.464  13.859 -0.1636 -0.0816  0.0880
  325TMC3    O2 4891   2.419   0.004  13.587  0.1507 -0.0113  0.7426
  326MPD2     C 4892   3.782   1.005  11.309  0.3773  0.2068  0.1516
  326MPD2    C1 4893   3.877   0.943  11.241 -0.0217 -0.9200  0.1725
  326MPD2    C2 4894   4.004   0.991  11.239  0.4979 -0.1906 -0.0452
  326MPD2    C3 4895   4.038   1.105  11.306 -0.4688  0.0183  0.1777
  326MPD2    C4 4896   3.939   1.169  11.382  0.2727  0.4035  0.5837
  326MPD2    C5 4897   3.809   1.123  11.385 -0.9493  0.4668 -1.0881
  326MPD2     H 4898   4.076   0.944  11.174  0.8736  0.0370  0.2076
  326MPD2    H1 4899   3.962   1.260  11.437  1.9636 -0.6157  1.5589
  326MPD2    H2 4900   3.682   0.964  11.312 -0.5400  2.5035  0.8808
  326MPD2    H3 4901   3.733   1.171  11.446 -2.0017 -1.5059 -0.8253
  326MPD2     N 4902   4.170   1.166  11.293 -0.0612 -0.7969 -0.0159
  326MPD2    H5 4903   4.175   1.262  11.328  0.5151 -0.9132  0.2272
  326MPD2    N1 4904   3.842   0.833  11.157 -0.7728  0.0701 -0.3626
  326MPD2    H7 4905   3.927   0.793  11.119  0.3099  0.4128  1.7375
  327TMC3    C1 4906   3.746   0.698  10.999  0.3509 -0.0112  0.0770
  327TMC3    C2 4907   3.691   0.737  10.877 -0.0539 -0.4085  0.5689
  327TMC3    C3 4908   3.760   0.717  10.757 -0.0064 -0.2546 -0.7920
  327TMC3    C4 4909   3.857   0.624  10.999  0.6590 -0.8159 -0.1931
  327TMC3    C5 4910   3.937   0.633  10.887  0.0477  0.1746 -0.5387
  327TMC3    C6 4911   3.892   0.685  10.766  0.6324  0.2654 -0.2869
  327TMC3     C 4912   3.718   0.789  11.111  0.6115 -0.2894  0.3097
  327TMC3     O 4913   3.605   0.837  11.129 -0.3081 -0.0981 -0.3288
  327TMC3     H 4914   3.604   0.801  10.886 -0.3244 -0.6285 -0.4270
  327TMC3    H1 4915   3.905   0.606  11.094  1.4239  1.7203 -0.1102
  327TMC3    H2 4916   3.941   0.663  10.672  0.5566 -2.3174  0.2584
  327TMC3    C7 4917   4.066   0.686  10.927  0.3560 -0.1852  0.6263
  327TMC3    C8 4918   3.727   0.795  10.638 -0.2285  0.1706 -0.2930
  327TMC3    O1 4919   4.063   0.741  11.036  0.5025 -0.2075 -0.0593
  327TMC3    O2 4920   3.820   0.822  10.568 -0.0154  0.5129 -0.5035
  328MPD2     C 4921   2.414   1.386  17.024 -0.0580 -0.2325 -0.2672
  328MPD2    C1 4922   2.340   1.290  17.091  0.3272  0.9854  0.4453
  328MPD2    C2 4923   2.204   1.279  17.065 -0.4276 -0.3311  0.1322
  328MPD2    C3 4924   2.140   1.348  16.962  0.3149  0.2130 -0.6749
  328MPD2    C4 4925   2.217   1.432  16.898  0.4038 -0.2484 -0.5042
  328MPD2    C5 4926   2.347   1.455  16.928 -0.5006  0.2066  0.2883
  328MPD2     H 4927   2.143   1.201  17.108 -2.2142  0.5553 -0.7811
  328MPD2    H1 4928   2.166   1.493  16.825  0.4622  0.0842 -0.2693
  328MPD2    H2 4929   2.518   1.403  17.047 -0.1985  2.7858 -1.8463
  328MPD2    H3 4930   2.391   1.535  16.870  0.1150  0.1964  0.7421
  328MPD2     N 4931   1.994   1.341  16.932 -0.5928 -0.4166 -0.8900
  328MPD2    H5 4932   1.952   1.411  16.870 -0.5595  0.5592  0.1911
  328MPD2    N1 4933   2.409   1.215  17.191 -0.0324 -0.0136  0.2931
  328MPD2    H7 4934   2.509   1.227  17.197 -0.2662  1.2219  1.9123
  329TMC3    C1 4935   2.430   1.064  17.383 -0.4004  0.2361 -0.1249
  329TMC3    C2 4936   2.368   0.988  17.482  0.2810 -0.2667  0.6115
  329TMC3    C3 4937   2.447   0.921  17.573 -0.7935 -0.0873  0.7352
  329TMC3    C4 4938   2.569   1.080  17.390 -0.0632 -0.3042 -0.8977
  329TMC3    C5 4939   2.640   1.016  17.491 -0.0244  1.1081 -0.3420
  329TMC3    C6 4940   2.581   0.943  17.584  0.1270  0.5262 -0.6043
  329TMC3     C 4941   2.345   1.123  17.278 -0.5775  0.0408  0.9116
  329TMC3     O 4942   2.227   1.097  17.286  0.0544  0.2901  0.6471
  329TMC3     H 4943   2.263   0.964  17.479  0.8266 -2.6849  0.5614
  329TMC3    H1 4944   2.629   1.145  17.327  0.0321 -0.7034 -1.2291
  329TMC3    H2 4945   2.636   0.907  17.671  0.6443  0.2463 -1.0407
  329TMC3    C7 4946   2.782   1.000  17.482  0.5640 -0.3099  0.4641
  329TMC3    C8 4947   2.391   0.848  17.684  0.5147  0.6143  0.5207
  329TMC3    O1 4948   2.827   0.890  17.513 -0.0596 -0.0952 -0.3932
  329TMC3    O2 4949   2.455   0.747   0.012  0.5634  0.2518 -0.1095
  330TMC3    C1 4950   4.249   0.262   9.488  0.2824 -0.0365  0.9136
  330TMC3    C2 4951   4.181   0.167   9.418  0.2715  0.4566  0.2655
  330TMC3    C3 4952   4.207   0.037   9.446  0.1298 -0.6138 -0.5745
  330TMC3    C4 4953   4.335   0.240   9.584 -0.7792  0.0827 -0.3558
  330TMC3    C5 4954   4.363   0.110   9.599  0.2823 -0.0661  0.0776
  330TMC3    C6 4955   4.308   0.000   9.530  0.7276 -0.4243 -0.7421
  330TMC3     C 4956   4.202   0.402   9.474  0.0796 -0.5082  0.2347
  330TMC3     O 4957   4.211   0.465   9.573 -0.7016 -0.0981  0.3013
  330TMC3     H 4958   4.112   0.200   9.342 -0.7323 -0.5585  0.7284
  330TMC3    H1 4959   4.363   0.318   9.654 -1.0497  1.2661 -1.5727
  330TMC3    H2 4960   4.338   4.622   9.551  1.6203 -0.0490 -0.1749
  330TMC3    C7 4961   4.446   0.083   9.709 -0.2092  0.2112  0.5031
  330TMC3    C8 4962   4.133   4.665   9.361  0.6398 -0.3461  0.1885
  330TMC3    O1 4963   4.505   0.176   9.762 -0.0963 -0.1228  0.3168
  330TMC3    O2 4964   4.086   4.707   9.258 -0.2398  0.0488  0.6657
  331MPD2     C 4965   2.336   3.955  12.701  1.0549 -0.0960 -0.1430
  331MPD2    C1 4966   2.436   4.020  12.635 -0.3967 -0.0468 -0.2239
  331MPD2    C2 4967   2.539   3.954  12.576  0.3612  0.5374 -0.4776
  331MPD2    C3 4968   2.549   3.816  12.580  0.4133 -0.5332  0.7364
  331MPD2    C4 4969   2.445   3.746  12.644 -0.3110 -0.3532 -0.1283
  331MPD2    C5 4970   2.337   3.818  12.696 -0.1939 -0.3533 -0.0407
  331MPD2     H 4971   2.626   4.005  12.535  0.7799 -0.3497 -0.6872
  331MPD2    H1 4972   2.446   3.637  12.643 -1.0211 -0.3867  2.5004
  331MPD2    H2 4973   2.244   4.000  12.737  0.4937 -0.6458 -0.8796
  331MPD2    H3 4974   2.260   3.764  12.750 -0.2313 -0.4082 -0.1487
  331MPD2     N 4975   2.656   3.754  12.514 -0.0362  0.1936 -0.1816
  331MPD2    H5 4976   2.737   3.811  12.490 -0.3545  0.1525 -1.3634
  331MPD2    N1 4977   2.433   4.162  12.631 -0.5990  0.0691 -0.3012
  331MPD2    H7 4978   2.347   4.210  12.654 -1.1280 -0.8609 -0.3619
  332TMC3    C1 4979   2.792   3.594  12.406 -0.1178  0.0888  0.0358
  332TMC3    C2 4980   2.832   3.687  12.319 -0.3084 -0.2865  0.0995
  332TMC3    C3 4981   2.959   3.674  12.261  0.6204 -0.5461  0.2904
  332TMC3    C4 4982   2.856   3.483  12.432 -0.4392  0.1900 -0.9055
  332TMC3    C5 4983   2.989   3.473  12.389 -0.2245 -0.5688  0.3179
  332TMC3    C6 4984   3.042   3.572  12.304 -0.2670  0.0283  0.6768
  332TMC3     C 4985   2.667   3.623  12.486 -0.8880 -0.3481 -0.0421
  332TMC3     O 4986   2.601   3.527  12.523  0.1784 -0.4663 -0.1223
  332TMC3     H 4987   2.771   3.774  12.297 -0.3889  0.0997  1.8991
  332TMC3    H1 4988   2.804   3.411  12.493 -1.4454  1.2922 -0.4434
  332TMC3    H2 4989   3.139   3.552  12.261 -1.0116 -3.1635  0.4857
  332TMC3    C7 4990   3.078   3.389  12.473 -0.3793  0.3582  0.3232
  332TMC3    C8 4991   3.037   3.796  12.237 -0.1591  0.0531  0.8337
  332TMC3    O1 4992   3.021   3.306  12.547 -0.1690  0.3497  0.4435
  332TMC3    O2 4993   3.146   3.798  12.292  0.4171 -0.5226  0.8181
  333MPD2     C 4994   3.458   4.000  11.840 -0.0410 -0.2565  0.4607
  333MPD2    C1 4995   3.391   4.002  11.725  0.1841 -0.1742  0.5221
  333MPD2    C2 4996   3.289   3.914  11.706 -0.5204 -0.0614 -0.1075
  333MPD2    C3 4997   3.254   3.828  11.807 -0.3425 -0.3997 -0.6350
  333MPD2    C4 4998   3.319   3.838  11.933 -0.1921  0.0717  0.3853
  333MPD2    C5 4999   3.427   3.924  11.947 -0.2242  0.0570  0.3624
  333MPD2     H 5000   3.242   3.897  11.610 -0.7062  0.0674 -0.0400
  333MPD2    H1 5001   3.287   3.792  12.025 -0.2167 -0.4433  0.1190
  333MPD2    H2 5002   3.542   4.066  11.855  0.7646 -0.7533 -1.8822
  333MPD2    H3 5003   3.475   3.944  12.043 -0.1574  1.3566  0.0662
  333MPD2     N 5004   3.150   3.732  11.782  0.1916 -0.2823 -0.1974
  333MPD2    H5 5005   3.119   3.733  11.686  0.7712  2.6875 -0.3515
  333MPD2    N1 5006   3.437   4.095  11.630 -0.2554  0.1201 -0.7158
  333MPD2    H7 5007   3.509   4.158  11.662  0.2140 -0.8256  0.1016
  334TMC3    C1 5008   3.470   4.197  11.422  0.2744  0.0274 -0.4978
  334TMC3    C2 5009   3.602   4.217  11.455 -0.1600  0.3017  0.4385
  334TMC3    C3 5010   3.688   4.278  11.362  0.1916  0.1987 -0.6590
  334TMC3    C4 5011   3.428   4.234  11.296  0.3534 -0.6238  0.0356
  334TMC3    C5 5012   3.508   4.304  11.206  0.2394  0.0050 -0.6926
  334TMC3    C6 5013   3.639   4.326  11.238 -0.0963 -0.2924  0.4443
  334TMC3     C 5014   3.392   4.102  11.500 -0.8963  0.4570 -0.5614
  334TMC3     O 5015   3.294   4.051  11.447 -0.5593 -0.4220  0.1962
  334TMC3     H 5016   3.647   4.176  11.545 -2.4315 -0.0285  1.4333
  334TMC3    H1 5017   3.323   4.233  11.269  0.3626  4.8624 -0.1609
  334TMC3    H2 5018   3.711   4.370  11.169 -1.2829 -1.0190 -1.2327
  334TMC3    C7 5019   3.480   4.331  11.065  0.2206 -0.0795 -0.0016
  334TMC3    C8 5020   3.828   4.286  11.401 -0.3709 -0.0580  0.1152
  334TMC3    O1 5021   3.571   4.385  11.006  0.0711 -0.0944 -0.5583
  334TMC3    O2 5022   3.858   4.274  11.517 -0.3171  0.1913  0.0996
  335TMC3    C1 5023   2.985   1.457  17.049  0.3867  0.3360  0.0418
  335TMC3    C2 5024   2.888   1.364  17.038 -0.0465  0.2201 -0.1205
  335TMC3    C3 5025   2.927   1.227  17.030  0.9208 -0.4907  0.0725
  335TMC3    C4 5026   3.112   1.416  17.071  0.1382  0.0206  0.2901
  335TMC3    C5 5027   3.147   1.281  17.059  0.2866 -0.2852 -0.1431
  335TMC3    C6 5028   3.058   1.184  17.035 -0.9385 -0.0070  0.3737
  335TMC3     C 5029   2.952   1.598  17.058  0.1547  0.7099  0.2130
  335TMC3     O 5030   3.044   1.671  17.098 -0.0524 -0.0255  0.7795
  335TMC3     H 5031   2.783   1.384  17.023 -0.4278  0.3024  2.5632
  335TMC3    H1 5032   3.190   1.488  17.089 -0.8115  1.2479 -0.5057
  335TMC3    H2 5033   3.082   1.083  17.006 -0.1431  0.7396 -1.5718
  335TMC3    C7 5034   3.274   1.239  17.086 -0.0569 -0.0307 -0.6990
  335TMC3    C8 5035   2.815   1.140  16.989 -0.5060 -0.4736  0.4238
  335TMC3    O1 5036   3.315   1.150  17.014 -0.5943 -0.7235  0.2166
  335TMC3    O2 5037   2.739   1.180  16.903  0.8243 -0.2367 -0.1245
  336MPD2     C 5038   2.143   3.935  16.362  0.0846 -0.5735  0.2290
  336MPD2    C1 5039   2.252   3.931  16.282 -0.5757  0.3099  0.4173
  336MPD2    C2 5040   2.360   3.843  16.318 -0.3262  0.2897 -0.8135
  336MPD2    C3 5041   2.349   3.756  16.424  0.4884  0.4685  0.5153
  336MPD2    C4 5042   2.241   3.775  16.514 -0.1631  0.0250 -0.6150
  336MPD2    C5 5043   2.140   3.856  16.477  0.3494 -0.4217  0.2208
  336MPD2     H 5044   2.447   3.829  16.255  1.5164 -0.2582  1.8410
  336MPD2    H1 5045   2.243   3.716  16.604 -0.7286  1.6435  0.4498
  336MPD2    H2 5046   2.056   4.000  16.356 -0.2986 -1.1758 -0.6704
  336MPD2    H3 5047   2.061   3.871  16.550 -0.2380 -1.0071 -0.3032
  336MPD2     N 5048   2.429   3.642  16.447  0.0148 -0.7530  0.1455
  336MPD2    H5 5049   2.417   3.589  16.533  2.4040  1.5034  1.8951
  336MPD2    N1 5050   2.257   4.017  16.171 -0.2645  0.4840  0.3077
  336MPD2    H7 5051   2.347   4.035  16.128  0.1544  3.9310  2.6000
  337TMC3    C1 5052   2.191   4.165  16.016 -0.1880  0.5718  0.2325
  337TMC3    C2 5053   2.138   4.180  15.890 -0.4356  0.0667  0.1172
  337TMC3    C3 5054   2.172   4.291  15.820 -0.4340 -0.2906 -0.9711
  337TMC3    C4 5055   2.290   4.252  16.064  0.2930 -0.5320  0.3933
  337TMC3    C5 5056   2.315   4.368  15.991  0.8974  0.4920  0.0701
  337TMC3    C6 5057   2.244   4.391  15.871  0.2037  0.0795  0.1786
  337TMC3     C 5058   2.148   4.065  16.110  0.0747 -0.2007 -0.3177
  337TMC3     O 5059   2.027   4.046  16.113  0.5349  0.3087  0.2990
  337TMC3     H 5060   2.059   4.115  15.855 -0.8422  0.4482  0.3160
  337TMC3    H1 5061   2.320   4.252  16.168  2.0405  0.8071 -0.1121
  337TMC3    H2 5062   2.260   4.480  15.811 -0.8340  0.5657  0.6265
  337TMC3    C7 5063   2.385   4.476  16.051 -0.5411 -0.0450 -0.6306
  337TMC3    C8 5064   2.109   4.307  15.689  0.4142 -0.3158  0.0321
  337TMC3    O1 5065   2.339   4.586  16.025 -0.3198  0.1823 -0.6922
  337TMC3    O2 5066   2.131   4.418  15.642  0.3567 -0.2406  0.7577
  338MPD2     C 5067   3.078   2.604   1.139 -0.1341 -0.2019 -0.1516
  338MPD2    C1 5068   2.987   2.586   1.043  0.7204 -0.1348  0.9277
  338MPD2    C2 5069   2.857   2.631   1.068 -0.5917 -0.1215 -0.0485
  338MPD2    C3 5070   2.821   2.694   1.185 -0.5949 -0.3445 -0.2458
  338MPD2    C4 5071   2.921   2.713   1.278  1.4082  0.5057  0.5584
  338MPD2    C5 5072   3.049   2.667   1.256  0.4265  0.8422 -0.4919
  338MPD2     H 5073   2.777   2.615   0.997 -0.0008 -0.5800 -0.6076
  338MPD2    H1 5074   2.911   2.763   1.373  1.7235  2.1715 -0.2850
  338MPD2    H2 5075   3.180   2.571   1.122 -0.6976 -0.2196 -3.6470
  338MPD2    H3 5076   3.130   2.674   1.328  0.4878 -0.6068 -0.4097
  338MPD2     N 5077   2.691   2.739   1.199  0.2378 -0.1350  0.7751
  338MPD2    H5 5078   2.619   2.711   1.134  0.6148 -0.1880  0.3839
  338MPD2    N1 5079   3.017   2.543   0.913  0.5046  0.3294 -0.4925
  338MPD2    H7 5080   2.943   2.551   0.844  0.2944  1.4098 -0.1467
  339TMC3    C1 5081   2.529   2.887   1.259 -0.2810 -0.6125  0.3273
  339TMC3    C2 5082   2.445   2.932   1.357  0.4680 -1.1845  0.1397
  339TMC3    C3 5083   2.333   2.998   1.316 -0.4442  0.3747  0.1984
  339TMC3    C4 5084   2.507   2.905   1.123  0.3418 -0.5806  0.5238
  339TMC3    C5 5085   2.393   2.978   1.092  0.0670  0.0132  0.4351
  339TMC3    C6 5086   2.305   3.024   1.185  0.1838  0.8072 -0.1917
  339TMC3     C 5087   2.648   2.824   1.296 -0.0650 -0.2187 -0.1474
  339TMC3     O 5088   2.709   2.869   1.393  0.2388 -0.3504 -1.0022
  339TMC3     H 5089   2.459   2.918   1.464 -0.8279  0.8591  0.5647
  339TMC3    H1 5090   2.572   2.875   1.042 -0.2318 -1.1274  0.2605
  339TMC3    H2 5091   2.213   3.078   1.168  0.0114  0.5905  0.0445
  339TMC3    C7 5092   2.338   2.967   0.962 -0.2666  0.7164  0.0948
  339TMC3    C8 5093   2.259   3.071   1.416 -0.6328 -0.2842 -0.8092
  339TMC3    O1 5094   2.257   3.051   0.927 -0.1871  0.0756 -0.3270
  339TMC3    O2 5095   2.204   3.174   1.380  0.2318  0.0750  0.1308
  340MPD2     C 5096   2.623   4.625   9.952 -0.6185  0.2527 -0.4131
  340MPD2    C1 5097   2.655   4.554   9.833  0.4794  1.0212 -0.7039
  340MPD2    C2 5098   2.770   4.471   9.842 -0.2182 -0.1301 -0.0548
  340MPD2    C3 5099   2.842   4.452   9.962  0.2716 -0.3076 -0.7254
  340MPD2    C4 5100   2.805   4.525  10.068 -0.0497 -0.3290 -0.0307
  340MPD2    C5 5101   2.705   4.613  10.065 -0.0617  0.9133  0.7325
  340MPD2     H 5102   2.811   4.423   9.754  2.5989  0.6300  0.8375
  340MPD2    H1 5103   2.858   4.515  10.162  0.5882  0.9284 -0.2497
  340MPD2    H2 5104   2.545   4.700   9.964 -1.3779 -0.7879  1.1129
  340MPD2    H3 5105   2.690   4.677  10.150  1.8571  0.3651  1.4838
  340MPD2     N 5106   2.945   4.354   9.977  0.3239 -0.4009 -0.1064
  340MPD2    H5 5107   2.992   4.352  10.067  1.9342  0.0487 -0.9218
  340MPD2    N1 5108   2.587   4.572   9.709 -0.0869  0.4688  0.1019
  340MPD2    H7 5109   2.495   4.615   9.713  0.6346  1.9508  0.6506
  341TMC3    C1 5110   2.562   4.587   9.476  0.2952  0.0050 -0.1902
  341TMC3    C2 5111   2.431   4.598   9.488  0.7195  0.7210  0.1265
  341TMC3    C3 5112   2.369   4.659   9.385  0.1188  0.0069 -0.6646
  341TMC3    C4 5113   2.630   4.617   9.358 -0.1226 -0.2951  0.4575
  341TMC3    C5 5114   2.563   4.678   9.254  0.4270 -0.0956 -1.0358
  341TMC3    C6 5115   2.432   4.703   9.276 -0.0607 -0.1697  0.2526
  341TMC3     C 5116   2.651   4.565   9.588  0.5676 -0.4586 -0.5382
  341TMC3     O 5117   2.769   4.540   9.568  0.3845  0.1089 -0.1913
  341TMC3     H 5118   2.393   4.541   9.572  1.4713  0.2262  0.1346
  341TMC3    H1 5119   2.737   4.604   9.353  0.1705  1.9634  0.9132
  341TMC3    H2 5120   2.378   0.029   9.197  0.2373  0.9193  0.7263
  341TMC3    C7 5121   2.635   0.012   9.139  0.6901 -0.0515  0.0317
  341TMC3    C8 5122   2.225   4.635   9.372 -0.5877  0.5171  0.0457
  341TMC3    O1 5123   2.755   4.717   9.141  0.1280  0.6107  0.9229
  341TMC3    O2 5124   2.172   4.651   9.262 -0.0355  0.0035 -0.1941
  342MPD2     C 5125   0.817   4.130  17.335  0.3003  0.0324  0.4427
  342MPD2    C1 5126   0.908   4.142  17.440  0.9947  0.3950 -0.1761
  342MPD2    C2 5127   0.955   4.271  17.466  0.0892 -0.4641 -0.3008
  342MPD2    C3 5128   0.923   4.382  17.388  0.1122 -0.7291 -0.8461
  342MPD2    C4 5129   0.820   4.364  17.293  0.0218  0.4052 -0.2165
  342MPD2    C5 5130   0.777   4.236  17.260  0.0387  0.7155  0.0827
  342MPD2     H 5131   1.020   4.282  17.551  0.9510  1.9517 -1.2652
  342MPD2    H1 5132   0.801   4.446  17.225  2.5211  1.0104 -0.1681
  342MPD2    H2 5133   0.770   4.038  17.301 -1.3127  0.7002  0.8784
  342MPD2    H3 5134   0.703   4.225  17.182 -0.9289 -0.3898  1.1413
  342MPD2     N 5135   0.979   4.510  17.397  0.7589 -0.1956 -0.2495
  342MPD2    H5 5136   0.952   4.581  17.329  1.2726 -0.4473 -0.7214
  342MPD2    N1 5137   0.943   4.034  17.521  0.1355  0.3614  0.4654
  342MPD2    H7 5138   1.016   4.051  17.590  1.3129 -2.3304 -0.1298
  343TMC3    C1 5139   0.954   3.810  17.591  0.2648  0.3120  0.2288
  343TMC3    C2 5140   1.072   3.832  17.657 -0.2213 -0.0006 -0.3000
  343TMC3    C3 5141   1.103   3.737   0.056  0.7148 -0.2734 -0.4070
  343TMC3    C4 5142   0.881   3.694  17.609 -0.1850  0.4969 -0.9157
  343TMC3    C5 5143   0.927   3.607   0.007  0.0852 -0.1160  0.5829
  343TMC3    C6 5144   1.037   3.626   0.089 -0.1463  0.2201  0.1704
  343TMC3     C 5145   0.893   3.904  17.507  0.7912  0.5395  0.0280
  343TMC3     O 5146   0.809   3.859  17.430  0.4248  0.9075 -0.4073
  343TMC3     H 5147   1.131   3.923  17.654 -0.3931  0.0916 -0.8006
  343TMC3    H1 5148   0.793   3.672  17.549  0.2409 -2.7521 -0.3323
  343TMC3    H2 5149   1.077   3.552   0.158  1.1389  1.1310  0.4034
  343TMC3    C7 5150   0.854   3.486   0.020 -0.7536 -0.3975  0.4595
  343TMC3    C8 5151   1.235   3.748   0.113 -0.1533  0.5873 -0.2822
  343TMC3    O1 5152   0.746   3.484  17.660 -0.0596  0.2887  0.1154
  343TMC3    O2 5153   1.269   3.699   0.222  0.2362 -0.3256 -0.1863
  344MPD2     C 5154   1.405   3.603  11.077 -0.5956  0.2769 -0.0844
  344MPD2    C1 5155   1.345   3.627  10.957  0.6271  0.7031  0.2618
  344MPD2    C2 5156   1.403   3.721  10.878 -0.6580 -0.3750 -0.6028
  344MPD2    C3 5157   1.524   3.782  10.918 -0.0163  0.8340 -0.3062
  344MPD2    C4 5158   1.590   3.741  11.030 -0.2044 -0.2690  0.2294
  344MPD2    C5 5159   1.524   3.659  11.116  0.7261 -0.6485  0.5040
  344MPD2     H 5160   1.353   3.749  10.786 -1.7381 -0.1055  0.0679
  344MPD2    H1 5161   1.684   3.778  11.067  0.3801  0.1292 -1.6236
  344MPD2    H2 5162   1.363   3.528  11.143 -0.5883 -0.1442 -0.5585
  344MPD2    H3 5163   1.567   3.629  11.211  2.1014  0.5958  0.2698
  344MPD2     N 5164   1.584   3.894  10.852  0.4491  0.2505  0.4482
  344MPD2    H5 5165   1.678   3.922  10.879  0.9750 -0.6719 -0.4330
  344MPD2    N1 5166   1.226   3.559  10.918 -0.6361  0.0784  0.6339
  344MPD2    H7 5167   1.187   3.586  10.828  0.1373  0.3781  0.3856
  345TMC3    C1 5168   1.624   4.060  10.689 -0.2766  0.3013  0.4401
  345TMC3    C2 5169   1.759   4.047  10.715  0.5031 -0.1862 -0.8142
  345TMC3    C3 5170   1.850   4.132  10.651 -0.2131 -0.7696  0.2205
  345TMC3    C4 5171   1.585   4.149  10.594 -0.7152  0.4923  0.7637
  345TMC3    C5 5172   1.680   4.229  10.526  0.6136  0.2234 -0.3743
  345TMC3    C6 5173   1.816   4.223  10.556 -0.2075 -0.4414 -0.2343
  345TMC3     C 5174   1.527   3.964  10.744 -0.1186  0.9022  0.3579
  345TMC3     O 5175   1.407   3.966  10.710 -0.4343 -0.1067  0.0067
  345TMC3     H 5176   1.807   3.959  10.756 -0.3033  0.1907  0.9436
  345TMC3    H1 5177   1.480   4.168  10.579 -0.1770  0.4397 -3.1257
  345TMC3    H2 5178   1.891   4.288  10.514 -1.3541  1.1587  0.1839
  345TMC3    C7 5179   1.641   4.327  10.427 -0.1827 -0.2819  0.8406
  345TMC3    C8 5180   1.990   4.097  10.685  0.0277 -0.4344  0.1926
  345TMC3    O1 5181   1.718   4.420  10.406  0.2097 -0.7929 -0.1735
  345TMC3    O2 5182   1.997   4.070  10.806  0.6287 -0.2134 -0.4085
  346MPD2     C 5183   2.122   0.066  14.223 -0.1938  0.3337 -0.0096
  346MPD2    C1 5184   2.059   0.190  14.186 -0.2928 -0.0353 -0.4334
  346MPD2    C2 5185   2.053   0.289  14.286  0.3433  0.5396 -0.2420
  346MPD2    C3 5186   2.106   0.264  14.415 -0.1018  0.1857 -0.0098
  346MPD2    C4 5187   2.159   0.137  14.447 -0.1308 -0.0020  0.2969
  346MPD2    C5 5188   2.163   0.041  14.354  0.2502  0.5341  0.2535
  346MPD2     H 5189   2.010   0.387  14.273 -1.5273 -0.2106  0.2917
  346MPD2    H1 5190   2.192   0.110  14.547 -0.1445 -1.1350 -0.0101
  346MPD2    H2 5191   2.127   4.708  14.152 -0.3434  0.7491 -0.4968
  346MPD2    H3 5192   2.206   4.666  14.371  0.7881  0.9462  1.3383
  346MPD2     N 5193   2.091   0.369  14.512  0.2829 -0.0687  0.4847
  346MPD2    H5 5194   2.053   0.457  14.480  1.5073  0.2670 -0.0348
  346MPD2    N1 5195   2.007   0.218  14.057 -0.6841  0.0368 -0.1397
  346MPD2    H7 5196   1.974   0.313  14.041  0.2381  0.1449 -1.4692
  347TMC3    C1 5197   2.130   0.488  14.715 -0.2858  0.3027  0.4487
  347TMC3    C2 5198   2.091   0.602  14.646 -0.5840  0.4161  0.1418
  347TMC3    C3 5199   2.141   0.717  14.678  0.6147 -0.0782  0.6478
  347TMC3    C4 5200   2.232   0.496  14.798 -0.5021  0.2299 -0.1032
  347TMC3    C5 5201   2.289   0.613  14.823  0.0965 -0.4839  0.1779
  347TMC3    C6 5202   2.240   0.732  14.767  0.3132  0.3253  0.1692
  347TMC3     C 5203   2.125   0.356  14.647 -0.0054 -0.2793 -0.4693
  347TMC3     O 5204   2.166   0.260  14.707  0.1371 -0.9723  0.0462
  347TMC3     H 5205   1.999   0.594  14.589 -1.4152  1.0191  1.4069
  347TMC3    H1 5206   2.267   0.403  14.840  0.4065  0.5702 -0.1100
  347TMC3    H2 5207   2.300   0.821  14.779  1.9928 -0.9708  1.2687
  347TMC3    C7 5208   2.421   0.617  14.874 -0.6208  0.1949 -0.9619
  347TMC3    C8 5209   2.167   0.794  14.559  0.4337 -0.2003  0.5178
  347TMC3    O1 5210   2.463   0.712  14.936  0.3201  1.5283  0.3527
  347TMC3    O2 5211   2.117   0.909  14.551 -0.7411  0.2318 -0.0955
  348MPD2     C 5212   0.984   0.082  12.532  0.1658  0.1801  0.0404
  348MPD2    C1 5213   0.992   0.010  12.418  0.2473  0.1950 -0.2794
  348MPD2    C2 5214   0.980   0.080  12.297 -0.0485  0.2900  0.3796
  348MPD2    C3 5215   0.962   0.214  12.288  0.0991 -0.0661 -0.0018
  348MPD2    C4 5216   0.950   0.285  12.410  0.0504  0.6190 -0.0315
  348MPD2    C5 5217   0.961   0.221  12.527 -0.3829 -0.1697 -0.1211
  348MPD2     H 5218   0.979   0.018  12.208 -1.4506 -0.5216  0.9512
  348MPD2    H1 5219   0.939   0.393  12.409 -1.5524  0.4628 -0.6802
  348MPD2    H2 5220   0.989   0.054  12.637  2.6555  0.3065 -0.0566
  348MPD2    H3 5221   0.964   0.268  12.625 -0.2354 -0.0906 -0.1635
  348MPD2     N 5222   0.943   0.271  12.160 -0.0353 -0.3681 -0.3590
  348MPD2    H5 5223   0.970   0.212  12.082  0.0618 -3.8462  2.2842
  348MPD2    N1 5224   1.030   4.595  12.423 -0.4315 -0.1410 -0.2464
  348MPD2    H7 5225   1.019   4.541  12.337 -1.5214 -1.5466  0.7787
  349TMC3    C1 5226   1.064   4.387  12.525  0.2132  0.3657 -0.1816
  349TMC3    C2 5227   1.071   4.317  12.648  0.5907 -0.5123  0.3354
  349TMC3    C3 5228   1.033   4.189  12.644 -0.2775  0.6924  0.9787
  349TMC3    C4 5229   1.045   4.322  12.403  0.3692 -0.4282  0.6783
  349TMC3    C5 5230   1.022   4.187  12.399 -0.2664  0.5731 -0.2042
  349TMC3    C6 5231   1.008   4.126  12.524 -0.9619  0.8739  0.3219
  349TMC3     C 5232   1.080   4.529  12.530  0.0795  0.0476 -0.3817
  349TMC3     O 5233   1.116   4.569  12.637  0.2307 -0.2122 -0.1611
  349TMC3     H 5234   1.098   4.369  12.739 -2.3535  1.4785  0.0600
  349TMC3    H1 5235   1.066   4.368  12.307 -1.6769 -2.4608 -0.7636
  349TMC3    H2 5236   0.986   4.020  12.538 -2.7715  0.9248 -2.1442
  349TMC3    C7 5237   0.955   4.126  12.286  0.3430  0.5014 -0.9093
  349TMC3    C8 5238   1.044   4.106  12.762  0.2612  1.4731 -0.1329
  349TMC3    O1 5239   0.930   4.186  12.183  0.4132 -0.0355  0.6221
  349TMC3    O2 5240   0.946   4.110  12.837  0.3666 -0.2033  0.2492
  350MPD2     C 5241   4.169   2.966  10.557  0.0272 -0.2215 -0.6855
  350MPD2    C1 5242   4.101   2.882  10.641 -0.0200  0.2815  0.1753
  350MPD2    C2 5243   4.030   2.939  10.748 -0.5745 -0.2942 -0.0296
  350MPD2    C3 5244   4.037   3.077  10.771  0.3420  0.4181  0.6452
  350MPD2    C4 5245   4.111   3.153  10.685 -0.4762  0.0826 -0.1357
  350MPD2    C5 5246   4.174   3.096  10.582  0.3731  0.3804  0.1587
  350MPD2     H 5247   3.974   2.888  10.825 -0.3233  0.9268  0.9482
  350MPD2    H1 5248   4.133   3.256  10.713  1.2298 -0.8397  1.9192
  350MPD2    H2 5249   4.236   2.928  10.481  2.0317  1.0920  0.4189
  350MPD2    H3 5250   4.232   3.160  10.517 -1.1960 -1.1988 -2.7953
  350MPD2     N 5251   3.966   3.141  10.876  0.4453 -0.1134  0.1393
  350MPD2    H5 5252   3.899   3.081  10.924 -0.5951  0.7250 -0.2537
  350MPD2    N1 5253   4.106   2.746  10.607 -0.6946 -0.1150  0.3548
  350MPD2    H7 5254   4.152   2.720  10.520 -1.7043 -2.1661  0.4442
  351TMC3    C1 5255   4.057   2.518  10.616  0.3535 -0.3251 -0.9299
  351TMC3    C2 5256   4.133   2.506  10.502  0.1779  0.2905  0.4344
  351TMC3    C3 5257   4.097   2.410  10.415 -0.6415  0.4870 -0.1825
  351TMC3    C4 5258   3.951   2.435  10.642 -0.0427  0.6697 -0.1668
  351TMC3    C5 5259   3.914   2.349  10.545 -0.2798 -0.1562 -0.1248
  351TMC3    C6 5260   3.982   2.335  10.429 -0.2192  0.4780 -0.4139
  351TMC3     C 5261   4.045   2.647  10.679 -0.2188  0.0100  0.7547
  351TMC3     O 5262   3.994   2.651  10.792 -0.1518 -0.6731  0.2338
  351TMC3     H 5263   4.230   2.550  10.483 -0.2081  2.1210  2.6632
  351TMC3    H1 5264   3.890   2.444  10.732  0.6229  0.2400  0.3217
  351TMC3    H2 5265   3.957   2.247  10.372 -1.1411 -0.2680  1.1158
  351TMC3    C7 5266   3.790   2.272  10.552  0.4032  0.5983  0.6496
  351TMC3    C8 5267   4.199   2.364  10.321 -0.0690  0.3486  0.4112
  351TMC3    O1 5268   3.726   2.257  10.445 -0.1560 -0.0489  0.5055
  351TMC3    O2 5269   4.315   2.399  10.341 -0.1074  0.6199 -0.5272
  352MPD2     C 5270   2.073   0.016   1.610 -0.2192  0.2624 -0.6097
  352MPD2    C1 5271   2.170   0.001   1.510 -0.0010 -0.5072  0.2810
  352MPD2    C2 5272   2.260   4.617   1.532  0.3767  0.4380 -0.2053
  352MPD2    C3 5273   2.247   4.527   1.639 -0.5531 -0.1705 -0.0843
  352MPD2    C4 5274   2.153   4.557   1.742 -0.8783  0.0628 -0.0466
  352MPD2    C5 5275   2.070   4.657   1.717 -0.4375  0.3977  0.7682
  352MPD2     H 5276   2.316   4.580   1.447  0.6291 -1.1338  0.6314
  352MPD2    H1 5277   2.155   4.507   1.839 -2.1821  0.8791  0.3980
  352MPD2    H2 5278   2.012   0.105   1.615  0.8073  0.8585  1.4988
  352MPD2    H3 5279   1.997   4.681   1.794  0.4698  2.9755  0.8254
  352MPD2     N 5280   2.318   4.408   1.641  0.2787 -0.3920  0.3366
  352MPD2    H5 5281   2.283   4.345   1.713  2.3251 -1.6073  0.2501
  352MPD2    N1 5282   2.181   0.087   1.402  0.3764  0.2227 -0.2709
  352MPD2    H7 5283   2.111   0.160   1.394  0.9605  0.7163 -0.8238
  353TMC3    C1 5284   2.469   4.241   1.578  0.0708 -0.6476  0.2676
  353TMC3    C2 5285   2.600   4.218   1.546  0.3644  0.4550 -0.6249
  353TMC3    C3 5286   2.633   4.081   1.533  0.7000 -0.0349 -0.2216
  353TMC3    C4 5287   2.374   4.143   1.590  0.5942  0.2476  0.9078
  353TMC3    C5 5288   2.415   4.021   1.546 -0.0054  0.5656  0.2423
  353TMC3    C6 5289   2.539   3.985   1.530 -0.0785  0.0865  0.4472
  353TMC3     C 5290   2.430   4.379   1.562  0.3382  0.3789 -0.6975
  353TMC3     O 5291   2.497   4.452   1.488  0.4857 -0.7640  0.2071
  353TMC3     H 5292   2.660   4.308   1.554  0.9576  0.0338 -0.3391
  353TMC3    H1 5293   2.268   4.165   1.595  0.6426 -0.1202  3.3877
  353TMC3    H2 5294   2.560   3.882   1.503  0.1200  0.6220 -1.4655
  353TMC3    C7 5295   2.310   3.938   1.499  0.0167 -0.0550  0.4099
  353TMC3    C8 5296   2.774   4.053   1.557  0.3289 -0.0309 -0.3892
  353TMC3    O1 5297   2.196   3.948   1.549 -0.5351 -0.6213  0.5528
  353TMC3    O2 5298   2.845   4.151   1.577  0.1136 -0.1829 -0.5828
  354TMC3    C1 5299   4.288   1.246  13.685 -0.1096  0.0106 -0.4156
  354TMC3    C2 5300   4.423   1.285  13.671 -0.3782 -0.0144 -0.5086
  354TMC3    C3 5301   4.451   1.359  13.553 -0.5760  0.1115 -0.2015
  354TMC3    C4 5302   4.192   1.268  13.591  0.1387 -0.1039  0.3017
  354TMC3    C5 5303   4.221   1.328  13.477  0.9345  0.6197 -0.2359
  354TMC3    C6 5304   4.353   1.370  13.451  0.2290 -0.0586  0.1076
  354TMC3     C 5305   4.240   1.180  13.804 -0.1294  0.8353 -0.4430
  354TMC3     O 5306   4.122   1.159  13.813 -0.0571  0.6508  0.4029
  354TMC3     H 5307   4.497   1.282  13.749 -1.0083  1.1885  0.1398
  354TMC3    H1 5308   4.091   1.228  13.599 -0.2844  1.5084  2.8953
  354TMC3    H2 5309   4.365   1.439  13.368 -3.1404  0.1064 -0.2395
  354TMC3    C7 5310   4.135   1.340  13.367 -0.5798  0.4134 -0.0967
  354TMC3    C8 5311   4.571   1.435  13.551 -0.1801 -0.6950 -0.0752
  354TMC3    O1 5312   4.039   1.412  13.398  0.6542 -0.2257  0.0592
  354TMC3    O2 5313   4.662   1.393  13.619 -0.7574 -0.0084 -0.7940
  355MPD2     C 5314   4.022   1.983  12.053  0.1362 -0.9037 -0.6223
  355MPD2    C1 5315   4.067   2.012  11.927  0.1386  0.1100  0.0912
  355MPD2    C2 5316   4.183   2.089  11.921  0.5482 -0.1691  0.1097
  355MPD2    C3 5317   4.232   2.158  12.028 -0.7612  0.3735 -0.2335
  355MPD2    C4 5318   4.175   2.129  12.154 -0.0497 -1.0556 -0.0376
  355MPD2    C5 5319   4.074   2.039  12.164  0.4898  0.4126 -0.4927
  355MPD2     H 5320   4.225   2.108  11.823 -0.4081  1.9069  0.1004
  355MPD2    H1 5321   4.229   2.170  12.239 -0.7597  3.0900 -1.5957
  355MPD2    H2 5322   3.937   1.915  12.049 -0.5487 -0.0150 -1.2626
  355MPD2    H3 5323   4.035   2.020  12.264  1.2561  2.1889  0.1636
  355MPD2     N 5324   4.343   2.247  12.016  0.7155  0.2251  0.1690
  355MPD2    H5 5325   4.358   2.304  12.099  0.9921  0.9157 -0.3564
  355MPD2    N1 5326   3.996   1.954  11.817 -0.1347 -0.8150  0.2047
  355MPD2    H7 5327   3.924   1.888  11.844 -0.0089 -1.8344 -1.9891
  356TMC3    C1 5328   4.509   2.397  11.933  0.7396  0.1345  0.3549
  356TMC3    C2 5329   4.567   2.466  11.823 -1.0101 -0.2790 -0.6134
  356TMC3    C3 5330   4.623   2.587  11.845  0.7248 -0.3570 -0.1859
  356TMC3    C4 5331   4.517   2.448  12.057 -0.3782  1.2608 -0.2982
  356TMC3    C5 5332   4.592   2.562  12.066 -0.5698 -0.3086 -0.2533
  356TMC3    C6 5333   4.647   2.636  11.965 -0.1344 -0.0479  0.1758
  356TMC3     C 5334   4.426   2.274  11.908  0.2883  0.4285 -0.0744
  356TMC3     O 5335   4.433   2.222  11.795 -0.2769  0.7549 -0.3814
  356TMC3     H 5336   4.559   2.417  11.727 -0.8510 -0.8389 -0.3434
  356TMC3    H1 5337   4.491   2.392  12.146  1.1340  1.5011  0.2916
  356TMC3    H2 5338   4.675   2.738  11.991 -0.1075  0.0581 -0.2652
  356TMC3    C7 5339   4.638   2.578  12.199 -0.6469  0.0508  0.0590
  356TMC3    C8 5340   4.666   2.658  11.721 -0.2796  0.8340  0.3351
  356TMC3    O1 5341   4.584   2.525  12.293  0.2681  0.4212 -0.0910
  356TMC3    O2 5342   4.667   2.590  11.616 -0.0972 -0.0956  0.4734
  357MPD2     C 5343   0.052   1.985   1.728 -0.5584  0.0584 -0.0112
  357MPD2    C1 5344   0.150   1.888   1.736 -0.0678 -0.5231 -1.1035
  357MPD2    C2 5345   0.239   1.905   1.840 -0.4246  0.3256  0.3837
  357MPD2    C3 5346   0.220   1.999   1.936 -1.0066 -0.0021 -0.6236
  357MPD2    C4 5347   0.121   2.093   1.927  0.2954 -0.5104  0.3027
  357MPD2    C5 5348   0.035   2.085   1.820  0.1480  0.3599 -0.5015
  357MPD2     H 5349   0.308   1.822   1.848 -0.9961 -0.1442  0.4403
  357MPD2    H1 5350   0.099   2.165   2.005  1.7915  1.4323 -1.0860
  357MPD2    H2 5351   4.711   1.993   1.642  2.2809 -2.8200 -2.4154
  357MPD2    H3 5352   4.676   2.153   1.808  1.6599  2.4160  0.7655
  357MPD2     N 5353   0.308   2.010   2.042  0.4008 -0.1027 -0.1169
  357MPD2    H5 5354   0.274   2.068   2.118  1.4584 -2.1983  1.9623
  357MPD2    N1 5355   0.160   1.778   1.649  0.1222 -0.4425 -0.0696
  357MPD2    H7 5356   0.083   1.750   1.589 -0.6206 -0.7232  1.0105
  358TMC3    C1 5357   0.264   1.621   1.504  0.0893 -0.0076  0.1245
  358TMC3    C2 5358   0.175   1.513   1.512 -0.0898  0.1410 -0.2420
  358TMC3    C3 5359   0.212   1.387   1.459  0.0538  0.3010 -0.1010
  358TMC3    C4 5360   0.388   1.599   1.451  0.0257 -0.3840  0.1307
  358TMC3    C5 5361   0.423   1.478   1.406  0.9150 -0.7570 -0.0273
  358TMC3    C6 5362   0.344   1.365   1.418 -0.2297  0.4893  0.1518
  358TMC3     C 5363   0.274   1.715   1.621 -0.2576  0.1149  0.0092
  358TMC3     O 5364   0.390   1.730   1.657 -0.0494  0.1222 -0.4103
  358TMC3     H 5365   0.076   1.533   1.553 -0.0541 -0.2602  0.0377
  358TMC3    H1 5366   0.461   1.677   1.429  0.6594 -1.7074 -2.4201
  358TMC3    H2 5367   0.380   1.273   1.373 -1.7964  1.8660 -3.9257
  358TMC3    C7 5368   0.567   1.456   1.383  0.5686 -0.5612 -0.6471
  358TMC3    C8 5369   0.100   1.295   1.420 -0.5549  0.1120  0.4067
  358TMC3    O1 5370   0.648   1.542   1.421 -0.3987 -0.4276  0.2446
  358TMC3    O2 5371   0.009   1.359   1.370 -0.0581 -0.1057 -0.4534
  359MPD2     C 5372   4.610   1.543  12.376 -0.3549 -0.7096  0.2940
  359MPD2    C1 5373   4.642   1.423  12.320  0.1643 -0.2737  0.2762
  359MPD2    C2 5374   4.553   1.325  12.325  0.5434 -0.5473  0.4914
  359MPD2    C3 5375   4.434   1.335  12.392 -0.2899  0.1587 -1.1195
  359MPD2    C4 5376   4.409   1.452  12.461  0.3903 -1.2691 -0.4624
  359MPD2    C5 5377   4.493   1.559  12.440 -0.3785  0.5783 -0.0877
  359MPD2     H 5378   4.578   1.232  12.275 -1.1496 -0.4994 -0.4371
  359MPD2    H1 5379   4.311   1.471  12.504  0.2905  0.5738 -1.5014
  359MPD2    H2 5380   4.665   1.637  12.373 -3.4987  1.0867 -1.0679
  359MPD2    H3 5381   4.474   1.661  12.469  0.7456  0.0493  2.4962
  359MPD2     N 5382   4.335   1.234  12.396  0.1664  0.5246 -0.2601
  359MPD2    H5 5383   4.247   1.261  12.439 -0.0559  0.9601 -0.9768
  359MPD2    N1 5384   0.045   1.394  12.264 -0.2912  0.3612  0.5136
  359MPD2    H7 5385   0.062   1.300  12.229 -0.3482  1.5424 -2.6915
  360TMC3    C1 5386   0.270   1.431  12.204  0.0163 -0.3268  0.4974
  360TMC3    C2 5387   0.360   1.526  12.171  0.1270  0.6741 -0.9152
  360TMC3    C3 5388   0.495   1.495  12.158 -1.0144 -0.3197  0.3288
  360TMC3    C4 5389   0.304   1.299  12.204 -0.5307 -0.5104 -0.2903
  360TMC3    C5 5390   0.436   1.273  12.195 -0.0293  0.9651  0.2288
  360TMC3    C6 5391   0.533   1.365  12.175  0.2252  1.1062 -0.9234
  360TMC3     C 5392   0.139   1.484  12.236 -0.4437  0.3045 -0.2461
  360TMC3     O 5393   0.136   1.609  12.239  0.2972 -0.0469 -0.3114
  360TMC3     H 5394   0.333   1.631  12.168 -0.4161  0.5039 -2.1947
  360TMC3    H1 5395   0.228   1.223  12.217  1.2011 -2.0829  0.6584
  360TMC3    H2 5396   0.632   1.327  12.155  1.0814  3.5137 -1.3214
  360TMC3    C7 5397   0.475   1.141  12.161  0.2072  0.1826  0.0688
  360TMC3    C8 5398   0.566   1.594  12.085  0.3270  0.3145  0.8102
  360TMC3    O1 5399   0.581   1.092  12.192 -0.2698  0.7756 -0.0042
  360TMC3    O2 5400   0.522   1.708  12.060 -0.2312 -0.3984  0.1043
  361MPD2     C 5401   1.994   4.264  16.747  0.7075 -0.2878  0.0374
  361MPD2    C1 5402   2.050   4.332  16.856 -0.2167  0.0519  0.2209
  361MPD2    C2 5403   2.127   4.268  16.942 -0.2742 -0.0680  0.8002
  361MPD2    C3 5404   2.177   4.139  16.906 -0.0342 -0.2371  0.0647
  361MPD2    C4 5405   2.136   4.082  16.790  0.6086  0.7234 -0.4263
  361MPD2    C5 5406   2.049   4.145  16.712 -0.1409 -0.0068 -0.5711
  361MPD2     H 5407   2.156   4.313  17.037  0.0737 -2.1486  1.6845
  361MPD2    H1 5408   2.170   3.984  16.759  2.3155  0.6557  1.6502
  361MPD2    H2 5409   1.920   4.298  16.676  1.6826  1.3673 -0.1872
  361MPD2    H3 5410   2.033   4.099  16.615  0.2263 -0.9328 -0.1883
  361MPD2     N 5411   2.267   4.058  16.978  0.5454  0.0733  0.2137
  361MPD2    H5 5412   2.290   3.969  16.935  1.1238  1.7990 -3.0538
  361MPD2    N1 5413   2.009   4.458  16.887  0.0668 -0.0728 -0.1867
  361MPD2    H7 5414   2.053   4.503  16.966  0.9905  0.5947 -1.0716
  362TMC3    C1 5415   1.907   4.671  16.858 -0.2269  0.4184  0.0898
  362TMC3    C2 5416   1.819   4.689  16.959 -0.5248  0.0738 -0.5151
  362TMC3    C3 5417   1.764   0.090  16.976  0.2076  0.0886 -0.1859
  362TMC3    C4 5418   1.946   0.046  16.770  0.5791  0.6521  0.0466
  362TMC3    C5 5419   1.880   0.161  16.785  0.6185  0.4388 -0.5917
  362TMC3    C6 5420   1.789   0.191  16.886 -0.2831 -0.3780  0.1046
  362TMC3     C 5421   1.928   4.534  16.808 -0.0781 -0.3147 -0.4528
  362TMC3     O 5422   1.884   4.518  16.692  0.6842  0.6470  0.3324
  362TMC3     H 5423   1.792   4.608  17.026  1.1714 -0.4629 -0.4799
  362TMC3    H1 5424   2.011   0.023  16.687 -0.3442 -0.8376 -0.2652
  362TMC3    H2 5425   1.727   0.280  16.882 -3.0161 -2.3175 -0.7456
  362TMC3    C7 5426   1.861   0.247  16.665 -0.1092  0.3224  0.2799
  362TMC3    C8 5427   1.628   0.075  17.021 -0.0367 -0.3677  0.2653
  362TMC3    O1 5428   1.794   0.349  16.685 -0.0408 -0.3468  0.1199
  362TMC3    O2 5429   1.569   4.690  17.010  0.1497 -0.1922  0.1727
  363TMC3    C1 5430   0.379   2.706   9.758 -0.1030 -0.5135  0.2991
  363TMC3    C2 5431   0.404   2.604   9.846  0.1303 -0.5833  0.0522
  363TMC3    C3 5432   0.321   2.587   9.955  0.2054 -0.2374 -0.3232
  363TMC3    C4 5433   0.286   2.798   9.776 -0.0324 -0.2368  0.4079
  363TMC3    C5 5434   0.204   2.779   9.882  0.0910 -0.6103 -0.5944
  363TMC3    C6 5435   0.217   2.678   9.972  0.0870 -0.1955  0.3272
  363TMC3     C 5436   0.451   2.720   9.634  0.5069  0.4257 -0.6324
  363TMC3     O 5437   0.401   2.796   9.551  0.3381 -0.6176  0.2522
  363TMC3     H 5438   0.478   2.526   9.828  2.4994  1.9675 -1.1851
  363TMC3    H1 5439   0.283   2.884   9.710  0.0639 -0.7450 -0.2570
  363TMC3    H2 5440   0.154   2.662  10.059  0.8446 -2.0409  0.5374
  363TMC3    C7 5441   0.118   2.881   9.929 -0.6743 -0.5792 -0.2167
  363TMC3    C8 5442   0.327   2.462  10.027  0.9935  0.1163  0.2691
  363TMC3    O1 5443   0.070   2.867  10.041 -0.7983  0.8019 -0.0146
  363TMC3    O2 5444   0.225   2.450  10.091 -0.6154 -0.8662 -0.0975
  364MPD2     C 5445   3.437   1.153  10.426 -0.3094  0.3486  0.0228
  364MPD2    C1 5446   3.575   1.143  10.436  0.2306 -0.2299  0.2178
  364MPD2    C2 5447   3.630   1.023  10.489 -0.3212  0.2047  0.1414
  364MPD2    C3 5448   3.549   0.933  10.549 -0.4641  0.7177 -0.2831
  364MPD2    C4 5449   3.409   0.945  10.548 -0.0606  0.3864 -0.2440
  364MPD2    C5 5450   3.359   1.050  10.478  0.3397 -0.1464  0.8236
  364MPD2     H 5451   3.738   1.013  10.496 -0.2628  1.0559  0.4862
  364MPD2    H1 5452   3.344   0.884  10.608 -0.9156  2.6408  1.1026
  364MPD2    H2 5453   3.382   1.238  10.386 -0.5726  1.2749  2.3155
  364MPD2    H3 5454   3.251   1.063  10.480  0.1315 -1.9319  1.8155
  364MPD2     N 5455   3.600   0.842  10.637  0.3864  0.8026  0.2757
  364MPD2    H5 5456   3.530   0.794  10.693  0.8113  0.7178  0.7243
  364MPD2    N1 5457   3.644   1.256  10.387 -0.0763  0.1810 -0.7622
  364MPD2    H7 5458   3.595   1.339  10.354 -0.0254  0.5884  0.1853
  365TMC3    C1 5459   3.825   1.397  10.326  0.1885  0.3977 -0.4756
  365TMC3    C2 5460   3.923   1.394  10.232  0.0179 -0.3829  0.4571
  365TMC3    C3 5461   3.976   1.521  10.198  0.4489 -0.8438 -0.0329
  365TMC3    C4 5462   3.788   1.509  10.391 -0.3793 -0.5026  0.6537
  365TMC3    C5 5463   3.862   1.623  10.373  0.0529 -0.0932 -0.1843
  365TMC3    C6 5464   3.943   1.638  10.261 -0.0778  0.3280 -0.1128
  365TMC3     C 5465   3.783   1.269  10.371  1.0969  0.0087  0.0650
  365TMC3     O 5466   3.870   1.178  10.368  0.1564 -0.0952 -0.2762
  365TMC3     H 5467   3.944   1.298  10.186 -0.0327  1.1930 -2.8108
  365TMC3    H1 5468   3.717   1.495  10.471 -1.3991 -0.4656 -0.2519
  365TMC3    H2 5469   4.008   1.725  10.251 -1.1965  1.1653 -0.1525
  365TMC3    C7 5470   3.868   1.726  10.477  0.7379 -0.0673 -0.0497
  365TMC3    C8 5471   4.093   1.524  10.105 -0.6084  0.4565 -0.1777
  365TMC3    O1 5472   3.926   1.835  10.452  0.9051 -0.3858 -0.9369
  365TMC3    O2 5473   4.167   1.619  10.107  0.0792 -0.2253 -0.0940
  366MPD2     C 5474   2.629   2.612  15.320 -0.2965 -0.5300  0.5027
  366MPD2    C1 5475   2.674   2.687  15.435 -0.0572 -0.1814 -0.6892
  366MPD2    C2 5476   2.807   2.708  15.443  0.2709  0.5208 -0.7188
  366MPD2    C3 5477   2.892   2.655  15.352  0.6291 -0.5523  0.1241
  366MPD2    C4 5478   2.842   2.585  15.247 -0.1610  0.6267 -0.2146
  366MPD2    C5 5479   2.711   2.552  15.236 -0.2313 -0.4339  0.0968
  366MPD2     H 5480   2.846   2.751  15.535  1.4969 -2.7080  0.2753
  366MPD2    H1 5481   2.910   2.548  15.171 -1.1773 -0.3051 -0.6570
  366MPD2    H2 5482   2.526   2.586  15.296 -1.0263  1.1877  1.7913
  366MPD2    H3 5483   2.677   2.503  15.146 -0.8530  0.9844 -0.4402
  366MPD2     N 5484   3.033   2.667  15.349  0.2752 -0.6964  0.2125
  366MPD2    H5 5485   3.077   2.591  15.298  0.6137 -0.5127  0.2265
  366MPD2    N1 5486   2.593   2.742  15.525  0.4327 -0.0156 -0.2035
  366MPD2    H7 5487   2.636   2.785  15.606 -0.3465 -0.0193  0.2088
  367TMC3    C1 5488   2.409   2.879  15.572 -0.1824  0.3950 -0.5781
  367TMC3    C2 5489   2.504   2.966  15.633 -0.2658 -0.8256  0.1450
  367TMC3    C3 5490   2.467   3.094  15.643 -0.3617 -0.5769  0.2233
  367TMC3    C4 5491   2.285   2.932  15.529  0.5356  0.3908 -0.5725
  367TMC3    C5 5492   2.272   3.064  15.521 -0.0099 -0.4168 -0.6618
  367TMC3    C6 5493   2.356   3.147  15.583  0.3438  0.1782 -0.3295
  367TMC3     C 5494   2.458   2.765  15.494 -0.7707 -0.7561 -0.2429
  367TMC3     O 5495   2.382   2.711  15.416 -0.1195 -0.0330  0.1663
  367TMC3     H 5496   2.594   2.926  15.678 -0.2675  0.1971  1.0536
  367TMC3    H1 5497   2.233   2.869  15.456  1.2602 -0.7547 -0.1088
  367TMC3    H2 5498   2.338   3.253  15.588  2.3833  0.4432  1.2419
  367TMC3    C7 5499   2.143   3.128  15.476 -0.2400 -0.0121 -0.8235
  367TMC3    C8 5500   2.555   3.174  15.722  0.4085  0.6466 -0.2579
  367TMC3    O1 5501   2.138   3.246  15.509  0.0914 -0.3641 -0.2737
  367TMC3    O2 5502   2.657   3.119  15.762 -0.4342  0.8937 -0.1968
  368MPD2     C 5503   3.160   0.239  13.044  0.0130  0.1819  0.3347
  368MPD2    C1 5504   3.158   0.267  12.912 -0.2950 -0.4226  0.5959
  368MPD2    C2 5505   3.280   0.259  12.841 -0.5889 -0.8493 -0.1138
  368MPD2    C3 5506   3.394   0.226  12.908  0.0314  0.5209  0.2772
  368MPD2    C4 5507   3.397   0.217  13.047 -0.6506 -0.6569  0.5940
  368MPD2    C5 5508   3.277   0.214  13.110 -0.3368 -0.4190  0.6737
  368MPD2     H 5509   3.278   0.269  12.733 -0.9555 -1.4482 -0.1619
  368MPD2    H1 5510   3.488   0.186  13.096 -1.8773 -2.3958  1.7966
  368MPD2    H2 5511   3.063   0.243  13.093  0.5328  0.8261  1.2898
  368MPD2    H3 5512   3.273   0.193  13.216 -0.7433  0.9824  0.9371
  368MPD2     N 5513   3.521   0.197  12.843  0.1612  0.0124 -0.2718
  368MPD2    H5 5514   3.596   0.156  12.898  1.8171  1.3525 -1.5462
  368MPD2    N1 5515   3.034   0.268  12.842 -0.1242  0.2299 -0.0094
  368MPD2    H7 5516   2.950   0.246  12.896  0.6208 -1.0218  0.6399
  369TMC3    C1 5517   2.875   0.283  12.658 -0.4076  0.0284 -0.4646
  369TMC3    C2 5518   2.834   0.361  12.556  0.1585  0.2282 -0.5241
  369TMC3    C3 5519   2.712   0.340  12.502  0.0376  0.3239  0.4393
  369TMC3    C4 5520   2.794   0.188  12.719 -0.5922 -0.2450 -0.2728
  369TMC3    C5 5521   2.670   0.167  12.658  0.2844  0.4583 -0.8150
  369TMC3    C6 5522   2.629   0.238  12.548 -0.3920  0.7668  0.5151
  369TMC3     C 5523   3.010   0.320  12.718  1.2334  0.5563 -0.3436
  369TMC3     O 5524   3.092   0.377  12.643  0.0860 -0.2657 -0.2254
  369TMC3     H 5525   2.910   0.424  12.513  1.8765 -0.8433  0.9366
  369TMC3    H1 5526   2.834   0.123  12.795  0.2282  0.3561 -0.1986
  369TMC3    H2 5527   2.530   0.229  12.504  0.5724  0.4741 -1.6001
  369TMC3    C7 5528   2.600   0.055  12.705  0.3121  0.1953  0.0291
  369TMC3    C8 5529   2.645   0.454  12.438 -0.6667  0.2173 -0.2411
  369TMC3    O1 5530   2.677   4.689  12.742 -0.0706 -0.2411 -0.2737
  369TMC3    O2 5531   2.532   0.436  12.404  0.1423  0.2265 -0.0537
  370TMC3    C1 5532   3.226   0.589  16.507  0.2570  0.7222  0.2170
  370TMC3    C2 5533   3.147   0.534  16.609 -0.0899 -0.4388 -0.4513
  370TMC3    C3 5534   3.084   0.412  16.605 -0.5175 -0.4578  0.5436
  370TMC3    C4 5535   3.235   0.504  16.402 -0.4112  0.1069 -0.1375
  370TMC3    C5 5536   3.169   0.384  16.388  0.3698 -0.7515 -0.2288
  370TMC3    C6 5537   3.087   0.342  16.484 -0.0144 -0.3647 -0.6393
  370TMC3     C 5538   3.340   0.677  16.532  0.3862 -0.4814  0.1782
  370TMC3     O 5539   3.378   0.707  16.641 -0.5267 -0.2506 -0.5469
  370TMC3     H 5540   3.146   0.584  16.706 -1.3945  2.2967 -1.8953
  370TMC3    H1 5541   3.304   0.526  16.322  1.7784 -1.2477  1.3855
  370TMC3    H2 5542   3.057   0.238  16.484 -2.6333  0.3919 -0.4696
  370TMC3    C7 5543   3.231   0.294  16.289 -0.1772  0.2955 -0.2366
  370TMC3    C8 5544   3.053   0.343  16.732  0.5016  0.0383  0.4469
  370TMC3    O1 5545   3.337   0.329  16.234 -0.1604 -0.4922 -0.3224
  370TMC3    O2 5546   3.019   0.228  16.721  0.6653 -0.3041  0.4271
  371TMC3    C1 5547   4.261   3.656  15.347  0.0604 -0.0325  0.6537
  371TMC3    C2 5548   4.259   3.703  15.480 -0.0768 -0.3900 -0.6124
  371TMC3    C3 5549   4.216   3.825  15.512 -0.0556 -0.7265 -0.6816
  371TMC3    C4 5550   4.231   3.740  15.247  0.5493  0.1781  0.0623
  371TMC3    C5 5551   4.187   3.863  15.279 -0.0323 -0.1133  0.2109
  371TMC3    C6 5552   4.180   3.906  15.408 -0.6617 -0.1832 -0.3138
  371TMC3     C 5553   4.330   3.533  15.315 -0.1604  0.5449  0.3070
  371TMC3     O 5554   4.392   3.520  15.209 -0.1649 -0.1371 -0.2618
  371TMC3     H 5555   4.311   3.649  15.558  1.2426  0.0511 -1.1930
  371TMC3    H1 5556   4.259   3.703  15.150  0.2683 -0.5319  0.2518
  371TMC3    H2 5557   4.151   4.008  15.432  1.5540  0.4893 -0.4774
  371TMC3    C7 5558   4.202   3.979  15.191  0.0800  0.2026  0.0642
  371TMC3    C8 5559   4.260   3.875  15.633 -0.2594  0.0586  0.8237
  371TMC3    O1 5560   4.122   4.069  15.206  0.4292 -0.5540 -0.4119
  371TMC3    O2 5561   4.375   3.844  15.658  0.3200 -0.0943 -0.0518
  372MPD2     C 5562   4.054   0.109  13.032 -0.3497  0.1695  0.3333
  372MPD2    C1 5563   4.097   0.097  13.158 -1.0600 -0.0590  0.1344
  372MPD2    C2 5564   4.080   4.697  13.226 -0.0377 -0.4722  0.3439
  372MPD2    C3 5565   4.023   4.589  13.160 -0.2977  0.3119  0.1502
  372MPD2    C4 5566   3.989   4.602  13.033 -0.4786  0.1407 -0.3310
  372MPD2    C5 5567   4.000   4.723  12.973 -0.5788  0.3295 -0.1837
  372MPD2     H 5568   4.094   4.696  13.333  0.0037 -0.6756  0.3361
  372MPD2    H1 5569   3.934   4.525  12.981 -1.7715  1.4840 -0.9534
  372MPD2    H2 5570   4.039   0.205  12.983  0.1124 -0.3402 -0.8027
  372MPD2    H3 5571   3.960   0.012  12.873 -1.6897 -1.7009 -0.0166
  372MPD2     N 5572   4.008   4.466  13.232  0.5726  0.0456  0.2462
  372MPD2    H5 5573   4.063   4.460  13.317  1.1223 -0.2999 -0.1375
  372MPD2    N1 5574   4.154   0.201  13.232 -0.7421 -0.5722 -0.3386
  372MPD2    H7 5575   4.194   0.180  13.322  0.5955  5.9295  0.6211
  373TMC3    C1 5576   3.914   4.259  13.284  0.1829  0.0377  0.0833
  373TMC3    C2 5577   3.792   4.227  13.329  0.0802  0.1293  1.0983
  373TMC3    C3 5578   3.779   4.143  13.434 -0.2024 -0.2678 -0.1770
  373TMC3    C4 5579   4.029   4.205  13.338  1.0888  0.2128  0.2462
  373TMC3    C5 5580   4.008   4.104  13.424 -0.5272 -0.0520  0.1578
  373TMC3    C6 5581   3.882   4.068  13.474 -0.0553 -0.5064 -0.1893
  373TMC3     C 5582   3.918   4.367  13.190  0.2778 -0.6214  0.8186
  373TMC3     O 5583   3.820   4.379  13.119 -0.1930 -0.0821  0.4935
  373TMC3     H 5584   3.705   4.261  13.274 -0.6163 -0.1582  2.0157
  373TMC3    H1 5585   4.123   4.218  13.285  1.2051 -0.6123  0.2537
  373TMC3    H2 5586   3.853   3.991  13.545  0.3477 -1.3242 -0.9081
  373TMC3    C7 5587   4.122   4.049  13.495 -0.3886 -0.3439  0.8565
  373TMC3    C8 5588   3.715   4.201  13.550  0.0211  0.5405 -0.6598
  373TMC3    O1 5589   4.130   3.927  13.496 -0.2089  0.1104  0.4086
  373TMC3    O2 5590   3.751   4.156  13.659  0.0045 -0.1018 -0.3116
  374TMC3    C1 5591   4.302   0.041  10.556  0.3488 -1.3215 -0.3109
  374TMC3    C2 5592   4.397   0.096  10.479  0.7221 -0.0946  0.7593
  374TMC3    C3 5593   4.462   0.024  10.382  0.2687  0.6994 -0.1806
  374TMC3    C4 5594   4.249   4.644  10.526 -0.4021  0.0707 -0.2334
  374TMC3    C5 5595   4.304   4.578  10.418  0.0045 -0.0562 -0.0295
  374TMC3    C6 5596   4.418   4.624  10.353  0.0392 -0.4388 -0.5176
  374TMC3     C 5597   4.266   0.098  10.683  0.1600  0.7811  1.2939
  374TMC3     O 5598   4.198   0.021  10.750 -0.0565  0.0920  0.2454
  374TMC3     H 5599   4.442   0.189  10.511 -0.2521 -0.2744  2.6851
  374TMC3    H1 5600   4.158   4.614  10.577  1.1852 -4.2003  0.1144
  374TMC3    H2 5601   4.489   4.567  10.294  0.1820 -1.9724  1.1493
  374TMC3    C7 5602   4.283   4.430  10.420 -0.1149 -0.0588  0.2514
  374TMC3    C8 5603   4.606   0.054  10.386  0.1221  0.6872  0.4229
  374TMC3    O1 5604   4.318   4.371  10.315 -0.3675  0.4057 -0.0020
  374TMC3    O2 5605   4.679   4.691  10.429  0.0550  0.6838 -0.4920
  375MPD2     C 5606   4.529   0.637  17.063 -0.1519  0.1284 -0.4705
  375MPD2    C1 5607   4.469   0.685  16.949 -0.0431 -0.4272 -0.2139
  375MPD2    C2 5608   4.543   0.670  16.833 -0.0351  0.2458  0.5972
  375MPD2    C3 5609   4.668   0.622  16.827 -0.4981 -0.1031  0.9237
  375MPD2    C4 5610   0.000   0.576  16.943  0.3212 -0.3400 -0.0724
  375MPD2    C5 5611   4.656   0.576  17.065  0.2418 -0.1613  0.2960
  375MPD2     H 5612   4.501   0.691  16.735  0.2314 -0.7410  0.2702
  375MPD2    H1 5613   0.098   0.530  16.934  0.0350 -1.4841  2.9161
  375MPD2    H2 5614   4.478   0.639  17.158  1.6206  0.8010  0.4621
  375MPD2    H3 5615   4.717   0.541  17.148 -0.5541  2.4267  1.9620
  375MPD2     N 5616   0.017   0.588  16.708  0.0512  0.1276  0.0917
  375MPD2    H5 5617   0.104   0.537  16.715  1.0004  1.7402  0.0232
  375MPD2    N1 5618   4.345   0.752  16.945 -0.1069  0.4171 -0.2753
  375MPD2    H7 5619   4.326   0.792  16.853 -2.7217  0.2999  0.2144
  376TMC3    C1 5620   0.046   0.545  16.476  0.1880  0.4869  0.1062
  376TMC3    C2 5621   0.180   0.560  16.487  0.1134 -0.8802  0.1088
  376TMC3    C3 5622   0.252   0.547  16.376  0.0965  0.5684  0.8304
  376TMC3    C4 5623   4.705   0.516  16.360  0.8775  0.2150 -0.5428
  376TMC3    C5 5624   0.056   0.503  16.250  0.0856 -0.4523  0.0768
  376TMC3    C6 5625   0.195   0.528  16.254  0.1920  0.0718  0.3285
  376TMC3     C 5626   4.688   0.601  16.578 -0.1194  0.3549  0.2134
  376TMC3     O 5627   4.584   0.647  16.536  1.0743 -0.6284  0.1855
  376TMC3     H 5628   0.221   0.595  16.580 -1.2400 -1.2763  0.8637
  376TMC3    H1 5629   4.598   0.497  16.363  1.3207 -1.6780  3.4811
  376TMC3    H2 5630   0.251   0.536  16.161 -0.1946 -0.2186  0.0675
  376TMC3    C7 5631   4.718   0.517  16.119 -0.9166  0.0902  0.2665
  376TMC3    C8 5632   0.393   0.585  16.374  0.3526  1.3003  0.3215
  376TMC3    O1 5633   0.064   0.539  16.021  0.5664  0.0242 -0.3183
  376TMC3    O2 5634   0.436   0.600  16.259  0.2644  0.9474  0.0313
  377MPD2     C 5635   1.995   0.268  12.171  0.4245 -0.3601 -0.0443
  377MPD2    C1 5636   2.073   0.216  12.270  0.0576  0.3193  0.9069
  377MPD2    C2 5637   2.031   0.220  12.402 -0.3696  0.0538  0.4048
  377MPD2    C3 5638   1.909   0.289  12.434 -0.5676  0.4749 -0.7662
  377MPD2    C4 5639   1.834   0.341  12.331 -0.0565 -0.5995 -0.0303
  377MPD2    C5 5640   1.870   0.315  12.202 -0.1498 -0.6917 -0.4927
  377MPD2     H 5641   2.095   0.170  12.474 -0.9361 -0.6939  0.3846
  377MPD2    H1 5642   1.733   0.375  12.347 -0.6178 -1.3569 -1.9799
  377MPD2    H2 5643   2.033   0.274  12.070  0.3800  2.0962  0.1056
  377MPD2    H3 5644   1.802   0.351  12.125  0.4735  0.0230 -0.7101
  377MPD2     N 5645   1.858   0.292  12.568  0.2937 -0.5818  0.6884
  377MPD2    H5 5646   1.786   0.359  12.591  1.6689  0.7569  1.1247
  377MPD2    N1 5647   2.196   0.178  12.217 -0.0637 -0.0376  0.3939
  377MPD2    H7 5648   2.205   0.166  12.116 -0.2779 -1.0190  0.4845
  378TMC3    C1 5649   2.549   0.212  12.014  0.7481 -0.0161 -0.1551
  378TMC3    C2 5650   2.432   0.203  12.081 -0.0823 -0.1524 -0.6395
  378TMC3    C3 5651   2.429   0.124  12.201 -0.7136 -0.0969  0.7017
  378TMC3    C4 5652   2.664   0.157  12.064  0.3975  0.4672 -0.2448
  378TMC3    C5 5653   2.664   0.096  12.187  0.3599 -0.5481  0.1452
  378TMC3    C6 5654   2.547   0.073  12.256  0.5343  0.0271  0.1278
  378TMC3     C 5655   2.539   0.243  11.872 -0.1900 -0.4718  0.1658
  378TMC3     O 5656   2.428   0.290  11.845  0.0559 -0.5785 -0.1539
  378TMC3     H 5657   2.339   0.247  12.046 -0.3058 -0.7335 -0.7855
  378TMC3    H1 5658   2.761   0.181  12.022  0.7844  1.4211  1.1850
  378TMC3    H2 5659   2.552   0.029  12.356  0.7445 -0.4950 -0.1135
  378TMC3    C7 5660   2.791   0.089  12.257 -0.4165  0.4204  0.6790
  378TMC3    C8 5661   2.311   0.145  12.286  0.1041  0.8526  0.1612
  378TMC3    O1 5662   2.778   0.065  12.375 -0.3043 -0.0105 -0.0357
  378TMC3    O2 5663   2.324   0.154  12.408 -0.3893  0.5250  0.4161
  379MPD2     C 5664   3.178   3.310  16.521 -0.2696  0.2437 -1.1068
  379MPD2    C1 5665   3.283   3.291  16.440  0.4784 -0.8702 -0.4620
  379MPD2    C2 5666   3.391   3.215  16.471 -0.2268 -0.3804  0.0160
  379MPD2    C3 5667   3.386   3.140  16.590  0.4108  0.2099 -0.1768
  379MPD2    C4 5668   3.280   3.160  16.678  0.5926  0.0919 -0.0098
  379MPD2    C5 5669   3.176   3.239  16.639 -0.6005 -0.1996 -0.3449
  379MPD2     H 5670   3.480   3.210  16.411 -0.2323  1.6686 -0.1492
  379MPD2    H1 5671   3.272   3.110  16.774 -2.2643  0.6218  0.0170
  379MPD2    H2 5672   3.100   3.375  16.483 -0.1563  2.0695  1.7967
  379MPD2    H3 5673   3.095   3.252  16.710 -1.0704  0.8778 -1.0750
  379MPD2     N 5674   3.482   3.041  16.626  0.0244  0.5983 -0.2019
  379MPD2    H5 5675   3.451   2.981  16.702  0.1925 -0.3315 -0.8724
  379MPD2    N1 5676   3.284   3.362  16.325 -0.6523  0.0452 -0.8882
  379MPD2    H7 5677   3.203   3.417  16.301 -1.5552 -0.9041  0.0029
  380TMC3    C1 5678   3.325   3.420  16.106  0.0452  0.3956 -0.3561
  380TMC3    C2 5679   3.384   3.380  15.987  0.4801  0.4266  0.9619
  380TMC3    C3 5680   3.308   3.397  15.872 -0.1247  0.8350 -0.9725
  380TMC3    C4 5681   3.206   3.481  16.111  0.5357  0.1766  0.3195
  380TMC3    C5 5682   3.136   3.489  15.997  0.8882  0.4463  0.1820
  380TMC3    C6 5683   3.185   3.447  15.875  0.0472  0.7206  0.2985
  380TMC3     C 5684   3.371   3.340  16.221 -0.0122 -0.2209  0.0890
  380TMC3     O 5685   3.463   3.262  16.202 -0.2930  0.3242  0.3003
  380TMC3     H 5686   3.474   3.320  15.989  0.6859  0.8186  2.8558
  380TMC3    H1 5687   3.168   3.528  16.201 -1.9246 -1.4965  0.1710
  380TMC3    H2 5688   3.132   3.468  15.782  0.6461  3.6165  0.6295
  380TMC3    C7 5689   3.000   3.532  15.997 -0.2318 -0.6265  0.1309
  380TMC3    C8 5690   3.384   3.393  15.745 -0.2706  0.4147 -0.2042
  380TMC3    O1 5691   2.956   3.585  16.099  0.5069  0.5259 -0.0842
  380TMC3    O2 5692   3.343   3.453  15.648 -0.1620 -0.0556  0.1012
  381TMC3    C1 5693   2.974   4.411  16.563 -0.3066  0.0113  0.4655
  381TMC3    C2 5694   3.064   4.508  16.530  0.2249 -0.1002 -0.2325
  381TMC3    C3 5695   3.077   4.614  16.616  0.1207  0.2513 -0.1878
  381TMC3    C4 5696   2.913   4.408  16.684 -0.5557  0.3094 -0.1068
  381TMC3    C5 5697   2.926   4.518  16.760  0.3643  0.0888 -0.1040
  381TMC3    C6 5698   3.005   4.625  16.729 -0.0474 -0.7442  0.8674
  381TMC3     C 5699   2.957   4.293  16.482  0.0028  0.2969 -0.7835
  381TMC3     O 5700   3.035   4.292  16.389 -0.1063  0.0280  0.0665
  381TMC3     H 5701   3.118   4.504  16.436  2.7634 -2.6479  1.3437
  381TMC3    H1 5702   2.849   4.326  16.714  0.0745  0.1646  0.8572
  381TMC3    H2 5703   3.016   4.705  16.801 -0.5457 -0.9099  1.1278
  381TMC3    C7 5704   2.918   4.486  16.906 -0.1255  0.4400  0.3973
  381TMC3    C8 5705   3.212   4.677  16.601 -1.0139  0.9844  0.5271
  381TMC3    O1 5706   2.936   4.370  16.940  0.3311 -0.4010 -0.6403
  381TMC3    O2 5707   3.283   4.623  16.518 -0.0720 -0.4001 -0.0813
  382MPD2     C 5708   2.249   2.363  17.051  0.2329  0.8225 -0.2887
  382MPD2    C1 5709   2.260   2.318  17.180 -0.2187 -0.3225 -0.3654
  382MPD2    C2 5710   2.267   2.184  17.205 -0.5812 -0.6385  0.0850
  382MPD2    C3 5711   2.250   2.090  17.095 -0.0659  0.4469  0.8344
  382MPD2    C4 5712   2.244   2.141  16.969  0.0884  0.5246  0.1066
  382MPD2    C5 5713   2.248   2.274  16.953  0.1521  0.1822  0.0230
  382MPD2     H 5714   2.286   2.142  17.304 -0.6098 -1.2707 -0.1780
  382MPD2    H1 5715   2.238   2.070  16.887  0.7720  1.1082 -0.4460
  382MPD2    H2 5716   2.254   2.468  17.024  1.7924  0.7417 -0.3085
  382MPD2    H3 5717   2.257   2.321  16.856  2.7641 -0.3396  0.0094
  382MPD2     N 5718   2.230   1.951  17.113 -0.2561  0.2309 -0.5472
  382MPD2    H5 5719   2.198   1.903  17.030  0.5872  0.1838 -0.8529
  382MPD2    N1 5720   2.267   2.406  17.289 -0.1901  0.3643 -0.5382
  382MPD2    H7 5721   2.271   2.361  17.380  0.0444 -0.0548 -0.7582
  383TMC3    C1 5722   2.196   1.750  17.230  0.4509 -0.4203 -0.0728
  383TMC3    C2 5723   2.089   1.725  17.151  0.1287 -0.0217  0.4772
  383TMC3    C3 5724   2.022   1.613  17.176 -0.2032 -0.4668  0.3362
  383TMC3    C4 5725   2.237   1.661  17.329 -0.4958 -0.0658  0.4465
  383TMC3    C5 5726   2.176   1.535  17.335 -0.6579  0.1329  0.5295
  383TMC3    C6 5727   2.064   1.506  17.262  0.3707 -0.6052  0.2144
  383TMC3     C 5728   2.243   1.887  17.236 -0.2962  0.3861 -0.0466
  383TMC3     O 5729   2.284   1.927  17.347 -0.2517  0.0217 -0.1237
  383TMC3     H 5730   2.047   1.797  17.081  1.6715 -1.4789 -1.9416
  383TMC3    H1 5731   2.317   1.686  17.398  0.1392  1.3736 -0.8331
  383TMC3    H2 5732   2.004   1.418  17.281 -1.2928  0.8127  1.5040
  383TMC3    C7 5733   2.232   1.442  17.431  0.1194  0.3571  0.4661
  383TMC3    C8 5734   1.889   1.606  17.116 -0.0290  0.7591  0.0482
  383TMC3    O1 5735   2.163   1.344  17.463 -0.0368 -0.1867  0.3068
  383TMC3    O2 5736   1.866   1.652  17.003 -0.0324  0.0015  0.0682
  384MPD2     C 5737   3.564   2.853  11.908 -0.4742 -0.0556 -0.1790
  384MPD2    C1 5738   3.588   2.806  12.040 -0.1736  0.0685 -0.2632
  384MPD2    C2 5739   3.641   2.681  12.054  0.5096 -0.2580 -0.0705
  384MPD2    C3 5740   3.665   2.594  11.953 -0.7687  0.2099  0.2270
  384MPD2    C4 5741   3.635   2.639  11.819 -0.1329 -0.1521  0.5947
  384MPD2    C5 5742   3.588   2.765  11.800 -0.5774 -0.0764 -0.7572
  384MPD2     H 5743   3.672   2.650  12.153 -0.7023 -0.3825  0.2717
  384MPD2    H1 5744   3.642   2.569  11.737  0.0120  3.7923 -2.7199
  384MPD2    H2 5745   3.517   2.948  11.891 -0.9263 -0.1487  0.5468
  384MPD2    H3 5746   3.560   2.798  11.700 -1.5533 -0.2613 -0.5458
  384MPD2     N 5747   3.718   2.467  11.990  0.6484  0.2771  0.1852
  384MPD2    H5 5748   3.730   2.444  12.089  0.9699 -1.0630 -0.1715
  384MPD2    N1 5749   3.570   2.881  12.161  0.3209 -0.2323 -0.1185
  384MPD2    H7 5750   3.601   2.838  12.248  0.1265 -3.0372 -1.4231
  385TMC3    C1 5751   3.815   2.263  11.984 -0.5803 -0.1523  0.1902
  385TMC3    C2 5752   3.750   2.143  11.964 -0.2900  0.0060 -0.6294
  385TMC3    C3 5753   3.724   2.064  12.073  0.3186  0.0126 -0.1087
  385TMC3    C4 5754   3.854   2.299  12.117 -0.5344 -0.3011 -0.4205
  385TMC3    C5 5755   3.815   2.221  12.223  0.7413 -0.3064 -0.7877
  385TMC3    C6 5756   3.752   2.101  12.206 -0.3260 -0.0365  0.8511
  385TMC3     C 5757   3.763   2.368  11.905 -0.4649  0.1394  0.5560
  385TMC3     O 5758   3.737   2.344  11.784  0.2162  0.2304  0.0453
  385TMC3     H 5759   3.724   2.112  11.864  2.0176  1.0636 -1.5560
  385TMC3    H1 5760   3.925   2.379  12.127 -0.1686 -0.6603 -0.1576
  385TMC3    H2 5761   3.716   2.045  12.291 -2.9675 -0.2637 -0.4228
  385TMC3    C7 5762   3.768   2.317  12.321  0.0014 -0.0268  0.3602
  385TMC3    C8 5763   3.661   1.936  12.056 -0.1330 -0.6760 -0.6255
  385TMC3    O1 5764   3.773   2.432  12.280 -0.0831 -0.1144 -0.2909
  385TMC3    O2 5765   3.612   1.891  12.161  0.6231 -0.2837 -0.1737
  386TMC3    C1 5766   3.551   0.263  11.414  0.3109 -0.2984 -0.4518
  386TMC3    C2 5767   3.623   0.251  11.293 -0.0193  0.0371 -0.1534
  386TMC3    C3 5768   3.542   0.265  11.184 -0.1344 -0.9073  0.2428
  386TMC3    C4 5769   3.418   0.285  11.426 -0.2860  0.1725  0.8848
  386TMC3    C5 5770   3.335   0.274  11.317  0.0597  0.2021 -0.0708
  386TMC3    C6 5771   3.400   0.274  11.197  0.3794  1.1052 -0.2124
  386TMC3     C 5772   3.632   0.275  11.528  0.4079 -0.1841  0.0706
  386TMC3     O 5773   3.570   0.266  11.632  0.2631  0.1158 -0.3839
  386TMC3     H 5774   3.728   0.231  11.278  0.2949  3.0855 -2.0208
  386TMC3    H1 5775   3.375   0.296  11.525 -0.8368 -2.1082  0.9131
  386TMC3    H2 5776   3.348   0.263  11.103 -0.0798  1.4518 -0.0001
  386TMC3    C7 5777   3.213   0.345  11.329 -0.2692 -0.2096 -0.0828
  386TMC3    C8 5778   3.596   0.224  11.053  0.2751  0.5949 -0.5397
  386TMC3    O1 5779   3.179   0.380  11.441 -0.3333 -0.1670  0.4131
  386TMC3    O2 5780   3.515   0.177  10.970  0.4645 -0.0506 -0.1544
  387MPD2     C 5781   2.192   0.663   9.700 -1.1484 -0.0543 -0.3599
  387MPD2    C1 5782   2.187   0.648   9.836  0.0604 -0.7008  0.4195
  387MPD2    C2 5783   2.095   0.566   9.890 -0.4283  0.0834  0.7424
  387MPD2    C3 5784   1.996   0.504   9.811  0.3480 -0.3000 -0.5108
  387MPD2    C4 5785   1.993   0.522   9.671  0.1539  0.4989 -0.2008
  387MPD2    C5 5786   2.092   0.600   9.616  0.0034  0.3287  0.0674
  387MPD2     H 5787   2.087   0.546   9.996  1.4957 -0.6760  0.7504
  387MPD2    H1 5788   1.916   0.496   9.599  0.9391  2.3339 -1.7217
  387MPD2    H2 5789   2.268   0.724   9.652 -2.0128  0.0579 -1.5783
  387MPD2    H3 5790   2.091   0.618   9.510  2.2867 -0.3116 -0.0563
  387MPD2     N 5791   1.900   0.429   9.877  0.4063 -0.1018 -0.0690
  387MPD2    H5 5792   1.895   0.442   9.978 -0.4747 -0.0682 -0.1168
  387MPD2    N1 5793   2.278   0.703   9.930  0.8705  0.2247 -0.2883
  387MPD2    H7 5794   2.246   0.699  10.026 -0.0410  2.4668 -0.4924
  388TMC3    C1 5795   2.422   0.836  10.041  0.7860 -0.2121  0.0592
  388TMC3    C2 5796   2.420   0.970  10.057 -0.3492 -0.2295  0.7801
  388TMC3    C3 5797   2.426   1.020  10.185 -0.2167  0.4405 -0.4261
  388TMC3    C4 5798   2.418   0.744  10.143  0.7711 -0.1968 -0.8616
  388TMC3    C5 5799   2.416   0.800  10.268 -0.4985 -0.4023  0.9388
  388TMC3    C6 5800   2.424   0.938  10.291  0.2852  0.6060 -0.4467
  388TMC3     C 5801   2.376   0.790   9.911  0.8534 -0.2904 -0.2104
  388TMC3     O 5802   2.448   0.821   9.812  0.6131 -0.1301  0.4339
  388TMC3     H 5803   2.387   1.031   9.974 -2.8221 -1.7402  0.6334
  388TMC3    H1 5804   2.442   0.640  10.126 -1.2125 -0.9564  1.0541
  388TMC3    H2 5805   2.438   0.975  10.392 -1.5616 -0.7467  0.3096
  388TMC3    C7 5806   2.347   0.730  10.376  0.3136  1.3155  0.1497
  388TMC3    C8 5807   2.498   1.144  10.205  0.3574  0.8083 -0.0562
  388TMC3    O1 5808   2.331   0.790  10.482 -0.2820 -0.6785  0.6564
  388TMC3    O2 5809   2.512   1.177  10.323  0.1199  0.0371 -0.3347
  389MPD2     C 5810   0.008   3.584  11.036 -0.1936  0.2536  0.2935
  389MPD2    C1 5811   0.108   3.516  11.098 -0.7216 -0.2839 -0.0482
  389MPD2    C2 5812   0.096   3.462  11.221 -0.0906  0.1850 -0.1765
  389MPD2    C3 5813   4.700   3.480  11.287  1.0477  1.0577  0.6741
  389MPD2    C4 5814   4.600   3.555  11.229 -0.2119 -0.2637 -0.3151
  389MPD2    C5 5815   4.612   3.606  11.105  0.3425 -0.6130 -0.1691
  389MPD2     H 5816   0.165   3.393  11.269  0.1898 -1.5795 -3.0764
  389MPD2    H1 5817   4.508   3.585  11.278  0.7139  1.6443  0.2367
  389MPD2    H2 5818   0.020   3.638  10.943 -0.1939  0.4009  0.3791
  389MPD2    H3 5819   4.531   3.668  11.069  0.0507  0.4528  2.3563
  389MPD2     N 5820   4.666   3.418  11.407  0.1128  0.0906 -1.2210
  389MPD2    H5 5821   4.569   3.426  11.435 -0.0539 -2.8357 -1.0170
  389MPD2    N1 5822   0.225   3.498  11.022  0.2234 -0.1927 -0.1971
  389MPD2    H7 5823   0.222   3.549  10.934 -0.5455 -0.4411 -0.3168
  390TMC3    C1 5824   4.684   3.320  11.608 -0.2921 -0.6987  0.1333
  390TMC3    C2 5825   4.592   3.219  11.591 -0.0754 -0.2070 -0.1999
  390TMC3    C3 5826   4.559   3.152  11.706  0.1414 -0.0557 -0.2950
  390TMC3    C4 5827   0.009   3.356  11.729  0.3863  0.0167 -0.2781
  390TMC3    C5 5828   4.689   3.291  11.845 -0.7818 -0.6281  0.0509
  390TMC3    C6 5829   4.599   3.187  11.832 -0.1004  0.2719 -0.1387
  390TMC3     C 5830   0.027   3.374  11.500  0.7395  0.1983 -0.6938
  390TMC3     O 5831   0.147   3.389  11.518 -0.4950 -0.3986  0.2124
  390TMC3     H 5832   4.572   3.188  11.489 -1.9997 -1.1910  0.4912
  390TMC3    H1 5833   0.079   3.439  11.734 -1.5047  1.5258  1.2184
  390TMC3    H2 5834   4.587   3.115  11.912 -0.5563 -0.5822 -0.9696
  390TMC3    C7 5835   0.016   3.325  11.976 -0.3078 -0.5328 -0.0532
  390TMC3    C8 5836   4.471   3.035  11.686  0.4511  0.2688 -0.0562
  390TMC3    O1 5837   0.110   3.404  11.974 -0.1232 -0.4384 -0.2680
  390TMC3    O2 5838   4.482   2.972  11.582 -0.8266  0.2978  0.4854
  391MPD2     C 5839   0.644   4.708  11.601  0.2375 -0.5900 -0.0161
  391MPD2    C1 5840   0.680   0.114  11.570 -0.0947 -0.1213 -0.3161
  391MPD2    C2 5841   0.638   0.162  11.447  0.5225 -0.0266 -0.1997
  391MPD2    C3 5842   0.571   0.080  11.351  0.3069  0.0811 -0.1128
  391MPD2    C4 5843   0.535   4.675  11.390 -0.0556 -0.6247 -0.2667
  391MPD2    C5 5844   0.576   4.624  11.512 -0.2197 -0.1880 -0.3269
  391MPD2     H 5845   0.688   0.253  11.417  1.2240 -0.0670  0.8666
  391MPD2    H1 5846   0.481   4.610  11.322 -2.5593  2.2140 -0.9756
  391MPD2    H2 5847   0.683   4.667  11.694  0.6476 -0.1649 -0.0042
  391MPD2    H3 5848   0.530   4.532  11.547  1.7851 -1.6204 -1.5147
  391MPD2     N 5849   0.548   0.136  11.226  0.6487  0.8170  0.2645
  391MPD2    H5 5850   0.578   0.233  11.221 -1.8493  1.4655 -1.5470
  391MPD2    N1 5851   0.753   0.187  11.663  0.1824  0.1392 -0.0028
  391MPD2    H7 5852   0.784   0.140  11.747  0.4014 -1.6935 -1.1227
  392TMC3    C1 5853   0.490   0.179  11.005 -0.1417 -0.1129 -0.3128
  392TMC3    C2 5854   0.395   0.151  10.911 -0.2849  1.0607  0.1987
  392TMC3    C3 5855   0.371   0.253  10.820 -0.4283 -0.3530 -0.1280
  392TMC3    C4 5856   0.550   0.306  11.017  0.5974 -0.3976  0.1012
  392TMC3    C5 5857   0.529   0.391  10.910  0.4253 -0.0315 -0.1761
  392TMC3    C6 5858   0.446   0.367  10.811 -0.3960 -0.5073  0.2126
  392TMC3     C 5859   0.491   0.079  11.117  0.0774 -0.4550  0.2807
  392TMC3     O 5860   0.436   4.692  11.111  0.0398  0.0948  0.3216
  392TMC3     H 5861   0.321   0.072  10.915  2.0559 -1.0962  0.9565
  392TMC3    H1 5862   0.632   0.318  11.086  2.0283  1.5439 -1.9436
  392TMC3    H2 5863   0.415   0.448  10.746 -0.9387 -1.1742 -0.3481
  392TMC3    C7 5864   0.598   0.520  10.916 -0.5343 -0.1337  0.4570
  392TMC3    C8 5865   0.275   0.240  10.710  0.2151  0.2593  1.0762
  392TMC3    O1 5866   0.624   0.565  11.027 -0.7457 -0.7901 -0.1485
  392TMC3    O2 5867   0.174   0.177  10.738  0.4790  0.3501  0.2909
  393TMC3    C1 5868   3.379   2.439  10.768  0.1599 -0.0381  0.1447
  393TMC3    C2 5869   3.283   2.342  10.757  0.1471 -0.0929  0.6026
  393TMC3    C3 5870   3.246   2.275  10.864  0.2425 -0.0053  0.3445
  393TMC3    C4 5871   3.444   2.464  10.884  0.3087 -0.2335  0.3982
  393TMC3    C5 5872   3.407   2.395  10.991 -0.1191 -0.1722  0.2131
  393TMC3    C6 5873   3.312   2.296  10.988 -0.0883  0.1754 -0.1958
  393TMC3     C 5874   3.407   2.518  10.648 -0.1391 -0.0460 -0.6315
  393TMC3     O 5875   3.322   2.505  10.563  0.8996 -1.0961  0.1647
  393TMC3     H 5876   3.237   2.333  10.659 -1.0071 -1.6985  1.2837
  393TMC3    H1 5877   3.506   2.553  10.891 -2.2053  1.6333 -1.2646
  393TMC3    H2 5878   3.282   2.243  11.078  0.2938 -0.6251 -0.5443
  393TMC3    C7 5879   3.461   2.445  11.118 -0.3172  0.5080 -0.6605
  393TMC3    C8 5880   3.110   2.219  10.850  0.5678  0.1344  0.8332
  393TMC3    O1 5881   3.457   2.369  11.213  0.3824  0.7385 -0.6815
  393TMC3    O2 5882   3.058   2.210  10.740  0.4769 -0.4359  0.1730
  394TMC3    C1 5883   0.447   3.475  10.966 -0.2500 -0.0106 -0.0625
  394TMC3    C2 5884   0.428   3.519  10.839 -0.1930 -0.2443  0.4127
  394TMC3    C3 5885   0.515   3.603  10.780  0.2096 -0.3249  0.7017
  394TMC3    C4 5886   0.563   3.509  11.033 -0.4293 -0.3347  0.3659
  394TMC3    C5 5887   0.650   3.593  10.969 -0.7590 -0.0207  0.8507
  394TMC3    C6 5888   0.628   3.639  10.841  0.3339 -0.1345  0.6175
  394TMC3     C 5889   0.338   3.431  11.051 -0.0908  0.3020 -0.4396
  394TMC3     O 5890   0.361   3.368  11.149  0.4503 -0.0625 -0.0613
  394TMC3     H 5891   0.333   3.495  10.792 -0.3041 -0.9183  0.9854
  394TMC3    H1 5892   0.568   3.474  11.135  0.6393  0.7277  0.6883
  394TMC3    H2 5893   0.701   3.701  10.791 -0.6196 -0.6051 -1.3655
  394TMC3    C7 5894   0.759   3.638  11.043 -1.6411 -0.0388  0.0398
  394TMC3    C8 5895   0.530   3.614  10.631  0.0636  1.1952  0.4814
  394TMC3    O1 5896   0.839   3.711  10.982  0.3788 -0.2514  0.3181
  394TMC3    O2 5897   0.586   3.719  10.590  0.0723  0.5846 -0.1880
  395TMC3    C1 5898   0.690   1.187  14.152  0.5551 -0.1653 -0.3401
  395TMC3    C2 5899   0.617   1.267  14.238  0.0316 -0.2791  0.5550
  395TMC3    C3 5900   0.660   1.313  14.360 -0.2402 -0.1087 -0.1403
  395TMC3    C4 5901   0.826   1.175  14.184  0.1911  0.2163 -0.3220
  395TMC3    C5 5902   0.872   1.241  14.293  0.4803 -0.3546 -0.5696
  395TMC3    C6 5903   0.793   1.313  14.385  0.4636 -0.4819  0.6825
  395TMC3     C 5904   0.631   1.059  14.140 -0.1574  1.2873 -0.0624
  395TMC3     O 5905   0.539   1.050  14.062  0.5917  0.3018 -0.2039
  395TMC3     H 5906   0.511   1.274  14.216  0.8102  3.9471 -1.7146
  395TMC3    H1 5907   0.878   1.106  14.119  0.7390  0.3154  0.0139
  395TMC3    H2 5908   0.828   1.339  14.485  0.0154 -3.0107  1.4949
  395TMC3    C7 5909   0.998   1.191  14.339 -0.2742  0.2693  0.0978
  395TMC3    C8 5910   0.570   1.328  14.470 -0.1817 -0.1935  0.1293
  395TMC3    O1 5911   1.034   1.096  14.277 -0.0240 -0.2347  0.3365
  395TMC3    O2 5912   0.609   1.391  14.569  0.3188  0.1198  0.2117
  396MPD2     C 5913   0.198   1.524  17.021 -0.3705 -0.1380  0.7477
  396MPD2    C1 5914   0.146   1.641  17.080 -0.0397 -0.6562 -0.1142
  396MPD2    C2 5915   0.185   1.760  17.017 -0.1401  0.2270 -0.7177
  396MPD2    C3 5916   0.265   1.766  16.904 -0.0099 -0.4198 -1.0248
  396MPD2    C4 5917   0.318   1.647  16.852  0.7002 -0.3555 -0.3590
  396MPD2    C5 5918   0.281   1.527  16.912  0.0767  0.1439  0.0966
  396MPD2     H 5919   0.142   1.856  17.042  0.1667  0.4217 -0.9487
  396MPD2    H1 5920   0.372   1.642  16.757  2.0102 -0.1043  0.3738
  396MPD2    H2 5921   0.170   1.426  17.059  0.6853  0.3128  2.6529
  396MPD2    H3 5922   0.322   1.435  16.873  0.5345 -0.0484  1.0361
  396MPD2     N 5923   0.287   1.889  16.841 -0.2940 -0.0860  1.1062
  396MPD2    H5 5924   0.240   1.964  16.890 -0.0397  2.7785 -3.0308
  396MPD2    N1 5925   0.072   1.632  17.194 -0.5476  0.6537 -0.1944
  396MPD2    H7 5926   0.021   1.546  17.210 -0.2047  0.7655  1.5269
  397TMC3    C1 5927   4.673   1.706  17.386  0.0721  0.0639 -0.3521
  397TMC3    C2 5928   4.660   1.822  17.465 -0.3390  0.2237 -0.3339
  397TMC3    C3 5929   4.709   1.825  17.593  1.2884  0.4226 -0.2664
  397TMC3    C4 5930   4.711   1.593  17.458  0.0367 -0.3775 -0.6709
  397TMC3    C5 5931   0.015   1.598  17.596 -0.8154 -0.5590 -0.1200
  397TMC3    C6 5932   0.020   1.718  17.666 -0.1514 -0.3742  0.3557
  397TMC3     C 5933   0.036   1.741  17.274  0.1842  0.2338 -0.5656
  397TMC3     O 5934   0.082   1.856  17.280 -0.4010  0.4936 -0.7313
  397TMC3     H 5935   4.641   1.920  17.424 -0.1725  0.0710 -0.7759
  397TMC3    H1 5936   4.700   1.495  17.413 -0.6593 -1.1065  1.0824
  397TMC3    H2 5937   0.048   1.725   0.074 -0.2915  1.0381  0.3095
  397TMC3    C7 5938   0.001   1.472  17.670 -0.2788 -0.7585 -0.5115
  397TMC3    C8 5939   0.053   1.949  17.628  0.1563  0.8211  0.5364
  397TMC3    O1 5940   4.713   1.380  17.589  0.4179 -0.4770 -0.3977
  397TMC3    O2 5941   0.053   1.993   0.047 -0.0151 -0.4466 -0.0020
  398MPD2     C 5942   3.298   2.457   0.320  0.3208  0.3983  0.2896
  398MPD2    C1 5943   3.384   2.346   0.301  0.1223 -0.6058  0.6023
  398MPD2    C2 5944   3.522   2.369   0.305  0.4021  0.0639 -0.1506
  398MPD2    C3 5945   3.575   2.492   0.329  0.3167  0.3296 -0.0088
  398MPD2    C4 5946   3.489   2.597   0.367 -0.3710 -0.1897  0.0616
  398MPD2    C5 5947   3.354   2.582   0.359 -0.9573  0.1310  0.0683
  398MPD2     H 5948   3.589   2.289   0.275  0.6232  0.7647 -1.5282
  398MPD2    H1 5949   3.529   2.696   0.386 -1.4799  0.6620 -1.9430
  398MPD2    H2 5950   3.190   2.448   0.317  0.3796  0.7195 -2.4549
  398MPD2    H3 5951   3.294   2.664   0.395  0.8706  1.3343  0.3658
  398MPD2     N 5952   3.716   2.507   0.326  0.0217  0.1823 -0.3505
  398MPD2    H5 5953   3.760   2.422   0.293 -0.8541 -0.5679  0.4140
  398MPD2    N1 5954   3.341   2.209   0.277  0.1893 -0.0379 -0.8242
  398MPD2    H7 5955   3.416   2.142   0.264 -0.2788 -0.2419 -2.4137
  399TMC3    C1 5956   3.198   2.022   0.267 -0.5549 -0.4667 -0.0626
  399TMC3    C2 5957   3.309   1.937   0.285 -0.0205 -0.1229 -0.6461
  399TMC3    C3 5958   3.279   1.804   0.293  0.7729 -0.2161  0.3270
  399TMC3    C4 5959   3.070   1.973   0.266  0.0633 -0.2144 -0.7420
  399TMC3    C5 5960   3.054   1.842   0.303  0.1058 -0.3937 -0.9956
  399TMC3    C6 5961   3.156   1.755   0.311 -0.1892  0.4126 -0.1735
  399TMC3     C 5962   3.208   2.167   0.265  0.7663  0.2628 -0.1520
  399TMC3     O 5963   3.105   2.229   0.279 -0.2717  0.3457  0.4264
  399TMC3     H 5964   3.414   1.963   0.276 -0.1931  0.4871 -0.9600
  399TMC3    H1 5965   2.983   2.037   0.260  1.0761  1.0378 -2.1543
  399TMC3    H2 5966   3.138   1.649   0.301 -1.9225  0.8800 -1.9764
  399TMC3    C7 5967   2.923   1.780   0.283  0.4808 -0.2294 -0.0624
  399TMC3    C8 5968   3.385   1.708   0.309 -0.0429 -0.3195 -0.4258
  399TMC3    O1 5969   2.909   1.673   0.344 -0.6754 -0.3066  0.1927
  399TMC3    O2 5970   3.488   1.740   0.255 -0.0224  0.0213 -0.0520
  400TMC3    C1 5971   1.768   1.289  16.946 -0.1463  0.3626  0.6255
  400TMC3    C2 5972   1.662   1.226  17.005  0.0488 -0.1649  0.1013
  400TMC3    C3 5973   1.536   1.243  16.951  0.0051  0.1082  0.7688
  400TMC3    C4 5974   1.755   1.399  16.858  0.2413 -0.1143 -0.3669
  400TMC3    C5 5975   1.623   1.415  16.811 -0.4174  0.0610 -0.3884
  400TMC3    C6 5976   1.514   1.338  16.857 -0.7618  0.2088 -0.2124
  400TMC3     C 5977   1.902   1.253  16.988  0.5806  0.2134  0.2622
  400TMC3     O 5978   1.921   1.160  17.063 -0.1604 -0.0539  0.2936
  400TMC3     H 5979   1.685   1.147  17.074  0.7664 -0.2219 -0.2070
  400TMC3    H1 5980   1.832   1.463  16.816  1.8346 -0.0785  2.6145
  400TMC3    H2 5981   1.411   1.369  16.840 -0.2647  2.0218  0.1224
  400TMC3    C7 5982   1.592   1.536  16.736 -0.4898  0.0105  0.5081
  400TMC3    C8 5983   1.437   1.145  16.982  0.2014  0.4519  0.1147
  400TMC3    O1 5984   1.487   1.536  16.671 -0.0425 -0.3651 -0.9433
  400TMC3    O2 5985   1.439   1.100  17.094  0.2208  0.4728 -0.6450
  401MPD2     C 5986   4.581   4.638  17.635  0.9526  0.0333  0.2244
  401MPD2    C1 5987   4.655   4.590   0.043  0.3370  1.0879  0.3025
  401MPD2    C2 5988   4.632   4.460   0.078 -0.1787 -0.5985  0.1988
  401MPD2    C3 5989   4.543   4.381   0.004  0.0673  0.2208  0.1063
  401MPD2    C4 5990   4.485   4.425  17.582 -0.2861 -0.9037  0.0248
  401MPD2    C5 5991   4.498   4.560  17.562 -0.6779 -0.4971 -0.0723
  401MPD2     H 5992   4.678   4.425   0.170 -0.0693 -1.8891 -0.3365
  401MPD2    H1 5993   4.416   4.366  17.523  0.6695 -1.4517 -0.5458
  401MPD2    H2 5994   4.591   0.015  17.596  0.8796  0.3839  1.1056
  401MPD2    H3 5995   4.454   4.598  17.471  0.3287 -0.1306 -0.4093
  401MPD2     N 5996   4.516   4.259   0.071 -0.0248  1.2708 -0.1557
  401MPD2    H5 5997   4.571   4.246   0.155 -0.2327 -0.9507 -0.3596
  401MPD2    N1 5998   0.022   4.671   0.116 -0.3049 -0.1445 -0.0195
  401MPD2    H7 5999   0.080   4.623   0.184  0.7027  0.1871 -0.6478
  402TMC3    C1 6000   4.394   4.072   0.137 -0.1948 -0.2309  0.2361
  402TMC3    C2 6001   4.398   4.151   0.251  0.5487  0.0983 -0.2377
  402TMC3    C3 6002   4.467   4.104   0.360  0.4617  0.4557  0.3575
  402TMC3    C4 6003   4.470   3.960   0.124  0.1832  0.5853 -0.6135
  402TMC3    C5 6004   4.541   3.926   0.237 -1.1574  0.0028  0.0040
  402TMC3    C6 6005   4.541   3.994   0.355 -0.2500 -0.6021  0.4650
  402TMC3     C 6006   4.431   4.159   0.029 -0.4071 -0.4358 -0.2030
  402TMC3     O 6007   4.392   4.134  17.612 -0.1176 -0.3181  0.1745
  402TMC3     H 6008   4.340   4.243   0.252 -0.7029 -0.6602 -2.2360
  402TMC3    H1 6009   4.489   3.920   0.025 -1.0657 -1.8230  0.1044
  402TMC3    H2 6010   4.591   3.957   0.445  0.5180 -0.2110  0.1987
  402TMC3    C7 6011   4.634   3.813   0.219  0.2103  0.4803 -0.0305
  402TMC3    C8 6012   4.500   4.201   0.464 -0.1506  0.2500  0.2276
  402TMC3    O1 6013   4.635   3.748   0.116 -0.0268  0.1294 -0.0703
  402TMC3    O2 6014   4.555   4.159   0.565  0.1321  0.2213 -0.3852
  403MPD2     C 6015   3.033   3.182  13.277  0.5092  0.6442  0.3369
  403MPD2    C1 6016   3.071   3.054  13.318  0.2909  0.1803 -0.5659
  403MPD2    C2 6017   3.178   3.044  13.404  1.3246 -0.0632  0.6238
  403MPD2    C3 6018   3.242   3.159  13.461  0.2349  1.0710 -0.2681
  403MPD2    C4 6019   3.197   3.283  13.422 -0.8315  0.3889  0.5182
  403MPD2    C5 6020   3.092   3.292  13.334  0.2867 -0.0377  0.9477
  403MPD2     H 6021   3.220   2.947  13.428  1.2839  0.2232  1.8490
  403MPD2    H1 6022   3.237   3.380  13.451 -1.7335  0.6809  0.8247
  403MPD2    H2 6023   2.959   3.200  13.200 -0.1280 -0.6246  0.6518
  403MPD2    H3 6024   3.068   3.389  13.292  2.4159  0.7065  1.4463
  403MPD2     N 6025   3.363   3.143  13.544  0.2796  0.2504  0.0054
  403MPD2    H5 6026   3.399   3.049  13.558 -0.9528 -0.5020 -1.7534
  403MPD2    N1 6027   2.990   2.940  13.278 -0.2221 -0.2547 -0.8416
  403MPD2    H7 6028   2.920   2.958  13.207 -1.4156 -0.0974  0.3639
  404TMC3    C1 6029   2.920   2.714  13.276  0.3912  0.2163  0.2651
  404TMC3    C2 6030   2.873   2.608  13.345  0.1595  0.7785 -0.3931
  404TMC3    C3 6031   2.825   2.501  13.272  0.4621 -0.0172 -0.2713
  404TMC3    C4 6032   2.915   2.726  13.145 -0.4682 -0.1413  0.5516
  404TMC3    C5 6033   2.869   2.621  13.074 -1.1361 -0.7194  0.7524
  404TMC3    C6 6034   2.824   2.503  13.137  0.4816  0.1125  0.7754
  404TMC3     C 6035   3.005   2.813  13.330  0.1095 -0.2263 -0.1110
  404TMC3     O 6036   3.069   2.782  13.433 -0.0141 -0.1120 -0.1633
  404TMC3     H 6037   2.885   2.610  13.453 -1.8017  0.1957 -0.1668
  404TMC3    H1 6038   2.961   2.812  13.097 -0.9965  0.0212  0.3252
  404TMC3    H2 6039   2.803   2.414  13.079 -0.4768 -0.3793  1.8743
  404TMC3    C7 6040   2.872   2.637  12.930  0.1436 -0.0705 -0.1235
  404TMC3    C8 6041   2.850   2.372  13.335 -0.4272  0.2333  0.2733
  404TMC3    O1 6042   2.938   2.735  12.893  0.6690 -0.2661 -0.3383
  404TMC3    O2 6043   2.875   2.282  13.259  0.4516  0.3253 -0.7294
  405MPD2     C 6044   3.531   3.242  15.018  0.3877  0.9465  0.6496
  405MPD2    C1 6045   3.467   3.218  14.897  0.6463 -0.3923 -0.4073
  405MPD2    C2 6046   3.472   3.310  14.800  0.3808 -1.0083  0.1235
  405MPD2    C3 6047   3.533   3.431  14.814 -0.9279  0.7405  0.6461
  405MPD2    C4 6048   3.601   3.454  14.931 -0.4901 -0.7303 -0.0048
  405MPD2    C5 6049   3.601   3.362  15.034 -0.1318 -0.7013  0.3880
  405MPD2     H 6050   3.419   3.302  14.706 -0.3055 -1.2678  0.5289
  405MPD2    H1 6051   3.666   3.540  14.942 -1.6498  0.3924 -2.0657
  405MPD2    H2 6052   3.533   3.170  15.099  0.2040 -0.2449 -0.4026
  405MPD2    H3 6053   3.638   3.387  15.132 -0.1723  2.5496 -0.4237
  405MPD2     N 6054   3.514   3.519  14.708 -0.5412 -0.2326  0.3928
  405MPD2    H5 6055   3.451   3.492  14.633  0.7273  0.2148 -0.8281
  405MPD2    N1 6056   3.411   3.093  14.875  0.6112 -0.7554  0.2377
  405MPD2    H7 6057   3.432   3.020  14.942  0.0970  0.2515  1.5027
  406TMC3    C1 6058   3.433   3.859  14.458 -0.4361  0.0146  0.5288
  406TMC3    C2 6059   3.421   3.780  14.346  0.0997  0.0309  0.0379
  406TMC3    C3 6060   3.483   3.656  14.355 -0.2453 -0.4503 -0.1511
  406TMC3    C4 6061   3.487   3.820  14.576  0.5743  0.8356 -0.0126
  406TMC3    C5 6062   3.544   3.696  14.579 -0.2500  0.2763 -0.1143
  406TMC3    C6 6063   3.543   3.606  14.470 -0.1451  0.1548  0.5775
  406TMC3     C 6064   3.347   3.974  14.453  0.7805  0.0542 -0.0533
  406TMC3     O 6065   3.345   4.052  14.357 -0.4847 -0.5737 -0.6766
  406TMC3     H 6066   3.368   3.802  14.253  0.1926  4.1154  0.9862
  406TMC3    H1 6067   3.490   3.888  14.660  1.2997 -0.2906  0.8770
  406TMC3    H2 6068   3.603   3.517  14.458 -1.2881 -0.4878 -0.4534
  406TMC3    C7 6069   3.580   3.641  14.700  0.4057 -0.1778  0.0886
  406TMC3    C8 6070   3.442   3.557  14.255 -0.8963  0.4338  0.1466
  406TMC3    O1 6071   3.631   3.712  14.790 -0.3993  0.0906 -0.0381
  406TMC3    O2 6072   3.393   3.588  14.147 -0.1587 -0.4792 -0.2014
  407MPD2     C 6073   1.617   0.705   9.420 -0.1882 -0.0243  0.5141
  407MPD2    C1 6074   1.613   0.587   9.492  0.4052  0.1579 -0.1711
  407MPD2    C2 6075   1.565   0.601   9.620  0.0542  0.2771 -0.5584
  407MPD2    C3 6076   1.520   0.722   9.675 -0.2165 -0.6157 -0.0195
  407MPD2    C4 6077   1.531   0.837   9.601  0.8079  0.5136  0.2464
  407MPD2    C5 6078   1.583   0.827   9.476  0.9070  0.1755  0.1908
  407MPD2     H 6079   1.564   0.520   9.692  3.4739  1.4634  0.8254
  407MPD2    H1 6080   1.485   0.929   9.634  0.4126 -0.0106  1.1487
  407MPD2    H2 6081   1.638   0.715   9.314  0.4330  2.2031  0.8370
  407MPD2    H3 6082   1.580   0.913   9.410 -0.7357  0.1229  0.2191
  407MPD2     N 6083   1.466   0.733   9.813 -0.0496 -0.5398  0.6553
  407MPD2    H5 6084   1.457   0.830   9.840  2.9354  0.5312 -2.2342
  407MPD2    N1 6085   1.664   0.459   9.445  0.0311  0.3498 -0.3880
  407MPD2    H7 6086   1.677   0.382   9.510 -4.8468  0.5288  0.7953
  408TMC3    C1 6087   1.816   0.317   9.327 -0.1042 -1.2686 -0.1442
  408TMC3    C2 6088   1.750   0.220   9.406  0.4117 -0.5386 -0.7594
  408TMC3    C3 6089   1.826   0.122   9.466 -0.7129 -0.5161 -0.3975
  408TMC3    C4 6090   1.955   0.325   9.323 -0.3676  0.4677 -0.0727
  408TMC3    C5 6091   2.020   0.232   9.395 -0.1132  0.4738 -0.0113
  408TMC3    C6 6092   1.960   0.128   9.458 -0.1706  0.1213  0.1525
  408TMC3     C 6093   1.747   0.451   9.333 -0.4802  0.1834  0.3154
  408TMC3     O 6094   1.769   0.538   9.245 -0.0352 -0.5293  0.2835
  408TMC3     H 6095   1.643   0.214   9.425  0.5054  0.3815  0.0839
  408TMC3    H1 6096   2.000   0.419   9.293 -1.3878  1.1337  0.4842
  408TMC3    H2 6097   2.020   0.057   9.513 -1.1788 -2.6764 -2.3392
  408TMC3    C7 6098   2.159   0.241   9.419  1.0437 -0.0386 -0.3593
  408TMC3    C8 6099   1.758   0.050   9.568  0.4063 -0.0343  0.1702
  408TMC3    O1 6100   2.198   0.183   9.519 -0.0300 -0.5518 -0.2026
  408TMC3    O2 6101   1.638   0.049   9.579 -0.5878  0.4337 -0.2471
  409MPD2     C 6102   0.939   1.069  16.756 -0.1986  0.0532 -0.5208
  409MPD2    C1 6103   0.988   1.134  16.864 -0.0539  0.0524  0.0520
  409MPD2    C2 6104   1.006   1.273  16.859  0.4941  0.6776 -0.0256
  409MPD2    C3 6105   0.998   1.342  16.740  0.5036 -0.2100  0.5009
  409MPD2    C4 6106   0.946   1.278  16.630 -0.7424 -0.0651 -0.5168
  409MPD2    C5 6107   0.908   1.142  16.642  1.1464 -0.0600 -0.3521
  409MPD2     H 6108   1.051   1.314  16.948 -2.2153 -0.3490  1.8381
  409MPD2    H1 6109   0.924   1.334  16.539  1.5430 -0.6116 -1.4152
  409MPD2    H2 6110   0.928   0.961  16.754 -1.7469  0.2135 -0.4234
  409MPD2    H3 6111   0.875   1.087  16.555 -3.5417  4.0811 -1.2084
  409MPD2     N 6112   1.036   1.476  16.727 -0.1901 -0.1964  0.3914
  409MPD2    H5 6113   1.051   1.515  16.634 -1.4496 -0.8846 -0.1013
  409MPD2    N1 6114   1.037   1.068  16.980 -0.0018 -0.0155 -0.1300
  409MPD2    H7 6115   1.084   1.122  17.052  0.1853 -1.5064  0.8805
  410TMC3    C1 6116   1.115   1.689  16.799 -0.0117 -0.4522 -0.7202
  410TMC3    C2 6117   1.167   1.756  16.905 -1.1038  0.3573 -0.2452
  410TMC3    C3 6118   1.282   1.828  16.884 -0.2020  0.2890 -0.4090
  410TMC3    C4 6119   1.173   1.703  16.673 -0.1280  0.6175  0.2454
  410TMC3    C5 6120   1.279   1.791  16.656 -0.2694 -0.4776  0.8870
  410TMC3    C6 6121   1.329   1.857  16.760 -0.3470 -0.5776 -0.0758
  410TMC3     C 6122   1.066   1.559  16.836 -0.4206 -0.9367  0.1703
  410TMC3     O 6123   1.080   1.539  16.953  0.2128  0.0409 -0.6220
  410TMC3     H 6124   1.141   1.740  17.009 -0.9019  1.5651 -0.0033
  410TMC3    H1 6125   1.134   1.649  16.587  0.2986 -1.5541  1.4122
  410TMC3    H2 6126   1.425   1.907  16.752  0.5046 -2.4036 -1.4039
  410TMC3    C7 6127   1.302   1.848  16.525  0.1211  0.1134 -0.1541
  410TMC3    C8 6128   1.397   1.775  16.958 -0.2274  0.7012 -0.0378
  410TMC3    O1 6129   1.304   1.780  16.423  0.6456 -0.4603  0.2987
  410TMC3    O2 6130   1.500   1.845  16.962  0.1624  0.2232 -0.5397
  411MPD2     C 6131   1.429   1.690  14.548  0.5569  0.6256 -0.0776
  411MPD2    C1 6132   1.311   1.655  14.479  0.4102 -0.2562 -0.7252
  411MPD2    C2 6133   1.325   1.560  14.384 -0.2563  0.4802 -0.9340
  411MPD2    C3 6134   1.442   1.487  14.369 -0.6279  0.1698  0.6500
  411MPD2    C4 6135   1.546   1.505  14.453  0.1438  1.1798 -0.2922
  411MPD2    C5 6136   1.538   1.613  14.541  0.6085  0.9211 -0.0435
  411MPD2     H 6137   1.245   1.542  14.313 -0.2926  2.8567 -1.4843
  411MPD2    H1 6138   1.639   1.450  14.455 -1.2248 -1.1555 -0.9281
  411MPD2    H2 6139   1.428   1.776  14.614  0.3034 -1.9669  3.2684
  411MPD2    H3 6140   1.626   1.640  14.597  0.9940  0.6851 -0.5345
  411MPD2     N 6141   1.450   1.405  14.255  0.0909  0.0403 -0.2492
  411MPD2    H5 6142   1.366   1.417  14.199 -0.5365 -0.4917  0.5817
  411MPD2    N1 6143   1.195   1.725  14.499 -0.1194  0.2547  0.0825
  411MPD2    H7 6144   1.212   1.809  14.555 -0.3926 -1.0763  2.1609
  412TMC3    C1 6145   1.516   1.235  14.118 -0.0589  0.0174  0.0392
  412TMC3    C2 6146   1.488   1.106  14.147 -0.4893 -0.3081 -0.2357
  412TMC3    C3 6147   1.435   1.032  14.047 -0.5162  0.3571  0.1709
  412TMC3    C4 6148   1.480   1.293  14.002 -0.4601 -0.0606  0.4833
  412TMC3    C5 6149   1.442   1.210  13.900 -0.7621  0.3071  0.1018
  412TMC3    C6 6150   1.428   1.074  13.920 -0.1004  0.2815  0.3096
  412TMC3     C 6151   1.546   1.312  14.231  0.2368 -0.0989  0.4347
  412TMC3     O 6152   1.622   1.265  14.315 -0.2025  0.2571 -0.0679
  412TMC3     H 6153   1.483   1.074  14.251  2.9369 -2.1873 -0.6467
  412TMC3    H1 6154   1.501   1.398  13.982  2.6698 -0.1694  3.1277
  412TMC3    H2 6155   1.404   1.000  13.845  2.8281 -0.8355  0.4759
  412TMC3    C7 6156   1.350   1.257  13.796  0.0156  0.5443  0.8339
  412TMC3    C8 6157   1.322   0.953  14.080  0.2878  0.0819  0.3841
  412TMC3    O1 6158   1.289   1.177  13.722  0.2580 -0.2168 -0.1077
  412TMC3    O2 6159   1.310   0.912  14.193 -0.3944  0.8634  0.7238
  413MPD2     C 6160   2.825   0.352  15.555  0.1111 -0.6910 -0.4348
  413MPD2    C1 6161   2.713   0.273  15.561 -0.8092 -0.1099  0.2742
  413MPD2    C2 6162   2.730   0.135  15.557  0.6239  0.5498  0.6791
  413MPD2    C3 6163   2.859   0.085  15.570  0.3207  0.8449 -0.3471
  413MPD2    C4 6164   2.971   0.162  15.575 -0.4446 -0.9978  0.2139
  413MPD2    C5 6165   2.951   0.301  15.573 -0.1688 -0.8646  0.2115
  413MPD2     H 6166   2.644   0.071  15.547  1.6416 -1.0174  2.0016
  413MPD2    H1 6167   3.074   0.127  15.581 -0.9016 -2.3384  0.3011
  413MPD2    H2 6168   2.807   0.459  15.549  0.9845 -0.5436 -0.3742
  413MPD2    H3 6169   3.037   0.368  15.569 -0.1026 -0.9343  0.4669
  413MPD2     N 6170   2.866   4.667  15.569 -0.2260  0.4637  0.1867
  413MPD2    H5 6171   2.783   4.610  15.566  0.4707 -0.6860  2.4985
  413MPD2    N1 6172   2.593   0.342  15.557  0.4979  0.7932  0.3131
  413MPD2    H7 6173   2.596   0.443  15.568  0.5430  0.7797  0.4257
  414TMC3    C1 6174   2.956   4.447  15.565 -0.0162 -0.4399 -0.0430
  414TMC3    C2 6175   3.060   4.363  15.591  0.4371 -0.3831 -0.1713
  414TMC3    C3 6176   3.053   4.230  15.555 -0.0581  0.0805  0.3718
  414TMC3    C4 6177   2.844   4.406  15.498 -0.0999  0.2757 -0.0432
  414TMC3    C5 6178   2.845   4.268  15.446  0.4837  0.8401  0.4607
  414TMC3    C6 6179   2.948   4.182  15.479  0.1510 -0.3859  0.2181
  414TMC3     C 6180   2.981   4.591  15.589 -0.5140 -0.3011  0.0889
  414TMC3     O 6181   3.094   4.623  15.623  0.1289 -0.0790  0.3100
  414TMC3     H 6182   3.141   4.405  15.650 -1.2374  0.6267  1.4140
  414TMC3    H1 6183   2.765   4.472  15.466 -0.5470 -0.2743 -0.0886
  414TMC3    H2 6184   2.947   4.080  15.445  0.0217 -0.0803 -0.6870
  414TMC3    C7 6185   2.742   4.230  15.357  0.0948 -0.2556 -0.1406
  414TMC3    C8 6186   3.179   4.157  15.539  0.8007  0.4045 -0.1114
  414TMC3    O1 6187   2.633   4.264  15.407 -0.2679  0.0717  0.0890
  414TMC3    O2 6188   3.191   4.066  15.452  0.0873  0.7910  0.2714
  415TMC3    C1 6189   2.873   1.857  10.399 -0.6633  0.2254 -0.1850
  415TMC3    C2 6190   2.998   1.909  10.386 -0.7579  0.3025  0.2165
  415TMC3    C3 6191   3.009   2.016  10.300 -0.0929  0.7608  0.7194
  415TMC3    C4 6192   2.766   1.908  10.332  0.2411 -0.7664 -0.1947
  415TMC3    C5 6193   2.784   2.003  10.232  0.2773 -0.4221  0.1554
  415TMC3    C6 6194   2.908   2.068  10.224  0.9479  1.6010 -0.0196
  415TMC3     C 6195   2.847   1.753  10.501  0.6273 -0.6446 -0.4965
  415TMC3     O 6196   2.730   1.712  10.488 -0.1239  0.3073 -0.0927
  415TMC3     H 6197   3.075   1.886  10.459  0.8238  1.0171 -1.2276
  415TMC3    H1 6198   2.667   1.865  10.347 -0.5544  1.2606  0.3945
  415TMC3    H2 6199   2.922   2.160  10.169 -2.6525  2.7547  1.0341
  415TMC3    C7 6200   2.678   2.043  10.146 -0.1230 -1.3833  0.4258
  415TMC3    C8 6201   3.141   2.068  10.283  0.0362 -0.4080  0.2771
  415TMC3    O1 6202   2.698   2.133  10.071 -0.5158 -0.2151  0.2043
  415TMC3    O2 6203   3.230   2.027  10.358  0.2919 -0.4316 -0.6606
  416MPD2     C 6204   4.525   1.581  11.695  0.0061 -0.5541 -0.0273
  416MPD2    C1 6205   4.504   1.480  11.789 -0.3783 -0.0818  0.5983
  416MPD2    C2 6206   4.533   1.349  11.744  0.7094  0.0172 -0.2366
  416MPD2    C3 6207   4.583   1.323  11.616 -0.5947 -0.0517  0.1344
  416MPD2    C4 6208   4.586   1.423  11.526 -0.3254  0.4720  0.3286
  416MPD2    C5 6209   4.563   1.551  11.567 -0.5072 -0.2488 -0.9159
  416MPD2     H 6210   4.509   1.257  11.795  1.2419  0.0601  0.0868
  416MPD2    H1 6211   4.625   1.412  11.426 -2.5403  0.1539 -0.5030
  416MPD2    H2 6212   4.493   1.685  11.704  1.2337 -0.0862 -1.1293
  416MPD2    H3 6213   4.565   1.630  11.492  0.8330  0.3947 -0.2172
  416MPD2     N 6214   4.613   1.192  11.582  0.3970  0.0491  0.8899
  416MPD2    H5 6215   4.612   1.127  11.660 -1.9197 -0.8684  0.1235
  416MPD2    N1 6216   4.457   1.509  11.914  0.1589 -0.3074 -0.3714
  416MPD2    H7 6217   4.446   1.608  11.938  1.4897 -0.0724 -0.7541
  417TMC3    C1 6218   4.299   1.497  12.094 -0.8676 -0.0474 -0.3143
  417TMC3    C2 6219   4.336   1.620  12.138  0.3441  0.4779 -0.8706
  417TMC3    C3 6220   4.244   1.697  12.197 -0.8870  0.0047 -0.5911
  417TMC3    C4 6221   4.170   1.454  12.090 -0.3371  0.0561 -0.4358
  417TMC3    C5 6222   4.078   1.549  12.120  0.2922 -0.3485  0.4012
  417TMC3    C6 6223   4.114   1.654  12.200  0.0506  0.4272  0.2728
  417TMC3     C 6224   4.396   1.423  12.003 -0.0863  0.2350  0.8594
  417TMC3     O 6225   4.368   1.303  11.988  0.3454 -0.0756  0.2655
  417TMC3     H 6226   4.441   1.643  12.150  0.0151  1.1318  0.6788
  417TMC3    H1 6227   4.148   1.385  12.010  1.7274 -1.6991  0.5138
  417TMC3    H2 6228   4.039   1.719  12.243 -1.2319 -0.6127 -0.3955
  417TMC3    C7 6229   3.992   1.585  12.011  0.2018 -0.1942 -0.1643
  417TMC3    C8 6230   4.295   1.802  12.287  0.2126  0.3280  0.7012
  417TMC3    O1 6231   4.021   1.693  11.971 -0.6639  0.4614  0.6485
  417TMC3    O2 6232   4.226   1.835  12.382 -0.3780 -0.2171  0.4677
  418TMC3    C1 6233   4.094   2.457   0.251  0.6637  0.1520 -0.1125
  418TMC3    C2 6234   4.003   2.558   0.266  0.5320  0.3166 -0.8941
  418TMC3    C3 6235   3.936   2.570   0.380 -0.2492  0.1496  0.2353
  418TMC3    C4 6236   4.128   2.381   0.356 -0.0811 -0.0739 -0.0386
  418TMC3    C5 6237   4.060   2.397   0.473  0.3782  0.6909  0.3342
  418TMC3    C6 6238   3.964   2.494   0.492  0.4609  0.3719 -0.3383
  418TMC3     C 6239   4.161   2.442   0.129 -0.2096 -0.4041 -0.3692
  418TMC3     O 6240   4.158   2.533   0.047  0.1752  0.3956  0.4356
  418TMC3     H 6241   3.989   2.633   0.190 -0.2876  0.8037 -0.2657
  418TMC3    H1 6242   4.201   2.302   0.345 -1.2764 -1.2951  0.7834
  418TMC3    H2 6243   3.893   2.502   0.574 -0.0087 -1.8555 -0.5438
  418TMC3    C7 6244   4.087   2.298   0.578 -0.1521 -0.1896 -0.2217
  418TMC3    C8 6245   3.793   2.618   0.368  0.1680 -0.1354 -0.5414
  418TMC3    O1 6246   4.110   2.183   0.548 -0.0145  0.5026 -0.7760
  418TMC3    O2 6247   3.770   2.720   0.426 -0.0695 -0.7195  0.8227
  419MPD2     C 6248   1.898   1.038  12.935 -0.5439  0.3940  0.3864
  419MPD2    C1 6249   1.882   1.171  12.897 -0.2293 -0.1282  0.1111
  419MPD2    C2 6250   1.857   1.263  12.998 -0.5216  0.1302 -0.3174
  419MPD2    C3 6251   1.845   1.219  13.125 -0.1965 -0.0289 -0.4135
  419MPD2    C4 6252   1.861   1.091  13.164  0.7184 -1.1467 -0.1640
  419MPD2    C5 6253   1.889   1.005  13.066 -1.0599 -0.0268 -0.3967
  419MPD2     H 6254   1.842   1.367  12.972  0.6806  0.7956  1.6168
  419MPD2    H1 6255   1.839   1.049  13.261  1.8373  0.8910  0.9799
  419MPD2    H2 6256   1.920   0.957  12.867  0.9200  0.6879  0.4988
  419MPD2    H3 6257   1.908   0.902  13.094  1.9062  0.7430  0.3924
  419MPD2     N 6258   1.806   1.317  13.216  0.4956 -0.1717 -0.2979
  419MPD2    H5 6259   1.804   1.411  13.177  0.4102  0.6268  1.6102
  419MPD2    N1 6260   1.896   1.220  12.763 -0.1223 -0.7730 -0.4328
  419MPD2    H7 6261   1.893   1.322  12.755  2.7596 -0.8439 -2.7347
  420TMC3    C1 6262   1.734   1.427  13.396 -0.1002  0.1379 -0.3623
  420TMC3    C2 6263   1.703   1.536  13.318  0.3861  0.3864 -0.4143
  420TMC3    C3 6264   1.733   1.662  13.371  0.1928  0.5459 -0.4456
  420TMC3    C4 6265   1.797   1.447  13.512  0.6116  0.0730  0.9121
  420TMC3    C5 6266   1.820   1.572  13.565 -0.0368 -0.1350  0.1510
  420TMC3    C6 6267   1.794   1.679  13.491 -0.4089 -0.0532 -0.1267
  420TMC3     C 6268   1.755   1.298  13.342  0.2301 -0.2714 -0.3293
  420TMC3     O 6269   1.743   1.198  13.410 -0.1008 -0.0249  0.1560
  420TMC3     H 6270   1.669   1.522  13.216 -0.5636 -0.3496  0.0019
  420TMC3    H1 6271   1.832   1.371  13.581 -2.2743 -1.2526  0.9349
  420TMC3    H2 6272   1.806   1.782  13.522  0.7603  0.0192 -0.8178
  420TMC3    C7 6273   1.950   1.570  13.623 -0.0610  0.4839  0.0012
  420TMC3    C8 6274   1.684   1.777  13.297  0.1059  0.5808 -0.1539
  420TMC3    O1 6275   2.034   1.487  13.582  0.4711 -0.4541  0.6089
  420TMC3    O2 6276   1.742   1.882  13.335  0.2801  0.1183 -0.0521
  421TMC3    C1 6277   3.531   3.194  13.691 -0.5888 -0.0548  0.7478
  421TMC3    C2 6278   3.607   3.291  13.759 -0.4646 -0.2188  0.7443
  421TMC3    C3 6279   3.698   3.255  13.855  0.1899  0.5606 -0.0417
  421TMC3    C4 6280   3.548   3.062  13.708  0.0801 -0.6134 -0.1639
  421TMC3    C5 6281   3.640   3.033  13.815 -0.2359  0.7930 -0.1915
  421TMC3    C6 6282   3.720   3.121  13.881 -0.1124  0.7614  0.9249
  421TMC3     C 6283   3.440   3.246  13.591 -0.3696  0.0187 -0.7736
  421TMC3     O 6284   3.429   3.369  13.572  0.3556  0.1981  0.3362
  421TMC3     H 6285   3.589   3.395  13.733 -0.0051 -0.1051  0.8804
  421TMC3    H1 6286   3.504   2.984  13.647  0.7297  0.0722 -1.5020
  421TMC3    H2 6287   3.793   3.092  13.956  1.4603  0.3295 -0.7615
  421TMC3    C7 6288   3.657   2.896  13.852  0.3635 -0.7911  0.7480
  421TMC3    C8 6289   3.785   3.348  13.917 -0.5026  0.3831 -0.7651
  421TMC3    O1 6290   3.749   2.870  13.924 -0.3063  0.3252  0.7051
  421TMC3    O2 6291   3.870   3.298  13.985  0.0192 -0.4496  0.2452
  422TMC3    C1 6292   1.256   4.236  12.993 -0.1533 -0.0472  0.1099
  422TMC3    C2 6293   1.217   4.368  12.999 -0.8005 -0.5190 -0.5354
  422TMC3    C3 6294   1.133   4.408  13.104 -0.2239 -0.1522 -0.7904
  422TMC3    C4 6295   1.208   4.140  13.080  0.0501 -0.1116 -0.4615
  422TMC3    C5 6296   1.125   4.187  13.180  0.1040  0.6966 -0.0167
  422TMC3    C6 6297   1.083   4.318  13.195 -0.0133 -0.0626 -0.8399
  422TMC3     C 6298   1.350   4.178  12.892  0.6979  0.0695  0.4825
  422TMC3     O 6299   1.360   4.234  12.781  0.2978  0.3889  0.0515
  422TMC3     H 6300   1.269   4.437  12.934 -3.0836  1.0038 -0.7414
  422TMC3    H1 6301   1.231   4.034  13.086 -3.2082 -0.7749  0.4464
  422TMC3    H2 6302   1.005   4.348  13.264  1.5379 -0.6938  1.2068
  422TMC3    C7 6303   1.016   4.087  13.184 -0.2902 -0.0776  0.1173
  422TMC3    C8 6304   1.085   4.547  13.128  0.2348  0.3690 -0.4851
  422TMC3    O1 6305   1.044   3.968  13.190 -0.2175 -0.0290  0.3668
  422TMC3    O2 6306   1.048   4.581  13.240 -0.2562 -0.9819 -0.1789
  423MPD2     C 6307   2.442   0.500   0.614  0.3979  0.1378 -0.5343
  423MPD2    C1 6308   2.466   0.380   0.676  0.3047 -0.4564  0.6840
  423MPD2    C2 6309   2.561   0.291   0.622 -0.3145 -0.0474  0.8687
  423MPD2    C3 6310   2.626   0.321   0.502 -0.5114 -0.4177 -0.3220
  423MPD2    C4 6311   2.601   0.444   0.445  0.4432  0.5157  0.0759
  423MPD2    C5 6312   2.510   0.528   0.500 -0.2392 -0.1328 -0.0353
  423MPD2     H 6313   2.568   0.187   0.652 -0.4681  0.0567  1.2725
  423MPD2    H1 6314   2.653   0.476   0.356 -0.0641  1.7325  0.2246
  423MPD2    H2 6315   2.366   0.567   0.654  2.9148  1.8407  1.3518
  423MPD2    H3 6316   2.495   0.626   0.455 -2.9991 -1.2106 -1.4999
  423MPD2     N 6317   2.711   0.233   0.425  0.7366  0.4381 -0.0099
  423MPD2    H5 6318   2.742   0.261   0.333  0.1039  0.5449 -0.1870
  423MPD2    N1 6319   2.390   0.357   0.788 -0.2516 -0.1708 -0.2762
  423MPD2    H7 6320   2.315   0.421   0.814 -0.4377  0.2258 -1.7685
  424TMC3    C1 6321   2.312   0.243   0.977 -0.0768 -0.5808 -0.2174
  424TMC3    C2 6322   2.340   0.161   1.083  0.1156 -0.0154  0.1906
  424TMC3    C3 6323   2.240   0.142   1.174  0.3087 -0.0658  0.3646
  424TMC3    C4 6324   2.186   0.279   0.943 -0.0687 -0.3606  0.2181
  424TMC3    C5 6325   2.085   0.253   1.035  0.1072 -0.0370  0.1771
  424TMC3    C6 6326   2.110   0.189   1.157  0.0512 -0.3090  0.0654
  424TMC3     C 6327   2.413   0.255   0.882 -0.8659 -0.3394  0.0106
  424TMC3     O 6328   2.508   0.179   0.886 -0.1727  0.0611  0.1705
  424TMC3     H 6329   2.440   0.123   1.100  0.5297 -0.1636 -2.5731
  424TMC3    H1 6330   2.151   0.294   0.841  1.7358 -0.1637 -0.3689
  424TMC3    H2 6331   2.029   0.159   1.222 -1.6044 -0.2498 -1.9533
  424TMC3    C7 6332   1.950   0.295   1.007 -0.3148  0.3384 -0.2236
  424TMC3    C8 6333   2.276   0.073   1.301  0.4516  0.0293  0.7877
  424TMC3    O1 6334   1.918   0.313   0.890 -1.3349  0.5507 -0.4095
  424TMC3    O2 6335   2.383   0.017   1.299  0.2196 -0.2707 -0.5366
  425MPD2     C 6336   1.950   4.643  17.351 -0.2545 -0.1377  0.1655
  425MPD2    C1 6337   1.862   4.544  17.310 -0.0098  1.0553 -0.1797
  425MPD2    C2 6338   1.727   4.570  17.316  0.5921 -0.0213 -0.6260
  425MPD2    C3 6339   1.681   4.694  17.349 -0.7791 -0.6481 -0.6068
  425MPD2    C4 6340   1.764   0.075  17.378 -0.5203  0.2535 -0.7724
  425MPD2    C5 6341   1.896   0.044  17.376 -0.0584 -0.6087  0.8485
  425MPD2     H 6342   1.660   4.494  17.278 -0.1329  0.4758 -0.3578
  425MPD2    H1 6343   1.731   0.167  17.423  0.8317 -0.3124  1.3745
  425MPD2    H2 6344   2.056   4.625  17.355  0.0433  1.5473  0.0821
  425MPD2    H3 6345   1.963   0.119  17.417  0.4368  0.2535 -1.5301
  425MPD2     N 6346   1.545   4.712  17.370  0.1039 -0.0729  0.0312
  425MPD2    H5 6347   1.490   4.630  17.348 -1.1924  1.1310 -1.1959
  425MPD2    N1 6348   1.910   4.417  17.267  0.5759 -0.0275  0.2538
  425MPD2    H7 6349   2.010   4.400  17.279  0.7863  2.2084  1.6089
  426TMC3    C1 6350   1.898   4.191  17.200 -0.3564  0.3341  0.8230
  426TMC3    C2 6351   1.866   4.108  17.094 -0.6595  0.0295  0.6600
  426TMC3    C3 6352   1.930   3.980  17.099  0.6498 -0.7251 -0.6446
  426TMC3    C4 6353   1.959   4.152  17.316  0.3708  0.0888  0.2186
  426TMC3    C5 6354   2.015   4.028  17.313  0.8002 -0.1923 -0.4221
  426TMC3    C6 6355   2.002   3.943  17.205 -0.1033 -0.8104 -0.0699
  426TMC3     C 6356   1.833   4.320  17.198 -0.0710 -0.6448 -0.5570
  426TMC3     O 6357   1.725   4.330  17.146 -0.5551  0.0272 -0.0666
  426TMC3     H 6358   1.804   4.144  17.013 -1.2766  0.3347  1.2648
  426TMC3    H1 6359   2.011   4.222  17.380  0.4013  1.2991 -1.1359
  426TMC3    H2 6360   2.034   3.841  17.221  1.0207 -0.5977 -1.0339
  426TMC3    C7 6361   2.086   3.978  17.426 -0.1173  0.0749  0.4005
  426TMC3    C8 6362   1.919   3.882  16.994 -0.6321  0.0393  0.0062
  426TMC3    O1 6363   2.155   3.877  17.410  0.0107  0.4651  0.4215
  426TMC3    O2 6364   2.000   3.794  16.993 -0.3026  0.3224  0.3097
  427MPD2     C 6365   0.188   2.214  15.322 -0.7495 -0.0165 -0.0587
  427MPD2    C1 6366   0.167   2.101  15.258 -0.5616  1.3397  0.8560
  427MPD2    C2 6367   0.043   2.064  15.218  1.2532  0.4805 -0.0290
  427MPD2    C3 6368   4.657   2.144  15.252  0.1636 -0.4767  0.1771
  427MPD2    C4 6369   4.682   2.264  15.324  0.7250  0.8145 -0.1576
  427MPD2    C5 6370   0.085   2.297  15.357 -0.3410 -0.0011 -0.5964
  427MPD2     H 6371   0.033   1.974  15.158 -0.3267 -0.5792  1.8153
  427MPD2    H1 6372   4.600   2.329  15.348 -0.4947 -1.2162  1.1675
  427MPD2    H2 6373   0.288   2.251  15.347 -1.0143  1.1454 -0.6919
  427MPD2    H3 6374   0.112   2.387  15.411 -0.2404 -2.0721  2.7693
  427MPD2     N 6375   4.524   2.108  15.222 -0.2859  0.2156 -0.0229
  427MPD2    H5 6376   4.449   2.163  15.262  1.2538 -1.0377  4.5392
  427MPD2    N1 6377   0.274   2.010  15.234  0.2189 -0.0596  0.3943
  427MPD2    H7 6378   0.245   1.940  15.167  0.9015 -0.4750  0.5287
  428TMC3    C1 6379   0.466   1.875  15.262  0.6519 -0.4327 -1.3414
  428TMC3    C2 6380   0.393   1.779  15.206 -0.8071 -0.3089  0.3683
  428TMC3    C3 6381   0.453   1.662  15.168  0.2870  0.1317 -0.0506
  428TMC3    C4 6382   0.597   1.850  15.299 -0.6420 -0.1602  0.2151
  428TMC3    C5 6383   0.655   1.735  15.258  0.6607 -0.5313  0.0502
  428TMC3    C6 6384   0.586   1.642  15.185 -0.5590  0.6591 -1.1638
  428TMC3     C 6385   0.393   1.997  15.300  0.7554  0.0395 -0.1014
  428TMC3     O 6386   0.451   2.079  15.371  0.3588 -0.1023 -0.5542
  428TMC3     H 6387   0.285   1.783  15.214 -0.9675 -0.6308 -1.7019
  428TMC3    H1 6388   0.651   1.918  15.363 -1.5155  1.1163 -0.4031
  428TMC3    H2 6389   0.621   1.540  15.172 -1.1836  0.3721 -0.5962
  428TMC3    C7 6390   0.799   1.740  15.253 -0.0456 -0.1414 -0.4871
  428TMC3    C8 6391   0.365   1.541  15.151  0.9088  0.5890 -0.2875
  428TMC3    O1 6392   0.851   1.820  15.328 -0.7707 -0.6086  0.5408
  428TMC3    O2 6393   0.421   1.436  15.171  0.2034 -0.0127  0.5628
  429MPD2     C 6394   1.790   2.165   0.071 -0.3761 -0.1545  0.2859
  429MPD2    C1 6395   1.762   2.065  17.675  0.0642 -0.1938  0.8197
  429MPD2    C2 6396   1.776   2.107  17.539 -0.3050 -0.2338 -0.0553
  429MPD2    C3 6397   1.831   2.221  17.495 -0.7182  0.3149  0.5151
  429MPD2    C4 6398   1.866   2.314  17.593  0.2612  0.6037  0.2075
  429MPD2    C5 6399   1.853   2.278   0.030  0.3054 -0.6547 -0.6407
  429MPD2     H 6400   1.749   2.041  17.457 -0.9124  0.7484 -0.6331
  429MPD2    H1 6401   1.912   2.410  17.576 -1.7361  1.8276  1.5955
  429MPD2    H2 6402   1.764   2.148   0.175 -2.2182  1.2873  0.0666
  429MPD2    H3 6403   1.885   2.348   0.107  2.3218 -3.0413  0.6958
  429MPD2     N 6404   1.847   2.243  17.355 -0.6168 -0.0566 -0.2483
  429MPD2    H5 6405   1.841   2.163  17.294  2.0800 -0.1398 -0.3912
  429MPD2    N1 6406   1.733   1.933   0.011  0.4339  0.0959  0.1579
  429MPD2    H7 6407   1.719   1.867  17.631 -3.5446  0.7018  0.3790
  430TMC3    C1 6408   1.930   2.351  17.163  0.4296 -0.2523 -0.3842
  430TMC3    C2 6409   1.938   2.469  17.089 -0.3245  0.6311  0.0708
  430TMC3    C3 6410   1.931   2.459  16.948  0.0899 -0.0743 -0.3054
  430TMC3    C4 6411   1.928   2.226  17.106 -0.9958  0.1014  0.1369
  430TMC3    C5 6412   1.932   2.221  16.968 -0.6360 -0.0767  0.1701
  430TMC3    C6 6413   1.932   2.337  16.886 -1.1657  0.2203  0.6894
  430TMC3     C 6414   1.892   2.361  17.303  0.3403  0.4633 -0.0478
  430TMC3     O 6415   1.925   2.470  17.355 -0.2934  0.3091 -0.4051
  430TMC3     H 6416   1.921   2.565  17.137 -0.4313 -0.1985  1.6861
  430TMC3    H1 6417   1.941   2.131  17.157 -0.7419 -1.6378 -3.1642
  430TMC3    H2 6418   1.946   2.333  16.779  3.4591 -1.6661  1.3509
  430TMC3    C7 6419   1.902   2.089  16.914  0.6028 -0.0868 -0.6473
  430TMC3    C8 6420   1.851   2.556  16.871  0.6224  0.2805 -0.3741
  430TMC3    O1 6421   1.918   1.989  16.982 -0.4582 -0.0493  0.1665
  430TMC3    O2 6422   1.779   2.507  16.784  0.1707  0.1175  0.1161
  431MPD2     C 6423   1.775   2.012  12.752 -0.1145 -0.0156 -0.3441
  431MPD2    C1 6424   1.864   1.990  12.647  0.3225  0.5063 -0.4015
  431MPD2    C2 6425   1.873   1.872  12.580 -0.1279 -0.0962  0.6181
  431MPD2    C3 6426   1.798   1.766  12.630  0.1931  0.0316  0.7170
  431MPD2    C4 6427   1.703   1.790  12.723  0.1756 -0.5846  0.3753
  431MPD2    C5 6428   1.685   1.913  12.785 -0.8947  0.8047  0.3535
  431MPD2     H 6429   1.950   1.858  12.505 -0.1353 -0.0691  0.6056
  431MPD2    H1 6430   1.640   1.706  12.751 -0.0196 -0.6544 -0.2824
  431MPD2    H2 6431   1.775   2.110  12.798  0.8474 -0.4815  0.6425
  431MPD2    H3 6432   1.599   1.931  12.848  0.3156 -0.9550  2.5079
  431MPD2     N 6433   1.800   1.638  12.571 -0.0055  0.0713 -1.0365
  431MPD2    H5 6434   1.735   1.567  12.602 -0.5442  1.7472  1.6258
  431MPD2    N1 6435   1.938   2.102  12.609 -0.0710 -0.0007  0.2136
  431MPD2    H7 6436   1.938   2.179  12.676 -0.1799  0.0060  0.2066
  432TMC3    C1 6437   1.858   1.455  12.443  0.0468  0.1220  0.1803
  432TMC3    C2 6438   1.901   1.414  12.321  0.1135  0.7681  0.4940
  432TMC3    C3 6439   1.953   1.289  12.309 -0.0356 -0.0484 -0.4293
  432TMC3    C4 6440   1.851   1.366  12.549 -0.3035  0.5958 -0.5004
  432TMC3    C5 6441   1.908   1.239  12.533  0.8484  0.0972 -0.9345
  432TMC3    C6 6442   1.957   1.199  12.414 -0.1511 -0.3330  0.4718
  432TMC3     C 6443   1.882   1.591  12.470 -0.4957  0.1381  0.0719
  432TMC3     O 6444   1.965   1.644  12.395 -0.0498 -0.5015 -1.1651
  432TMC3     H 6445   1.898   1.486  12.240 -2.1352  1.3397  1.1004
  432TMC3    H1 6446   1.801   1.395  12.641 -1.1180 -1.8476 -0.1629
  432TMC3    H2 6447   2.010   1.107  12.398  2.0379  1.1421 -0.6901
  432TMC3    C7 6448   1.911   1.151  12.646  0.2488  0.0719  0.6991
  432TMC3    C8 6449   2.052   1.260  12.208 -0.9491 -0.4507  0.2129
  432TMC3    O1 6450   1.949   1.040  12.626 -0.0277 -0.6337 -0.3324
  432TMC3    O2 6451   2.098   1.147  12.200  0.3042  0.4972 -0.5633
  433MPD2     C 6452   1.027   1.109  10.843  0.5496 -0.6508  1.0987
  433MPD2    C1 6453   0.996   1.000  10.925 -0.2529 -0.8427 -0.6752
  433MPD2    C2 6454   1.012   1.016  11.056 -0.1471 -0.2322  0.9862
  433MPD2    C3 6455   1.049   1.135  11.117 -0.8934 -0.6157  0.0892
  433MPD2    C4 6456   1.074   1.243  11.034  0.2579  0.7187  0.4244
  433MPD2    C5 6457   1.061   1.221  10.900  0.3020  0.5715 -0.4512
  433MPD2     H 6458   0.977   0.940  11.124  2.5208  0.0590  2.6625
  433MPD2    H1 6459   1.100   1.341  11.071 -0.1424  1.2550 -0.7307
  433MPD2    H2 6460   1.015   1.105  10.735 -2.1973  1.2624  1.3152
  433MPD2    H3 6461   1.088   1.305  10.837  0.2981  0.8669 -0.0575
  433MPD2     N 6462   1.058   1.141  11.269 -0.3340  0.0702  0.1139
  433MPD2    H5 6463   1.035   1.052  11.312  1.0272 -0.3046  0.0479
  433MPD2    N1 6464   0.975   0.877  10.856  0.0513  0.3335  0.3304
  433MPD2    H7 6465   0.991   0.865  10.756 -0.7775 -1.2615  0.3886
  434TMC3    C1 6466   1.020   0.641  10.831 -0.8564 -0.2503 -0.0003
  434TMC3    C2 6467   1.072   0.533  10.895 -0.0739 -0.0193 -0.0742
  434TMC3    C3 6468   1.173   0.462  10.847 -0.3754 -0.2557  0.2600
  434TMC3    C4 6469   1.078   0.676  10.713 -0.1705 -0.4003  0.8418
  434TMC3    C5 6470   1.174   0.595  10.662  0.1341  0.2893 -0.0913
  434TMC3    C6 6471   1.230   0.496  10.730  0.2125  0.0066  0.1270
  434TMC3     C 6472   0.980   0.750  10.921 -0.3486 -0.1378 -0.4945
  434TMC3     O 6473   0.973   0.727  11.040  0.1880 -0.1069  0.3211
  434TMC3     H 6474   1.025   0.510  10.990  1.7237  0.1515  0.8489
  434TMC3    H1 6475   1.022   0.748  10.654  1.8309 -0.7816 -1.5452
  434TMC3    H2 6476   1.329   0.465  10.700  0.9116  2.6786 -0.2831
  434TMC3    C7 6477   1.182   0.594  10.516  0.5264  0.1264  0.1093
  434TMC3    C8 6478   1.247   0.393  10.951 -0.1223  0.3301  0.1332
  434TMC3    O1 6479   1.169   0.698  10.454  0.3342 -0.4102  0.0327
  434TMC3    O2 6480   1.212   0.420  11.065 -0.1095  0.0173 -0.1895
  435MPD2     C 6481   3.109   0.559  15.818  0.4741 -0.0712  0.4063
  435MPD2    C1 6482   3.095   0.447  15.894 -0.2939  0.6453  0.3505
  435MPD2    C2 6483   3.203   0.376  15.939  0.4898 -0.1548 -0.4586
  435MPD2    C3 6484   3.328   0.421  15.918 -0.1956  0.1595  0.6261
  435MPD2    C4 6485   3.346   0.529  15.831  0.2539  0.1542  0.0410
  435MPD2    C5 6486   3.235   0.597  15.788  0.5306 -0.1894  0.2805
  435MPD2     H 6487   3.180   0.294  16.006 -0.8442 -0.4968 -1.3163
  435MPD2    H1 6488   3.444   0.570  15.811  1.0115 -2.7796 -2.2506
  435MPD2    H2 6489   3.026   0.617  15.780  0.0294 -0.4206  0.8378
  435MPD2    H3 6490   3.242   0.687  15.729  2.2149  0.2805  1.2046
  435MPD2     N 6491   3.436   0.354  15.980 -0.4465  0.2563 -0.5107
  435MPD2    H5 6492   3.414   0.301  16.064  1.4971  1.5492  0.8112
  435MPD2    N1 6493   2.969   0.393  15.931 -0.3073  0.1418 -0.2740
  435MPD2    H7 6494   2.966   0.304  15.979  0.4039 -0.6360 -1.6792
  436TMC3    C1 6495   2.526   0.265  15.972 -0.1239  0.2476  1.0899
  436TMC3    C2 6496   2.618   0.368  15.950 -0.8625 -0.0381  0.4146
  436TMC3    C3 6497   2.751   0.335  15.914 -0.3172 -0.2139 -0.3361
  436TMC3    C4 6498   2.561   0.136  15.939  0.2055 -0.6449 -0.2263
  436TMC3    C5 6499   2.693   0.111  15.892  0.3360 -0.4612  0.1624
  436TMC3    C6 6500   2.792   0.203  15.896 -0.1334  0.1631  0.2393
  436TMC3     C 6501   2.415   0.279  16.070  0.4932  0.8275  0.9296
  436TMC3     O 6502   2.323   0.200  16.053  0.0590  0.5029  0.7949
  436TMC3     H 6503   2.592   0.472  15.965  1.0142  0.3683  0.8595
  436TMC3    H1 6504   2.493   0.052  15.954 -1.7598  0.6612 -1.7439
  436TMC3    H2 6505   2.887   0.177  15.852 -0.5136  0.6946 -0.9188
  436TMC3    C7 6506   2.742   4.698  15.887  0.0846  0.7491  0.1489
  436TMC3    C8 6507   2.844   0.438  15.904 -0.4266 -1.0520 -0.6108
  436TMC3    O1 6508   2.858   4.684  15.923  0.4722  0.7884 -0.2492
  436TMC3    O2 6509   2.813   0.550  15.867  0.8666  0.0535  0.7187
  437TMC3    C1 6510   1.474   2.804  13.267 -0.1228  0.6033 -0.1022
  437TMC3    C2 6511   1.340   2.812  13.294  0.4032 -0.2970  0.0064
  437TMC3    C3 6512   1.263   2.909  13.236 -0.1267  0.6315 -0.2505
  437TMC3    C4 6513   1.531   2.871  13.165 -0.1189 -0.7521  0.2822
  437TMC3    C5 6514   1.446   2.957  13.093 -0.7292  0.8361 -0.2462
  437TMC3    C6 6515   1.316   2.976  13.129  0.1762 -0.3419  0.2188
  437TMC3     C 6516   1.555   2.694  13.317 -0.2924 -0.3549 -0.0553
  437TMC3     O 6517   1.669   2.697  13.274 -0.0240  0.2302  0.6281
  437TMC3     H 6518   1.291   2.741  13.361 -0.4136  1.3163  1.1199
  437TMC3    H1 6519   1.632   2.857  13.127  0.4317 -0.8232  1.7865
  437TMC3    H2 6520   1.258   3.059  13.091  0.1001 -0.8575 -0.7687
  437TMC3    C7 6521   1.490   3.023  12.968 -1.0567  0.4326  0.0152
  437TMC3    C8 6522   1.117   2.878  13.226  0.0816  0.3212 -0.2541
  437TMC3    O1 6523   1.410   3.071  12.889  0.1929  0.2577  0.1273
  437TMC3    O2 6524   1.081   2.773  13.270 -0.7358 -0.3720 -0.0984
  438MPD2     C 6525   4.402   2.167  16.753 -0.3838 -1.1832  0.1804
  438MPD2    C1 6526   4.374   2.272  16.849  0.3985 -0.8596  0.2045
  438MPD2    C2 6527   4.316   2.242  16.971  0.2350 -0.6202  0.9561
  438MPD2    C3 6528   4.277   2.111  17.001  0.3883  0.8935 -0.0897
  438MPD2    C4 6529   4.298   2.016  16.903  0.4005  0.2082 -0.8153
  438MPD2    C5 6530   4.361   2.038  16.779  1.2165 -0.3159 -0.2309
  438MPD2     H 6531   4.291   2.326  17.033 -0.3932  0.6143 -0.9617
  438MPD2    H1 6532   4.273   1.912  16.924  1.7887  0.0837  0.2487
  438MPD2    H2 6533   4.441   2.193  16.655  0.4694  0.7026  1.0364
  438MPD2    H3 6534   4.379   1.958  16.708 -0.0488 -0.1783 -0.7153
  438MPD2     N 6535   4.197   2.071  17.110 -0.1266 -0.5357  0.6259
  438MPD2    H5 6536   4.168   1.974  17.107  0.8645 -0.7993 -0.0471
  438MPD2    N1 6537   4.388   2.408  16.820  0.4592  0.2838 -0.3463
  438MPD2    H7 6538   4.354   2.472  16.892 -2.4109  0.1473 -1.6195
  439TMC3    C1 6539   4.441   2.617  16.717 -0.3991 -0.2230  0.1725
  439TMC3    C2 6540   4.438   2.690  16.605  0.2063  0.3258  0.5031
  439TMC3    C3 6541   4.442   2.825  16.624 -0.0599 -0.3126  0.2867
  439TMC3    C4 6542   4.427   2.676  16.843 -0.5557 -0.5902  0.0710
  439TMC3    C5 6543   4.434   2.807  16.854 -0.2699  0.6956  0.1872
  439TMC3    C6 6544   4.432   2.888  16.747  0.5886 -0.0291 -0.1703
  439TMC3     C 6545   4.441   2.465  16.712  0.7413 -0.8158  0.0180
  439TMC3     O 6546   4.475   2.418  16.609  0.2680  0.1710  0.4070
  439TMC3     H 6547   4.439   2.643  16.507 -1.0030  1.3901 -0.0181
  439TMC3    H1 6548   4.453   2.619  16.931 -1.6625 -0.9789  0.1464
  439TMC3    H2 6549   4.438   2.996  16.748  0.2502 -0.0336  3.4618
  439TMC3    C7 6550   4.514   2.862  16.963 -0.0230 -0.1353 -0.2290
  439TMC3    C8 6551   4.409   2.903  16.506 -0.2958 -0.2723  0.3337
  439TMC3    O1 6552   4.587   2.777  17.018 -0.0298 -0.0988  0.0882
  439TMC3    O2 6553   4.356   3.014  16.518 -0.7781  0.0162 -0.7646
  440MPD2     C 6554   3.093   3.683  15.105 -0.2954 -0.0555 -0.5427
  440MPD2    C1 6555   3.152   3.771  15.199  0.4861  0.2142  0.1081
  440MPD2    C2 6556   3.275   3.824  15.171  0.1158  0.0295 -0.2274
  440MPD2    C3 6557   3.348   3.795  15.062 -0.1374  0.5641  0.0179
  440MPD2    C4 6558   3.294   3.717  14.964 -0.0952 -0.0373  0.1566
  440MPD2    C5 6559   3.170   3.666  14.993  0.7090  0.2178  0.7596
  440MPD2     H 6560   3.303   3.898  15.246  1.9494  0.1428 -1.0266
  440MPD2    H1 6561   3.351   3.692  14.876 -0.3428  0.3722 -0.1171
  440MPD2    H2 6562   2.992   3.646  15.112  0.1436 -0.8209  1.8166
  440MPD2    H3 6563   3.129   3.602  14.916  2.4971 -1.5312  1.2711
  440MPD2     N 6564   3.487   3.834  15.040 -0.3830 -0.7191 -0.3279
  440MPD2    H5 6565   3.532   3.778  14.968  0.6246 -2.3834  1.6105
  440MPD2    N1 6566   3.079   3.809  15.320  0.1366 -0.6073  0.5288
  440MPD2    H7 6567   3.119   3.883  15.377 -0.8158  0.8594 -0.7140
  441TMC3    C1 6568   3.704   3.865  15.128  0.3043 -0.1782 -1.0041
  441TMC3    C2 6569   3.773   3.957  15.208 -0.3628  0.0825  0.5555
  441TMC3    C3 6570   3.827   3.914  15.321  0.1263 -0.0391  0.0470
  441TMC3    C4 6571   3.716   3.735  15.161  0.2261 -0.7365  0.1064
  441TMC3    C5 6572   3.787   3.688  15.269 -0.3905 -0.2535 -0.4244
  441TMC3    C6 6573   3.846   3.781  15.349 -0.9091  0.6170  0.5713
  441TMC3     C 6574   3.562   3.905  15.131  0.1250 -0.0785 -0.5035
  441TMC3     O 6575   3.530   3.991  15.209 -0.3140 -0.7431 -0.0120
  441TMC3     H 6576   3.766   4.062  15.183  0.4739 -0.7968 -3.4186
  441TMC3    H1 6577   3.640   3.672  15.114 -0.8147 -1.2585  2.5044
  441TMC3    H2 6578   3.882   3.752  15.447 -0.1193  1.4731  0.5270
  441TMC3    C7 6579   3.709   3.600  15.352 -0.2539 -0.2356 -0.3631
  441TMC3    C8 6580   3.820   4.011  15.432  0.1363  0.2644  0.3113
  441TMC3    O1 6581   3.587   3.618  15.365  0.2378 -0.1252  0.4614
  441TMC3    O2 6582   3.894   3.984  15.528  0.8119 -0.0099  0.1319
  442MPD2     C 6583   0.830   4.461  16.883  0.4007  0.9376  0.5878
  442MPD2    C1 6584   0.864   4.485  16.752  0.3176 -0.0876  0.3452
  442MPD2    C2 6585   0.873   4.378  16.661 -0.6666  0.1254  0.4600
  442MPD2    C3 6586   0.830   4.257  16.698  0.7941 -0.1584  0.2598
  442MPD2    C4 6587   0.793   4.236  16.821 -0.5951 -0.4150  0.0407
  442MPD2    C5 6588   0.784   4.335  16.916 -0.6504  0.1459 -0.5455
  442MPD2     H 6589   0.909   4.399  16.561  0.9370  0.3097  1.0859
  442MPD2    H1 6590   0.757   4.137  16.847  0.0979 -0.2024  1.8064
  442MPD2    H2 6591   0.802   4.544  16.946  2.3858  1.3548  0.8993
  442MPD2    H3 6592   0.750   4.315  17.017 -0.7970 -1.4816 -0.9112
  442MPD2     N 6593   0.845   4.138  16.620 -0.1941 -0.3811  0.0526
  442MPD2    H5 6594   0.841   4.053  16.675 -0.5735  0.2734  1.0557
  442MPD2    N1 6595   0.891   4.616  16.704  0.2331 -0.0039 -0.4631
  442MPD2    H7 6596   0.923   4.616  16.608 -0.6241  1.2844 -0.7476
  443TMC3    C1 6597   0.916   0.129  16.715 -0.2311 -0.0810 -0.6188
  443TMC3    C2 6598   0.854   0.129  16.587  0.0181 -0.0845  0.4041
  443TMC3    C3 6599   0.763   0.229  16.558 -0.4740 -0.4441 -0.2464
  443TMC3    C4 6600   0.884   0.234  16.803 -0.5075  0.1209  0.5037
  443TMC3    C5 6601   0.793   0.325  16.766  0.3634  0.5280 -0.2021
  443TMC3    C6 6602   0.737   0.332  16.638  0.4622 -0.0750  0.4684
  443TMC3     C 6603   0.896   0.006  16.783  0.0474 -0.3644 -0.1774
  443TMC3     O 6604   0.881   0.023  16.906 -0.3218  0.0343 -0.0143
  443TMC3     H 6605   0.868   0.046  16.518 -1.2482 -0.5993  0.7712
  443TMC3    H1 6606   0.937   0.245  16.896 -1.0505 -1.0777  0.9619
  443TMC3    H2 6607   0.656   0.400  16.616  1.0667  0.8551  1.0902
  443TMC3    C7 6608   0.703   0.354  16.873 -0.3927  0.3884 -0.4359
  443TMC3    C8 6609   0.710   0.227  16.429 -0.3618 -0.5644  0.0878
  443TMC3    O1 6610   0.636   0.459  16.865 -0.4381  0.2303  0.7994
  443TMC3    O2 6611   0.709   0.326  16.355 -0.0384 -0.9540  0.2223
  444MPD2     C 6612   1.530   3.795   0.124 -0.1851 -0.1098  0.2077
  444MPD2    C1 6613   1.459   3.767   0.012 -0.7687  0.0552 -0.4793
  444MPD2    C2 6614   1.530   3.745  17.592 -0.6519  0.9241  0.2102
  444MPD2    C3 6615   1.672   3.741  17.591 -0.3079  0.7488  0.1868
  444MPD2    C4 6616   1.745   3.769   0.006 -0.1615  0.3749 -0.5952
  444MPD2    C5 6617   1.671   3.806   0.118  0.2431  0.2400  0.0394
  444MPD2     H 6618   1.471   3.719  17.504 -0.1304  0.1759  0.0826
  444MPD2    H1 6619   1.851   3.791   0.014 -1.1385  4.4737  0.7701
  444MPD2    H2 6620   1.479   3.821   0.217 -2.3331  0.6424 -1.1915
  444MPD2    H3 6621   1.726   3.853   0.199 -3.2694  1.5881  1.6551
  444MPD2     N 6622   1.728   3.716  17.463  0.1534 -0.1173 -0.1763
  444MPD2    H5 6623   1.663   3.705  17.386 -0.5941 -2.3930  0.7831
  444MPD2    N1 6624   1.317   3.775   0.006 -0.4766 -0.6124 -0.2966
  444MPD2    H7 6625   1.273   3.776  17.611  0.3574  0.0839 -0.6956
  445TMC3    C1 6626   1.879   3.637  17.301 -0.7894 -0.4574  0.8540
  445TMC3    C2 6627   1.770   3.623  17.214 -0.0055 -0.4235 -0.2855
  445TMC3    C3 6628   1.785   3.550  17.100  0.6226  0.7183 -0.1687
  445TMC3    C4 6629   1.991   3.571  17.271  0.0105 -0.2664 -0.8197
  445TMC3    C5 6630   1.995   3.493  17.155  0.2343  0.7759  0.3549
  445TMC3    C6 6631   1.892   3.465  17.074  1.2162  0.3372  0.1182
  445TMC3     C 6632   1.862   3.687  17.434  1.4006 -0.5349 -0.1011
  445TMC3     O 6633   1.960   3.674  17.510  0.2655  0.5230  0.0746
  445TMC3     H 6634   1.686   3.691  17.221  1.9157  1.8528  0.6989
  445TMC3    H1 6635   2.081   3.603  17.324  0.0673  1.7656 -2.1527
  445TMC3    H2 6636   1.917   3.409  16.984  1.4255  2.1842 -0.9618
  445TMC3    C7 6637   2.126   3.448  17.103  0.4534 -0.3064  0.3340
  445TMC3    C8 6638   1.672   3.549  17.009  0.1445 -0.5222  0.1177
  445TMC3    O1 6639   2.204   3.536  17.065 -0.7429  0.1319 -0.1167
  445TMC3    O2 6640   1.571   3.599  17.050 -0.1740  0.4854  0.0000
  446MPD2     C 6641   1.060   0.064  11.493 -0.8837 -0.1621 -0.3955
  446MPD2    C1 6642   1.048   0.105  11.360 -0.4702 -0.1446  0.2494
  446MPD2    C2 6643   1.091   0.228  11.326  0.3351 -0.8158  0.0603
  446MPD2    C3 6644   1.152   0.310  11.412  1.4641  0.6618 -0.1570
  446MPD2    C4 6645   1.161   0.281  11.545  0.7245  0.6541 -0.1853
  446MPD2    C5 6646   1.116   0.159  11.582  0.0594 -0.0033  0.2623
  446MPD2     H 6647   1.075   0.262  11.224  1.2551 -1.7843 -0.4153
  446MPD2    H1 6648   1.196   0.349  11.622 -0.3083 -0.5575  1.3508
  446MPD2    H2 6649   1.016   4.701  11.540 -0.3644 -1.0983 -1.6191
  446MPD2    H3 6650   1.129   0.130  11.685 -1.1597 -1.6855 -0.0562
  446MPD2     N 6651   1.200   0.438  11.354  0.4953 -0.2196  0.1983
  446MPD2    H5 6652   1.160   0.457  11.263  0.2401  0.8899  0.5458
  446MPD2    N1 6653   0.971   0.035  11.271 -0.3210  0.0494 -0.1235
  446MPD2    H7 6654   0.942   0.079  11.184 -0.5892  1.0343  0.4584
  447TMC3    C1 6655   1.332   0.636  11.357  0.1206 -0.0938  0.2721
  447TMC3    C2 6656   1.290   0.666  11.230 -0.0816 -0.3054 -0.5486
  447TMC3    C3 6657   1.386   0.734  11.154 -0.0286 -0.1922 -0.1626
  447TMC3    C4 6658   1.447   0.683  11.412 -0.5630  0.2109 -0.3566
  447TMC3    C5 6659   1.540   0.748  11.337 -0.7172  0.3937 -0.5213
  447TMC3    C6 6660   1.505   0.771  11.205  0.4211  0.2589 -0.3720
  447TMC3     C 6661   1.287   0.513  11.420 -0.5103  0.0488 -0.0911
  447TMC3     O 6662   1.361   0.478  11.513  0.3525 -0.2789  0.7367
  447TMC3     H 6663   1.203   0.621  11.183 -0.1740  0.0919 -0.7544
  447TMC3    H1 6664   1.478   0.666  11.514  0.5641  0.8543 -0.6035
  447TMC3    H2 6665   1.585   0.816  11.147  1.1268 -0.8567 -0.2615
  447TMC3    C7 6666   1.658   0.659  11.341  0.6013 -0.0679 -0.3276
  447TMC3    C8 6667   1.398   0.695  11.016 -0.5250  0.3520 -0.7084
  447TMC3    O1 6668   1.691   0.603  11.238 -0.0756  0.2128  0.4470
  447TMC3    O2 6669   1.317   0.733  10.939 -0.0999 -0.0322  0.3039
  448TMC3    C1 6670   3.819   0.471  17.406  0.8957  0.3265  0.3793
  448TMC3    C2 6671   3.868   0.366  17.338  0.1005  0.2797  0.0677
  448TMC3    C3 6672   3.977   0.306  17.391 -0.6604 -0.0903  0.2852
  448TMC3    C4 6673   3.885   0.512  17.522 -0.1395 -0.2049  1.0157
  448TMC3    C5 6674   4.000   0.453  17.563 -0.2460  0.5425 -0.3066
  448TMC3    C6 6675   4.052   0.338  17.505 -0.6143 -0.4496  0.5638
  448TMC3     C 6676   3.691   0.520  17.375 -0.2335 -0.0775 -0.3273
  448TMC3     O 6677   3.619   0.461  17.299  0.4971  0.4210  0.1063
  448TMC3     H 6678   3.830   0.327  17.244  2.7979  0.0229 -0.9197
  448TMC3    H1 6679   3.856   0.603  17.573  0.2560  0.8445 -0.6356
  448TMC3    H2 6680   4.143   0.284  17.530  1.0367  1.8479 -0.5893
  448TMC3    C7 6681   4.045   0.498  17.688 -0.1080 -0.3671 -0.3636
  448TMC3    C8 6682   4.032   0.207  17.306  0.0228  0.1460 -0.2607
  448TMC3    O1 6683   4.020   0.616   0.021  0.4025  0.0543 -0.1814
  448TMC3    O2 6684   4.087   0.116  17.361  0.0240  0.2766 -0.6213
  449MPD2     C 6685   0.674   2.332  13.608 -0.8205  0.0406 -0.1899
  449MPD2    C1 6686   0.560   2.411  13.601 -0.6784  0.2265  0.0580
  449MPD2    C2 6687   0.444   2.365  13.650 -0.1547  0.0232 -0.1520
  449MPD2    C3 6688   0.431   2.244  13.717  0.4819 -0.5017 -0.5644
  449MPD2    C4 6689   0.539   2.161  13.719  0.2129 -0.4342 -0.4659
  449MPD2    C5 6690   0.659   2.215  13.680  0.0879 -0.0121 -0.5670
  449MPD2     H 6691   0.361   2.436  13.649 -0.2377 -0.0739 -0.1504
  449MPD2    H1 6692   0.548   2.076  13.785  1.9173  0.6850  0.7418
  449MPD2    H2 6693   0.775   2.351  13.572 -0.6692  0.9922  0.7328
  449MPD2    H3 6694   0.751   2.159  13.700  1.2003  0.8791 -3.2294
  449MPD2     N 6695   0.303   2.212  13.758 -0.1101  0.2672  0.4447
  449MPD2    H5 6696   0.235   2.286  13.749  0.9843  0.8601 -2.9871
  449MPD2    N1 6697   0.556   2.536  13.535 -0.0539 -0.7563  0.5145
  449MPD2    H7 6698   0.467   2.584  13.545  1.5387  1.8673  2.4207
  450TMC3    C1 6699   0.608   2.737  13.449 -0.3775 -0.0651  0.1777
  450TMC3    C2 6700   0.671   2.831  13.527 -0.0956 -0.1977  0.9004
  450TMC3    C3 6701   0.601   2.939  13.568  0.3895 -0.3924  0.3150
  450TMC3    C4 6702   0.479   2.744  13.412  0.2868 -0.2599 -0.1192
  450TMC3    C5 6703   0.414   2.842  13.478  0.0095 -0.4169  0.3005
  450TMC3    C6 6704   0.474   2.947  13.546  0.3844  0.0323 -0.6364
  450TMC3     C 6705   0.663   2.605  13.478  0.0941  0.0667  0.3945
  450TMC3     O 6706   0.782   2.577  13.472 -0.2960 -0.1069 -0.1921
  450TMC3     H 6707   0.766   2.813  13.576  0.7081  2.9078  0.5090
  450TMC3    H1 6708   0.433   2.677  13.341  1.0482  1.0464 -1.8452
  450TMC3    H2 6709   0.415   3.024  13.596  0.6031  0.1867 -0.6180
  450TMC3    C7 6710   0.294   2.784  13.536 -0.0411  0.4724  0.1656
  450TMC3    C8 6711   0.658   3.063  13.616 -0.0310  0.9209  0.3806
  450TMC3    O1 6712   0.288   2.661  13.525 -0.3415  0.1685 -0.0358
  450TMC3    O2 6713   0.589   3.163  13.646  0.0763 -0.6266  0.2669
  451MPD2     C 6714   2.465   2.113   1.430 -1.3204  0.5932  0.2795
  451MPD2    C1 6715   2.356   2.058   1.502 -0.3123 -0.1596 -0.3493
  451MPD2    C2 6716   2.342   1.919   1.522 -0.6492 -0.0073  0.0835
  451MPD2    C3 6717   2.435   1.843   1.456  0.3844 -0.2839 -0.3207
  451MPD2    C4 6718   2.543   1.896   1.390 -0.1556 -0.6859 -0.1284
  451MPD2    C5 6719   2.561   2.033   1.379 -0.9136 -0.0385  0.0372
  451MPD2     H 6720   2.266   1.864   1.575 -0.4577 -1.5344 -1.2139
  451MPD2    H1 6721   2.605   1.826   1.336 -2.7888 -3.3100  0.2442
  451MPD2    H2 6722   2.480   2.218   1.407  0.2536  0.2637 -0.2407
  451MPD2    H3 6723   2.648   2.079   1.334 -0.4638  1.3240  2.2852
  451MPD2     N 6724   2.435   1.702   1.456 -0.0058 -0.4904  0.5872
  451MPD2    H5 6725   2.500   1.654   1.396 -0.5563  0.5380 -0.8217
  451MPD2    N1 6726   2.254   2.149   1.540  0.0220  0.0207  0.5200
  451MPD2    H7 6727   2.279   2.246   1.520 -0.4512  0.2837  1.2289
  452TMC3    C1 6728   2.366   1.480   1.498 -0.1303  0.1853 -0.0171
  452TMC3    C2 6729   2.391   1.387   1.597  0.3243  0.7215 -0.5937
  452TMC3    C3 6730   2.388   1.257   1.555  0.7578  0.5143  0.6101
  452TMC3    C4 6731   2.330   1.451   1.374  0.4820  0.7706 -0.0901
  452TMC3    C5 6732   2.308   1.323   1.343 -0.4792 -0.2066  0.4152
  452TMC3    C6 6733   2.336   1.223   1.433 -0.1623  0.0682  0.1587
  452TMC3     C 6734   2.347   1.620   1.528 -0.3863 -0.0533 -0.0376
  452TMC3     O 6735   2.300   1.639   1.641  0.7876 -1.1266 -0.7073
  452TMC3     H 6736   2.415   1.410   1.700  2.3329  0.2501 -0.9492
  452TMC3    H1 6737   2.294   1.531   1.310  0.4147  1.9439  1.3961
  452TMC3    H2 6738   2.350   1.122   1.396  0.1978  0.6161 -1.1843
  452TMC3    C7 6739   2.295   1.289   1.202 -0.7760 -0.0830  0.2664
  452TMC3    C8 6740   2.407   1.156   1.653  0.1296  0.0218 -0.2839
  452TMC3    O1 6741   2.328   1.374   1.118 -0.1332 -0.2726 -0.4394
  452TMC3    O2 6742   2.392   1.178   1.772  0.4891 -0.0585 -0.1053
  453TMC3    C1 6743   3.735   3.671  11.869 -0.9309  0.1612  0.2403
  453TMC3    C2 6744   3.635   3.600  11.926 -0.0689  0.2512 -0.3645
  453TMC3    C3 6745   3.518   3.579  11.861 -0.6560 -0.0464  0.5571
  453TMC3    C4 6746   3.717   3.725  11.743 -0.2585 -0.4620 -0.0277
  453TMC3    C5 6747   3.604   3.690  11.673 -0.2105  0.2509 -0.8833
  453TMC3    C6 6748   3.498   3.622  11.732 -0.2517  0.3640  0.0235
  453TMC3     C 6749   3.850   3.726  11.945  0.2672 -0.3061 -0.3465
  453TMC3     O 6750   3.944   3.766  11.875  0.0194  0.0226 -0.3423
  453TMC3     H 6751   3.645   3.555  12.024  0.2627 -3.2104 -1.9700
  453TMC3    H1 6752   3.795   3.784  11.695  0.1716 -1.0108  0.0018
  453TMC3    H2 6753   3.403   3.600  11.685  0.5454 -0.6258 -1.1556
  453TMC3    C7 6754   3.572   3.749  11.541  0.1892 -0.5602  0.5955
  453TMC3    C8 6755   3.418   3.501  11.924  0.3897 -0.0268 -0.4650
  453TMC3    O1 6756   3.466   3.725  11.484 -0.0012  0.0483  0.5666
  453TMC3    O2 6757   3.428   3.494  12.046  0.1491 -0.0900 -0.4728
  454MPD2     C 6758   2.111   3.738  15.784 -0.0948  0.1388 -0.4468
  454MPD2    C1 6759   2.031   3.628  15.824  0.2600  0.2722  0.1116
  454MPD2    C2 6760   2.075   3.553  15.928  0.1979  0.1633  0.6456
  454MPD2    C3 6761   2.178   3.602  16.006  0.3843 -0.8930  0.3819
  454MPD2    C4 6762   2.244   3.710  15.971 -0.0057  0.3027  0.2102
  454MPD2    C5 6763   2.206   3.781  15.866 -0.2328  0.1727 -0.7516
  454MPD2     H 6764   2.023   3.461  15.953  0.4771 -0.1741 -0.0125
  454MPD2    H1 6765   2.324   3.753  16.031 -0.4545  1.7792 -0.2470
  454MPD2    H2 6766   2.083   3.802  15.701  0.6123  1.0881  0.0478
  454MPD2    H3 6767   2.246   3.876  15.834  1.1959  0.6743  2.4953
  454MPD2     N 6768   2.211   3.544  16.128 -0.2367  0.1035 -0.1004
  454MPD2    H5 6769   2.275   3.598  16.185 -0.6190  0.2245  0.2147
  454MPD2    N1 6770   1.917   3.590  15.754  0.1906 -0.4031  0.1610
  454MPD2    H7 6771   1.884   3.496  15.775  0.0352 -0.0398  1.5945
  455TMC3    C1 6772   2.183   3.395  16.310 -0.3179 -0.1583 -0.1533
  455TMC3    C2 6773   2.126   3.477  16.401  0.0091 -0.8864  0.1098
  455TMC3    C3 6774   2.092   3.425  16.528  0.5246  0.4898  0.2653
  455TMC3    C4 6775   2.197   3.260  16.348 -1.3498  0.0445  0.2507
  455TMC3    C5 6776   2.153   3.210  16.471 -0.0894 -0.2482 -0.0552
  455TMC3    C6 6777   2.108   3.295  16.567  0.4085  0.4074  0.5905
  455TMC3     C 6778   2.167   3.417  16.169 -0.1804  0.2564 -0.4818
  455TMC3     O 6779   2.145   3.318  16.101 -0.1357  0.2203  0.5451
  455TMC3     H 6780   2.112   3.583  16.385 -2.7406 -0.8659  2.8192
  455TMC3    H1 6781   2.251   3.202  16.274  0.2261  1.5724  0.2081
  455TMC3    H2 6782   2.085   3.262  16.668 -1.6960  0.6068  0.1812
  455TMC3    C7 6783   2.112   3.065  16.463 -0.1954  0.5516  0.0040
  455TMC3    C8 6784   2.014   3.507  16.616  0.3742  0.0542 -0.0542
  455TMC3    O1 6785   2.100   3.021  16.346  0.2914  0.3601  0.2650
  455TMC3    O2 6786   2.018   3.482  16.737 -0.0238 -0.3638 -0.1954
  456MPD2     C 6787   4.610   3.733  16.582  0.0255 -0.1532  0.5638
  456MPD2    C1 6788   4.627   3.699  16.720 -0.0894 -0.0496  0.2608
  456MPD2    C2 6789   4.592   3.800  16.813 -0.1802 -0.8507  1.1309
  456MPD2    C3 6790   4.553   3.924  16.773  0.1272 -0.0972  0.0700
  456MPD2    C4 6791   4.550   3.956  16.636  0.5668  0.0997 -0.7863
  456MPD2    C5 6792   4.579   3.864  16.539 -0.1304 -0.1059  0.2513
  456MPD2     H 6793   4.600   3.767  16.916  2.0618  1.6334  1.7625
  456MPD2    H1 6794   4.527   4.050  16.588 -0.9409 -0.8471 -1.9050
  456MPD2    H2 6795   4.643   3.680  16.493  0.1231 -1.3384  1.3084
  456MPD2    H3 6796   4.598   3.903  16.440 -0.2733  0.1333  0.3169
  456MPD2     N 6797   4.534   4.019  16.875 -0.2543 -0.9204 -0.2664
  456MPD2    H5 6798   4.548   3.993  16.972  1.7494 -0.6899 -0.4885
  456MPD2    N1 6799   4.687   3.568  16.750  0.4718  0.5579  0.3276
  456MPD2    H7 6800   4.684   3.504  16.672  0.8092 -2.1012  2.4963
  457TMC3    C1 6801   4.521   4.234  16.975  0.0208  0.2728 -0.3179
  457TMC3    C2 6802   4.440   4.347  16.980  0.2270  0.3875 -0.3405
  457TMC3    C3 6803   4.442   4.417  17.097 -0.7666  0.4418  0.2033
  457TMC3    C4 6804   4.590   4.189  17.083 -0.3703 -0.3601 -0.5440
  457TMC3    C5 6805   4.601   4.269  17.192 -0.0346  0.5426 -0.2370
  457TMC3    C6 6806   4.534   4.391  17.197  0.0335 -0.3822 -0.5286
  457TMC3     C 6807   4.510   4.152  16.853  0.6250 -0.1642  0.2050
  457TMC3     O 6808   4.452   4.204  16.756  0.1323  0.4902 -0.2156
  457TMC3     H 6809   4.366   4.368  16.904 -1.1190 -0.0839  0.8438
  457TMC3    H1 6810   4.640   4.093  17.089 -1.1534 -0.5962  2.6685
  457TMC3    H2 6811   4.540   4.455  17.284 -1.1857 -1.7172  0.5294
  457TMC3    C7 6812   4.678   4.217  17.303  0.2631  0.1503 -0.4086
  457TMC3    C8 6813   4.358   4.536  17.113 -0.2948  0.5401 -0.3664
  457TMC3    O1 6814   4.671   4.097  17.322 -0.9076  0.3711  0.7430
  457TMC3    O2 6815   4.347   4.587  17.223 -0.1236  0.3870 -0.5212
  458MPD2     C 6816   1.867   3.080  12.636  0.1789  0.3400 -0.1321
  458MPD2    C1 6817   1.922   3.055  12.761 -0.0577  0.2048  0.4457
  458MPD2    C2 6818   1.836   3.026  12.867  0.4533 -1.4042 -0.5358
  458MPD2    C3 6819   1.702   3.034  12.843  0.0166 -0.1287 -0.0794
  458MPD2    C4 6820   1.651   3.071  12.720 -0.3135 -0.1659  0.2152
  458MPD2    C5 6821   1.733   3.097  12.616  0.0257 -0.4540  0.1793
  458MPD2     H 6822   1.874   3.000  12.965 -0.8283  1.3857  0.7031
  458MPD2    H1 6823   1.549   3.099  12.698 -0.6489  0.4815  2.6665
  458MPD2    H2 6824   1.932   3.096  12.550  1.6583 -0.7309  0.7717
  458MPD2    H3 6825   1.690   3.125  12.521 -1.7669 -0.1419  1.0967
  458MPD2     N 6826   1.622   3.018  12.954 -0.4368  0.5417  1.1167
  458MPD2    H5 6827   1.677   2.993  13.036  2.1483  1.0438 -0.4793
  458MPD2    N1 6828   2.064   3.049  12.764 -0.3092  0.2599 -0.1224
  458MPD2    H7 6829   2.109   3.074  12.677  1.7984 -1.7695  0.3719
  459TMC3    C1 6830   2.276   2.957  12.857 -0.3849  0.8787  0.5731
  459TMC3    C2 6831   2.334   2.953  12.734  0.4705 -0.0643 -0.0693
  459TMC3    C3 6832   2.452   2.891  12.724  0.3554 -0.1389 -0.1014
  459TMC3    C4 6833   2.325   2.885  12.955  0.0983 -0.3510 -1.1807
  459TMC3    C5 6834   2.439   2.817  12.940 -0.0137 -0.5783 -0.5947
  459TMC3    C6 6835   2.508   2.820  12.826  0.0868 -0.6846  0.1543
  459TMC3     C 6836   2.129   2.992  12.871 -0.7115  0.1452  0.7873
  459TMC3     O 6837   2.088   2.953  12.980 -0.4758 -0.0095  0.3553
  459TMC3     H 6838   2.289   3.012  12.655  0.1079 -1.1290 -0.6415
  459TMC3    H1 6839   2.270   2.856  13.044  0.9739 -0.9176 -0.8238
  459TMC3    H2 6840   2.591   2.750  12.823  1.1183  0.4340  3.0504
  459TMC3    C7 6841   2.477   2.727  13.039 -0.5128 -0.1035 -0.4303
  459TMC3    C8 6842   2.505   2.897  12.588 -0.2377  0.0792 -0.3526
  459TMC3    O1 6843   2.503   2.610  13.012 -0.1122  0.5783 -0.0124
  459TMC3    O2 6844   2.429   2.892  12.493 -0.0519  0.0389  0.5674
  460MPD2     C 6845   1.676   0.507  10.866 -0.2450  0.3430 -0.0665
  460MPD2    C1 6846   1.570   0.600  10.863 -0.8978 -0.2714  0.1477
  460MPD2    C2 6847   1.525   0.655  10.743 -0.1010 -0.3716  0.9750
  460MPD2    C3 6848   1.582   0.611  10.619 -0.3557  0.3150  0.5749
  460MPD2    C4 6849   1.679   0.509  10.623  0.0069 -0.2863  0.0617
  460MPD2    C5 6850   1.726   0.463  10.745 -0.4684  0.0711 -0.1528
  460MPD2     H 6851   1.449   0.732  10.736 -0.5047 -0.6962  1.9105
  460MPD2    H1 6852   1.723   0.458  10.538 -0.4734  0.6951 -0.7664
  460MPD2    H2 6853   1.719   0.459  10.954 -1.1394  0.8709  0.6481
  460MPD2    H3 6854   1.804   0.388  10.749  1.7845  2.4424 -0.3210
  460MPD2     N 6855   1.541   0.672  10.498  0.0988  0.5676  0.4194
  460MPD2    H5 6856   1.463   0.736  10.512  0.6694  1.3226  0.1171
  460MPD2    N1 6857   1.515   0.627  10.994  0.1445  0.0448  0.4725
  460MPD2    H7 6858   1.574   0.607  11.074  0.0668 -0.7176  0.3353
  461TMC3    C1 6859   1.510   0.713  10.268 -0.5315  0.7600 -0.3847
  461TMC3    C2 6860   1.507   0.645  10.147  0.0776 -0.1070 -0.3904
  461TMC3    C3 6861   1.432   0.701  10.049  0.0473 -0.0359 -0.2051
  461TMC3    C4 6862   1.455   0.840  10.282  0.2290  0.2420 -0.2793
  461TMC3    C5 6863   1.388   0.897  10.176  0.3213 -1.1174  0.5956
  461TMC3    C6 6864   1.376   0.828  10.060 -0.0882 -0.2403  0.0148
  461TMC3     C 6865   1.586   0.648  10.368 -0.2550 -0.3675 -0.0868
  461TMC3     O 6866   1.665   0.561  10.329 -0.1283  0.8836 -0.6126
  461TMC3     H 6867   1.540   0.543  10.136 -0.3238 -0.0510 -2.1072
  461TMC3    H1 6868   1.476   0.895  10.373  3.3534 -1.4615  0.0550
  461TMC3    H2 6869   1.336   0.872   9.969  0.9690 -0.8697 -0.7405
  461TMC3    C7 6870   1.298   1.012  10.190  0.8583 -0.3460  0.3138
  461TMC3    C8 6871   1.460   0.639   9.912  0.0420  0.3344 -0.3540
  461TMC3    O1 6872   1.224   1.040  10.099 -0.0025  0.2937  0.2299
  461TMC3    O2 6873   1.456   0.513   9.905  0.3926  0.3572 -0.1488
  462TMC3    C1 6874   1.668   1.184   0.684  0.8595  0.7216 -0.1756
  462TMC3    C2 6875   1.778   1.107   0.649 -0.1535  0.1749  0.2992
  462TMC3    C3 6876   1.776   1.057   0.522  0.0402 -0.3776 -0.6926
  462TMC3    C4 6877   1.566   1.208   0.607 -0.4401 -0.1536 -0.0770
  462TMC3    C5 6878   1.580   1.167   0.475 -0.1802 -1.0797  0.1744
  462TMC3    C6 6879   1.692   1.104   0.428  0.3848  0.0145  0.3122
  462TMC3     C 6880   1.636   1.209   0.826  0.5777  0.4156  0.4344
  462TMC3     O 6881   1.525   1.201   0.869 -0.6024 -0.4220  0.1948
  462TMC3     H 6882   1.854   1.076   0.719  0.9873  1.9833 -0.1317
  462TMC3    H1 6883   1.482   1.260   0.651 -1.4931 -0.3582 -1.8298
  462TMC3    H2 6884   1.681   1.050   0.335  0.2417 -0.3920  0.5686
  462TMC3    C7 6885   1.487   1.208   0.370  0.2490 -0.7264  1.1151
  462TMC3    C8 6886   1.870   0.950   0.489 -0.4129  0.4836 -0.3598
  462TMC3    O1 6887   1.477   1.147   0.265  0.0262 -0.7766  0.3790
  462TMC3    O2 6888   1.918   0.887   0.582  0.5024  0.3380 -0.0959
  463MPD2     C 6889   1.929   0.210   2.398  0.2005  0.0744 -0.4532
  463MPD2    C1 6890   1.881   0.245   2.271 -0.5757  0.5069 -0.0828
  463MPD2    C2 6891   1.971   0.243   2.160  0.3490 -0.5096 -0.4484
  463MPD2    C3 6892   2.103   0.217   2.180  0.1323 -0.4039  0.2635
  463MPD2    C4 6893   2.148   0.191   2.307 -0.1142  0.2329 -0.0038
  463MPD2    C5 6894   2.055   0.178   2.410  0.3488 -0.0732 -0.1574
  463MPD2     H 6895   1.941   0.260   2.057 -1.8403 -1.3397  0.0385
  463MPD2    H1 6896   2.253   0.169   2.321  0.3285  3.3312  1.7095
  463MPD2    H2 6897   1.868   0.216   2.487  0.1618 -1.3357 -0.3856
  463MPD2    H3 6898   2.091   0.158   2.510 -0.2605 -0.0759  0.0647
  463MPD2     N 6899   2.194   0.223   2.078  0.4235  0.0041 -0.4681
  463MPD2    H5 6900   2.283   0.179   2.100  0.4075  1.2508  2.1457
  463MPD2    N1 6901   1.743   0.270   2.243 -0.0376 -0.1633 -0.2456
  463MPD2    H7 6902   1.709   0.282   2.148  2.0230  2.7250 -0.6144
  464TMC3    C1 6903   1.508   0.290   2.278  0.8697  0.1670 -0.6110
  464TMC3    C2 6904   1.489   0.319   2.143  0.4666  0.4173  0.0111
  464TMC3    C3 6905   1.365   0.320   2.089 -0.7216 -0.5617  0.6520
  464TMC3    C4 6906   1.409   0.244   2.357  0.1105 -0.3335 -0.2736
  464TMC3    C5 6907   1.287   0.250   2.296  0.0523 -0.2845 -0.1947
  464TMC3    C6 6908   1.262   0.295   2.174 -0.4952 -0.1404 -0.4591
  464TMC3     C 6909   1.646   0.281   2.336 -0.2659  0.5217  0.2264
  464TMC3     O 6910   1.655   0.282   2.456  0.6880  0.0127  0.3682
  464TMC3     H 6911   1.567   0.327   2.068 -0.9962  1.0411 -1.4561
  464TMC3    H1 6912   1.423   0.202   2.456  2.1342  2.0190  0.4257
  464TMC3    H2 6913   1.162   0.301   2.134 -0.0652 -1.2942 -1.7026
  464TMC3    C7 6914   1.199   0.151   2.333  0.2975  0.0196  0.4666
  464TMC3    C8 6915   1.356   0.291   1.950  1.1670  0.4868  0.1535
  464TMC3    O1 6916   1.113   0.176   2.417 -0.4499  0.6054 -0.4296
  464TMC3    O2 6917   1.447   0.230   1.898  0.2891  0.0179 -0.4282
  465MPD2     C 6918   4.060   2.960  16.410  0.2325  0.0289  0.7266
  465MPD2    C1 6919   4.016   2.972  16.540 -0.3626  0.6744 -0.4373
  465MPD2    C2 6920   3.944   3.081  16.577  0.2309  0.2090 -0.4156
  465MPD2    C3 6921   3.895   3.167  16.484  0.4915  0.7678 -0.2451
  465MPD2    C4 6922   3.931   3.151  16.351 -0.0155  0.0443  0.6143
  465MPD2    C5 6923   4.020   3.055  16.317 -0.0389  0.2641 -0.4281
  465MPD2     H 6924   3.904   3.090  16.677 -0.7947  0.1411 -0.8266
  465MPD2    H1 6925   3.897   3.227  16.282  0.1535  0.0773  0.5663
  465MPD2    H2 6926   4.123   2.878  16.378  0.6830  1.7389 -2.8252
  465MPD2    H3 6927   4.061   3.054  16.217 -3.6091 -0.1342 -1.8648
  465MPD2     N 6928   3.804   3.264  16.526 -0.6009 -0.1861 -0.2379
  465MPD2    H5 6929   3.782   3.273  16.624  0.5478  0.0650 -0.0012
  465MPD2    N1 6930   4.050   2.872  16.646 -0.5929 -0.2902  0.7725
  465MPD2    H7 6931   4.034   2.899  16.742  0.1755 -1.0043  1.1050
  466TMC3    C1 6932   3.529   3.483  16.724  0.2473 -0.0821 -0.5940
  466TMC3    C2 6933   3.517   3.615  16.700 -0.3691  0.3121 -0.5137
  466TMC3    C3 6934   3.578   3.661  16.587  0.3898 -0.4385 -0.5790
  466TMC3    C4 6935   3.591   3.394  16.643  0.2243 -0.1122  0.1783
  466TMC3    C5 6936   3.631   3.435  16.523  0.0293 -0.1299  0.8436
  466TMC3    C6 6937   3.620   3.568  16.487 -0.2224  0.8251  0.2013
  466TMC3     C 6938   3.449   3.446  16.839  0.1483  0.2464 -0.3453
  466TMC3     O 6939   3.471   3.344  16.901 -0.3076  0.2485  0.1902
  466TMC3     H 6940   3.468   3.690  16.761 -1.3420 -0.7202 -0.0275
  466TMC3    H1 6941   3.589   3.289  16.669  0.0799  0.0092  0.6606
  466TMC3    H2 6942   3.659   3.600  16.391  0.5304  1.5256  0.7532
  466TMC3    C7 6943   3.730   3.355  16.452 -0.3533 -0.1950 -0.4268
  466TMC3    C8 6944   3.536   3.792  16.534 -0.2911  0.4576  0.7676
  466TMC3    O1 6945   3.746   3.390  16.337  0.2579  0.8219  0.2556
  466TMC3    O2 6946   3.534   3.804  16.414  0.6570 -0.0123 -0.2938
  467TMC3    C1 6947   4.545   1.473  14.024  0.0352  0.3529  0.0994
  467TMC3    C2 6948   4.486   1.536  13.912 -0.0291 -0.2626  0.2867
  467TMC3    C3 6949   4.355   1.559  13.910 -0.5690  0.7135  0.4877
  467TMC3    C4 6950   4.476   1.454  14.139  0.1717 -0.1744 -1.0780
  467TMC3    C5 6951   4.345   1.488  14.135 -0.2264 -0.1711  0.3533
  467TMC3    C6 6952   4.277   1.534  14.023  0.0128  0.6377  0.1798
  467TMC3     C 6953   4.686   1.500  14.040  0.2340  0.6950 -0.0602
  467TMC3     O 6954   4.722   1.566  14.134 -0.1587  0.0955  0.8474
  467TMC3     H 6955   4.550   1.567  13.830  0.0281  0.5922  0.6528
  467TMC3    H1 6956   4.517   1.394  14.220 -0.6380 -1.8774 -1.9342
  467TMC3    H2 6957   4.170   1.553  14.021  0.1043  1.1463  0.1551
  467TMC3    C7 6958   4.259   1.404  14.223 -0.8763  0.6919  0.1349
  467TMC3    C8 6959   4.311   1.655  13.802  0.2446  0.7191  0.3947
  467TMC3    O1 6960   4.297   1.294  14.263  0.4636 -0.6369  0.1394
  467TMC3    O2 6961   4.393   1.708  13.732  0.6460  0.0177  1.0458
  468MPD2     C 6962   3.227   4.301  10.620 -0.2150  0.0323 -0.3805
  468MPD2    C1 6963   3.318   4.394  10.664 -0.8028 -0.2049 -0.8964
  468MPD2    C2 6964   3.366   4.385  10.791 -0.0770  0.6037  0.1440
  468MPD2    C3 6965   3.320   4.285  10.877  0.4854  0.0792 -0.4160
  468MPD2    C4 6966   3.219   4.202  10.836 -0.5071 -0.1821  0.1209
  468MPD2    C5 6967   3.185   4.204  10.703  0.1466  0.0388 -0.3386
  468MPD2     H 6968   3.444   4.455  10.820 -0.4498  0.8828  0.4702
  468MPD2    H1 6969   3.183   4.128  10.907  0.7607  1.9085  2.8991
  468MPD2    H2 6970   3.203   4.289  10.515 -2.1245 -0.6223  0.1380
  468MPD2    H3 6971   3.103   4.140  10.674 -0.2715  0.5387 -0.2579
  468MPD2     N 6972   3.368   4.269  11.012  0.3830 -0.3518  0.1324
  468MPD2    H5 6973   3.316   4.203  11.069  0.6521  0.7155  1.6020
  468MPD2    N1 6974   3.375   4.494  10.586 -1.1536  0.1884  0.1911
  468MPD2    H7 6975   3.442   4.562  10.620  0.0771 -0.8618 -0.1647
  469TMC3    C1 6976   3.433   4.630  10.389  0.3102  0.9407 -0.3450
  469TMC3    C2 6977   3.548   4.671  10.444  0.3938  0.4362  0.5134
  469TMC3    C3 6978   3.610   0.058  10.395  0.8918 -0.5748  0.2522
  469TMC3    C4 6979   3.386   4.696  10.277  0.0180  0.0405 -0.5175
  469TMC3    C5 6980   3.454   0.077  10.229 -0.8795 -0.1537  0.4230
  469TMC3    C6 6981   3.565   0.126  10.286 -0.2413 -0.6393 -0.1208
  469TMC3     C 6982   3.352   4.514  10.448 -0.1284  0.2816  0.3441
  469TMC3     O 6983   3.268   4.469  10.376 -0.3433  0.7448 -0.0692
  469TMC3     H 6984   3.600   4.610  10.518 -0.5887 -0.5046  0.4289
  469TMC3    H1 6985   3.308   4.642  10.224 -1.1465  0.7362  0.4846
  469TMC3    H2 6986   3.618   0.215  10.256  1.7488 -1.8007 -0.0819
  469TMC3    C7 6987   3.389   0.147  10.123  0.0443 -0.1327  0.3931
  469TMC3    C8 6988   3.732   0.104  10.454  0.2491 -0.4367 -0.0451
  469TMC3    O1 6989   3.283   0.104  10.078  0.6598  0.3073 -0.5799
  469TMC3    O2 6990   3.804   0.179  10.385  0.2088 -0.0844  0.7802
  470TMC3    C1 6991   0.978   1.352   0.589 -0.9736  0.4337 -0.8341
  470TMC3    C2 6992   0.999   1.430   0.701 -0.2463  0.4771  0.6429
  470TMC3    C3 6993   1.119   1.407   0.768  0.1155  0.3695 -0.5277
  470TMC3    C4 6994   1.068   1.260   0.542 -0.3416 -0.2085  0.2531
  470TMC3    C5 6995   1.172   1.219   0.624 -0.0848  1.0005  0.3322
  470TMC3    C6 6996   1.201   1.299   0.732 -0.2266  0.1279  0.4452
  470TMC3     C 6997   0.839   1.360   0.536 -0.6061 -0.7449 -0.3758
  470TMC3     O 6998   0.774   1.461   0.551  0.4821 -0.4801  0.3396
  470TMC3     H 6999   0.934   1.509   0.737 -2.3055 -2.5166  3.5083
  470TMC3    H1 7000   1.044   1.199   0.456  0.2934 -0.2120  0.0754
  470TMC3    H2 7001   1.287   1.279   0.796 -1.0289 -1.4597  1.0410
  470TMC3    C7 7002   1.232   1.093   0.579  0.6706  0.7435  0.2717
  470TMC3    C8 7003   1.129   1.476   0.899 -0.2329  0.3138  0.5395
  470TMC3    O1 7004   1.208   1.054   0.465 -0.1704  0.6619 -0.0303
  470TMC3    O2 7005   1.033   1.547   0.928 -0.5226 -0.4360  0.0261
  471MPD2     C 7006   1.696   3.021  16.713  0.2964 -0.2146  0.0189
  471MPD2    C1 7007   1.655   2.898  16.672 -0.2219  0.7246  0.0829
  471MPD2    C2 7008   1.711   2.785  16.730 -0.5576 -0.1944 -0.2691
  471MPD2    C3 7009   1.808   2.801  16.829  0.2429  0.0088  0.1490
  471MPD2    C4 7010   1.855   2.925  16.863  0.2824  0.1417 -0.2580
  471MPD2    C5 7011   1.801   3.039  16.804  0.2996  0.1024  0.2023
  471MPD2     H 7012   1.680   2.688  16.694 -1.5891 -0.3642  1.0724
  471MPD2    H1 7013   1.938   2.939  16.932 -0.4060  1.3922  0.3273
  471MPD2    H2 7014   1.665   3.109  16.658  2.5081  0.7743  0.3588
  471MPD2    H3 7015   1.843   3.137  16.825  0.1692 -0.0862  1.3321
  471MPD2     N 7016   1.866   2.692  16.898 -0.0441  0.4795 -0.1299
  471MPD2    H5 7017   1.933   2.720  16.969  1.0973 -2.7850  0.1155
  471MPD2    N1 7018   1.559   2.884  16.575 -0.0736 -0.9815  0.4711
  471MPD2    H7 7019   1.561   2.788  16.541 -1.2517 -0.2752 -1.6220
  472TMC3    C1 7020   1.348   2.907  16.488 -0.6072  0.0843 -0.5617
  472TMC3    C2 7021   1.228   2.918  16.549  0.3334 -0.5535  0.3100
  472TMC3    C3 7022   1.160   2.802  16.562 -0.1175 -0.1169  0.7506
  472TMC3    C4 7023   1.385   2.795  16.424  0.6471 -0.1711  0.0086
  472TMC3    C5 7024   1.302   2.680  16.430 -0.3478 -0.3109  0.6421
  472TMC3    C6 7025   1.195   2.680  16.513 -0.4364  0.4414  0.2817
  472TMC3     C 7026   1.453   2.973  16.555 -1.0224 -0.4245  0.7481
  472TMC3     O 7027   1.429   3.078  16.609 -0.4234 -0.7627  0.3984
  472TMC3     H 7028   1.211   3.009  16.606 -2.0217  0.0874 -1.4102
  472TMC3    H1 7029   1.477   2.795  16.367 -0.1190  3.1553 -1.1721
  472TMC3    H2 7030   1.143   2.589  16.542 -2.0528  0.8590 -1.2809
  472TMC3    C7 7031   1.345   2.560  16.364 -0.5592 -0.5652 -0.6931
  472TMC3    C8 7032   1.073   2.801  16.688 -0.1180 -0.7590  0.0142
  472TMC3    O1 7033   1.394   2.572  16.250 -0.4424 -0.2054 -0.2397
  472TMC3    O2 7034   1.077   2.899  16.759 -0.4937  0.3630 -0.6386
  473MPD2     C 7035   1.281   4.654  14.271 -0.2403 -0.4096 -0.8998
  473MPD2    C1 7036   1.210   4.719  14.175  0.2385 -0.2733  0.0800
  473MPD2    C2 7037   1.219   0.138  14.181  0.2869  0.4553 -0.1099
  473MPD2    C3 7038   1.290   0.206  14.278  0.2740  0.0652 -0.1349
  473MPD2    C4 7039   1.358   0.131  14.367  0.6245 -0.3434 -0.4074
  473MPD2    C5 7040   1.359   4.721  14.361  0.6215  0.1770  0.0689
  473MPD2     H 7041   1.163   0.197  14.109 -0.0318 -2.1176 -1.9831
  473MPD2    H1 7042   1.420   0.169  14.448  0.7613  1.1396 -1.2161
  473MPD2    H2 7043   1.279   4.545  14.268 -3.0336 -0.3453 -1.8336
  473MPD2    H3 7044   1.422   4.674  14.435  1.6396  0.2337 -0.7656
  473MPD2     N 7045   1.311   0.344  14.280  0.1911  0.1452 -0.1350
  473MPD2    H5 7046   1.365   0.385  14.356  0.3583  2.1503 -1.3321
  473MPD2    N1 7047   1.137   4.648  14.076  0.2520  0.0037  0.3618
  473MPD2    H7 7048   1.055   4.694  14.036 -0.7771 -1.2946  0.9686
  474TMC3    C1 7049   1.323   0.549  14.217 -0.0207  0.1176  0.6554
  474TMC3    C2 7050   1.433   0.562  14.143  0.3290 -0.5502 -0.0192
  474TMC3    C3 7051   1.535   0.638  14.193 -0.2762 -0.0420 -0.0662
  474TMC3    C4 7052   1.306   0.597  14.339  0.6215  0.0084  0.2798
  474TMC3    C5 7053   1.406   0.680  14.385  0.3040  0.5672 -0.9373
  474TMC3    C6 7054   1.520   0.700  14.316  0.8039 -0.3380  0.0582
  474TMC3     C 7055   1.257   0.430  14.193 -0.2046 -0.2356  0.2087
  474TMC3     O 7056   1.199   0.411  14.087  0.4448 -0.0263  1.0717
  474TMC3     H 7057   1.431   0.522  14.042  0.4079 -0.9081  0.1229
  474TMC3    H1 7058   1.220   0.570  14.400  0.1249 -1.8199 -1.2154
  474TMC3    H2 7059   1.601   0.757  14.361  0.5620 -0.4074  0.5915
  474TMC3    C7 7060   1.408   0.695  14.529  0.1010 -0.0131 -0.9540
  474TMC3    C8 7061   1.629   0.693  14.095  0.4262 -0.5964 -0.0381
  474TMC3    O1 7062   1.523   0.693  14.574 -0.4779  0.2001 -0.3660
  474TMC3    O2 7063   1.655   0.622  13.996 -0.7800  0.2729 -0.1572
  475MPD2     C 7064   3.650   2.827  11.408 -0.4341  0.4755  0.1493
  475MPD2    C1 7065   3.599   2.882  11.293  0.1375 -0.1699 -0.1473
  475MPD2    C2 7066   3.548   2.797  11.198 -0.1982  0.1608 -0.5068
  475MPD2    C3 7067   3.541   2.662  11.218  0.3186 -0.0647  0.2147
  475MPD2    C4 7068   3.585   2.613  11.339 -0.0487  0.4472 -0.3969
  475MPD2    C5 7069   3.635   2.695  11.439  0.3476  0.5288  0.5819
  475MPD2     H 7070   3.510   2.834  11.104  1.8797  0.4749 -1.2119
  475MPD2    H1 7071   3.581   2.507  11.362  0.9678  0.5808  0.3577
  475MPD2    H2 7072   3.716   2.882  11.474  0.5571  0.0309 -0.4779
  475MPD2    H3 7073   3.685   2.652  11.525  0.1345 -0.2189  0.3277
  475MPD2     N 7074   3.481   2.582  11.113 -0.6424 -0.3797  0.7440
  475MPD2    H5 7075   3.446   2.619  11.025  1.1575  1.5791  0.8386
  475MPD2    N1 7076   3.620   3.020  11.258 -0.0330 -0.1271 -0.0032
  475MPD2    H7 7077   3.655   3.079  11.333  1.0851  0.2550 -0.8278
  476TMC3    C1 7078   3.674   3.203  11.137  0.2738 -0.0452 -0.3261
  476TMC3    C2 7079   3.751   3.209  11.023 -0.2361 -0.0018 -0.1103
  476TMC3    C3 7080   3.851   3.300  11.000  0.3846  0.0238  0.7205
  476TMC3    C4 7081   3.708   3.284  11.244  0.2964  0.7236  0.1549
  476TMC3    C5 7082   3.808   3.372  11.226 -0.0163 -0.2858  0.3159
  476TMC3    C6 7083   3.878   3.387  11.108 -0.0646 -0.4636  1.3936
  476TMC3     C 7084   3.589   3.087  11.147 -0.4080 -0.0158 -0.3779
  476TMC3     O 7085   3.540   3.046  11.042  0.3443 -0.1901 -0.0599
  476TMC3     H 7086   3.732   3.130  10.951  1.3979  0.4288 -1.0179
  476TMC3    H1 7087   3.652   3.287  11.337  1.7102 -0.8522  1.0694
  476TMC3    H2 7088   3.955   3.462  11.093  0.1745 -1.0189 -0.1218
  476TMC3    C7 7089   3.824   3.478  11.331  0.4122 -0.0474  0.1677
  476TMC3    C8 7090   3.964   3.276  10.909 -0.0244 -0.0277  0.1200
  476TMC3    O1 7091   3.796   3.448  11.446 -0.3815  0.3161  0.2094
  476TMC3    O2 7092   4.010   3.378  10.853  0.2569 -0.1534 -0.2465
  477MPD2     C 7093   1.846   4.318  11.702 -0.4609 -0.5993 -0.3962
  477MPD2    C1 7094   1.843   4.420  11.797  0.1570  0.1784  1.1347
  477MPD2    C2 7095   1.923   4.404  11.907  0.6693  0.3231  0.0833
  477MPD2    C3 7096   1.994   4.281  11.928 -0.0514 -0.8005  0.3358
  477MPD2    C4 7097   1.988   4.181  11.832  0.6081 -0.4138  0.3823
  477MPD2    C5 7098   1.913   4.202  11.715  0.0755 -0.5309 -1.1367
  477MPD2     H 7099   1.920   4.478  11.986  3.0948 -0.7655  1.1859
  477MPD2    H1 7100   2.047   4.090  11.826  0.5879 -0.4594  0.9378
  477MPD2    H2 7101   1.801   4.333  11.605 -1.1487  0.4172  0.0760
  477MPD2    H3 7102   1.909   4.126  11.638  1.4368 -1.4013 -0.3498
  477MPD2     N 7103   2.045   4.252  12.057  0.5779 -0.4405 -1.2685
  477MPD2    H5 7104   2.027   4.312  12.136 -1.1067 -0.9677 -1.2627
  477MPD2    N1 7105   1.770   4.533  11.756 -0.1639 -0.3675  0.5843
  477MPD2    H7 7106   1.709   4.520  11.677  0.4553 -3.5326  0.6361
  478TMC3    C1 7107   1.657   0.019  11.763 -0.0854  0.2918 -0.2425
  478TMC3    C2 7108   1.635   0.135  11.820 -0.1168 -0.3373  0.5502
  478TMC3    C3 7109   1.590   0.245  11.750  0.0758  0.9111 -0.4091
  478TMC3    C4 7110   1.624   0.006  11.628 -0.0345 -0.0682 -0.3107
  478TMC3    C5 7111   1.570   0.107  11.554  0.2621 -0.8312 -0.3877
  478TMC3    C6 7112   1.547   0.232  11.619 -0.6485 -0.2812  0.3180
  478TMC3     C 7113   1.756   4.656  11.825  1.0394 -0.6764 -0.1984
  478TMC3     O 7114   1.798   4.688  11.932 -0.6168 -0.3718 -0.6824
  478TMC3     H 7115   1.678   0.156  11.917 -0.9977 -0.5913  0.9998
  478TMC3    H1 7116   1.647   4.634  11.583  3.6289 -0.8895  3.3519
  478TMC3    H2 7117   1.505   0.315  11.563 -0.7978 -0.3909  0.2683
  478TMC3    C7 7118   1.596   0.091  11.415  0.1818 -0.0109  0.3614
  478TMC3    C8 7119   1.532   0.358  11.834 -0.2124  0.0375 -0.0955
  478TMC3    O1 7120   1.699   0.026  11.391  0.5686 -0.0385 -0.2597
  478TMC3    O2 7121   1.584   0.369  11.944 -0.0708  0.2594  0.5637
  479MPD2     C 7122   0.982   1.716  14.933 -0.4659 -0.2239  0.5064
  479MPD2    C1 7123   0.970   1.736  15.071  0.4639  0.0422  0.1538
  479MPD2    C2 7124   1.075   1.780  15.149 -0.3875 -0.6294  0.5801
  479MPD2    C3 7125   1.198   1.804  15.089 -0.8401 -0.0877 -0.3003
  479MPD2    C4 7126   1.208   1.790  14.953  0.0426  0.2635 -0.1916
  479MPD2    C5 7127   1.104   1.744  14.873  1.2432  0.3782 -0.3971
  479MPD2     H 7128   1.059   1.789  15.256 -3.0051 -0.0279  0.1461
  479MPD2    H1 7129   1.303   1.810  14.906 -1.3211  1.6121 -2.3971
  479MPD2    H2 7130   0.898   1.698  14.867  1.0855 -0.8455 -1.3090
  479MPD2    H3 7131   1.111   1.720  14.768 -0.7263  0.7353 -0.6131
  479MPD2     N 7132   1.316   1.848  15.154 -0.5359 -0.5536  0.2766
  479MPD2    H5 7133   1.391   1.868  15.088 -0.3563 -3.0792 -0.2778
  479MPD2    N1 7134   0.843   1.713  15.128  0.5334  0.4767 -0.0156
  479MPD2    H7 7135   0.773   1.684  15.060 -0.7804 -0.0274  1.5701
  480TMC3    C1 7136   1.136   1.904  15.578  0.2155 -0.3717  0.4696
  480TMC3    C2 7137   1.051   2.012  15.550 -0.5777  0.1058  0.0475
  480TMC3    C3 7138   1.057   2.068  15.427  0.2852  0.5717  0.2313
  480TMC3    C4 7139   1.223   1.861  15.484  0.1018  0.0845  0.7372
  480TMC3    C5 7140   1.226   1.915  15.361  0.5492 -0.4016  0.2362
  480TMC3    C6 7141   1.144   2.022  15.330 -0.2858 -1.1025  0.1622
  480TMC3     C 7142   1.110   1.806  15.679 -0.2356  0.3915 -0.7116
  480TMC3     O 7143   1.140   1.692  15.653  0.0844 -0.3865 -0.0761
  480TMC3     H 7144   0.972   2.033  15.622 -1.4962 -2.0905 -0.3122
  480TMC3    H1 7145   1.291   1.779  15.505  0.5601  0.6749  1.5570
  480TMC3    H2 7146   1.154   2.064  15.230 -0.4178  0.8654  0.9685
  480TMC3    C7 7147   1.339   1.876  15.289  0.4655 -0.0440 -0.7152
  480TMC3    C8 7148   0.936   2.117  15.373  0.2379 -0.7830 -0.1281
  480TMC3    O1 7149   1.447   1.898  15.343  0.2255 -0.2972  0.4266
  480TMC3    O2 7150   0.850   2.148  15.456 -0.3202 -0.0469 -0.3534
  481MPD2     C 7151   2.620   0.800  14.433 -0.1688 -0.2845 -0.8422
  481MPD2    C1 7152   2.558   0.921  14.405  0.0510  0.1633 -0.1553
  481MPD2    C2 7153   2.526   1.005  14.513  0.0069 -0.3393 -0.4414
  481MPD2    C3 7154   2.546   0.951  14.647  0.3193 -0.0305  0.1525
  481MPD2    C4 7155   2.605   0.826  14.663  0.5262 -0.1700  0.0099
  481MPD2    C5 7156   2.642   0.746  14.557 -0.3418 -0.3089  0.3529
  481MPD2     H 7157   2.467   1.094  14.497 -1.4148 -0.7767  2.3220
  481MPD2    H1 7158   2.628   0.795  14.764 -1.8856 -1.5053  0.1649
  481MPD2    H2 7159   2.637   0.727  14.355  0.2389  0.2899 -1.2859
  481MPD2    H3 7160   2.681   0.647  14.575  0.5828  0.0754  0.4911
  481MPD2     N 7161   2.502   1.022  14.754 -0.4190  0.0383  0.4043
  481MPD2    H5 7162   2.491   0.969  14.840  2.1882 -2.3088 -0.7245
  481MPD2    N1 7163   2.534   0.950  14.267 -0.1188 -0.7059  0.0947
  481MPD2    H7 7164   2.584   0.905  14.191 -0.9847 -0.1524 -0.7965
  482TMC3    C1 7165   2.463   1.080  14.081  0.3686 -0.4004  0.5481
  482TMC3    C2 7166   2.496   0.976  14.000 -0.3333 -0.4452 -0.4017
  482TMC3    C3 7167   2.491   0.994  13.869  0.4771 -0.0666  0.2161
  482TMC3    C4 7168   2.437   1.207  14.037  0.1043 -0.5110  0.1185
  482TMC3    C5 7169   2.448   1.229  13.906  0.1838  0.2402 -0.0852
  482TMC3    C6 7170   2.467   1.121  13.817  0.2930 -0.6905  0.4376
  482TMC3     C 7171   2.450   1.054  14.229 -0.4607 -0.5066  0.4085
  482TMC3     O 7172   2.367   1.116  14.294 -0.8541 -1.1423 -0.1205
  482TMC3     H 7173   2.495   0.877  14.044  1.4664  0.4303  1.5683
  482TMC3    H1 7174   2.408   1.285  14.107 -1.2093 -0.0525 -0.9458
  482TMC3    H2 7175   2.477   1.139  13.711 -2.0079  1.0498  0.5077
  482TMC3    C7 7176   2.375   1.345  13.853 -0.0639  0.7145  0.2767
  482TMC3    C8 7177   2.438   0.880  13.798  0.1209  0.2418  0.9631
  482TMC3    O1 7178   2.335   1.327  13.738  0.9823  0.4934 -0.7084
  482TMC3    O2 7179   2.470   0.769  13.826  0.1600 -0.1683  0.3140
  483TMC3    C1 7180   0.117   0.147   0.190 -0.1429 -0.1842  0.7633
  483TMC3    C2 7181   0.145   0.280   0.165  0.1604 -0.4152 -0.0270
  483TMC3    C3 7182   0.220   0.345   0.257 -0.1659 -0.0398 -0.5124
  483TMC3    C4 7183   0.158   0.080   0.300  0.1981 -0.7038 -0.0476
  483TMC3    C5 7184   0.246   0.152   0.379  0.1183 -0.1043  0.3383
  483TMC3    C6 7185   0.263   0.287   0.373 -0.4930 -0.2198  0.4136
  483TMC3     C 7186   0.022   0.083   0.105 -0.4575 -0.7577  0.1974
  483TMC3     O 7187   4.676   0.160   0.038  0.3503  0.2207  0.5415
  483TMC3     H 7188   0.113   0.318   0.069 -2.9902  2.8257  2.2826
  483TMC3    H1 7189   0.125   4.704   0.325 -0.0794 -0.6242 -0.1006
  483TMC3    H2 7190   0.318   0.348   0.444  2.2377 -1.2983 -0.7665
  483TMC3    C7 7191   0.316   0.092   0.490 -0.7065  0.2867  0.2585
  483TMC3    C8 7192   0.269   0.480   0.231 -0.3270  0.1237  0.7619
  483TMC3    O1 7193   0.380   0.169   0.558 -0.3652 -0.4975 -0.4361
  483TMC3    O2 7194   0.365   0.520   0.301  0.1371  0.3651  0.0086
  484MPD2     C 7195   2.678   2.998  12.359  0.4858 -0.3467  0.7851
  484MPD2    C1 7196   2.729   2.958  12.481 -0.0770 -0.1095  0.4744
  484MPD2    C2 7197   2.868   2.945  12.506 -0.2388 -0.1953 -0.6394
  484MPD2    C3 7198   2.957   2.964  12.395  0.5095  0.3651 -0.6034
  484MPD2    C4 7199   2.901   3.002  12.271 -0.2010  0.1121 -0.0691
  484MPD2    C5 7200   2.766   3.021  12.260 -0.2431  0.6921  0.0694
  484MPD2     H 7201   2.896   2.925  12.608 -0.8136 -1.3283 -0.7030
  484MPD2    H1 7202   2.959   3.022  12.182  1.6932 -0.6462  0.9905
  484MPD2    H2 7203   2.573   3.007  12.334  0.5830 -3.0265 -0.5549
  484MPD2    H3 7204   2.731   3.048  12.161  1.9482 -2.2185 -1.4944
  484MPD2     N 7205   3.097   2.967  12.406  0.0801  0.0628 -0.3818
  484MPD2    H5 7206   3.151   2.979  12.321 -2.3314  2.0567 -1.6111
  484MPD2    N1 7207   2.641   2.928  12.592  0.0760 -0.5290  0.7464
  484MPD2    H7 7208   2.699   2.921  12.675  3.3126  0.5539 -1.3810
  485TMC3    C1 7209   3.315   2.986  12.484  0.0616 -0.2268 -0.5583
  485TMC3    C2 7210   3.402   2.919  12.569  0.8781 -0.5114 -0.1270
  485TMC3    C3 7211   3.528   2.896  12.528 -0.3918 -0.0192  0.4793
  485TMC3    C4 7212   3.351   3.031  12.364 -0.0833  0.8168 -0.0032
  485TMC3    C5 7213   3.485   3.016  12.329  0.5045 -1.2533  0.2831
  485TMC3    C6 7214   3.576   2.955  12.412  0.2688 -0.3360  0.7843
  485TMC3     C 7215   3.179   2.955  12.510  0.2558 -0.4916 -0.0556
  485TMC3     O 7216   3.145   2.937  12.625  0.2193 -0.0974  0.0065
  485TMC3     H 7217   3.361   2.881  12.662 -0.9538 -0.7120 -1.0034
  485TMC3    H1 7218   3.283   3.080  12.295  0.1418 -1.5415 -1.8929
  485TMC3    H2 7219   3.679   2.936  12.384  0.1212  0.1333 -0.0713
  485TMC3    C7 7220   3.509   2.996  12.188  0.1717  0.1234  0.0424
  485TMC3    C8 7221   3.563   2.755  12.507 -0.1294  0.6885 -0.1400
  485TMC3    O1 7222   3.453   3.073  12.108 -0.3404  0.1345  0.2978
  485TMC3    O2 7223   3.630   2.732  12.408 -0.5878  0.0505  0.0641
  486MPD2     C 7224   0.431   1.803  12.922 -0.5181  0.3435  0.0521
  486MPD2    C1 7225   0.306   1.816  12.871 -0.2974  0.3045  0.3925
  486MPD2    C2 7226   0.266   1.945  12.836  0.0791 -0.7517  1.4150
  486MPD2    C3 7227   0.353   2.050  12.841  0.6503  0.0335  0.1392
  486MPD2    C4 7228   0.478   2.034  12.892  0.0869 -0.1602 -0.3613
  486MPD2    C5 7229   0.515   1.908  12.936  0.3702 -0.2397 -0.4920
  486MPD2     H 7230   0.166   1.967  12.800  0.8128  0.3829  0.0631
  486MPD2    H1 7231   0.554   2.111  12.892 -3.1004  2.9656  0.2274
  486MPD2    H2 7232   0.471   1.709  12.959 -0.3033  0.4503  0.0901
  486MPD2    H3 7233   0.615   1.894  12.975 -1.1329 -1.9528  2.6960
  486MPD2     N 7234   0.302   2.181  12.812  0.0998  0.5645  0.1729
  486MPD2    H5 7235   0.208   2.176  12.774 -0.0967 -1.2334  0.9149
  486MPD2    N1 7236   0.228   1.697  12.852  0.5264 -0.1714 -0.0289
  486MPD2    H7 7237   0.266   1.608  12.883  0.5328 -0.8699 -2.0410
  487TMC3    C1 7238   0.053   1.566  12.761  0.1341  0.8775 -0.9511
  487TMC3    C2 7239   4.642   1.555  12.744  0.3854  0.7549 -0.3644
  487TMC3    C3 7240   4.595   1.432  12.740 -0.1246 -0.6928 -0.3338
  487TMC3    C4 7241   0.135   1.459  12.753  0.1401 -0.1323  0.2561
  487TMC3    C5 7242   0.082   1.333  12.744  0.0806  0.1152 -0.2983
  487TMC3    C6 7243   4.673   1.318  12.747  0.0075  0.4732  0.1602
  487TMC3     C 7244   0.103   1.693  12.788 -0.2200 -0.3143 -0.3091
  487TMC3     O 7245   0.032   1.788  12.755  0.1607 -0.0277  0.4188
  487TMC3     H 7246   4.585   1.635  12.789  2.2666  1.5187  0.6776
  487TMC3    H1 7247   0.243   1.459  12.766  0.0842  2.3988  0.7126
  487TMC3    H2 7248   4.637   1.221  12.713 -1.3305  1.0958 -0.1902
  487TMC3    C7 7249   0.132   1.262  12.862  0.5690 -0.6223 -0.5420
  487TMC3    C8 7250   4.478   1.407  12.822  0.0345 -0.3802 -0.0621
  487TMC3    O1 7251   0.251   1.247  12.880 -0.1307 -0.1948 -0.0254
  487TMC3    O2 7252   4.479   1.293  12.863 -0.8191  0.3691 -0.4583
  488MPD2     C 7253   0.576   3.880  16.879 -0.1237  0.5488  0.0701
  488MPD2    C1 7254   0.525   4.004  16.830 -0.1995 -0.3685 -0.2348
  488MPD2    C2 7255   0.480   4.093  16.929 -0.0449  0.3384 -0.4985
  488MPD2    C3 7256   0.481   4.061  17.061  0.2002 -0.6608 -0.4164
  488MPD2    C4 7257   0.518   3.937  17.097 -0.1459  0.3410 -0.2417
  488MPD2    C5 7258   0.569   3.849  17.007  0.0731  0.7827 -0.2433
  488MPD2     H 7259   0.447   4.191  16.899  0.8079  1.3084  1.7626
  488MPD2    H1 7260   0.505   3.895  17.196 -0.6485  1.1181  0.0213
  488MPD2    H2 7261   0.620   3.806  16.813  2.3115 -0.4724  2.8346
  488MPD2    H3 7262   0.597   3.748  17.037  0.1169  0.0170 -2.8336
  488MPD2     N 7263   0.448   4.160  17.158  0.3153  0.2199  0.4287
  488MPD2    H5 7264   0.434   4.250  17.114  0.1850  0.4203  0.8795
  488MPD2    N1 7265   0.503   4.044  16.694  0.2941 -0.3178  0.2813
  488MPD2    H7 7266   0.488   4.142  16.673 -3.5065 -0.8203  0.5809
  489TMC3    C1 7267   0.454   4.266  17.367 -0.3419 -0.0062 -0.1890
  489TMC3    C2 7268   0.430   4.384  17.304 -0.1091 -0.7155 -0.1502
  489TMC3    C3 7269   0.462   4.499  17.372  0.2598 -0.2617 -0.4930
  489TMC3    C4 7270   0.511   4.261  17.493  0.3461  0.0390  0.0700
  489TMC3    C5 7271   0.551   4.373  17.558  0.8497 -0.0353  0.6839
  489TMC3    C6 7272   0.529   4.488  17.496  0.3189 -0.2117 -0.2551
  489TMC3     C 7273   0.450   4.142  17.294  0.0771  0.2803 -0.0204
  489TMC3     O 7274   0.453   4.039  17.361 -0.1239  0.6825 -0.1961
  489TMC3     H 7275   0.388   4.392  17.205  2.1186  1.2852 -0.9192
  489TMC3    H1 7276   0.504   4.168  17.547  2.8897 -0.1666  0.0440
  489TMC3    H2 7277   0.572   4.574  17.545 -0.2102  0.5187 -1.0682
  489TMC3    C7 7278   0.658   4.365  17.660 -0.3441  0.5378  0.6769
  489TMC3    C8 7279   0.508   4.599  17.283  0.1454  0.2361  0.1547
  489TMC3    O1 7280   0.716   4.468  17.692  0.7918  0.1188 -0.1770
  489TMC3    O2 7281   0.552   4.566  17.173 -0.0092  0.0847 -0.0386
  490MPD2     C 7282   0.954   3.373  17.310 -0.1448 -0.4810 -0.3435
  490MPD2    C1 7283   0.983   3.286  17.411 -0.3309  0.4779 -0.0052
  490MPD2    C2 7284   1.094   3.310  17.491  0.1055  0.3643 -0.6547
  490MPD2    C3 7285   1.176   3.423  17.470 -0.7663 -0.7723 -0.3133
  490MPD2    C4 7286   1.147   3.510  17.370 -0.6439 -0.7094  0.2311
  490MPD2    C5 7287   1.037   3.481  17.296  0.2441 -0.1837  0.7538
  490MPD2     H 7288   1.100   3.243  17.576  1.6078 -1.5440 -2.2651
  490MPD2    H1 7289   1.203   3.600  17.347 -2.5053  0.7505  1.4020
  490MPD2    H2 7290   0.871   3.357  17.242  0.1512 -0.9238 -0.6066
  490MPD2    H3 7291   1.002   3.549  17.219  1.2294  1.1640  1.5069
  490MPD2     N 7292   1.285   3.450  17.552 -0.5116 -0.2292  0.3273
  490MPD2    H5 7293   1.359   3.506  17.509 -2.3483  1.1522 -1.0322
  490MPD2    N1 7294   0.909   3.177  17.449 -0.2431  0.3236  0.1563
  490MPD2    H7 7295   0.947   3.108  17.512 -0.0537  1.1324  0.9288
  491TMC3    C1 7296   0.763   2.991  17.409 -0.0271 -0.4363  0.3027
  491TMC3    C2 7297   0.837   2.932  17.508 -0.6168  0.7610 -0.0787
  491TMC3    C3 7298   0.798   2.799  17.540 -0.0584  0.2353  0.2190
  491TMC3    C4 7299   0.665   2.924  17.334 -0.6471  0.4101 -1.0175
  491TMC3    C5 7300   0.624   2.801  17.386  0.3022 -0.0093  0.1042
  491TMC3    C6 7301   0.689   2.735  17.484  0.1929 -0.5014  0.1311
  491TMC3     C 7302   0.801   3.128  17.375 -0.1559  1.3128 -0.2005
  491TMC3     O 7303   0.738   3.175  17.280 -0.2363 -1.0319 -0.0406
  491TMC3     H 7304   0.896   2.981  17.585  0.8206 -0.0648 -0.6372
  491TMC3    H1 7305   0.613   2.971  17.252 -0.3747  0.3833 -1.2067
  491TMC3    H2 7306   0.661   2.634  17.513  0.0433 -0.5009 -0.0148
  491TMC3    C7 7307   0.527   2.724  17.304  0.2069 -0.1121 -0.3730
  491TMC3    C8 7308   0.869   2.724  17.643  0.4480 -0.5025 -0.0026
  491TMC3    O1 7309   0.513   2.763  17.188 -0.1746 -0.0471  0.4750
  491TMC3    O2 7310   0.810   2.637   0.008  0.1031 -0.2378  0.1338
  492MPD2     C 7311   0.438   3.064  10.985  0.2215  0.2053 -0.0451
  492MPD2    C1 7312   0.550   3.087  11.058 -0.4329  0.4848  0.5795
  492MPD2    C2 7313   0.560   3.031  11.188 -0.1636  0.2126 -0.0476
  492MPD2    C3 7314   0.462   2.949  11.237 -0.2038 -0.3206  0.2984
  492MPD2    C4 7315   0.354   2.921  11.152  0.3093  0.1545  0.7305
  492MPD2    C5 7316   0.341   2.983  11.033 -0.0200  0.6245  0.2098
  492MPD2     H 7317   0.652   3.048  11.244 -0.5035  0.0737  0.5494
  492MPD2    H1 7318   0.278   2.853  11.190 -1.3627  2.0331  0.8070
  492MPD2    H2 7319   0.420   3.109  10.888  1.0395 -0.9587 -0.7388
  492MPD2    H3 7320   0.249   2.970  10.978 -0.1098  1.0864  0.2523
  492MPD2     N 7321   0.465   2.892  11.370 -0.2240 -0.2823  0.0704
  492MPD2    H5 7322   0.416   2.805  11.388 -0.2736 -0.6168 -1.7454
  492MPD2    N1 7323   0.652   3.150  10.990 -0.1658 -0.6449 -0.3853
  492MPD2    H7 7324   0.637   3.156  10.890  1.6951 -0.7053 -0.6732
  493TMC3    C1 7325   0.853   3.271  10.961  0.3815 -0.4960 -0.4164
  493TMC3    C2 7326   0.950   3.348  11.018 -0.1060  0.1359  0.3717
  493TMC3    C3 7327   1.039   3.408  10.933 -0.6916 -0.5167 -0.3157
  493TMC3    C4 7328   0.833   3.257  10.829  0.2823  0.4426 -0.5800
  493TMC3    C5 7329   0.922   3.323  10.750  0.5194  0.6944 -0.4745
  493TMC3    C6 7330   1.031   3.392  10.795 -0.7041 -0.2955 -0.5568
  493TMC3     C 7331   0.757   3.215  11.055 -0.0040  0.5617 -0.6381
  493TMC3     O 7332   0.782   3.226  11.176 -0.1465  0.5442  0.2500
  493TMC3     H 7333   0.963   3.355  11.125  1.3537 -0.0385  0.2076
  493TMC3    H1 7334   0.761   3.193  10.778 -1.0144  2.7438 -1.6430
  493TMC3    H2 7335   1.114   3.427  10.735 -0.4034 -0.1788 -0.0698
  493TMC3    C7 7336   0.905   3.294  10.609 -0.2281 -0.0685 -0.0509
  493TMC3    C8 7337   1.156   3.466  10.995 -0.5869  0.1057  1.0446
  493TMC3    O1 7338   0.788   3.291  10.569  0.1160  0.3068  0.6993
  493TMC3    O2 7339   1.171   3.428  11.112 -0.2439  0.2511  0.1613
  494TMC3    C1 7340   2.338   4.555   0.878 -0.0378  0.4747  0.3253
  494TMC3    C2 7341   2.419   4.444   0.893 -0.0533  0.7113  0.8222
  494TMC3    C3 7342   2.507   4.424   0.791 -0.8013  0.6779 -0.7267
  494TMC3    C4 7343   2.337   4.642   0.776  0.0711 -0.4619  0.3594
  494TMC3    C5 7344   2.427   4.619   0.681  0.4571  0.0807 -0.6058
  494TMC3    C6 7345   2.516   4.507   0.681 -0.7308  0.5017 -0.1548
  494TMC3     C 7346   2.207   4.544   0.948  0.3115  0.0794 -0.1114
  494TMC3     O 7347   2.113   4.603   0.889 -0.1815  0.0507  0.0378
  494TMC3     H 7348   2.400   4.364   0.964 -0.8582  0.7055  0.5993
  494TMC3    H1 7349   2.280   0.009   0.791  0.6173 -0.3002  1.4102
  494TMC3    H2 7350   2.573   4.486   0.591  1.9361  0.5160  1.5398
  494TMC3    C7 7351   2.408   4.685   0.553 -0.5635 -0.1541 -0.0235
  494TMC3    C8 7352   2.569   4.295   0.777 -0.3792 -0.3279  0.4326
  494TMC3    O1 7353   2.469   4.644   0.453 -0.2842 -0.2908  0.1818
  494TMC3    O2 7354   2.513   4.210   0.850  0.4077 -0.0175  0.8017
  495TMC3    C1 7355   0.971   1.793  14.481  0.0855 -0.1978 -0.8257
  495TMC3    C2 7356   0.844   1.769  14.430  0.4241  0.2995  0.1682
  495TMC3    C3 7357   0.748   1.858  14.459 -0.2137  0.1093 -0.1668
  495TMC3    C4 7358   0.991   1.887  14.577 -0.1981  0.3155 -0.2204
  495TMC3    C5 7359   0.889   1.966  14.599  0.1478  0.8637 -0.6579
  495TMC3    C6 7360   0.767   1.970  14.540 -0.9661  0.9056  0.1684
  495TMC3     C 7361   1.071   1.701  14.438 -0.0054 -0.1765  0.0175
  495TMC3     O 7362   1.036   1.600  14.374 -0.5025  0.3845  0.2340
  495TMC3     H 7363   0.832   1.681  14.367  0.9124  0.8041 -0.6295
  495TMC3    H1 7364   1.083   1.910  14.630  1.9243 -1.4818 -3.0811
  495TMC3    H2 7365   0.692   2.047  14.554 -0.3796  1.7041 -1.0892
  495TMC3    C7 7366   0.897   2.033  14.730 -0.0273  0.1432 -0.5250
  495TMC3    C8 7367   0.608   1.820  14.441 -0.8678  0.7074  0.0527
  495TMC3    O1 7368   1.006   2.078  14.764  0.0076 -0.3909 -0.2324
  495TMC3    O2 7369   0.521   1.872  14.510 -0.6307  0.4260 -0.4816
  496MPD2     C 7370   3.862   2.129  15.629  0.2329  0.3671  0.5288
  496MPD2    C1 7371   3.730   2.116  15.584  0.3217 -0.0209  0.5200
  496MPD2    C2 7372   3.629   2.189  15.639 -0.1512 -0.1042  0.3211
  496MPD2    C3 7373   3.654   2.284  15.735 -0.2078 -0.0932 -0.1891
  496MPD2    C4 7374   3.788   2.302  15.767 -0.3625  0.2097  0.7719
  496MPD2    C5 7375   3.891   2.227  15.716 -0.3752  0.0302 -0.0519
  496MPD2     H 7376   3.527   2.156  15.620 -0.5231  1.8435 -1.0411
  496MPD2    H1 7377   3.825   2.367  15.845 -0.6853  1.5226 -0.1770
  496MPD2    H2 7378   3.945   2.072  15.587 -0.5541  0.8485 -1.6451
  496MPD2    H3 7379   3.992   2.241  15.753 -1.0072  0.8237  1.3551
  496MPD2     N 7380   3.544   2.358  15.796 -0.3051  0.1049  0.3463
  496MPD2    H5 7381   3.572   2.416  15.874  1.0637  1.1340 -0.9057
  496MPD2    N1 7382   3.708   2.016  15.482  0.3757  0.0807 -0.1040
  496MPD2    H7 7383   3.795   1.977  15.447  0.1057 -0.7313  0.1244
  497TMC3    C1 7384   3.327   2.405  15.874  0.7039  0.6017  0.6689
  497TMC3    C2 7385   3.196   2.359  15.876  0.8066  0.0414 -0.0987
  497TMC3    C3 7386   3.110   2.406  15.974  0.6329  0.0113 -0.5388
  497TMC3    C4 7387   3.357   2.514  15.950 -0.6039  0.0344  0.4023
  497TMC3    C5 7388   3.264   2.564  16.037  0.3934 -0.1617  0.1881
  497TMC3    C6 7389   3.144   2.508  16.054 -0.0086  1.7611 -0.2754
  497TMC3     C 7390   3.410   2.342  15.776  0.3470 -0.1886 -0.2503
  497TMC3     O 7391   3.356   2.273  15.691  0.3615  0.0534  0.3615
  497TMC3     H 7392   3.179   2.272  15.813  0.7737  0.9695 -1.3704
  497TMC3    H1 7393   3.453   2.564  15.947 -0.0924 -0.8180  2.4912
  497TMC3    H2 7394   3.081   2.551  16.131 -0.0161 -0.1240  0.7598
  497TMC3    C7 7395   3.313   2.624  16.152 -0.5526  0.4158 -0.1198
  497TMC3    C8 7396   2.986   2.339  16.003  0.3546  0.8029 -0.2218
  497TMC3    O1 7397   3.386   2.724  16.145 -0.3484  1.0125 -0.6775
  497TMC3    O2 7398   2.907   2.399  16.077 -0.0795  0.2087  0.2104
  498MPD2     C 7399   3.460   2.445  10.148 -0.0209 -0.4852 -0.3685
  498MPD2    C1 7400   3.365   2.437  10.055 -0.1500 -0.3320 -0.5087
  498MPD2    C2 7401   3.275   2.333  10.060 -0.4882 -0.2639 -0.0951
  498MPD2    C3 7402   3.263   2.258  10.173  0.3960 -0.1819  0.2065
  498MPD2    C4 7403   3.349   2.283  10.279 -0.3224  0.0253  0.4285
  498MPD2    C5 7404   3.460   2.365  10.260  0.1957  0.4305 -0.6521
  498MPD2     H 7405   3.209   2.312   9.977 -0.8053  1.0308 -0.1646
  498MPD2    H1 7406   3.352   2.232  10.374  1.4728 -2.2757 -0.8435
  498MPD2    H2 7407   3.525   2.531  10.144  0.3129 -0.7483 -0.6430
  498MPD2    H3 7408   3.533   2.393  10.335 -0.3191 -0.6552  0.2485
  498MPD2     N 7409   3.154   2.162  10.184  0.0513 -0.0612  0.2310
  498MPD2    H5 7410   3.083   2.160  10.113  0.0576 -1.1983  0.2634
  498MPD2    N1 7411   3.379   2.521   9.943 -0.3330  0.3612 -0.5286
  498MPD2    H7 7412   3.464   2.576   9.942 -0.3373  0.4436  3.6534
  499TMC3    C1 7413   3.351   2.626   9.738  0.5177 -0.1670 -0.3837
  499TMC3    C2 7414   3.323   2.597   9.609  0.2694  0.3109 -0.0229
  499TMC3    C3 7415   3.397   2.665   9.516  0.0828 -0.2935 -0.0284
  499TMC3    C4 7416   3.443   2.715   9.776  0.4101  0.3870  0.7548
  499TMC3    C5 7417   3.500   2.796   9.682  0.1473 -0.2987 -0.0935
  499TMC3    C6 7418   3.481   2.770   9.545  0.0535 -0.3838 -0.4279
  499TMC3     C 7419   3.296   2.532   9.836 -0.0873 -0.3464 -1.1278
  499TMC3     O 7420   3.183   2.483   9.806 -0.3711 -0.0871 -0.4069
  499TMC3     H 7421   3.261   2.513   9.578  1.2014  0.2818 -1.8226
  499TMC3    H1 7422   3.454   2.741   9.881  2.6272 -2.4828  1.2441
  499TMC3    H2 7423   3.540   2.820   9.470 -0.2797  0.4839 -0.1100
  499TMC3    C7 7424   3.573   2.915   9.733  0.8881 -1.0277  0.3430
  499TMC3    C8 7425   3.396   2.618   9.377  0.2292 -0.0604 -0.7211
  499TMC3    O1 7426   3.549   2.948   9.852 -0.9548 -0.0226  0.1597
  499TMC3    O2 7427   3.385   2.497   9.358  0.0725  0.2858 -0.3504
  500MPD2     C 7428   0.435   4.681  10.142 -0.0952  0.4894 -0.1144
  500MPD2    C1 7429   0.484   4.554  10.167 -0.4150  0.3569 -0.0289
  500MPD2    C2 7430   0.412   4.438  10.138 -0.7027  0.7895  0.5132
  500MPD2    C3 7431   0.305   4.449  10.057 -0.5495  0.0573  0.0881
  500MPD2    C4 7432   0.271   4.578  10.014  0.0395  0.1293  0.4901
  500MPD2    C5 7433   0.327   4.694  10.065 -0.2786 -0.2167 -0.4840
  500MPD2     H 7434   0.448   4.350  10.189 -0.2324 -0.5511 -2.1248
  500MPD2    H1 7435   0.193   4.604   9.944  0.1895 -0.0726  0.2510
  500MPD2    H2 7436   0.488   0.046  10.174 -1.3854  1.5919 -1.0309
  500MPD2    H3 7437   0.282   0.065  10.038 -0.0138  0.4259  1.3930
  500MPD2     N 7438   0.233   4.346  10.009  0.7413  0.2107 -0.5895
  500MPD2    H5 7439   0.169   4.378   9.937 -1.5044 -2.3548  0.2628
  500MPD2    N1 7440   0.612   4.528  10.228 -0.6770  0.0542  0.7459
  500MPD2    H7 7441   0.630   4.430  10.245 -1.9978 -0.5871 -1.6260
  501TMC3    C1 7442   0.839   4.554  10.269  0.8326 -0.2038 -0.7375
  501TMC3    C2 7443   0.948   4.618  10.225 -0.4503  0.0695 -0.1734
  501TMC3    C3 7444   1.076   4.600  10.273  0.3849 -0.7737  0.3403
  501TMC3    C4 7445   0.849   4.466  10.366 -0.0479  0.7658  0.6636
  501TMC3    C5 7446   0.972   4.444  10.415 -0.8129 -0.3521 -0.6236
  501TMC3    C6 7447   1.090   4.504  10.369 -0.3173  0.6113  0.9015
  501TMC3     C 7448   0.710   4.619  10.228  0.2955  0.6464  0.9227
  501TMC3     O 7449   0.714   0.010  10.195  0.3042  0.2361 -0.2839
  501TMC3     H 7450   0.932   4.696  10.152 -1.1176  1.3876  1.3854
  501TMC3    H1 7451   0.765   4.426  10.422  0.0918 -0.4668 -0.0193
  501TMC3    H2 7452   1.192   4.491  10.402  0.7746  0.6035 -2.5494
  501TMC3    C7 7453   0.962   4.441  10.561  0.6333 -0.6443 -0.3139
  501TMC3    C8 7454   1.151   4.719  10.301 -0.0760  0.2900  0.3780
  501TMC3    O1 7455   0.872   4.378  10.614  0.1003 -0.2912 -0.2400
  501TMC3    O2 7456   1.186   0.001  10.419  0.1373  0.2969  0.0762
  502TMC3    C1 7457   0.233   2.595  14.754 -0.3378  0.2464  1.3410
  502TMC3    C2 7458   0.258   2.716  14.704 -0.2904 -0.4231  0.0023
  502TMC3    C3 7459   0.157   2.812  14.705 -0.5235  0.6829  0.0467
  502TMC3    C4 7460   0.104   2.569  14.802  0.3543 -0.1394 -0.5591
  502TMC3    C5 7461   0.016   2.670  14.821  0.4447 -0.2346  1.0631
  502TMC3    C6 7462   0.038   2.792  14.769 -0.1087 -0.2360  0.3224
  502TMC3     C 7463   0.334   2.555  14.853 -0.4216 -0.2304 -0.1583
  502TMC3     O 7464   0.448   2.566  14.819  0.2883 -0.6527  0.1617
  502TMC3     H 7465   0.358   2.746  14.675  0.0118 -1.1961  0.2463
  502TMC3    H1 7466   0.079   2.466  14.819 -1.4135  0.2024 -1.1007
  502TMC3    H2 7467   4.696   2.877  14.782  0.6764  0.2190  1.2909
  502TMC3    C7 7468   4.658   2.641  14.934 -0.4529 -0.3744 -0.0712
  502TMC3    C8 7469   0.176   2.931  14.625  0.0225  0.3106 -0.3360
  502TMC3    O1 7470   4.684   2.536  14.993  0.8340  0.2112 -0.5360
  502TMC3    O2 7471   0.112   3.033  14.647 -0.2335 -0.0740 -0.2352
  503MPD2     C 7472   2.677   3.432  16.915 -0.6169 -0.1299  0.3632
  503MPD2    C1 7473   2.636   3.437  17.048 -0.2421  0.1925 -0.1047
  503MPD2    C2 7474   2.671   3.335  17.135 -0.4958  0.1079 -0.1662
  503MPD2    C3 7475   2.737   3.223  17.085 -0.3877  0.1028  0.4482
  503MPD2    C4 7476   2.776   3.217  16.958 -0.6723 -0.5703  0.7880
  503MPD2    C5 7477   2.754   3.327  16.877 -0.9167  0.3931 -0.5478
  503MPD2     H 7478   2.642   3.339  17.239 -0.2871  1.1560 -0.1478
  503MPD2    H1 7479   2.837   3.133  16.925 -0.4253  0.2987 -0.9629
  503MPD2    H2 7480   2.657   3.506  16.838 -0.9827 -1.1976 -0.5819
  503MPD2    H3 7481   2.800   3.326  16.779 -1.7484 -2.2743 -0.9200
  503MPD2     N 7482   2.773   3.131  17.187  0.4529 -0.8034 -0.1026
  503MPD2    H5 7483   2.745   3.149  17.283  0.4127  0.0653 -0.2803
  503MPD2    N1 7484   2.581   3.552  17.103  0.1726  0.4788  0.3208
  503MPD2    H7 7485   2.565   3.545  17.203 -0.8167 -0.7461  0.0767
  504TMC3    C1 7486   2.899   2.961  17.293 -0.5731  0.2193 -0.8310
  504TMC3    C2 7487   2.805   2.936  17.390 -0.4501 -0.6029  0.2868
  504TMC3    C3 7488   2.835   2.829  17.476 -0.1411  0.2761 -0.2736
  504TMC3    C4 7489   3.022   2.899  17.291  0.1023  0.3126  0.6243
  504TMC3    C5 7490   3.049   2.799  17.382 -0.0654 -0.1016  0.1198
  504TMC3    C6 7491   2.956   2.764  17.477 -0.1717  0.5826  0.5846
  504TMC3     C 7492   2.865   3.032  17.173 -0.6145 -0.6261 -0.2740
  504TMC3     O 7493   2.917   2.985  17.072 -0.1917  0.3757  0.1137
  504TMC3     H 7494   2.702   2.967  17.378 -0.3674 -0.4234  0.0243
  504TMC3    H1 7495   3.092   2.944  17.222 -1.2068  3.5806  1.3865
  504TMC3    H2 7496   2.966   2.673  17.535  0.0898  0.4760  0.3747
  504TMC3    C7 7497   3.168   2.718  17.378  0.4474  0.0187 -0.0710
  504TMC3    C8 7498   2.724   2.776  17.554 -0.0156  0.7506 -0.1383
  504TMC3    O1 7499   3.185   2.640  17.469 -0.2965 -0.0669  0.6329
  504TMC3    O2 7500   2.606   2.816  17.531 -0.5833 -0.4259 -0.0066
  505MPD2     C 7501   2.009   2.024  10.673 -0.2546  0.2432 -0.2102
  505MPD2    C1 7502   1.957   1.904  10.637  0.0333  0.0775 -0.4787
  505MPD2    C2 7503   2.001   1.796  10.715 -0.6252 -0.1536 -0.9358
  505MPD2    C3 7504   2.085   1.812  10.822 -0.3272 -0.3724 -0.3853
  505MPD2    C4 7505   2.131   1.934  10.858 -0.0210  0.3159 -0.7620
  505MPD2    C5 7506   2.097   2.041  10.781 -0.2150  0.2529 -0.0468
  505MPD2     H 7507   1.974   1.692  10.695 -0.7857 -0.5270  1.2131
  505MPD2    H1 7508   2.201   1.949  10.940  1.5899  2.8311 -2.5786
  505MPD2    H2 7509   1.993   2.107  10.606  2.3425  1.0489  0.1796
  505MPD2    H3 7510   2.135   2.139  10.804  0.4989 -0.7786  3.1239
  505MPD2     N 7511   2.120   1.695  10.894 -0.1963 -0.5430  0.2926
  505MPD2    H5 7512   2.112   1.614  10.833 -1.6401  0.8871 -1.4247
  505MPD2    N1 7513   1.879   1.891  10.526 -0.1679 -1.0616  0.2058
  505MPD2    H7 7514   1.869   1.978  10.475  1.5528 -0.8754  0.1802
  506TMC3    C1 7515   1.781   1.769  10.341 -0.2694  0.5963  0.2382
  506TMC3    C2 7516   1.859   1.841  10.259 -0.0760 -0.0479 -0.4029
  506TMC3    C3 7517   1.863   1.802  10.130 -0.3642  0.6035 -0.5121
  506TMC3    C4 7518   1.717   1.652  10.301  0.9139 -0.2382  0.3124
  506TMC3    C5 7519   1.755   1.607  10.177  0.3367 -0.0180 -0.6262
  506TMC3    C6 7520   1.816   1.685  10.087 -0.8218  0.3466  0.1124
  506TMC3     C 7521   1.815   1.777  10.482  0.5700 -0.7222  0.1993
  506TMC3     O 7522   1.817   1.667  10.541  0.5933  0.5966  0.4357
  506TMC3     H 7523   1.889   1.943  10.281 -0.5777  0.7363 -3.3326
  506TMC3    H1 7524   1.656   1.605  10.377 -2.5739  1.7551 -1.2859
  506TMC3    H2 7525   1.853   1.641   9.994  0.6273  0.0673  0.8184
  506TMC3    C7 7526   1.812   1.475  10.186  0.0653  0.2267  0.1248
  506TMC3    C8 7527   1.966   1.872  10.047 -0.2196 -0.0928 -0.4373
  506TMC3    O1 7528   1.853   1.423  10.083  0.1692  0.1054 -0.4354
  506TMC3    O2 7529   1.955   1.862   9.925 -0.0304 -0.3476  0.1408
  507TMC3    C1 7530   3.087   2.815  14.708 -0.6547 -0.1789  0.4623
  507TMC3    C2 7531   3.148   2.773  14.590 -0.5010  0.8164  0.0103
  507TMC3    C3 7532   3.278   2.806  14.565  0.2269  0.3034 -0.2018
  507TMC3    C4 7533   3.150   2.898  14.797 -0.0804 -0.5782  0.1847
  507TMC3    C5 7534   3.282   2.924  14.774 -0.0874 -0.1439 -0.1679
  507TMC3    C6 7535   3.350   2.873  14.666  0.1413  0.4539  0.4692
  507TMC3     C 7536   2.973   2.751  14.758  0.5088 -0.3069  0.0634
  507TMC3     O 7537   2.943   2.768  14.873  0.6685  0.0385  0.0766
  507TMC3     H 7538   3.106   2.703  14.519  1.2541 -1.4917  1.2542
  507TMC3    H1 7539   3.106   2.933  14.890 -2.1654  0.2728 -1.1362
  507TMC3    H2 7540   3.451   2.905  14.643 -0.0158  0.6387  0.0342
  507TMC3    C7 7541   3.312   3.065  14.778  0.1157  0.4321  0.3265
  507TMC3    C8 7542   3.294   2.853  14.426 -0.2332 -0.8310  0.2227
  507TMC3    O1 7543   3.260   3.127  14.691 -0.4183 -0.1876 -0.4417
  507TMC3    O2 7544   3.284   2.776  14.333 -1.1187 -0.1874 -0.5557
  508MPD2     C 7545   4.357   0.543  16.053  0.2642 -0.1290  0.4087
  508MPD2    C1 7546   4.493   0.554  16.034  0.7566  0.1280 -0.4553
  508MPD2    C2 7547   4.535   0.607  15.913  0.1306 -0.0020 -0.4701
  508MPD2    C3 7548   4.453   0.668  15.822 -0.4311 -0.3170  0.3575
  508MPD2    C4 7549   4.319   0.659  15.852 -0.1065  0.2737 -0.5414
  508MPD2    C5 7550   4.270   0.605  15.970 -0.1950  0.0993  0.7717
  508MPD2     H 7551   4.637   0.604  15.875  0.3047 -0.4387  0.0394
  508MPD2    H1 7552   4.238   0.699  15.791 -0.9605  2.0318  1.7549
  508MPD2    H2 7553   4.318   0.515  16.151 -1.1773 -0.2150 -0.1931
  508MPD2    H3 7554   4.164   0.604  15.994 -0.1188 -3.0404  1.0102
  508MPD2     N 7555   4.508   0.723  15.703  0.6587  0.5255 -0.0480
  508MPD2    H5 7556   4.605   0.751  15.697 -0.3491  3.8610 -0.8146
  508MPD2    N1 7557   4.581   0.496  16.127  0.2086  0.2997 -0.4068
  508MPD2    H7 7558   4.546   0.461  16.216  2.5701 -2.1773 -0.4538
  509TMC3    C1 7559   4.473   0.943  15.278 -0.7596 -0.0288  0.0078
  509TMC3    C2 7560   4.581   1.020  15.307  0.5414 -0.0673 -0.3339
  509TMC3    C3 7561   4.653   0.986  15.423 -0.6098 -0.5890 -0.3114
  509TMC3    C4 7562   4.429   0.837  15.357 -0.0936  0.1042 -0.1203
  509TMC3    C5 7563   4.501   0.816  15.476 -0.8300 -0.1031  0.1319
  509TMC3    C6 7564   4.611   0.893  15.512 -0.3124 -0.5482 -0.1056
  509TMC3     C 7565   4.385   0.971  15.170 -0.4215 -0.9989  0.2001
  509TMC3     O 7566   4.322   0.881  15.118 -0.0601 -0.6374  0.9281
  509TMC3     H 7567   4.621   1.092  15.235  1.5785  0.3674  0.6714
  509TMC3    H1 7568   4.342   0.780  15.328 -0.1082  0.2878 -0.4386
  509TMC3    H2 7569   4.672   0.881  15.601  0.5310 -2.6053 -0.9610
  509TMC3    C7 7570   4.428   0.751  15.590 -0.2853 -0.6177  0.8653
  509TMC3    C8 7571   0.056   1.043  15.444  0.6176  0.0940 -0.3232
  509TMC3    O1 7572   4.316   0.706  15.568  0.0080 -0.2059  0.2415
  509TMC3    O2 7573   0.142   0.975  15.492 -0.0242 -0.0850 -0.3857
  510MPD2     C 7574   2.044   2.330  14.561 -0.4395  0.1198  0.9528
  510MPD2    C1 7575   2.137   2.256  14.635 -1.0393 -0.4256  0.3732
  510MPD2    C2 7576   2.272   2.254  14.595  0.0861  0.8353 -0.4711
  510MPD2    C3 7577   2.311   2.308  14.476 -0.2014 -0.3872  0.1191
  510MPD2    C4 7578   2.221   2.389  14.411  0.4709 -0.0553 -0.0834
  510MPD2    C5 7579   2.087   2.393  14.450  0.1842 -0.8892  0.1396
  510MPD2     H 7580   2.341   2.194  14.654  0.0018  1.5465  0.3554
  510MPD2    H1 7581   2.244   2.447  14.322 -0.8362  0.2236 -0.2389
  510MPD2    H2 7582   1.937   2.322  14.578 -0.6806 -1.0003 -1.0682
  510MPD2    H3 7583   2.010   2.447  14.396  2.5422  2.8642  0.4927
  510MPD2     N 7584   2.447   2.290  14.434 -0.2659  0.2237  0.0920
  510MPD2    H5 7585   2.505   2.226  14.487  1.1876  2.7236  1.4925
  510MPD2    N1 7586   2.099   2.194  14.755  0.4157  0.2339  0.2807
  510MPD2    H7 7587   2.000   2.184  14.772  0.4235 -0.2889  0.0167
  511TMC3    C1 7588   2.102   2.127  14.990  0.4581  0.0849  0.6886
  511TMC3    C2 7589   2.127   2.173  15.118 -0.9530 -0.5455  0.8663
  511TMC3    C3 7590   2.080   2.086  15.214 -0.2514  0.1732 -0.7819
  511TMC3    C4 7591   2.028   2.016  14.956 -0.1144  0.1117  0.2883
  511TMC3    C5 7592   1.995   1.936  15.062  0.4578 -0.3079  0.2114
  511TMC3    C6 7593   2.024   1.966  15.195 -0.5963  0.5777  0.0565
  511TMC3     C 7594   2.170   2.186  14.874 -0.2052  0.9923  0.1445
  511TMC3     O 7595   2.290   2.208  14.888  0.3627  0.6727  0.0265
  511TMC3     H 7596   2.197   2.254  15.132 -2.8480  1.4116 -0.8774
  511TMC3    H1 7597   2.022   1.982  14.853 -0.8085 -0.2430  0.4449
  511TMC3    H2 7598   1.992   1.902  15.277  0.4625 -0.4108 -0.3094
  511TMC3    C7 7599   1.999   1.792  15.022 -0.1278  0.4471 -0.2757
  511TMC3    C8 7600   2.072   2.143  15.350 -0.9631  0.1388  0.3351
  511TMC3    O1 7601   2.071   1.771  14.926  0.0693 -0.9687  0.1780
  511TMC3    O2 7602   2.048   2.068  15.442 -0.1013 -0.0778  0.1058
  512TMC3    C1 7603   0.836   1.798  13.269 -0.2835 -0.0413  0.4480
  512TMC3    C2 7604   0.955   1.774  13.326 -0.3159 -0.7667  0.1050
  512TMC3    C3 7605   0.999   1.645  13.340  0.5381  0.4862 -0.1183
  512TMC3    C4 7606   0.755   1.705  13.220 -0.8528  0.0257 -0.4934
  512TMC3    C5 7607   0.803   1.575  13.240 -1.0398 -0.4904 -0.1215
  512TMC3    C6 7608   0.924   1.540  13.299  0.2443 -0.4943 -0.2259
  512TMC3     C 7609   0.786   1.935  13.294 -0.2326 -0.1404 -0.0519
  512TMC3     O 7610   0.866   2.024  13.317 -0.2566  0.4378  0.2612
  512TMC3     H 7611   1.017   1.857  13.356 -0.3407  0.1292 -2.3223
  512TMC3    H1 7612   0.663   1.729  13.168 -0.7763  0.3658 -0.4705
  512TMC3    H2 7613   0.957   1.438  13.319 -0.4643 -0.4710  1.0577
  512TMC3    C7 7614   0.727   1.477  13.166  0.0982 -0.0498  0.0239
  512TMC3    C8 7615   1.134   1.616  13.390 -0.5774 -0.0029 -0.1252
  512TMC3    O1 7616   0.627   1.519  13.110  0.1332 -0.8013  0.8896
  512TMC3    O2 7617   1.172   1.502  13.364  0.4344  0.2626  0.0209
  513MPD2     C 7618   2.385   1.110  13.100 -0.1641 -0.5543  0.1786
  513MPD2    C1 7619   2.451   1.164  12.995  0.9738 -0.1702  0.1240
  513MPD2    C2 7620   2.529   1.275  13.024  0.9081 -0.2108 -0.0039
  513MPD2    C3 7621   2.535   1.339  13.147  0.0002 -1.3308  0.2708
  513MPD2    C4 7622   2.480   1.277  13.258 -0.3914 -1.0131 -0.1648
  513MPD2    C5 7623   2.407   1.162  13.226 -0.5332 -0.6015 -0.0335
  513MPD2     H 7624   2.579   1.335  12.949  0.4627  1.8551  1.3491
  513MPD2    H1 7625   2.480   1.321  13.357  0.8896  0.0044 -0.6084
  513MPD2    H2 7626   2.313   1.030  13.088  0.0815 -0.4483 -2.0739
  513MPD2    H3 7627   2.365   1.109  13.311 -3.2012  0.6347 -0.5660
  513MPD2     N 7628   2.597   1.465  13.166 -0.1610 -0.2263  0.0083
  513MPD2    H5 7629   2.595   1.499  13.262  1.0405  0.8227 -0.3305
  513MPD2    N1 7630   2.432   1.114  12.868 -0.1597 -0.5810 -0.4195
  513MPD2    H7 7631   2.346   1.063  12.853 -1.0108  2.0151 -4.5325
  514TMC3    C1 7632   2.442   1.118  12.641 -0.0908  0.2112 -0.3978
  514TMC3    C2 7633   2.325   1.183  12.628 -0.0150 -0.1300 -0.2318
  514TMC3    C3 7634   2.295   1.251  12.516 -0.2386  0.1137  0.2521
  514TMC3    C4 7635   2.526   1.125  12.541  0.1385  0.3856  0.0360
  514TMC3    C5 7636   2.499   1.181  12.416 -0.2386  0.0762  0.3074
  514TMC3    C6 7637   2.375   1.237  12.403 -0.3049  0.3012  0.1203
  514TMC3     C 7638   2.509   1.148  12.758 -0.2213  0.3181 -0.4797
  514TMC3     O 7639   2.622   1.189  12.753  0.1798 -0.3037 -0.9958
  514TMC3     H 7640   2.267   1.204  12.717  0.2724 -2.4552  0.5125
  514TMC3    H1 7641   2.607   1.054  12.546 -2.0694 -2.3791 -2.7568
  514TMC3    H2 7642   2.334   1.281  12.313 -0.2579 -1.7000 -0.8847
  514TMC3    C7 7643   2.591   1.282  12.382 -0.6214 -0.4391  0.8239
  514TMC3    C8 7644   2.265   1.393  12.542 -0.1697 -0.1917  0.2237
  514TMC3    O1 7645   2.567   1.324  12.270  0.2753 -0.5731 -0.5361
  514TMC3    O2 7646   2.206   1.428  12.641  0.9741 -0.6245  0.0571
  515MPD2     C 7647   1.350   3.601  14.443 -0.0053 -0.0900  0.1085
  515MPD2    C1 7648   1.348   3.502  14.541 -0.1450  0.4156  0.6044
  515MPD2    C2 7649   1.401   3.532  14.664 -0.3025 -0.7448 -0.9323
  515MPD2    C3 7650   1.452   3.661  14.691 -0.1621  0.0344  0.7059
  515MPD2    C4 7651   1.447   3.758  14.592  0.0839  0.0260 -0.5042
  515MPD2    C5 7652   1.400   3.724  14.474  0.1843  0.3492  0.3965
  515MPD2     H 7653   1.410   3.450  14.734 -1.9410 -1.8600 -2.0321
  515MPD2    H1 7654   1.492   3.856  14.604 -0.1604  0.2560 -1.4645
  515MPD2    H2 7655   1.309   3.581  14.345  0.9766  1.2537 -0.5746
  515MPD2    H3 7656   1.397   3.799  14.395  0.1616 -0.2963 -0.2164
  515MPD2     N 7657   1.508   3.688  14.821 -0.0359  0.5391 -0.4255
  515MPD2    H5 7658   1.556   3.778  14.819  1.9575 -0.5045  0.4891
  515MPD2    N1 7659   1.288   3.377  14.515 -0.9623 -0.4748 -0.6953
  515MPD2    H7 7660   1.316   3.300  14.574 -0.9522 -1.4345 -1.9554
  516TMC3    C1 7661   1.162   3.209  14.397  0.7582 -0.0459 -0.6739
  516TMC3    C2 7662   1.142   3.166  14.269 -0.2961 -0.7414  0.5170
  516TMC3    C3 7663   1.109   3.032  14.248  0.1001 -0.0524  0.0796
  516TMC3    C4 7664   1.175   3.124  14.501 -0.0973  0.4836 -0.2505
  516TMC3    C5 7665   1.149   2.989  14.477  0.3291  0.1515 -0.4663
  516TMC3    C6 7666   1.110   2.945  14.352 -0.1375 -0.1298 -0.1873
  516TMC3     C 7667   1.210   3.343  14.402 -0.7036 -0.4587  0.2294
  516TMC3     O 7668   1.156   3.423  14.324 -0.2888  0.1836  0.3826
  516TMC3     H 7669   1.130   3.238  14.189  1.3684  0.1228  1.0425
  516TMC3    H1 7670   1.161   3.151  14.604  0.0790 -2.0910  0.4641
  516TMC3    H2 7671   1.085   2.842  14.331  1.7121 -1.1558  2.6548
  516TMC3    C7 7672   1.127   2.890  14.584  0.0921 -0.1351  0.2557
  516TMC3    C8 7673   1.036   3.002  14.124  0.4371  0.7134  0.5102
  516TMC3    O1 7674   1.170   2.929  14.688  0.4946  0.2311 -1.2842
  516TMC3    O2 7675   0.977   3.099  14.076  0.5582 -0.0441 -0.6963
  517MPD2     C 7676   0.875   0.498  17.234  0.0748  0.4178  0.1624
  517MPD2    C1 7677   0.961   0.508  17.345 -0.2377 -0.2331 -0.1949
  517MPD2    C2 7678   0.966   0.628  17.404 -0.8342 -0.0977  0.5321
  517MPD2    C3 7679   0.882   0.737  17.371 -0.3176 -1.0481  0.0620
  517MPD2    C4 7680   0.807   0.722  17.255 -0.1975 -0.0570 -0.0242
  517MPD2    C5 7681   0.811   0.604  17.190  0.1558 -0.2695 -0.1611
  517MPD2     H 7682   1.030   0.635  17.492 -0.8031  0.7269  0.4476
  517MPD2    H1 7683   0.747   0.805  17.219  0.0488 -0.2107 -0.8056
  517MPD2    H2 7684   0.868   0.405  17.178  1.8532  1.5491 -1.9569
  517MPD2    H3 7685   0.750   0.585  17.102  1.4234 -3.8983 -0.3041
  517MPD2     N 7686   0.866   0.856  17.438  0.7870 -0.2244  0.2293
  517MPD2    H5 7687   0.793   0.918  17.403 -0.7034 -2.2409 -0.2532
  517MPD2    N1 7688   1.042   0.397  17.395 -0.3916 -0.4648 -0.2046
  517MPD2    H7 7689   1.115   0.429  17.459 -1.1005  2.3064 -0.7496
  518TMC3    C1 7690   1.124   0.181  17.424 -0.2255 -0.3207  0.0778
  518TMC3    C2 7691   1.071   0.058  17.447  0.2604  0.2169  0.8197
  518TMC3    C3 7692   1.154   4.667  17.448  0.7143  0.0690 -0.5053
  518TMC3    C4 7693   1.259   0.203  17.414 -0.6242 -0.1482  0.8143
  518TMC3    C5 7694   1.340   0.094  17.438 -0.4311  0.3703 -0.3641
  518TMC3    C6 7695   1.288   4.689  17.458 -0.4908 -0.3237 -1.0785
  518TMC3     C 7696   1.030   0.270  17.352 -1.0382  0.4047  0.2129
  518TMC3     O 7697   0.947   0.215  17.276 -0.2841 -0.3185 -1.0315
  518TMC3     H 7698   0.963   0.050  17.448  0.3221 -0.6227  0.7722
  518TMC3    H1 7699   1.293   0.300  17.382  0.5733 -0.9434 -0.3381
  518TMC3    H2 7700   1.360   4.610  17.479 -0.0214 -0.5852 -3.6685
  518TMC3    C7 7701   1.485   0.107  17.412 -0.1219  0.7439  0.3218
  518TMC3    C8 7702   1.099   4.531  17.465  0.2914  0.6256  0.0683
  518TMC3    O1 7703   1.526   0.220  17.391  0.4969 -0.1184 -0.2362
  518TMC3    O2 7704   1.165   4.460  17.534  0.7719  0.3329  0.2763
  519MPD2     C 7705   2.957   3.714  14.375  0.2658  0.5899  0.4413
  519MPD2    C1 7706   2.824   3.682  14.367  0.1505  0.6483 -0.3758
  519MPD2    C2 7707   2.792   3.569  14.293  0.1084 -0.2277 -0.5230
  519MPD2    C3 7708   2.898   3.485  14.249  0.1453 -0.4133 -1.0211
  519MPD2    C4 7709   3.027   3.522  14.260  0.2661  0.8502 -0.0810
  519MPD2    C5 7710   3.060   3.640  14.326 -0.1177 -0.0282  0.2833
  519MPD2     H 7711   2.686   3.551  14.280 -0.2722  2.9467 -1.7215
  519MPD2    H1 7712   3.100   3.448  14.230  0.4634  0.5394  1.1335
  519MPD2    H2 7713   2.971   3.806  14.430  2.4672 -0.4111  1.5246
  519MPD2    H3 7714   3.163   3.670  14.344 -0.3876  0.4428  0.9985
  519MPD2     N 7715   2.872   3.363  14.181  0.0475 -0.3756  0.5625
  519MPD2    H5 7716   2.953   3.326  14.133  0.4155  1.3733 -0.1750
  519MPD2    N1 7717   2.731   3.767  14.433 -0.1425  0.3132  0.0969
  519MPD2    H7 7718   2.768   3.855  14.469 -0.3987 -0.1438  1.4714
  520TMC3    C1 7719   2.748   3.180  14.086 -0.8526  0.5305  0.3351
  520TMC3    C2 7720   2.636   3.140  14.014 -0.0352  0.3659  0.2788
  520TMC3    C3 7721   2.655   3.043  13.916 -0.7058  0.5950  0.1716
  520TMC3    C4 7722   2.876   3.129  14.056 -0.3627  0.0215  0.5628
  520TMC3    C5 7723   2.887   3.027  13.965 -0.5218 -0.1800  0.6086
  520TMC3    C6 7724   2.777   2.982  13.890 -0.0734  0.0444 -0.4569
  520TMC3     C 7725   2.748   3.312  14.153 -0.8535  0.7537 -0.0047
  520TMC3     O 7726   2.638   3.355  14.184  0.5744 -0.5761  0.6791
  520TMC3     H 7727   2.550   3.206  14.010  0.0931  0.4853 -0.4215
  520TMC3    H1 7728   2.965   3.165  14.109 -1.3991  1.7176  1.1662
  520TMC3    H2 7729   2.780   2.902  13.818  2.1632  2.0065 -2.5219
  520TMC3    C7 7730   2.984   2.929  14.002  0.1329 -0.4764  0.7327
  520TMC3    C8 7731   2.542   3.013  13.826 -0.2267 -0.1349 -0.1075
  520TMC3    O1 7732   3.017   2.922  14.122 -0.1041  0.0599 -0.6256
  520TMC3    O2 7733   2.551   2.986  13.704  0.0891 -0.0819 -0.3777
  521MPD2     C 7734   3.515   1.344  17.332  0.1910 -0.2125  0.3680
  521MPD2    C1 7735   3.468   1.279  17.223  0.3881  0.6875 -0.0435
  521MPD2    C2 7736   3.559   1.203  17.156 -0.0592 -0.3903  0.2674
  521MPD2    C3 7737   3.694   1.192  17.198  0.1738 -0.1792 -0.0734
  521MPD2    C4 7738   3.742   1.264  17.307 -0.4504  0.0383  0.4389
  521MPD2    C5 7739   3.652   1.345  17.371 -0.4613 -0.2687 -0.6403
  521MPD2     H 7740   3.540   1.145  17.066  0.4515  1.1265 -0.8418
  521MPD2    H1 7741   3.844   1.263  17.343  0.2297  0.5309 -1.4374
  521MPD2    H2 7742   3.448   1.408  17.388 -0.2055  1.9177 -2.4781
  521MPD2    H3 7743   3.681   1.411  17.451 -2.1621 -1.8364  1.2608
  521MPD2     N 7744   3.774   1.105  17.128 -0.1915  0.3787  0.1743
  521MPD2    H5 7745   3.743   1.086  17.033  0.0642 -0.3173  0.2352
  521MPD2    N1 7746   3.334   1.293  17.191  0.1052  1.2221 -0.6332
  521MPD2    H7 7747   3.277   1.356  17.246 -1.6329 -0.6771 -0.2838
  522TMC3    C1 7748   3.968   1.002  17.068  0.2448  1.5333  0.5714
  522TMC3    C2 7749   4.055   0.905  17.101  0.7867 -0.2860  0.2466
  522TMC3    C3 7750   4.129   0.842  17.000  0.2977  0.0217 -0.3725
  522TMC3    C4 7751   3.964   1.051  16.939  0.2171  0.5259 -0.3142
  522TMC3    C5 7752   4.041   0.982  16.849 -0.3293 -0.2348 -0.2489
  522TMC3    C6 7753   4.118   0.868  16.872  0.5928 -0.5139  0.3270
  522TMC3     C 7754   3.890   1.056  17.175 -0.9489 -0.6802 -0.0903
  522TMC3     O 7755   3.915   1.030  17.296 -0.1444  0.2937  0.2663
  522TMC3     H 7756   4.079   0.890  17.205  3.0403 -1.2099 -0.4120
  522TMC3    H1 7757   3.904   1.138  16.915  0.2159  1.3006  2.5153
  522TMC3    H2 7758   4.174   0.817  16.795 -1.5404 -1.7766 -0.4050
  522TMC3    C7 7759   4.046   1.024  16.706 -0.3951  0.1857  0.8361
  522TMC3    C8 7760   4.250   0.774  17.045  0.1360  0.0324 -0.1414
  522TMC3    O1 7761   4.134   0.968  16.642  0.5767  0.0696  0.3801
  522TMC3    O2 7762   4.256   0.740  17.160 -0.1851 -0.1608 -0.5255
  523MPD2     C 7763   1.234   1.216  10.489  0.7140 -0.2683 -0.9680
  523MPD2    C1 7764   1.229   1.180  10.356 -0.1318  0.4865  0.0608
  523MPD2    C2 7765   1.150   1.256  10.273  0.2139 -0.0369 -0.3710
  523MPD2    C3 7766   1.091   1.373  10.318 -0.6595  0.3781  0.4884
  523MPD2    C4 7767   1.104   1.410  10.447  0.0915  0.6652 -0.6621
  523MPD2    C5 7768   1.165   1.328  10.533 -0.3013 -0.1964  0.3929
  523MPD2     H 7769   1.135   1.243  10.166  0.9507  0.8897 -0.5873
  523MPD2    H1 7770   1.068   1.505  10.484 -0.1058 -0.1171  1.1121
  523MPD2    H2 7771   1.285   1.154  10.561 -0.3298  1.0531  0.9154
  523MPD2    H3 7772   1.174   1.352  10.638  0.6442  0.0172  0.2690
  523MPD2     N 7773   1.000   1.454  10.247 -0.0844 -0.3230 -0.7745
  523MPD2    H5 7774   0.960   1.532  10.299  0.3409  0.2517 -1.3015
  523MPD2    N1 7775   1.302   1.068  10.317  0.6259  0.6161  0.3310
  523MPD2    H7 7776   1.368   1.033  10.386  0.5167 -0.4242 -0.0803
  524TMC3    C1 7777   0.864   1.525  10.067 -0.1455 -0.2214 -0.5582
  524TMC3    C2 7778   0.773   1.478   9.978 -0.1500 -0.0739 -0.1446
  524TMC3    C3 7779   0.671   1.558   9.942 -0.3009 -0.2841  0.1686
  524TMC3    C4 7780   0.859   1.652  10.118 -0.0162  0.1846 -0.3502
  524TMC3    C5 7781   0.760   1.738  10.067  0.4434 -0.1437 -0.0556
  524TMC3    C6 7782   0.669   1.696   9.971  0.4908  0.1067 -0.1230
  524TMC3     C 7783   0.963   1.434  10.115  0.2494 -0.3798 -0.5732
  524TMC3     O 7784   0.996   1.346  10.035  0.0092  0.1337  0.1731
  524TMC3     H 7785   0.777   1.372   9.958  1.1616  0.0521 -0.5802
  524TMC3    H1 7786   0.934   1.690  10.187 -0.6793  1.8958 -0.5687
  524TMC3    H2 7787   0.593   1.764   9.935  0.9345  0.0328 -1.1781
  524TMC3    C7 7788   0.719   1.849  10.159 -0.3472  0.2046 -0.5054
  524TMC3    C8 7789   0.562   1.489   9.874  0.6221  0.2766 -0.3340
  524TMC3    O1 7790   0.744   1.835  10.276  0.2832 -0.1010 -0.2668
  524TMC3    O2 7791   0.572   1.369   9.860 -0.5817  0.1928 -0.4806
  525MPD2     C 7792   3.705   2.820  14.362  0.3305 -0.3394  0.9580
  525MPD2    C1 7793   3.829   2.840  14.419 -0.0536  0.2390  0.7152
  525MPD2    C2 7794   3.901   2.956  14.383  0.4650 -0.0884  0.6345
  525MPD2    C3 7795   3.859   3.054  14.300 -0.2775 -0.0907  0.3051
  525MPD2    C4 7796   3.737   3.036  14.252 -0.4718  0.1308 -0.1069
  525MPD2    C5 7797   3.663   2.923  14.280  0.0097  0.0449 -0.0342
  525MPD2     H 7798   3.998   2.964  14.429  1.4279 -0.2940 -1.3567
  525MPD2    H1 7799   3.689   3.102  14.181 -2.4348  0.4577  1.5058
  525MPD2    H2 7800   3.641   2.733  14.367 -1.3364  0.9166  1.3304
  525MPD2    H3 7801   3.564   2.910  14.236  1.2285 -2.4531 -2.0460
  525MPD2     N 7802   3.930   3.172  14.275  0.6927 -0.1166  0.1187
  525MPD2    H5 7803   3.882   3.241  14.218  0.7224 -0.8723 -0.8299
  525MPD2    N1 7804   3.889   2.742  14.499 -0.1034 -0.4622  0.6904
  525MPD2    H7 7805   3.982   2.765  14.530  0.3448 -0.8211 -0.4010
  526TMC3    C1 7806   3.895   2.579  14.670 -0.3634 -0.0302 -0.5721
  526TMC3    C2 7807   3.842   2.545  14.792  0.0528  0.4136  0.0736
  526TMC3    C3 7808   3.908   2.471  14.886 -0.2548  0.6571 -0.6739
  526TMC3    C4 7809   4.030   2.549  14.640 -0.5276  0.4281  0.0326
  526TMC3    C5 7810   4.094   2.476  14.737  0.1807  0.2639  0.3557
  526TMC3    C6 7811   4.040   2.437  14.859  0.4926 -1.0400  0.0508
  526TMC3     C 7812   3.813   2.661  14.581  0.3797  1.2686  0.7474
  526TMC3     O 7813   3.687   2.669  14.586 -0.1728  0.1847  0.3689
  526TMC3     H 7814   3.745   2.589  14.813  1.1848  2.3856  1.2066
  526TMC3    H1 7815   4.077   2.590  14.551 -1.1607  2.3234  0.5795
  526TMC3    H2 7816   4.107   2.407  14.939  0.5981 -1.2175 -0.1041
  526TMC3    C7 7817   4.225   2.437  14.693  0.6713 -0.6060  0.4444
  526TMC3    C8 7818   3.894   2.514  15.023  0.0453  0.1223  0.0043
  526TMC3    O1 7819   4.290   2.524  14.630  0.3304  0.1918 -0.2914
  526TMC3    O2 7820   3.995   2.548  15.081 -0.0509  0.5259  0.4468
  527MPD2     C 7821   1.513   0.530   1.148  0.3288  0.3035 -0.1343
  527MPD2    C1 7822   1.573   0.486   1.262 -0.0134  0.1449 -0.2553
  527MPD2    C2 7823   1.692   0.420   1.250 -1.2175 -0.0624 -0.2106
  527MPD2    C3 7824   1.742   0.375   1.127  0.3200 -0.3504  0.7119
  527MPD2    C4 7825   1.663   0.393   1.017  0.8056 -0.0449  0.8305
  527MPD2    C5 7826   1.559   0.486   1.024 -0.4772  0.1794 -0.2548
  527MPD2     H 7827   1.742   0.404   1.345  0.0440 -1.9625 -1.2235
  527MPD2    H1 7828   1.682   0.362   0.915 -0.6756 -1.4188  0.9735
  527MPD2    H2 7829   1.430   0.599   1.142 -1.1344 -1.6923 -2.5090
  527MPD2    H3 7830   1.505   0.508   0.932 -0.4594 -1.4441 -0.6541
  527MPD2     N 7831   1.877   0.315   1.122 -0.4879  0.1686  0.7995
  527MPD2    H5 7832   1.920   0.316   1.214  0.2001 -1.9068  0.4979
  527MPD2    N1 7833   1.536   0.520   1.396 -0.4823  0.9502  0.6346
  527MPD2    H7 7834   1.580   0.472   1.474 -1.1055 -0.3238  0.2031
  528TMC3    C1 7835   1.384   0.610   1.572 -0.5807  0.2105 -0.1697
  528TMC3    C2 7836   1.476   0.587   1.664 -0.3414  0.5067  0.2438
  528TMC3    C3 7837   1.450   0.637   1.787  0.3874  0.6817 -0.2247
  528TMC3    C4 7838   1.258   0.652   1.599 -0.1708 -0.2501  0.0626
  528TMC3    C5 7839   1.227   0.684   1.726  0.2422 -0.0927 -0.4180
  528TMC3    C6 7840   1.326   0.684   1.819  0.0601  0.2122  0.6362
  528TMC3     C 7841   1.414   0.576   1.431  0.7387  0.1573  0.8886
  528TMC3     O 7842   1.337   0.630   1.352 -0.5321  0.3921  0.4760
  528TMC3     H 7843   1.578   0.561   1.635 -0.7151  0.8036 -1.3184
  528TMC3    H1 7844   1.190   0.681   1.519 -1.8553 -0.7715  1.3079
  528TMC3    H2 7845   1.312   0.734   1.914 -0.2632  2.9383 -0.8429
  528TMC3    C7 7846   1.102   0.744   1.771 -0.4020  0.4127 -0.2064
  528TMC3    C8 7847   1.544   0.599   1.898  0.1490 -0.5837  0.9666
  528TMC3    O1 7848   1.102   0.769   1.889 -0.4959  0.2935  0.8839
  528TMC3    O2 7849   1.641   0.532   1.868 -0.3182 -0.4148  0.3104
  529MPD2     C 7850   0.005   4.544   1.277  0.2347  0.8521  0.0514
  529MPD2    C1 7851   4.685   4.445   1.202  0.3723 -0.9475  0.5322
  529MPD2    C2 7852   4.607   4.469   1.090  0.0741  0.7139  0.4034
  529MPD2    C3 7853   4.567   4.596   1.060  0.2487  0.0750  0.3579
  529MPD2    C4 7854   4.623   4.709   1.128 -0.1782  0.3945 -0.6933
  529MPD2    C5 7855   4.700   4.678   1.237 -0.1038 -0.1790 -0.1708
  529MPD2     H 7856   4.577   4.383   1.032  1.9213  0.3965 -0.0772
  529MPD2    H1 7857   4.586   0.087   1.120 -2.6374 -0.3762  0.8600
  529MPD2    H2 7858   0.071   4.535   1.362  0.5937  1.1016 -0.2015
  529MPD2    H3 7859   4.720   0.033   1.309  3.4768  0.5750 -2.0084
  529MPD2     N 7860   4.468   4.621   0.961  0.6660 -0.4180 -0.6033
  529MPD2    H5 7861   4.465   4.720   0.938 -0.4293 -0.0717  1.0136
  529MPD2    N1 7862   4.720   4.310   1.216  0.5773  0.6658 -0.2653
  529MPD2    H7 7863   4.683   4.247   1.146  2.1394  0.8392 -1.2430
  530TMC3    C1 7864   0.081   4.114   1.305 -0.0207 -0.1017  0.0409
  530TMC3    C2 7865   0.198   4.054   1.333  0.3851 -0.0294  0.1993
  530TMC3    C3 7866   0.212   3.920   1.333  0.3806 -0.3950  0.0062
  530TMC3    C4 7867   4.701   4.038   1.256  0.3432  1.1413  0.6647
  530TMC3    C5 7868   4.723   3.903   1.238 -0.3449  0.2378  0.2569
  530TMC3    C6 7869   0.112   3.837   1.285 -0.2385 -0.5874  0.4969
  530TMC3     C 7870   0.076   4.261   1.315 -0.0030 -0.0972 -0.1029
  530TMC3     O 7871   0.144   4.327   1.391  0.3292  0.1386 -0.0103
  530TMC3     H 7872   0.271   4.112   1.388  0.9788 -1.0970  0.5470
  530TMC3    H1 7873   4.602   4.073   1.229 -1.4300 -3.4340  1.3870
  530TMC3    H2 7874   0.118   3.729   1.280  3.2134 -0.4154  1.5486
  530TMC3    C7 7875   4.631   3.845   1.139  0.1377 -0.3242  0.8966
  530TMC3    C8 7876   0.339   3.864   1.350 -0.4548  0.5155  0.4989
  530TMC3    O1 7877   4.569   3.922   1.065 -0.8007  0.4987 -0.2928
  530TMC3    O2 7878   0.341   3.748   1.384  0.3653  0.4267 -0.2725
  531MPD2     C 7879   2.776   1.741  12.540 -0.5163 -0.4707  1.1352
  531MPD2    C1 7880   2.757   1.659  12.645 -0.4417 -0.2014  0.1125
  531MPD2    C2 7881   2.713   1.523  12.632 -0.0236 -0.3829  0.2133
  531MPD2    C3 7882   2.693   1.472  12.504  0.3284  1.0259  0.3772
  531MPD2    C4 7883   2.721   1.562  12.398 -0.8529 -0.4398  0.8689
  531MPD2    C5 7884   2.764   1.686  12.420  0.2858 -0.4378  0.5382
  531MPD2     H 7885   2.682   1.472  12.722 -0.0832 -0.0966  0.3537
  531MPD2    H1 7886   2.711   1.538  12.293  1.8735  0.0218  0.5114
  531MPD2    H2 7887   2.806   1.845  12.549  1.5798 -1.1194  1.5841
  531MPD2    H3 7888   2.783   1.749  12.334 -0.3854  1.3898  1.7095
  531MPD2     N 7889   2.636   1.345  12.491  0.4238 -0.0902  0.0370
  531MPD2    H5 7890   2.634   1.297  12.581 -0.1353  0.0203  0.0842
  531MPD2    N1 7891   2.758   1.714  12.770 -0.1334  0.1104  0.2821
  531MPD2    H7 7892   2.715   1.655  12.841 -0.8935 -3.0333 -2.7646
  532TMC3    C1 7893   2.785   1.839  12.957 -0.2865 -0.3575  0.0143
  532TMC3    C2 7894   2.674   1.766  12.997 -0.2587 -0.0719  0.0456
  532TMC3    C3 7895   2.677   1.680  13.101  0.3420  0.0376  0.4817
  532TMC3    C4 7896   2.895   1.827  13.036 -0.2016 -0.0843  0.1341
  532TMC3    C5 7897   2.893   1.759  13.153  0.5629  0.8006 -0.4119
  532TMC3    C6 7898   2.790   1.684  13.182 -0.4638 -0.1182 -0.3969
  532TMC3     C 7899   2.816   1.835  12.815  0.9468 -0.8515  0.0663
  532TMC3     O 7900   2.901   1.905  12.761  0.0931  0.4671  0.2555
  532TMC3     H 7901   2.589   1.771  12.930  1.0653 -0.3579 -1.6593
  532TMC3    H1 7902   2.986   1.883  13.016 -0.4772  0.0038 -0.8604
  532TMC3    H2 7903   2.795   1.610  13.260  1.7129 -0.9687 -1.3582
  532TMC3    C7 7904   3.016   1.736  13.227 -0.1608  0.3534  0.5410
  532TMC3    C8 7905   2.628   1.551  13.065  0.4541 -0.4860 -0.3315
  532TMC3    O1 7906   3.034   1.807  13.325 -0.2487 -0.2596 -0.1931
  532TMC3    O2 7907   2.633   1.539  12.942  0.4035  0.9206  0.8499
  533TMC3    C1 7908   4.090   3.348  14.278 -0.0039 -0.1821 -0.7388
  533TMC3    C2 7909   4.222   3.378  14.313  0.7963 -0.2777 -0.2148
  533TMC3    C3 7910   4.243   3.492  14.394  0.2212 -0.1387 -0.1015
  533TMC3    C4 7911   3.988   3.431  14.309 -0.1493 -0.2879 -0.6220
  533TMC3    C5 7912   4.010   3.537  14.388  0.3326  0.1908  0.4015
  533TMC3    C6 7913   4.137   3.575  14.424  0.3307  0.1399  0.4387
  533TMC3     C 7914   4.062   3.207  14.297 -0.0947 -0.3380  0.1619
  533TMC3     O 7915   4.150   3.137  14.336  0.2069 -0.1753 -0.4657
  533TMC3     H 7916   4.298   3.305  14.286  0.0317 -1.4256  0.7546
  533TMC3    H1 7917   3.888   3.406  14.276 -0.8498  1.4143  0.2483
  533TMC3    H2 7918   4.155   3.658  14.491  1.9596  0.1555 -0.0079
  533TMC3    C7 7919   3.931   3.526  14.504 -0.1779 -0.1527  0.2237
  533TMC3    C8 7920   4.378   3.537  14.408 -0.2342 -0.0968  0.3271
  533TMC3    O1 7921   3.886   3.412  14.519 -0.1106 -0.3373 -0.1026
  533TMC3    O2 7922   4.461   3.451  14.398 -0.1976 -0.0900  0.1935
  534MPD2     C 7923   0.982   4.676   2.271  0.3894  0.4334  0.0152
  534MPD2    C1 7924   1.106   4.681   2.205 -0.8951  0.1065  0.5820
  534MPD2    C2 7925   1.133   4.595   2.099 -0.3662 -0.0520 -0.5455
  534MPD2    C3 7926   1.040   4.501   2.051 -0.3159  0.2731  0.9667
  534MPD2    C4 7927   0.919   4.500   2.114 -0.5423 -0.0144 -0.2514
  534MPD2    C5 7928   0.889   4.587   2.217  0.0585  0.6235 -0.2870
  534MPD2     H 7929   1.229   4.592   2.048 -0.4766 -0.3136 -0.7411
  534MPD2    H1 7930   0.838   4.440   2.074  1.5681 -2.4495 -0.8711
  534MPD2    H2 7931   0.956   0.013   2.356  0.0239  0.7485 -0.3243
  534MPD2    H3 7932   0.784   4.585   2.245 -0.2688  1.9639 -1.4194
  534MPD2     N 7933   1.053   4.421   1.936 -0.2635 -0.1630  0.2062
  534MPD2    H5 7934   0.967   4.397   1.888 -0.1458  1.4904 -0.8498
  534MPD2    N1 7935   1.205   0.048   2.247 -0.3738 -0.6054  0.3933
  534MPD2    H7 7936   1.286   0.045   2.184  1.4505  0.4905  2.6845
  535TMC3    C1 7937   1.163   4.355   1.735  0.5252  0.6032 -0.2687
  535TMC3    C2 7938   1.048   4.386   1.665  0.0260  0.4278  0.0272
  535TMC3    C3 7939   1.044   4.349   1.535  0.3332 -0.3776  0.0656
  535TMC3    C4 7940   1.270   4.295   1.673 -0.1455 -0.0502 -0.4970
  535TMC3    C5 7941   1.257   4.251   1.545 -0.3001  0.3751  0.1046
  535TMC3    C6 7942   1.138   4.273   1.477 -0.8541 -0.1286  0.0538
  535TMC3     C 7943   1.174   4.401   1.874 -0.8929 -0.3110  1.0190
  535TMC3     O 7944   1.286   4.432   1.909 -0.7157  0.1030  0.2466
  535TMC3     H 7945   0.973   4.448   1.712  0.4960  0.3524  0.8784
  535TMC3    H1 7946   1.350   4.252   1.733 -0.0098 -0.5762 -1.0599
  535TMC3    H2 7947   1.113   4.222   1.384  0.9964  0.4506 -0.7471
  535TMC3    C7 7948   1.370   4.187   1.475 -0.3822 -0.1088  0.1397
  535TMC3    C8 7949   0.957   4.421   1.438 -0.3000  0.4447  0.4273
  535TMC3    O1 7950   1.340   4.134   1.368 -0.1056 -0.1068 -0.3365
  535TMC3    O2 7951   0.936   4.372   1.325 -0.1372  0.0452 -0.5554
  536MPD2     C 7952   0.584   2.573  16.267  0.0090  0.4082  0.6104
  536MPD2    C1 7953   0.471   2.490  16.281 -0.1716  0.6517 -0.6225
  536MPD2    C2 7954   0.382   2.476  16.176 -0.0611 -1.0941 -0.0388
  536MPD2    C3 7955   0.415   2.539  16.055  0.6895 -0.2191  0.3036
  536MPD2    C4 7956   0.529   2.615  16.044  0.8330 -0.3963  0.0244
  536MPD2    C5 7957   0.616   2.626  16.146  0.3864  0.2710 -0.0293
  536MPD2     H 7958   0.299   2.410  16.199 -0.4735  0.3183  2.4849
  536MPD2    H1 7959   0.552   2.678  15.959 -1.1976  0.1696 -0.1227
  536MPD2    H2 7960   0.657   2.593  16.345 -0.2955  0.1293  0.9667
  536MPD2    H3 7961   0.711   2.678  16.141  0.0032  1.1246  1.7367
  536MPD2     N 7962   0.332   2.534  15.940  0.1828 -0.2714  0.0057
  536MPD2    H5 7963   0.364   2.591  15.862 -2.4167  0.1150 -0.7870
  536MPD2    N1 7964   0.459   2.418  16.398 -0.8963 -0.7690 -0.2263
  536MPD2    H7 7965   0.530   2.427  16.470 -1.6203 -1.3212  0.5474
  537TMC3    C1 7966   0.394   2.254  16.556  0.0985  0.3138  0.8485
  537TMC3    C2 7967   0.396   2.338  16.659 -0.2018  0.1083 -0.2985
  537TMC3    C3 7968   0.360   2.291  16.783  0.3461  0.5605  0.6065
  537TMC3    C4 7969   0.363   2.123  16.573 -0.0179 -0.0970  0.6615
  537TMC3    C5 7970   0.336   2.076  16.700 -0.3116 -0.3841 -0.2731
  537TMC3    C6 7971   0.340   2.158  16.807  0.2813 -1.0743 -0.5223
  537TMC3     C 7972   0.376   2.305  16.420  0.0019  0.4711 -0.3159
  537TMC3     O 7973   0.289   2.260  16.349  0.4095  0.0172 -0.5143
  537TMC3     H 7974   0.417   2.443  16.638  0.1233 -0.5036 -3.0130
  537TMC3    H1 7975   0.362   2.051  16.492  0.4169  0.7012 -0.0461
  537TMC3    H2 7976   0.339   2.118  16.908 -2.2608 -1.5018 -0.7179
  537TMC3    C7 7977   0.335   1.926  16.715 -0.0716 -0.2032  0.0477
  537TMC3    C8 7978   0.379   2.384  16.891 -0.6873 -0.8198  0.0367
  537TMC3    O1 7979   0.375   1.857  16.624  0.5579  0.3429  0.7141
  537TMC3    O2 7980   0.475   2.458  16.879  0.7790  0.0008  0.0906
  538TMC3    C1 7981   1.567   1.209  11.045 -1.0461 -0.4109 -0.6150
  538TMC3    C2 7982   1.564   1.129  10.937 -0.7474  0.6030  0.0753
  538TMC3    C3 7983   1.516   1.175  10.817 -0.1071 -0.1657  0.4269
  538TMC3    C4 7984   1.512   1.333  11.049 -0.5617 -0.2660  0.4250
  538TMC3    C5 7985   1.451   1.375  10.931  0.1727 -0.2515  0.6838
  538TMC3    C6 7986   1.457   1.296  10.817  0.0355  0.3548 -0.4230
  538TMC3     C 7987   1.627   1.171  11.172  0.8979 -0.3608  0.0432
  538TMC3     O 7988   1.583   1.227  11.272 -0.2923 -0.4003 -0.2755
  538TMC3     H 7989   1.608   1.030  10.937  0.1418  0.9955 -1.2567
  538TMC3    H1 7990   1.524   1.398  11.135  0.6525 -1.4318  1.1257
  538TMC3    H2 7991   1.433   1.343  10.723  0.5358 -0.2708 -0.8608
  538TMC3    C7 7992   1.360   1.483  10.930 -0.5490  0.2519  0.0760
  538TMC3    C8 7993   1.584   1.123  10.696  0.3045  0.0738  0.0112
  538TMC3    O1 7994   1.284   1.492  10.835  0.1390 -0.1413 -0.4373
  538TMC3    O2 7995   1.548   1.155  10.583  0.3038 -0.9645  0.7357
  539MPD2     C 7996   1.362   0.535  11.998  1.0924  0.0584  0.7801
  539MPD2    C1 7997   1.375   0.543  11.859 -0.5150 -0.6004 -0.2918
  539MPD2    C2 7998   1.338   0.664  11.800  0.2476  0.8525  0.7793
  539MPD2    C3 7999   1.277   0.763  11.875 -0.2170 -1.3732  0.0987
  539MPD2    C4 8000   1.277   0.753  12.009 -0.2497 -0.0715  0.3108
  539MPD2    C5 8001   1.320   0.640  12.073  0.4263  0.1719  0.1875
  539MPD2     H 8002   1.352   0.677  11.693 -1.0338 -0.5149  0.4387
  539MPD2    H1 8003   1.242   0.838  12.066  2.5301  0.3705  1.3849
  539MPD2    H2 8004   1.383   0.437  12.040  0.9836  0.6905  2.2967
  539MPD2    H3 8005   1.323   0.630  12.181 -0.2978  1.2203  0.2940
  539MPD2     N 8006   1.235   0.884  11.813 -0.3974 -0.3686 -0.1451
  539MPD2    H5 8007   1.199   0.950  11.881 -0.3461 -0.9373  0.4440
  539MPD2    N1 8008   1.442   0.447  11.778 -0.7433  0.2299 -0.4310
  539MPD2    H7 8009   1.421   0.453  11.679  3.4727  0.9259 -1.2722
  540TMC3    C1 8010   1.183   1.041  11.648  0.5116 -0.1337  0.0569
  540TMC3    C2 8011   1.155   1.074  11.513 -0.2686  0.3604 -0.2762
  540TMC3    C3 8012   1.128   1.203  11.478 -0.3275  0.5360  1.0062
  540TMC3    C4 8013   1.177   1.140  11.739  0.4617 -0.9060 -0.1135
  540TMC3    C5 8014   1.152   1.269  11.699  0.0073 -0.4250  0.1027
  540TMC3    C6 8015   1.124   1.303  11.565  0.2053  0.3858  0.4467
  540TMC3     C 8016   1.206   0.904  11.679 -0.2076 -0.2054  0.1621
  540TMC3     O 8017   1.197   0.828  11.586 -0.1177 -0.0607 -0.5667
  540TMC3     H 8018   1.154   0.994  11.440  0.7913  0.2616 -0.1861
  540TMC3    H1 8019   1.191   1.115  11.844 -0.0774  1.8857  0.6279
  540TMC3    H2 8020   1.086   1.401  11.540  1.4147  0.9443  0.7647
  540TMC3    C7 8021   1.098   1.354  11.801  0.2069  0.6901  0.8372
  540TMC3    C8 8022   1.103   1.242  11.343 -0.0230  1.1660  0.5707
  540TMC3    O1 8023   1.091   1.311  11.915  0.5929  0.0918 -0.4154
  540TMC3    O2 8024   1.136   1.356  11.318  0.1998  0.9600  0.1020
  541MPD2     C 8025   0.063   1.588  13.437  0.4106  0.7616  0.1671
  541MPD2    C1 8026   4.660   1.610  13.406  0.2363 -0.3375 -0.1023
  541MPD2    C2 8027   4.619   1.710  13.324  0.4334 -0.5700 -0.2291
  541MPD2    C3 8028   4.712   1.791  13.262  0.4364 -0.6291  0.7515
  541MPD2    C4 8029   0.124   1.766  13.292 -0.2246 -0.3644 -0.0826
  541MPD2    C5 8030   0.157   1.672  13.389 -0.2938 -0.7739 -0.2563
  541MPD2     H 8031   4.513   1.718  13.305  0.8117  1.8743 -1.3514
  541MPD2    H1 8032   0.205   1.824  13.251  1.2447 -1.8141  0.7667
  541MPD2    H2 8033   0.097   1.509  13.503  2.0168  0.7675 -0.6466
  541MPD2    H3 8034   0.261   1.662  13.416  0.0428  0.1166 -1.2197
  541MPD2     N 8035   4.676   1.904  13.183 -0.3510  0.3109  0.3502
  541MPD2    H5 8036   0.029   1.945  13.131  1.7843 -0.3306  2.9320
  541MPD2    N1 8037   4.555   1.536  13.463  0.0440  0.0069 -1.2266
  541MPD2    H7 8038   4.460   1.559  13.438 -0.3434 -0.0744  0.1782
  542TMC3    C1 8039   4.550   2.062  13.064  0.4085 -0.5882  0.1721
  542TMC3    C2 8040   4.580   2.041  12.932  0.3586 -0.3593 -0.4905
  542TMC3    C3 8041   4.508   2.118  12.845  0.2898  0.5607 -0.6316
  542TMC3    C4 8042   4.460   2.161  13.097 -0.3540  0.2311 -0.3720
  542TMC3    C5 8043   4.391   2.236  13.005  0.0428  0.7623  0.1837
  542TMC3    C6 8044   4.414   2.218  12.868 -0.0613 -0.8789  0.2457
  542TMC3     C 8045   4.550   1.952  13.161  0.0157 -0.6027  0.0832
  542TMC3     O 8046   4.445   1.937  13.219 -0.1263  0.0347  0.5170
  542TMC3     H 8047   4.620   1.945  12.900 -0.2982 -0.2419 -1.6544
  542TMC3    H1 8048   4.453   2.179  13.204  0.8918  1.9678 -0.5751
  542TMC3    H2 8049   4.359   2.261  12.786 -1.4536 -1.1785  1.0163
  542TMC3    C7 8050   4.299   2.341  13.062  0.1293 -0.5808  0.9824
  542TMC3    C8 8051   4.509   2.067  12.710 -0.9161  0.1236  0.3686
  542TMC3    O1 8052   4.316   2.380  13.178  0.0103  0.4003 -0.2252
  542TMC3    O2 8053   4.507   1.946  12.696  0.0746 -0.1220  0.1669
  543TMC3    C1 8054   4.055   2.100  17.294  0.3732 -0.1749  0.1679
  543TMC3    C2 8055   4.087   1.977  17.338 -0.0183  0.0120 -0.1468
  543TMC3    C3 8056   4.002   1.926  17.432 -0.6085  0.4598 -0.1337
  543TMC3    C4 8057   3.974   2.185  17.370  0.0142 -0.4659  0.2756
  543TMC3    C5 8058   3.893   2.128  17.467  0.2474 -0.2733  0.2063
  543TMC3    C6 8059   3.896   1.994  17.487 -0.0745  0.4997  1.2043
  543TMC3     C 8060   4.140   2.162  17.197  0.7964  0.4398 -0.6724
  543TMC3     O 8061   4.135   2.281  17.201  0.3405  0.0483 -0.0420
  543TMC3     H 8062   4.177   1.922  17.312 -0.8055 -1.6397  0.6161
  543TMC3    H1 8063   3.962   2.291  17.351  1.5916 -0.7948 -2.5085
  543TMC3    H2 8064   3.825   1.946  17.554 -0.9156  0.2129  0.1304
  543TMC3    C7 8065   3.775   2.199  17.515 -0.0908  0.1747  0.4636
  543TMC3    C8 8066   4.010   1.782  17.449  0.5784  0.2523  0.1231
  543TMC3    O1 8067   3.684   2.122  17.553  0.0769 -0.7286 -0.1670
  543TMC3    O2 8068   4.031   1.720  17.348  0.1665 -0.3356 -1.1922
  544MPD2     C 8069   3.939   1.351   0.000  0.4132  0.0010  0.2122
  544MPD2    C1 8070   4.006   1.371  17.580 -0.8114 -0.3106  0.7052
  544MPD2    C2 8071   4.025   1.501  17.540  0.3588 -0.1802  0.3877
  544MPD2    C3 8072   3.970   1.611  17.613  0.2984  0.5329 -0.6744
  544MPD2    C4 8073   3.910   1.586   0.039  0.4738  0.1461  0.5400
  544MPD2    C5 8074   3.892   1.460   0.079  0.1710  0.1660  0.2324
  544MPD2     H 8075   4.081   1.522  17.449 -0.0886  1.9047  0.5943
  544MPD2    H1 8076   3.871   1.673   0.091  1.9747  1.8951 -1.2732
  544MPD2    H2 8077   3.927   1.255   0.049  1.0520 -0.6712 -0.9631
  544MPD2    H3 8078   3.857   1.448   0.181 -0.5730  0.3160  0.0022
  544MPD2     N 8079   3.975   1.742  17.575  0.1956  0.7476 -0.1115
  544MPD2    H5 8080   3.952   1.812  17.644 -0.9147  0.5595 -0.2838
  544MPD2    N1 8081   4.065   1.260  17.520 -0.1239 -0.4984 -0.0438
  544MPD2    H7 8082   4.059   1.173  17.573  0.8340 -0.0963  0.7280
  545TMC3    C1 8083   4.200   1.140  17.361  0.2568  0.0236  0.9410
  545TMC3    C2 8084   4.256   1.135  17.239  0.4774  0.2727  0.0699
  545TMC3    C3 8085   4.364   1.054  17.217  0.6623  0.3252 -0.1778
  545TMC3    C4 8086   4.246   1.063  17.468 -0.4765  0.0988  0.0009
  545TMC3    C5 8087   4.360   0.994  17.444  0.5719 -0.1328  0.0317
  545TMC3    C6 8088   4.410   0.972  17.317 -0.4857 -0.0640  0.3548
  545TMC3     C 8089   4.124   1.262  17.399 -0.5413  0.6685 -0.5946
  545TMC3     O 8090   4.122   1.345  17.307 -0.3805 -0.2002  0.0540
  545TMC3     H 8091   4.215   1.190  17.155 -0.8275  1.2887  1.3688
  545TMC3    H1 8092   4.203   1.067  17.568 -0.3339  0.2488  0.0555
  545TMC3    H2 8093   4.495   0.906  17.304 -1.1369 -0.9963  0.8071
  545TMC3    C7 8094   4.393   0.892  17.537 -0.3429  0.4440  0.1732
  545TMC3    C8 8095   4.433   1.056  17.090  0.5498  0.3398 -0.3554
  545TMC3    O1 8096   4.441   0.784  17.495  0.2290  0.6427 -0.0670
  545TMC3    O2 8097   4.371   1.106  16.997 -0.2849 -0.5745  0.1766
  546MPD2     C 8098   0.784   3.002   0.186 -0.5601  0.2770 -0.2394
  546MPD2    C1 8099   0.704   3.076   0.096 -0.5440 -1.2840 -0.0191
  546MPD2    C2 8100   0.745   3.212   0.069 -0.1762  0.3202 -0.2053
  546MPD2    C3 8101   0.866   3.258   0.123  0.0968  0.4226  1.0423
  546MPD2    C4 8102   0.941   3.166   0.194 -0.3877  0.0541  0.6684
  546MPD2    C5 8103   0.901   3.041   0.235  0.1127 -1.2033 -0.3930
  546MPD2     H 8104   0.682   3.281   0.015 -0.9259  1.3924  2.0282
  546MPD2    H1 8105   1.037   3.206   0.224 -0.9947  0.5160  2.0180
  546MPD2    H2 8106   0.754   2.901   0.213 -1.4992  0.5872 -0.1364
  546MPD2    H3 8107   0.971   2.974   0.282 -0.5621 -0.2260  1.9902
  546MPD2     N 8108   0.918   3.382   0.083  0.5646 -0.6578  0.0324
  546MPD2    H5 8109   1.015   3.399   0.111  0.6017  1.1130 -1.1525
  546MPD2    N1 8110   0.585   3.015   0.051 -0.0758  0.7482  1.5568
  546MPD2    H7 8111   0.567   2.921   0.084  2.2371 -0.9519 -1.9424
  547TMC3    C1 8112   0.389   2.995  17.632  0.8573  0.1913  0.7770
  547TMC3    C2 8113   0.322   3.017  17.511  0.2564 -0.3638  0.3589
  547TMC3    C3 8114   0.220   2.925  17.484  0.0304  0.4258 -0.5854
  547TMC3    C4 8115   0.346   2.898   0.022  0.2315 -0.2735  0.4891
  547TMC3    C5 8116   0.241   2.811  17.685  1.1707 -0.6196  0.6762
  547TMC3    C6 8117   0.175   2.826  17.566  0.1976 -0.2906 -0.1585
  547TMC3     C 8118   0.493   3.084  17.671  0.0414  0.7268 -0.1359
  547TMC3     O 8119   0.493   3.199  17.622 -0.0756 -0.8269 -0.1160
  547TMC3     H 8120   0.357   3.101  17.451  0.1793  0.9025  2.0996
  547TMC3    H1 8121   0.398   2.901   0.117 -1.6196 -0.6443  1.5166
  547TMC3    H2 8122   0.077   2.781  17.551 -0.1248  1.2670 -2.5427
  547TMC3    C7 8123   0.194   2.709   0.082 -0.1616  0.2257  0.1956
  547TMC3    C8 8124   0.140   2.946  17.373  0.5543 -1.2430 -0.6692
  547TMC3    O1 8125   0.250   2.720   0.191 -0.3384 -0.0698  1.0129
  547TMC3    O2 8126   0.097   2.841  17.326 -0.3430  0.5024 -0.0135
  548MPD2     C 8127   0.980   3.217  12.870 -0.3720  0.1013  0.1528
  548MPD2    C1 8128   0.880   3.280  12.804  0.9074 -0.1171  0.0496
  548MPD2    C2 8129   0.837   3.232  12.678 -0.3836  0.2474  0.6987
  548MPD2    C3 8130   0.894   3.109  12.633 -0.1028 -0.3759  0.6353
  548MPD2    C4 8131   1.002   3.052  12.695 -0.2627  0.2644 -0.1825
  548MPD2    C5 8132   1.055   3.110  12.812  0.6635  0.0610  0.4348
  548MPD2     H 8133   0.747   3.267  12.630  0.0146  0.3749  0.0454
  548MPD2    H1 8134   1.052   2.965  12.655 -0.8219 -0.0820 -0.1351
  548MPD2    H2 8135   1.026   3.258  12.960 -0.8591 -0.6360  0.7373
  548MPD2    H3 8136   1.151   3.071  12.844  0.0288 -0.9910  1.0455
  548MPD2     N 8137   0.843   3.069  12.514 -0.0676  0.5556  0.0273
  548MPD2    H5 8138   0.760   3.119  12.481 -1.4332 -0.8214  1.3933
  548MPD2    N1 8139   0.820   3.391  12.869 -0.2025  0.3005  0.0301
  548MPD2    H7 8140   0.857   3.423  12.958 -0.2547  0.4188  0.0097
  549TMC3    C1 8141   0.642   3.536  12.909 -0.5209 -0.0819 -0.0918
  549TMC3    C2 8142   0.585   3.648  12.861  0.5763 -0.3968 -0.1165
  549TMC3    C3 8143   0.462   3.687  12.903 -0.4652 -0.6314  0.0643
  549TMC3    C4 8144   0.569   3.454  12.993  0.6858 -0.1139 -0.2748
  549TMC3    C5 8145   0.438   3.483  13.012  0.9538 -0.5772  0.0216
  549TMC3    C6 8146   0.385   3.605  12.982 -0.5438  0.1332  0.3213
  549TMC3     C 8147   0.722   3.474  12.812 -0.5889 -0.2237 -0.0923
  549TMC3     O 8148   0.667   3.470  12.705  0.2399  0.4595 -0.4974
  549TMC3     H 8149   0.651   3.700  12.793  0.2592  0.0421 -0.0851
  549TMC3    H1 8150   0.616   3.367  13.039 -0.0435  0.2211  1.1187
  549TMC3    H2 8151   0.281   3.624  13.007 -0.1093  1.3151  1.2480
  549TMC3    C7 8152   0.345   3.393  13.089  0.1263  0.9051 -0.0767
  549TMC3    C8 8153   0.387   3.777  12.808 -0.5996 -0.6694 -0.3448
  549TMC3    O1 8154   0.250   3.452  13.145 -0.8707 -0.3792  0.3552
  549TMC3    O2 8155   0.271   3.743  12.784  0.5707  0.4260 -0.9706
  550TMC3    C1 8156   3.420   1.470  12.471 -0.0673  0.0030  0.6911
  550TMC3    C2 8157   3.494   1.549  12.554 -0.5412 -1.2371 -0.2619
  550TMC3    C3 8158   3.495   1.683  12.516 -0.2362  0.4438  0.5024
  550TMC3    C4 8159   3.369   1.518  12.352 -0.0064  0.2312  0.8410
  550TMC3    C5 8160   3.383   1.652  12.317  0.0159 -0.6796 -0.1299
  550TMC3    C6 8161   3.462   1.735  12.394 -1.2822  0.2617 -0.3294
  550TMC3     C 8162   3.400   1.337  12.514  0.5361 -0.4085 -0.0793
  550TMC3     O 8163   3.423   1.319  12.627  0.3785  0.3602 -0.1347
  550TMC3     H 8164   3.538   1.510  12.645 -0.6069 -0.0740  0.2684
  550TMC3    H1 8165   3.295   1.459  12.299  0.2488  0.8574 -0.2137
  550TMC3    H2 8166   3.469   1.843  12.386 -1.7196  0.5406  2.7382
  550TMC3    C7 8167   3.275   1.709  12.239 -1.0540  0.2109  0.7449
  550TMC3    C8 8168   3.506   1.782  12.618 -0.1271 -0.2034 -0.4087
  550TMC3    O1 8169   3.168   1.651  12.235  0.3765  0.1033 -0.1290
  550TMC3    O2 8170   3.561   1.886  12.587  0.0690 -0.0115 -0.2802
  551TMC3    C1 8171   1.493   4.241  13.728  0.3448 -0.1951  0.0146
  551TMC3    C2 8172   1.600   4.205  13.661  0.3234 -0.0808 -0.2111
  551TMC3    C3 8173   1.692   4.300  13.632 -0.7521 -0.0711  0.3015
  551TMC3    C4 8174   1.480   4.360  13.791 -0.0856  0.3661 -0.2935
  551TMC3    C5 8175   1.581   4.453  13.763 -0.0000  0.5202 -0.2816
  551TMC3    C6 8176   1.688   4.430  13.688 -0.7837  0.4642  0.3573
  551TMC3     C 8177   1.372   4.165  13.686  0.1420 -0.7648 -0.2807
  551TMC3     O 8178   1.392   4.047  13.670 -0.5616 -0.4325 -0.3371
  551TMC3     H 8179   1.610   4.103  13.626  1.4743 -0.0687  0.0760
  551TMC3    H1 8180   1.390   4.388  13.846 -0.5043  2.1058 -1.8484
  551TMC3    H2 8181   1.767   4.504  13.678  0.3526 -0.7120  0.5735
  551TMC3    C7 8182   1.597   4.543  13.876 -0.2195 -0.1701  0.7781
  551TMC3    C8 8183   1.763   4.273  13.511  0.9180 -0.2394  0.1488
  551TMC3    O1 8184   1.596   4.490  13.984 -0.1749 -0.2269  0.6582
  551TMC3    O2 8185   1.780   4.154  13.474  0.2695  0.2118  0.6837
  552MPD2     C 8186   2.896   1.056  14.327 -0.0038  0.2670 -0.8320
  552MPD2    C1 8187   3.004   1.019  14.249  0.0875 -0.2906 -0.0456
  552MPD2    C2 8188   3.129   1.009  14.313  0.6228  0.1891 -0.9821
  552MPD2    C3 8189   3.141   1.066  14.439  0.0192 -0.3838 -0.2223
  552MPD2    C4 8190   3.030   1.108  14.508  0.3723  0.3093 -0.3585
  552MPD2    C5 8191   2.907   1.100  14.458  0.6439  0.4799  0.0476
  552MPD2     H 8192   3.217   0.966  14.266  0.0254  1.9073 -3.7317
  552MPD2    H1 8193   3.035   1.129  14.614  2.6555  1.5157 -0.7116
  552MPD2    H2 8194   2.795   1.056  14.288 -0.2709 -0.6213 -0.1326
  552MPD2    H3 8195   2.825   1.108  14.529  0.7550 -4.6763  0.7057
  552MPD2     N 8196   3.262   1.079  14.514  0.7253 -0.1080 -0.2401
  552MPD2    H5 8197   3.252   1.115  14.608  1.9934  0.1654 -0.2041
  552MPD2    N1 8198   2.986   0.950  14.128 -0.0704  0.3864 -0.0684
  552MPD2    H7 8199   3.068   0.907  14.086  0.1147 -2.0049  2.7555
  553TMC3    C1 8200   2.900   0.852  13.930  0.4872  0.2043 -0.7850
  553TMC3    C2 8201   2.828   0.884  13.822  0.6717  0.8541 -0.2032
  553TMC3    C3 8202   2.831   0.796  13.714  0.7136  0.5550  0.2487
  553TMC3    C4 8203   2.978   0.741  13.937  0.2195  0.1570 -0.0136
  553TMC3    C5 8204   2.977   0.656  13.826  0.4780 -0.1980 -0.1741
  553TMC3    C6 8205   2.898   0.683  13.719 -0.4120  0.1455  0.9331
  553TMC3     C 8206   2.872   0.920  14.056  0.2333 -0.1479 -0.5513
  553TMC3     O 8207   2.764   0.976  14.064 -1.1701  0.2434 -0.0651
  553TMC3     H 8208   2.774   0.978  13.821  0.1190  0.5642  1.2060
  553TMC3    H1 8209   3.038   0.713  14.023 -0.8865 -3.3706 -0.3624
  553TMC3    H2 8210   2.911   0.621  13.631  3.2261  0.7295  1.0847
  553TMC3    C7 8211   3.068   0.542  13.827  0.3012  0.5394 -0.4614
  553TMC3    C8 8212   2.789   0.843  13.581  0.2163 -0.0905  0.7481
  553TMC3    O1 8213   3.032   0.436  13.782 -0.2004  0.0518  0.1981
  553TMC3    O2 8214   2.718   0.944  13.591  0.3942  0.1226 -0.1281
  554TMC3    C1 8215   0.907   0.435  11.984  0.0908 -0.4856 -0.0252
  554TMC3    C2 8216   0.873   0.338  11.887  0.7656 -0.0098 -0.4555
  554TMC3    C3 8217   0.884   0.370  11.755 -0.1381  0.8472 -0.5261
  554TMC3    C4 8218   0.922   0.568  11.946  0.1706  0.1854 -0.3911
  554TMC3    C5 8219   0.933   0.595  11.813 -0.1171  0.6725 -0.4312
  554TMC3    C6 8220   0.939   0.490  11.728  0.1535  0.4175  0.0823
  554TMC3     C 8221   0.910   0.403  12.126 -0.3517 -0.3390 -0.2666
  554TMC3     O 8222   0.894   0.499  12.203 -0.0178 -0.3943  0.0493
  554TMC3     H 8223   0.832   0.244  11.923 -0.5971  1.1324  1.0086
  554TMC3    H1 8224   0.944   0.644  12.020 -1.5739 -1.8102  2.1855
  554TMC3    H2 8225   0.950   0.514  11.623  2.4888 -0.0720  0.2331
  554TMC3    C7 8226   0.916   0.726  11.756 -0.1341 -0.0706 -0.4683
  554TMC3    C8 8227   0.796   0.317  11.650  0.7025 -0.0427  0.7333
  554TMC3    O1 8228   0.901   0.726  11.635 -0.1167  0.4940 -0.1779
  554TMC3    O2 8229   0.768   0.395  11.555  0.0316 -0.3199  0.2119
  555TMC3    C1 8230   4.240   0.101  14.947 -0.3386  0.3553 -0.5144
  555TMC3    C2 8231   4.232   0.165  15.065 -0.9588  0.1740  0.3593
  555TMC3    C3 8232   4.256   0.097  15.176  0.5126  0.1113  0.5611
  555TMC3    C4 8233   4.274   4.695  14.929 -0.1885  0.5092  0.5405
  555TMC3    C5 8234   4.299   4.631  15.045  0.4775  0.5480  0.1119
  555TMC3    C6 8235   4.283   4.690  15.164  0.2065  0.2487  1.1005
  555TMC3     C 8236   4.217   0.189  14.837  0.5671  0.8302 -0.1616
  555TMC3     O 8237   4.279   0.295  14.842  0.0826  0.0575  0.2360
  555TMC3     H 8238   4.206   0.271  15.065  1.7365  0.8369 -0.0119
  555TMC3    H1 8239   4.282   4.645  14.833  0.9762 -1.8576  1.8639
  555TMC3    H2 8240   4.290   4.631  15.254 -2.4755 -1.2338  0.3172
  555TMC3    C7 8241   4.280   4.490  15.035 -0.7871 -0.6310 -0.1967
  555TMC3    C8 8242   4.282   0.171  15.292 -0.4921  0.5390  0.2003
  555TMC3    O1 8243   4.203   4.443  15.121  0.1051  0.1034 -0.1325
  555TMC3    O2 8244   4.239   0.286  15.292  0.4026  0.1763  0.0345
  556MPD2     C 8245   2.673   1.458  11.342  0.3656 -0.2641 -0.3599
  556MPD2    C1 8246   2.543   1.410  11.354 -0.1561  0.1666  0.7022
  556MPD2    C2 8247   2.502   1.299  11.284  0.2561 -0.5345 -0.2490
  556MPD2    C3 8248   2.586   1.238  11.194  0.0338 -0.4104 -0.0733
  556MPD2    C4 8249   2.710   1.294  11.175  0.7517 -0.1865  0.3483
  556MPD2    C5 8250   2.751   1.403  11.249  0.1453  0.3275 -0.0827
  556MPD2     H 8251   2.399   1.267  11.291 -0.2615  0.8683 -1.7367
  556MPD2    H1 8252   2.788   1.241  11.121  2.3298  1.1439  1.3097
  556MPD2    H2 8253   2.717   1.535  11.404 -0.5742 -1.2615  1.5492
  556MPD2    H3 8254   2.857   1.425  11.250 -0.2845  2.3885 -0.1006
  556MPD2     N 8255   2.540   1.124  11.123 -0.1560 -0.0556  0.4878
  556MPD2    H5 8256   2.440   1.108  11.132 -0.2635  1.2160  1.6561
  556MPD2    N1 8257   2.453   1.486  11.429 -0.3127  0.2083 -0.2267
  556MPD2    H7 8258   2.480   1.575  11.469 -0.0708  0.5962 -1.2588
  557TMC3    C1 8259   2.525   0.948  10.973 -0.4495 -0.6567  0.3021
  557TMC3    C2 8260   2.600   0.873  10.887  0.2147 -0.3820 -0.6429
  557TMC3    C3 8261   2.531   0.794  10.795 -0.3806  0.1588  0.3413
  557TMC3    C4 8262   2.389   0.957  10.967 -0.6923 -0.2962 -0.4558
  557TMC3    C5 8263   2.331   0.904  10.853 -0.3216 -0.6277  0.6627
  557TMC3    C6 8264   2.397   0.811  10.780  0.1513 -0.2917  0.0313
  557TMC3     C 8265   2.608   1.048  11.042  0.0412  0.0835  0.1233
  557TMC3     O 8266   2.723   1.060  10.998  0.0524 -0.7921 -0.4456
  557TMC3     H 8267   2.705   0.851  10.901 -0.7184 -3.1350  1.9581
  557TMC3    H1 8268   2.344   1.019  11.044  1.4604  1.7991 -0.8960
  557TMC3    H2 8269   2.340   0.746  10.714  1.1272 -1.5730  0.4626
  557TMC3    C7 8270   2.204   0.952  10.808 -0.2886 -0.3682 -0.8647
  557TMC3    C8 8271   2.608   0.719  10.696 -0.1832  0.2923  0.3975
  557TMC3    O1 8272   2.156   1.041  10.882  0.2955  0.3950  0.8803
  557TMC3    O2 8273   2.719   0.759  10.663  0.4523 -0.1225 -0.1050
  558TMC3    C1 8274   0.107   4.153  10.000  0.2536 -0.0503  0.8053
  558TMC3    C2 8275   0.037   4.066  10.079  0.3527 -0.1217  0.0244
  558TMC3    C3 8276   4.655   3.998  10.012  0.2241 -0.2290 -0.2834
  558TMC3    C4 8277   0.094   4.163   9.866 -0.1357  0.7251 -0.0205
  558TMC3    C5 8278   4.711   4.099   9.806 -0.1996 -0.1183  0.2441
  558TMC3    C6 8279   4.632   4.003   9.877  0.3783 -0.0206 -0.2813
  558TMC3     C 8280   0.223   4.217  10.061 -0.1879  0.1969  0.1754
  558TMC3     O 8281   0.259   4.186  10.175  0.1188  0.0685 -0.7770
  558TMC3     H 8282   0.051   4.059  10.186  0.8307 -2.8041 -0.2148
  558TMC3    H1 8283   0.167   4.215   9.805 -1.6566  3.6812  0.6911
  558TMC3    H2 8284   4.539   3.963   9.840 -0.0879  1.7412 -1.0293
  558TMC3    C7 8285   4.692   4.112   9.666  0.5539  0.1453 -0.5368
  558TMC3    C8 8286   4.578   3.901  10.094 -0.3089 -0.1816  0.0614
  558TMC3    O1 8287   0.022   4.207   9.610  0.6261  0.2955  0.6342
  558TMC3    O2 8288   4.530   3.808  10.033 -0.5744 -0.0153  0.5777
  559MPD2     C 8289   0.312   4.674  10.514  0.5401  0.5424 -1.0081
  559MPD2    C1 8290   0.262   4.613  10.626 -0.5215  0.7980  0.2205
  559MPD2    C2 8291   0.354   4.576  10.719  0.2099  0.4949  0.6584
  559MPD2    C3 8292   0.490   4.601  10.707 -0.3151  0.0892 -0.0558
  559MPD2    C4 8293   0.539   4.667  10.600 -0.2277  0.1432 -0.6573
  559MPD2    C5 8294   0.444   4.699  10.506 -0.3822 -0.8894 -0.0751
  559MPD2     H 8295   0.315   4.543  10.815 -1.9862 -1.5126 -0.9168
  559MPD2    H1 8296   0.644   4.684  10.582  0.1603 -1.2744  0.2658
  559MPD2    H2 8297   0.251   4.717  10.435  1.4879 -0.8595 -2.5202
  559MPD2    H3 8298   0.479   0.038  10.425 -0.6665 -1.3050 -0.5256
  559MPD2     N 8299   0.562   4.589  10.827  0.3115  0.1124  0.4556
  559MPD2    H5 8300   0.507   4.545  10.900  1.4656 -2.4246 -0.1874
  559MPD2    N1 8301   0.126   4.606  10.651 -0.2259 -0.3125 -0.5638
  559MPD2    H7 8302   0.071   4.671  10.596 -1.1034  0.3325  1.0656
  560TMC3    C1 8303   0.742   4.572  10.970  0.2448  0.3956  0.9580
  560TMC3    C2 8304   0.680   4.455  11.001  0.1931 -0.3660 -0.2682
  560TMC3    C3 8305   0.682   4.414  11.137 -0.2600 -0.4153 -0.7908
  560TMC3    C4 8306   0.814   4.642  11.065  0.8902 -0.0394 -0.2417
  560TMC3    C5 8307   0.821   4.594  11.192 -0.0864 -0.1773 -0.0159
  560TMC3    C6 8308   0.744   4.487  11.228  0.4575  0.0062  0.4790
  560TMC3     C 8309   0.695   4.632  10.847 -0.0376 -0.2102 -0.2385
  560TMC3     O 8310   0.750   4.723  10.788 -0.6445  0.3610 -0.4744
  560TMC3     H 8311   0.631   4.391  10.929 -0.2801 -1.3207  0.9046
  560TMC3    H1 8312   0.855   0.014  11.035 -3.4992  2.0243  0.2628
  560TMC3    H2 8313   0.753   4.457  11.331  0.4776  1.4741  0.9021
  560TMC3    C7 8314   0.917   4.637  11.294  0.4269 -0.6138 -0.8456
  560TMC3    C8 8315   0.576   4.319  11.165 -0.2966  0.1094  0.3796
  560TMC3    O1 8316   0.950   4.554  11.377 -0.7034 -0.2177 -0.6188
  560TMC3    O2 8317   0.513   4.274  11.073  0.3282  0.0612 -0.4872
  561TMC3    C1 8318   2.965   3.362  11.701  0.4882  0.6613 -0.9363
  561TMC3    C2 8319   2.854   3.335  11.777 -0.3465  0.2422 -0.0779
  561TMC3    C3 8320   2.830   3.415  11.886 -0.4014  0.0481  0.4197
  561TMC3    C4 8321   3.043   3.471  11.723  0.2975 -0.1991  0.6228
  561TMC3    C5 8322   3.012   3.552  11.831 -1.0051 -0.0953 -0.0636
  561TMC3    C6 8323   2.906   3.527  11.911 -0.8657 -0.3627  0.0609
  561TMC3     C 8324   3.014   3.260  11.608  0.0762 -0.3968  0.1179
  561TMC3     O 8325   2.956   3.151  11.603  0.1632  0.0720 -0.2499
  561TMC3     H 8326   2.792   3.249  11.753 -1.6413  0.0247  3.9948
  561TMC3    H1 8327   3.139   3.488  11.675  0.0035 -1.2086 -0.3101
  561TMC3    H2 8328   2.906   3.578  12.007 -0.7021  0.0349 -0.1495
  561TMC3    C7 8329   3.106   3.646  11.879 -0.0763 -0.1507 -0.1670
  561TMC3    C8 8330   2.716   3.388  11.974  0.6435  0.2218 -0.3694
  561TMC3    O1 8331   3.135   3.638  11.996 -0.2258  0.6913 -0.3348
  561TMC3    O2 8332   2.694   3.266  11.979 -0.5656  0.1371 -0.4078
  562TMC3    C1 8333   4.483   0.129  15.928 -0.6130 -0.0241 -0.2704
  562TMC3    C2 8334   4.397   0.197  16.003  0.9407 -0.6118  0.2581
  562TMC3    C3 8335   4.269   0.166  15.981 -0.0051 -0.0148 -0.2203
  562TMC3    C4 8336   4.450   0.045  15.825  0.0971 -0.2242 -0.2473
  562TMC3    C5 8337   4.319   0.043  15.784  0.0197  0.0960  0.0711
  562TMC3    C6 8338   4.227   0.105  15.869 -0.0003 -0.6120  0.6925
  562TMC3     C 8339   4.623   0.142  15.966  0.1237  0.3987 -0.1507
  562TMC3     O 8340   4.710   0.116  15.886  0.7407  0.5969  0.0637
  562TMC3     H 8341   4.425   0.267  16.082 -2.3788  0.6566  0.3220
  562TMC3    H1 8342   4.530   0.012  15.761  2.4379  2.3954  1.2957
  562TMC3    H2 8343   4.122   0.078  15.859 -0.4100  0.0855  3.2005
  562TMC3    C7 8344   4.267   4.664  15.696 -0.1790  0.2509  0.6856
  562TMC3    C8 8345   4.178   0.238  16.069 -1.0776  0.0711 -0.5270
  562TMC3    O1 8346   4.159   4.686  15.645  0.0174 -0.0064  0.1983
  562TMC3    O2 8347   4.223   0.249  16.181  0.3895 -0.0780  0.1829
  563MPD2     C 8348   1.936   1.502  15.693 -0.0447 -0.2982 -0.3772
  563MPD2    C1 8349   1.973   1.566  15.810 -0.5588 -0.1992  0.6146
  563MPD2    C2 8350   2.105   1.612  15.823 -0.9974  0.3948  0.0722
  563MPD2    C3 8351   2.194   1.581  15.717 -0.7839 -0.7498 -0.4805
  563MPD2    C4 8352   2.154   1.500  15.613  0.8791 -0.1491  0.1820
  563MPD2    C5 8353   2.029   1.470  15.595 -0.0615 -0.1494  0.1603
  563MPD2     H 8354   2.141   1.665  15.910 -0.3234  1.2260 -0.6981
  563MPD2    H1 8355   2.220   1.488  15.527 -1.4619  1.3286 -1.8067
  563MPD2    H2 8356   1.834   1.470  15.672  0.8379 -1.2035 -3.2820
  563MPD2    H3 8357   2.005   1.440  15.494 -2.1742 -0.7172  0.8295
  563MPD2     N 8358   2.314   1.651  15.713 -0.4740  0.1033  0.1959
  563MPD2    H5 8359   2.336   1.713  15.791 -1.9548  0.7353  0.1213
  563MPD2    N1 8360   1.873   1.559  15.911  0.7150 -0.1379  0.3225
  563MPD2    H7 8361   1.784   1.530  15.872  0.0537  1.6896  0.4804
  564TMC3    C1 8362   1.792   1.570  16.145  0.3098  0.4719  0.6939
  564TMC3    C2 8363   1.655   1.555  16.119 -0.6892 -0.5693 -0.6643
  564TMC3    C3 8364   1.576   1.511  16.224 -0.6403 -0.3570 -0.0530
  564TMC3    C4 8365   1.844   1.563  16.274  0.1111  0.1778  0.2949
  564TMC3    C5 8366   1.755   1.530  16.373  0.6448 -1.0725  0.0753
  564TMC3    C6 8367   1.625   1.502  16.351  0.0299 -0.2753  0.2979
  564TMC3     C 8368   1.890   1.606  16.041  0.1185 -0.3892  0.0477
  564TMC3     O 8369   1.990   1.656  16.090 -0.0347 -0.2630 -0.4657
  564TMC3     H 8370   1.616   1.579  16.021  1.8940 -2.4750 -2.1673
  564TMC3    H1 8371   1.947   1.585  16.303 -0.8201  3.2048  1.2975
  564TMC3    H2 8372   1.552   1.476  16.427  0.5532 -0.7188  0.6495
  564TMC3    C7 8373   1.823   1.454  16.478  0.6585 -1.2742 -0.0882
  564TMC3    C8 8374   1.493   1.393  16.195 -0.0883 -0.4484 -0.0960
  564TMC3    O1 8375   1.932   1.492  16.526  1.3314  0.0888  0.1567
  564TMC3    O2 8376   1.493   1.307  16.286  0.3195  0.4501  0.1758
  565TMC3    C1 8377   1.339   2.701  10.782  0.7487 -0.0141  0.0668
  565TMC3    C2 8378   1.411   2.612  10.857 -0.1498 -0.6375 -1.4155
  565TMC3    C3 8379   1.408   2.477  10.821  0.2153  0.2202  0.3838
  565TMC3    C4 8380   1.257   2.648  10.687  0.3142 -0.1096 -0.7196
  565TMC3    C5 8381   1.255   2.513  10.657 -0.1268 -0.4692  0.0730
  565TMC3    C6 8382   1.330   2.419  10.724 -0.7944 -0.1719 -0.3407
  565TMC3     C 8383   1.412   2.814  10.737  0.0456 -0.9472  0.2249
  565TMC3     O 8384   1.381   2.855  10.624  0.2848  0.1336 -0.1269
  565TMC3     H 8385   1.477   2.641  10.938 -2.5138  1.0414 -0.0815
  565TMC3    H1 8386   1.185   2.714  10.640 -0.2560 -0.8891 -0.9355
  565TMC3    H2 8387   1.326   2.317  10.685 -0.9848  0.6701 -2.5616
  565TMC3    C7 8388   1.167   2.455  10.554 -0.5852  0.3700  0.1067
  565TMC3    C8 8389   1.520   2.401  10.877 -0.2344  0.4236  0.6921
  565TMC3    O1 8390   1.161   2.336  10.526  0.5087 -0.1558 -0.0442
  565TMC3    O2 8391   1.615   2.472  10.916  0.5570  0.0588  0.2314
  566MPD2     C 8392   3.445   4.592  13.750 -0.3652 -0.2032  0.2728
  566MPD2    C1 8393   3.545   4.515  13.805 -0.1073  0.0213  0.5267
  566MPD2    C2 8394   3.600   4.410  13.739 -0.1965 -0.2704 -0.6240
  566MPD2    C3 8395   3.551   4.379  13.612  0.5895  0.6033  0.0895
  566MPD2    C4 8396   3.447   4.450  13.554 -0.0694  1.5159 -0.5582
  566MPD2    C5 8397   3.392   4.554  13.631  0.4121 -0.1480 -0.0214
  566MPD2     H 8398   3.683   4.353  13.779 -1.0042 -1.3042 -0.4307
  566MPD2    H1 8399   3.411   4.429  13.454 -2.6384 -2.7957  1.2866
  566MPD2    H2 8400   3.406   4.668  13.816  1.4857 -0.6933  1.9377
  566MPD2    H3 8401   3.304   4.601  13.588  0.9465  0.3951 -0.5172
  566MPD2     N 8402   3.617   4.290  13.524  0.2930  0.1683  0.0267
  566MPD2    H5 8403   3.582   4.296  13.429 -4.8298  0.8300  1.9451
  566MPD2    N1 8404   3.591   4.558  13.931 -0.1987  0.1619  0.2776
  566MPD2    H7 8405   3.552   4.644  13.968 -1.7782 -0.4102 -0.0587
  567TMC3    C1 8406   3.730   4.601  14.102 -0.9980 -0.7364 -0.3867
  567TMC3    C2 8407   3.770   4.716  14.043 -0.2609  0.4076 -0.1860
  567TMC3    C3 8408   3.889   0.054  14.080  0.7236 -0.1474 -0.8692
  567TMC3    C4 8409   3.805   4.547  14.206  0.0164 -0.2395 -0.0771
  567TMC3    C5 8410   3.916   4.619  14.245  0.1451 -0.0271 -0.2309
  567TMC3    C6 8411   3.968   0.004  14.180  0.3776  0.2362 -0.0452
  567TMC3     C 8412   3.679   4.501  14.010 -0.6147 -0.0164  0.2740
  567TMC3     O 8413   3.748   4.400  13.998 -0.0175 -0.1498  0.4757
  567TMC3     H 8414   3.713   0.030  13.959  0.5716 -0.0039 -0.9313
  567TMC3    H1 8415   3.777   4.452  14.250 -0.4873  0.2752  0.7196
  567TMC3    H2 8416   4.051   0.055  14.227  0.2485  0.5602 -0.1749
  567TMC3    C7 8417   3.991   4.567  14.357 -0.4274  0.5685 -0.0664
  567TMC3    C8 8418   3.936   0.162  13.996  0.0644  0.1238  0.4554
  567TMC3    O1 8419   4.111   4.589  14.363 -0.1791 -0.2469 -0.4126
  567TMC3    O2 8420   3.893   0.172  13.881 -0.3997 -0.1240 -0.1291
  568MPD2     C 8421   1.921   0.158  16.311  0.0919 -0.1242  0.4721
  568MPD2    C1 8422   1.865   0.228  16.417 -0.4204  0.4079  0.2310
  568MPD2    C2 8423   1.757   0.310  16.391 -0.2182 -0.5733 -0.4468
  568MPD2    C3 8424   1.704   0.313  16.264  0.0573 -0.9760  0.1183
  568MPD2    C4 8425   1.755   0.242  16.156 -0.4945  0.1920  0.0273
  568MPD2    C5 8426   1.869   0.169  16.185 -0.1654 -0.4702  0.0838
  568MPD2     H 8427   1.716   0.376  16.466  1.5954 -0.0548  0.0715
  568MPD2    H1 8428   1.732   0.253  16.051  1.1304 -0.4762 -0.3950
  568MPD2    H2 8429   2.012   0.101  16.327 -1.5477 -3.3893 -2.0226
  568MPD2    H3 8430   1.920   0.114  16.107  2.0702  1.6264  0.0619
  568MPD2     N 8431   1.588   0.389  16.251 -0.1231 -0.0222 -0.0836
  568MPD2    H5 8432   1.562   0.437  16.337  0.4682 -1.3585  0.8421
  568MPD2    N1 8433   1.918   0.204  16.547 -0.1797 -0.8437 -0.2140
  568MPD2    H7 8434   1.985   0.128  16.548  0.6297 -0.0927  2.6357
  569TMC3    C1 8435   1.394   0.499  16.178  0.1254 -0.7215 -0.1090
  569TMC3    C2 8436   1.362   0.510  16.310 -0.9801 -0.5432  0.4108
  569TMC3    C3 8437   1.299   0.625  16.346  0.4535  0.8213  0.2072
  569TMC3    C4 8438   1.346   0.580  16.082 -0.3989 -0.7494  0.4671
  569TMC3    C5 8439   1.281   0.696  16.119 -0.1897  0.4627  0.2752
  569TMC3    C6 8440   1.256   0.719  16.252  0.3924 -0.1955  0.4266
  569TMC3     C 8441   1.502   0.400  16.148  0.2239  0.0990  0.0194
  569TMC3     O 8442   1.517   0.367  16.030 -0.4119  0.2991  0.3330
  569TMC3     H 8443   1.386   0.445  16.393 -2.4709 -2.6535 -0.7901
  569TMC3    H1 8444   1.376   0.554  15.981  0.8439  0.1532  0.5972
  569TMC3    H2 8445   1.203   0.808  16.283  0.5310 -0.9396  2.8113
  569TMC3    C7 8446   1.263   0.801  16.019  0.1817  1.1046  0.4631
  569TMC3    C8 8447   1.281   0.643  16.483  0.6259 -0.2228  0.3646
  569TMC3    O1 8448   1.267   0.761  15.901  0.2384  0.5363  0.1744
  569TMC3    O2 8449   1.242   0.539  16.535 -0.6845 -0.3290  0.7991
  570TMC3    C1 8450   0.529   4.035  16.449 -0.2384 -0.3833 -0.0935
  570TMC3    C2 8451   0.590   3.975  16.344  0.5246 -0.0608  0.2868
  570TMC3    C3 8452   0.596   4.052  16.230 -0.1010  0.1443  0.0129
  570TMC3    C4 8453   0.471   4.160  16.447  0.4458 -0.3057 -0.2827
  570TMC3    C5 8454   0.466   4.226  16.324  0.3349  0.4573 -0.3969
  570TMC3    C6 8455   0.535   4.171  16.215  0.2918 -0.3287  0.7042
  570TMC3     C 8456   0.529   3.964  16.579 -0.5578 -0.1924  0.1650
  570TMC3     O 8457   0.564   3.847  16.580  0.3764  0.5538  0.1144
  570TMC3     H 8458   0.616   3.870  16.352 -0.2613 -0.3560 -1.1785
  570TMC3    H1 8459   0.398   4.193  16.521 -1.4993 -1.8723 -1.5063
  570TMC3    H2 8460   0.549   4.216  16.118  0.8180  0.3702  1.1077
  570TMC3    C7 8461   0.435   4.366  16.326  0.0493 -0.5644 -0.2332
  570TMC3    C8 8462   0.682   4.010  16.128 -0.0067  0.0844  0.2490
  570TMC3    O1 8463   0.412   4.415  16.438 -0.1132  0.0062 -0.0176
  570TMC3    O2 8464   0.718   4.103  16.056 -0.1786 -0.3070 -0.1449
  571MPD2     C 8465   3.740   0.754   0.158  0.4240 -0.6670  0.9246
  571MPD2    C1 8466   3.608   0.730   0.136 -0.5034 -0.4738  0.5873
  571MPD2    C2 8467   3.517   0.838   0.150  0.2330  0.1265  0.5105
  571MPD2    C3 8468   3.570   0.965   0.182  0.0174 -0.7199  0.0466
  571MPD2    C4 8469   3.701   0.982   0.193 -0.0125  0.1409  0.5470
  571MPD2    C5 8470   3.786   0.876   0.172  0.7514  0.2695 -0.4965
  571MPD2     H 8471   3.414   0.829   0.120 -0.1526  0.4391  1.7290
  571MPD2    H1 8472   3.740   1.082   0.212 -2.0313  1.1003 -0.3220
  571MPD2    H2 8473   3.817   0.678   0.149 -0.2419 -0.8812 -3.3451
  571MPD2    H3 8474   3.893   0.874   0.190  0.5952 -2.6464  0.0882
  571MPD2     N 8475   3.487   1.083   0.200  0.4268  0.2285  0.1545
  571MPD2    H5 8476   3.533   1.174   0.202  2.5192 -0.7754 -2.0497
  571MPD2    N1 8477   3.563   0.597   0.101  0.0581 -0.5394  0.0025
  571MPD2    H7 8478   3.636   0.528   0.088  0.0685 -0.4160 -0.5619
  572TMC3    C1 8479   3.292   1.199   0.252 -0.8452  0.5597 -0.5694
  572TMC3    C2 8480   3.164   1.183   0.304  0.0140 -0.0410  0.3055
  572TMC3    C3 8481   3.081   1.288   0.282 -0.6682 -0.2610 -0.1777
  572TMC3    C4 8482   3.332   1.305   0.176 -0.8611 -0.9532 -0.0063
  572TMC3    C5 8483   3.237   1.399   0.153 -0.0180  0.4986  0.5592
  572TMC3    C6 8484   3.113   1.396   0.205  0.1018  0.2958 -0.1043
  572TMC3     C 8485   3.356   1.070   0.235 -0.0137 -0.2652 -0.0922
  572TMC3     O 8486   3.292   0.971   0.272  0.4354  0.8342  0.1206
  572TMC3     H 8487   3.117   1.088   0.328  2.1978 -0.9597  0.9593
  572TMC3    H1 8488   3.429   1.307   0.128 -0.8818  2.6079  0.1144
  572TMC3    H2 8489   3.033   1.458   0.168  0.4465 -0.4028 -2.0317
  572TMC3    C7 8490   3.275   1.516   0.076 -0.0202 -0.1781  0.4954
  572TMC3    C8 8491   2.954   1.227   0.250  0.0585  0.2161 -0.6895
  572TMC3    O1 8492   3.192   1.606   0.062  0.1258  0.3319 -0.0583
  572TMC3    O2 8493   2.930   1.212   0.129 -0.1175  0.4038 -0.0992
  573MPD2     C 8494   0.176   0.957   1.309  0.6187  0.2011  0.9061
  573MPD2    C1 8495   0.107   1.077   1.317 -0.1604  1.0877  0.0765
  573MPD2    C2 8496   0.004   1.088   1.234  0.2570 -0.2823  0.7372
  573MPD2    C3 8497   4.681   0.986   1.149 -0.3076  0.0536 -0.7258
  573MPD2    C4 8498   0.015   0.864   1.159 -0.3957  0.5945  0.9631
  573MPD2    C5 8499   0.134   0.855   1.232  0.1650 -0.4014 -0.3297
  573MPD2     H 8500   4.672   1.180   1.220 -2.0633 -1.8389 -0.3296
  573MPD2    H1 8501   4.700   0.783   1.098 -0.7474  0.5626  1.2246
  573MPD2    H2 8502   0.257   0.951   1.381  0.9718 -1.0792  0.4090
  573MPD2    H3 8503   0.193   0.764   1.233  0.8327  0.0319  0.5151
  573MPD2     N 8504   4.576   0.996   1.051 -0.1509  0.3897 -0.5208
  573MPD2    H5 8505   4.553   0.915   0.994 -0.7121 -0.8718  1.5237
  573MPD2    N1 8506   0.152   1.170   1.410 -0.4937 -0.2349 -0.1169
  573MPD2    H7 8507   0.241   1.149   1.454  0.1571  0.7132 -0.9674
  574TMC3    C1 8508   4.433   1.106   0.894  0.4527 -0.4683 -0.4449
  574TMC3    C2 8509   4.481   1.032   0.791 -0.0741  1.2638 -0.3503
  574TMC3    C3 8510   4.441   1.056   0.664  1.2341 -0.8088  0.5577
  574TMC3    C4 8511   4.367   1.224   0.857 -0.2012  0.6379 -0.2134
  574TMC3    C5 8512   4.346   1.255   0.720 -0.4932 -0.0160 -0.1012
  574TMC3    C6 8513   4.371   1.167   0.625 -0.1970 -0.7253  0.3570
  574TMC3     C 8514   4.512   1.115   1.012 -0.2648 -0.2264 -0.5395
  574TMC3     O 8515   4.510   1.226   1.062  0.7956  0.4553 -0.0645
  574TMC3     H 8516   4.541   0.944   0.807 -1.6851  0.0951 -0.7152
  574TMC3    H1 8517   4.332   1.287   0.937 -1.2442  1.5197 -1.3629
  574TMC3    H2 8518   4.336   1.190   0.525 -1.7632  0.5123  1.2028
  574TMC3    C7 8519   4.334   1.392   0.684 -0.1456 -0.0885 -0.6766
  574TMC3    C8 8520   4.462   0.952   0.569  0.0389  0.6642 -0.0041
  574TMC3    O1 8521   4.370   1.419   0.572 -0.7220  0.0437  0.1707
  574TMC3    O2 8522   4.488   0.842   0.617  0.0524  0.8287 -0.9585
  575TMC3    C1 8523   2.195   2.427  11.328  0.0012  0.2514 -0.3971
  575TMC3    C2 8524   2.169   2.356  11.442  0.1824  0.7611  1.4074
  575TMC3    C3 8525   2.097   2.245  11.424 -0.0539 -0.2058 -0.2995
  575TMC3    C4 8526   2.144   2.390  11.208 -0.0132  0.5612 -0.6572
  575TMC3    C5 8527   2.087   2.272  11.192 -0.2626  0.0061 -0.6178
  575TMC3    C6 8528   2.057   2.192  11.302 -0.0985 -1.1190  0.1965
  575TMC3     C 8529   2.267   2.558  11.336  0.3702  0.1614  0.1485
  575TMC3     O 8530   2.284   2.591  11.454 -0.6843 -0.2573 -0.2195
  575TMC3     H 8531   2.186   2.404  11.538  2.0728  1.6613  0.6249
  575TMC3    H1 8532   2.149   2.458  11.124  0.4121 -0.0828 -1.1573
  575TMC3    H2 8533   1.986   2.111  11.297  2.5196 -3.2910 -1.2383
  575TMC3    C7 8534   1.998   2.256  11.088 -0.5067 -0.1767 -0.0471
  575TMC3    C8 8535   2.025   2.195  11.540  0.9796  0.1526  0.2437
  575TMC3    O1 8536   1.966   2.356  11.026 -0.0473  0.1022 -0.0520
  575TMC3    O2 8537   1.925   2.123  11.518 -0.1315  0.0335  0.0621
  576MPD2     C 8538   1.793   4.309  12.713 -0.0283  0.8462 -0.1440
  576MPD2    C1 8539   1.840   4.359  12.594 -0.2656 -0.1712 -0.2685
  576MPD2    C2 8540   1.798   4.478  12.539 -0.1314  0.8741  0.1489
  576MPD2    C3 8541   1.707   4.553  12.610  0.2296 -0.4633  0.8643
  576MPD2    C4 8542   1.649   4.500  12.723 -0.2819 -0.9871  0.1415
  576MPD2    C5 8543   1.695   4.382  12.781  0.5795  0.3650  0.2198
  576MPD2     H 8544   1.844   4.515  12.448  0.8576 -1.9766 -0.5206
  576MPD2    H1 8545   1.566   4.550  12.773  0.6818  1.7780 -1.0423
  576MPD2    H2 8546   1.830   4.214  12.750  1.9996  1.6678 -0.1040
  576MPD2    H3 8547   1.658   4.348  12.877  0.2566  2.1964  0.7447
  576MPD2     N 8548   1.665   4.666  12.542  0.2136 -0.1361  0.2761
  576MPD2    H5 8549   1.697   4.678  12.446  3.3188 -0.2403  1.2909
  576MPD2    N1 8550   1.945   4.291  12.519 -0.0127 -0.4074  0.6214
  576MPD2    H7 8551   1.980   4.337  12.435 -0.3724 -0.2086  0.5826
  577TMC3    C1 8552   2.059   4.103  12.434  0.2570  1.0021  0.6842
  577TMC3    C2 8553   2.119   3.984  12.457 -0.3073 -0.1278 -0.6813
  577TMC3    C3 8554   2.201   3.927  12.363  0.0569 -0.1541 -0.5487
  577TMC3    C4 8555   2.073   4.169  12.315 -0.0973  0.0127 -0.9119
  577TMC3    C5 8556   2.148   4.103  12.218  0.5827 -0.8585 -0.3064
  577TMC3    C6 8557   2.211   3.984  12.239 -0.3749  0.2622  0.4025
  577TMC3     C 8558   1.993   4.166  12.549 -0.1770  0.3912  0.1811
  577TMC3     O 8559   1.969   4.081  12.636 -0.0696 -0.0899  0.2619
  577TMC3     H 8560   2.106   3.934  12.553 -3.3036  1.9948 -0.0044
  577TMC3    H1 8561   1.992   4.238  12.295  0.6773  0.7525 -1.4960
  577TMC3    H2 8562   2.276   3.941  12.163 -0.4405  1.6873 -0.4704
  577TMC3    C7 8563   2.125   4.135  12.077 -0.1060 -0.1249 -0.8672
  577TMC3    C8 8564   2.236   3.789  12.363  1.1701  0.1375 -0.5622
  577TMC3    O1 8565   2.196   4.078  11.996 -0.0216 -0.1158  0.1445
  577TMC3    O2 8566   2.152   3.722  12.427 -0.0280  0.0545 -0.3026
  578MPD2     C 8567   4.521   4.569   0.422 -0.0634  0.2416 -0.0983
  578MPD2    C1 8568   4.545   4.443   0.482 -0.3418 -0.1840 -0.7043
  578MPD2    C2 8569   4.621   4.440   0.598  0.3697 -0.7843  0.5156
  578MPD2    C3 8570   4.683   4.547   0.653  0.0381 -0.0872 -0.0112
  578MPD2    C4 8571   4.664   4.676   0.593  1.0798 -0.6226  0.8923
  578MPD2    C5 8572   4.576   4.677   0.482  0.2314 -0.1320  0.3197
  578MPD2     H 8573   4.634   4.350   0.657 -0.6973  0.4291  2.5719
  578MPD2    H1 8574   4.720   0.041   0.619  0.5205 -0.8349  2.8543
  578MPD2    H2 8575   4.460   4.575   0.333  0.5639 -2.7387 -0.7485
  578MPD2    H3 8576   4.560   0.047   0.430 -1.6761 -0.2907  0.6364
  578MPD2     N 8577   0.032   4.524   0.777  0.3000 -0.2536  0.0690
  578MPD2    H5 8578   0.038   4.428   0.810 -1.5868 -0.2148  0.5615
  578MPD2    N1 8579   4.485   4.331   0.421  0.2288  0.1288 -0.3916
  578MPD2    H7 8580   4.426   4.355   0.341  0.7160  3.5839  0.3061
  579TMC3    C1 8581   0.180   4.556   0.951 -0.0435  0.1706  0.0109
  579TMC3    C2 8582   0.234   4.637   1.046  0.1825  0.1691  0.2815
  579TMC3    C3 8583   0.311   4.590   1.147 -0.1387  0.6012 -0.0936
  579TMC3    C4 8584   0.214   4.422   0.945 -0.0017 -0.7363 -0.1023
  579TMC3    C5 8585   0.274   4.373   1.053 -0.0580 -0.2420 -0.0995
  579TMC3    C6 8586   0.322   4.452   1.158  0.0778 -0.4087 -0.6066
  579TMC3     C 8587   0.090   4.619   0.853  0.2749  0.2728 -0.3089
  579TMC3     O 8588   0.095   0.016   0.834 -0.3255  0.1449  0.3109
  579TMC3     H 8589   0.222   0.021   1.050 -0.3506  0.1346 -0.4890
  579TMC3    H1 8590   0.202   4.358   0.858 -1.0606 -1.4876  0.5988
  579TMC3    H2 8591   0.356   4.399   1.247  0.5818  1.1871  0.1522
  579TMC3    C7 8592   0.336   4.243   1.043  0.6249  0.7489  0.6681
  579TMC3    C8 8593   0.396   4.681   1.233 -0.1093  0.1119  0.2189
  579TMC3    O1 8594   0.427   4.230   1.124  0.1281  0.0988  0.5785
  579TMC3    O2 8595   0.354   0.068   1.271 -0.3435 -0.0195 -0.3094
  580TMC3    C1 8596   4.070   3.281  12.718 -0.2810  0.0183 -0.6772
  580TMC3    C2 8597   4.161   3.352  12.651 -0.0661  0.0002 -0.0205
  580TMC3    C3 8598   4.289   3.316  12.660 -0.6616  0.6584 -0.1414
  580TMC3    C4 8599   4.102   3.173  12.793 -0.5986  0.4723 -0.0804
  580TMC3    C5 8600   4.233   3.142  12.811 -0.5201 -0.5321 -0.7419
  580TMC3    C6 8601   4.328   3.214  12.747 -0.2844  0.0585 -0.1578
  580TMC3     C 8602   3.946   3.273  12.640  0.1892  0.3759  0.2975
  580TMC3     O 8603   3.842   3.239  12.682  0.5026 -0.4628 -0.1795
  580TMC3     H 8604   4.150   3.445  12.596  2.6443 -0.0338 -0.6060
  580TMC3    H1 8605   4.022   3.116  12.839 -3.1660  3.9959 -0.1680
  580TMC3    H2 8606   4.434   3.191  12.755 -0.9498 -2.5064  1.3311
  580TMC3    C7 8607   4.270   3.008  12.847  0.6479 -0.3227 -0.3564
  580TMC3    C8 8608   4.352   3.329  12.526  0.0605 -0.9466 -0.5631
  580TMC3    O1 8609   4.370   2.999  12.915 -0.1996 -0.3442  0.1360
  580TMC3    O2 8610   4.273   3.338  12.436 -0.7035  0.1304 -0.6447
  581MPD2     C 8611   2.560   2.859  15.097 -0.0843  0.1417  0.1501
  581MPD2    C1 8612   2.587   2.978  15.156  0.0897 -0.6600 -0.2110
  581MPD2    C2 8613   2.481   3.083  15.160  0.3904 -0.3731  0.2052
  581MPD2    C3 8614   2.355   3.058  15.100  0.1236 -0.0284 -1.4855
  581MPD2    C4 8615   2.335   2.928  15.047 -0.4629 -0.5428  0.0063
  581MPD2    C5 8616   2.436   2.835  15.044 -0.2855  0.4458  0.2172
  581MPD2     H 8617   2.506   3.183  15.193  1.3510 -0.5248 -0.0707
  581MPD2    H1 8618   2.241   2.896  15.003  0.4489 -2.5342 -0.5444
  581MPD2    H2 8619   2.635   2.781  15.093  0.5359  0.8808 -2.6069
  581MPD2    H3 8620   2.417   2.739  14.998 -0.8411 -0.2508  1.8996
  581MPD2     N 8621   2.254   3.157  15.087 -0.2392 -0.0217  0.5197
  581MPD2    H5 8622   2.282   3.255  15.090 -0.0215 -0.0501 -0.6283
  581MPD2    N1 8623   2.718   2.987  15.219 -0.3527 -0.4770  0.2487
  581MPD2    H7 8624   2.788   2.917  15.196 -0.2968 -0.0842 -0.7890
  582TMC3    C1 8625   2.874   3.041  15.391 -0.5294 -0.5866  0.1098
  582TMC3    C2 8626   2.907   3.119  15.497 -0.1620  0.1901  0.7244
  582TMC3    C3 8627   3.007   3.072  15.578 -1.2025  0.3030  0.9609
  582TMC3    C4 8628   2.952   2.938  15.346 -0.6537  0.1404  0.2330
  582TMC3    C5 8629   3.046   2.900  15.435 -0.8482  0.2522 -0.0680
  582TMC3    C6 8630   3.075   2.964  15.552 -0.1366  0.2116 -0.9848
  582TMC3     C 8631   2.745   3.071  15.320  0.9710 -0.2201 -0.6082
  582TMC3     O 8632   2.670   3.160  15.364  0.1804 -0.1172  0.1864
  582TMC3     H 8633   2.834   3.186  15.541 -3.1644 -1.7901 -1.2285
  582TMC3    H1 8634   2.935   2.881  15.256 -0.3979  0.4902 -0.0390
  582TMC3    H2 8635   3.152   2.926  15.617  0.3964  0.6386 -1.3626
  582TMC3    C7 8636   3.111   2.772  15.405 -0.2162 -0.1477  0.1041
  582TMC3    C8 8637   3.007   3.129  15.710 -1.0148  0.0650  0.9213
  582TMC3    O1 8638   3.234   2.779  15.408  0.1804 -0.2576  0.1454
  582TMC3    O2 8639   2.994   3.249  15.713  0.3232  0.2774 -0.2316
  583MPD2     C 8640   2.905   4.507  17.213  0.0741  0.8206 -0.8961
  583MPD2    C1 8641   2.864   4.607  17.123  0.4016  0.6904  0.3305
  583MPD2    C2 8642   2.812   4.721  17.179 -0.4083  0.0631 -0.4287
  583MPD2    C3 8643   2.793   0.021  17.317 -0.3838  0.7111 -0.3125
  583MPD2    C4 8644   2.826   4.640  17.395 -0.5871 -0.2034 -0.0407
  583MPD2    C5 8645   2.880   4.523  17.345  0.2744 -0.0107 -0.6532
  583MPD2     H 8646   2.780   0.079  17.116 -1.3808 -1.0865 -1.4276
  583MPD2    H1 8647   2.813   4.641  17.503  0.7738 -2.1456  0.1366
  583MPD2    H2 8648   2.928   4.409  17.172 -0.3442 -0.6171  2.3563
  583MPD2    H3 8649   2.893   4.444  17.417  1.6631  0.3249 -0.5441
  583MPD2     N 8650   2.731   0.138  17.363  0.1313  0.3912  0.0877
  583MPD2    H5 8651   2.707   0.203  17.289  0.4012 -0.8728 -1.1071
  583MPD2    N1 8652   2.884   4.598  16.984 -0.3497 -0.7571 -0.3090
  583MPD2    H7 8653   2.841   4.681  16.943  1.1275  2.0806  3.8711
  584TMC3    C1 8654   2.626   0.286  17.516 -0.0642 -0.2713 -0.1037
  584TMC3    C2 8655   2.630   0.394  17.429 -0.1905 -0.6053  0.2507
  584TMC3    C3 8656   2.532   0.486  17.440  0.2222 -0.1767  0.3012
  584TMC3    C4 8657   2.539   0.282  17.627 -0.5079 -0.2149  0.0575
  584TMC3    C5 8658   2.442   0.380  17.633  0.7032  0.1061  0.4767
  584TMC3    C6 8659   2.436   0.481  17.544 -0.6196  0.4307 -0.3095
  584TMC3     C 8660   2.685   0.159  17.490  0.2858 -0.0455  0.0088
  584TMC3     O 8661   2.657   0.075  17.573 -0.4173  0.4112 -0.1823
  584TMC3     H 8662   2.706   0.404  17.352  0.3624  0.3261  0.9146
  584TMC3    H1 8663   2.552   0.208   0.009 -0.8082  1.2258  1.4573
  584TMC3    H2 8664   2.361   0.558  17.555 -0.1798  0.7546  0.4036
  584TMC3    C7 8665   2.359   0.395   0.057  0.5913 -0.5990  0.1094
  584TMC3    C8 8666   2.505   0.570  17.327 -0.2780  0.5408 -0.2088
  584TMC3    O1 8667   2.271   0.475   0.040 -0.4752 -0.0700  0.4836
  584TMC3    O2 8668   2.391   0.560  17.282  0.1207  0.2814  0.1639
  585MPD2     C 8669   1.415   3.861   0.719 -0.2177  0.4039  0.5799
  585MPD2    C1 8670   1.523   3.772   0.720  0.1133 -0.3887  0.1058
  585MPD2    C2 8671   1.527   3.677   0.626  0.2391  0.1545 -0.5826
  585MPD2    C3 8672   1.444   3.684   0.517  0.3749 -0.2001 -0.1006
  585MPD2    C4 8673   1.334   3.767   0.521  0.2935  0.1156  0.2219
  585MPD2    C5 8674   1.319   3.856   0.624  0.6447 -0.2005 -0.1886
  585MPD2     H 8675   1.608   3.605   0.613 -0.5942 -0.2633 -3.3708
  585MPD2    H1 8676   1.264   3.772   0.439  1.3959 -0.2537 -0.7466
  585MPD2    H2 8677   1.410   3.944   0.789  0.7506  1.2109 -0.3091
  585MPD2    H3 8678   1.240   3.930   0.625  1.5302  0.7391 -0.7049
  585MPD2     N 8679   1.458   3.606   0.399 -0.3430  0.2274 -0.8449
  585MPD2    H5 8680   1.386   3.622   0.330 -2.1447  2.7638  1.6278
  585MPD2    N1 8681   1.625   3.789   0.816  0.4933 -0.0546 -0.4595
  585MPD2    H7 8682   1.612   3.870   0.877  0.3659 -0.8372  0.5439
  586TMC3    C1 8683   1.555   3.488   0.228  0.4954  0.3542  0.2442
  586TMC3    C2 8684   1.669   3.463   0.160 -0.6593  0.4993  1.0699
  586TMC3    C3 8685   1.668   3.428   0.028 -0.0664 -0.1211  0.3418
  586TMC3    C4 8686   1.433   3.453   0.176  0.4832 -0.6350 -0.2905
  586TMC3    C5 8687   1.430   3.417   0.046 -0.2214  0.3037 -0.5245
  586TMC3    C6 8688   1.543   3.408  17.659 -0.1631  0.2824  0.0018
  586TMC3     C 8689   1.570   3.531   0.365 -0.2048  0.7917 -0.5344
  586TMC3     O 8690   1.675   3.512   0.422 -0.3084 -0.0652  0.0585
  586TMC3     H 8691   1.756   3.464   0.225  0.4546  0.3743 -0.4324
  586TMC3    H1 8692   1.342   3.465   0.234  1.6982  0.3396  1.4034
  586TMC3    H2 8693   1.537   3.381  17.554 -0.7997  1.3177 -0.2326
  586TMC3    C7 8694   1.301   3.407  17.687  0.3401  0.5307  0.0798
  586TMC3    C8 8695   1.769   3.354  17.669 -0.3457  0.6794 -0.3919
  586TMC3    O1 8696   1.202   3.393   0.059  0.3422 -0.1911 -0.0601
  586TMC3    O2 8697   1.745   3.266  17.586  0.3923  0.2592  0.3141
  587TMC3    C1 8698   4.106   1.850  16.078  0.1601 -0.2205 -0.4524
  587TMC3    C2 8699   4.084   1.985  16.086 -0.2277  0.1089 -0.1725
  587TMC3    C3 8700   4.182   2.062  16.029 -0.3116  0.7287  0.0839
  587TMC3    C4 8701   4.226   1.792  16.050  0.9600 -0.3572 -0.0321
  587TMC3    C5 8702   4.325   1.875  16.011 -0.0109  0.5893 -0.6405
  587TMC3    C6 8703   4.310   2.010  16.001  0.3242 -0.9995  0.8890
  587TMC3     C 8704   4.009   1.768  16.154 -0.2549  0.3447  0.0044
  587TMC3     O 8705   4.015   1.647  16.134 -0.3638 -0.1379  0.9961
  587TMC3     H 8706   3.983   2.018  16.108 -0.1538 -0.9367  1.7281
  587TMC3    H1 8707   4.236   1.684  16.046 -1.8593 -0.6144  0.2485
  587TMC3    H2 8708   4.387   2.067  15.950 -1.7321  1.8357  0.9454
  587TMC3    C7 8709   4.455   1.816  15.975 -0.3666 -0.2251  0.5939
  587TMC3    C8 8710   4.174   2.202  16.016 -0.0326  0.1973  0.7616
  587TMC3    O1 8711   4.459   1.695  15.964  0.2317  0.1103  0.3560
  587TMC3    O2 8712   4.260   2.255  15.947 -0.1131  0.0164 -0.5487
  588TMC3    C1 8713   1.744   0.263   9.929 -0.5032 -0.2328  0.8173
  588TMC3    C2 8714   1.609   0.235   9.930 -0.0036  0.1291 -0.9081
  588TMC3    C3 8715   1.554   0.191  10.046 -0.2607  0.4563 -0.3021
  588TMC3    C4 8716   1.821   0.255  10.041  0.1924  0.2073 -0.1423
  588TMC3    C5 8717   1.766   0.211  10.155 -0.5866  0.0641 -0.0025
  588TMC3    C6 8718   1.632   0.180  10.160 -0.3923 -0.1525  0.0655
  588TMC3     C 8719   1.805   0.341   9.823  0.3076 -0.7082 -0.4128
  588TMC3     O 8720   1.767   0.323   9.709 -0.6501  0.0452 -0.0503
  588TMC3     H 8721   1.542   0.261   9.848  0.3243  1.6151 -0.6969
  588TMC3    H1 8722   1.928   0.270  10.037  0.2172  0.2107  0.6403
  588TMC3    H2 8723   1.581   0.175  10.256  0.4658 -1.3058  0.4656
  588TMC3    C7 8724   1.825   0.247  10.285 -0.4596  0.0968  0.5294
  588TMC3    C8 8725   1.465   0.077  10.038  0.5074 -0.3377  0.3182
  588TMC3    O1 8726   1.766   0.213  10.383 -0.0579  0.3265 -0.1182
  588TMC3    O2 8727   1.400   0.060   9.937  0.5261  0.3046 -0.1272
  589TMC3    C1 8728   0.856   2.067   1.439 -0.1148 -0.8845  0.6022
  589TMC3    C2 8729   0.920   2.103   1.558 -0.8043  0.3103 -0.1050
  589TMC3    C3 8730   1.035   2.038   1.592 -0.9544  0.0615  0.2604
  589TMC3    C4 8731   0.900   1.958   1.364  0.1371 -0.1502 -0.3080
  589TMC3    C5 8732   1.024   1.900   1.403 -0.2557  0.7286  0.6665
  589TMC3    C6 8733   1.086   1.933   1.521 -0.7054 -0.0153 -0.9866
  589TMC3     C 8734   0.729   2.130   1.397  0.2146 -0.2539 -0.4960
  589TMC3     O 8735   0.670   2.097   1.292  0.2778  0.6637 -0.0012
  589TMC3     H 8736   0.891   2.187   1.619 -2.1459  0.9643 -1.6337
  589TMC3    H1 8737   0.840   1.930   1.278  1.0377  0.9052 -1.2885
  589TMC3    H2 8738   1.162   1.876   1.573 -1.4884 -0.2711 -0.1223
  589TMC3    C7 8739   1.073   1.785   1.328  0.3759 -0.4361  0.0887
  589TMC3    C8 8740   1.097   2.082   1.713  0.4732 -0.3516  0.2318
  589TMC3    O1 8741   0.987   1.737   1.258  0.7003  1.0902 -0.2072
  589TMC3    O2 8742   1.022   2.144   1.785  0.2312  0.5713  0.5366
  590MPD2     C 8743   0.622   0.669  16.631  1.0312 -0.0832 -0.1162
  590MPD2    C1 8744   0.571   0.669  16.506 -0.3137 -0.3808 -0.0684
  590MPD2    C2 8745   0.640   0.734  16.405 -0.2187 -0.0375  0.1377
  590MPD2    C3 8746   0.753   0.809  16.431 -0.3657  0.1858 -0.2219
  590MPD2    C4 8747   0.805   0.806  16.558  0.1229  1.2220  0.6133
  590MPD2    C5 8748   0.749   0.731  16.656 -0.2949 -0.2425  0.4749
  590MPD2     H 8749   0.586   0.766  16.316  0.6691 -0.5122 -0.5758
  590MPD2    H1 8750   0.899   0.855  16.582  0.1540  1.2783  0.3689
  590MPD2    H2 8751   0.569   0.618  16.710  3.0171 -1.2073  0.5085
  590MPD2    H3 8752   0.781   0.738  16.760  1.7804 -0.2485 -0.1784
  590MPD2     N 8753   0.808   0.877  16.319  0.3813 -0.2595  0.5985
  590MPD2    H5 8754   0.758   0.877  16.231  0.3554 -1.4380  0.6111
  590MPD2    N1 8755   0.451   0.609  16.494  0.0521 -0.4111 -0.4034
  590MPD2    H7 8756   0.408   0.564  16.574 -3.5017  4.0467  0.2073
  591TMC3    C1 8757   0.956   1.029  16.207  0.0626  0.4171  0.4341
  591TMC3    C2 8758   0.919   1.001  16.082  0.2691 -0.5205 -0.7139
  591TMC3    C3 8759   0.944   1.081  15.974 -0.4607  1.1522 -0.5327
  591TMC3    C4 8760   1.025   1.154  16.227 -0.5780  0.5701  0.6398
  591TMC3    C5 8761   1.039   1.236  16.123  0.6102 -0.0838  0.5396
  591TMC3    C6 8762   1.007   1.201  15.995  0.0868 -1.1232 -0.1329
  591TMC3     C 8763   0.933   0.944  16.320  0.4847 -0.1418  0.9945
  591TMC3     O 8764   1.011   0.953  16.414  0.1429 -0.9188  0.2324
  591TMC3     H 8765   0.863   0.909  16.070  0.5382 -0.9914  1.6411
  591TMC3    H1 8766   1.050   1.181  16.329 -0.8463 -0.2647  0.9256
  591TMC3    H2 8767   1.007   1.275  15.916  1.4063 -0.3934  0.5319
  591TMC3    C7 8768   1.046   1.377  16.152 -0.4771 -0.7340 -0.4963
  591TMC3    C8 8769   0.942   1.022  15.835  0.0239 -0.3747  0.4713
  591TMC3    O1 8770   1.060   1.401  16.269  0.3986 -0.4470  0.0774
  591TMC3    O2 8771   0.886   0.914  15.837 -0.3259 -0.1900 -0.6228
  592MPD2     C 8772   0.177   3.049  11.483  0.1652  0.0041  0.1665
  592MPD2    C1 8773   0.203   3.060  11.618 -0.3369 -0.1110 -0.0033
  592MPD2    C2 8774   0.147   2.965  11.705  0.7012 -0.0465  0.0725
  592MPD2    C3 8775   0.070   2.863  11.658  0.2602  0.2347 -0.1648
  592MPD2    C4 8776   0.055   2.845  11.519  0.1690  0.2108 -0.0510
  592MPD2    C5 8777   0.105   2.943  11.439  0.3870  1.0425 -0.8330
  592MPD2     H 8778   0.175   2.959  11.810 -1.3224  0.3008  0.6324
  592MPD2    H1 8779   4.702   2.778  11.481 -0.2065 -0.0875  1.2290
  592MPD2    H2 8780   0.214   3.126  11.416 -0.5870  0.7931  0.6522
  592MPD2    H3 8781   0.086   2.940  11.332 -0.3043  0.3322 -0.6946
  592MPD2     N 8782   0.013   2.773  11.758 -0.3871  0.4800  0.2240
  592MPD2    H5 8783   0.022   2.796  11.856  2.0238 -0.1064  0.1303
  592MPD2    N1 8784   0.296   3.158  11.662  0.1372  0.0046 -0.0825
  592MPD2    H7 8785   0.342   3.209  11.588 -1.7195  1.3344 -0.3364
  593TMC3    C1 8786   0.451   3.266  11.806  0.2469 -1.0472  0.2193
  593TMC3    C2 8787   0.521   3.259  11.918 -0.5539  0.0817 -0.5952
  593TMC3    C3 8788   0.612   3.352  11.944 -0.2246 -0.2449  0.1793
  593TMC3    C4 8789   0.455   3.368  11.716 -0.0879  0.6289 -0.2098
  593TMC3    C5 8790   0.555   3.460  11.739  1.0412 -0.4290  0.1784
  593TMC3    C6 8791   0.640   3.455  11.848  0.4712  0.5119 -0.1748
  593TMC3     C 8792   0.357   3.159  11.784  0.2624  0.1297  0.2920
  593TMC3     O 8793   0.367   3.071  11.872  0.2832  0.0269 -0.4266
  593TMC3     H 8794   0.520   3.170  11.981  0.0373 -1.0967 -2.2399
  593TMC3    H1 8795   0.395   3.362  11.626  0.7937  1.5610 -0.8665
  593TMC3    H2 8796   0.730   3.514  11.862 -0.0230  1.1926  0.1530
  593TMC3    C7 8797   0.583   3.566  11.647 -0.3689 -0.8973  0.6056
  593TMC3    C8 8798   0.678   3.338  12.071  0.3093  0.1984  0.1425
  593TMC3    O1 8799   0.667   3.647  11.683 -0.4017  0.5590 -0.0420
  593TMC3    O2 8800   0.605   3.302  12.162  0.2880  0.3837 -0.4267
  594MPD2     C 8801   4.078   1.009  14.621  1.0922 -0.8380  0.9043
  594MPD2    C1 8802   4.022   1.127  14.610 -0.2281 -0.4699  0.5071
  594MPD2    C2 8803   4.102   1.235  14.591  0.0991  1.4028 -0.6056
  594MPD2    C3 8804   4.247   1.226  14.584 -0.6105 -0.4137  0.2279
  594MPD2    C4 8805   4.293   1.097  14.587 -0.2585  0.4119 -0.4729
  594MPD2    C5 8806   4.216   0.987  14.609 -0.1021 -0.2513 -0.5411
  594MPD2     H 8807   4.055   1.332  14.594 -0.0887  1.3530 -2.0350
  594MPD2    H1 8808   4.400   1.080  14.590 -0.1294  1.5373  1.4386
  594MPD2    H2 8809   4.022   0.918  14.640 -0.1352 -0.2511  0.0713
  594MPD2    H3 8810   4.257   0.887  14.602  0.8449  0.2525 -2.2709
  594MPD2     N 8811   4.324   1.338  14.602 -0.1256 -0.6497 -0.5073
  594MPD2    H5 8812   4.279   1.428  14.592 -1.0062 -1.2221 -1.7176
  594MPD2    N1 8813   3.884   1.127  14.618  0.3399 -0.1871  0.2909
  594MPD2    H7 8814   3.840   1.036  14.622 -0.1700  0.1096  1.4900
  595TMC3    C1 8815   4.722   1.578  14.681 -0.1743  0.4749 -0.8361
  595TMC3    C2 8816   4.651   1.467  14.649  0.6771  0.2415  0.0348
  595TMC3    C3 8817   4.516   1.475  14.650  0.3475  0.0405 -0.3033
  595TMC3    C4 8818   4.665   1.694  14.722  0.0622 -0.3481  0.6727
  595TMC3    C5 8819   4.526   1.702  14.720  0.1108  0.0731  0.4912
  595TMC3    C6 8820   4.447   1.592  14.676  0.4171 -0.8060 -0.0434
  595TMC3     C 8821   0.132   1.598  14.632  0.6134  0.2869  0.6476
  595TMC3     O 8822   0.205   1.681  14.683 -0.0435 -0.7506 -0.8896
  595TMC3     H 8823   4.693   1.374  14.613 -1.9131 -1.0557  0.4081
  595TMC3    H1 8824   0.004   1.778  14.749 -2.3080  1.2481  1.2017
  595TMC3    H2 8825   4.341   1.582  14.691  0.5407 -0.1749  1.2585
  595TMC3    C7 8826   4.467   1.830  14.733 -0.6664  0.2458  0.2062
  595TMC3    C8 8827   4.452   1.341  14.651  0.1653  0.1463 -0.4948
  595TMC3    O1 8828   4.344   1.845  14.761  0.4422  0.1243 -0.7367
  595TMC3    O2 8829   4.527   1.254  14.689 -0.5979  0.2832 -0.2154
  596MPD2     C 8830   3.708   4.260  17.001  0.5490  0.3772  0.5806
  596MPD2    C1 8831   3.719   4.386  16.950 -0.2826 -0.3188 -0.3322
  596MPD2    C2 8832   3.736   4.395  16.812 -0.2975  0.4495  0.2018
  596MPD2    C3 8833   3.742   4.285  16.736  0.1883  0.1656  0.1972
  596MPD2    C4 8834   3.744   4.159  16.797  0.3338 -0.2133 -0.3541
  596MPD2    C5 8835   3.722   4.150  16.926  0.0343 -0.6742 -0.3732
  596MPD2     H 8836   3.754   4.493  16.770 -2.6050  0.3262 -1.1084
  596MPD2    H1 8837   3.753   4.067  16.741  1.7492 -1.4863  1.9566
  596MPD2    H2 8838   3.692   4.245  17.107 -0.4080 -0.2227  0.3409
  596MPD2    H3 8839   3.720   4.054  16.977 -0.1175 -0.5656 -0.1716
  596MPD2     N 8840   3.746   4.285  16.596 -0.3702 -0.4686 -0.3533
  596MPD2    H5 8841   3.756   4.194  16.551  1.0018  0.5226 -2.0361
  596MPD2    N1 8842   3.715   4.512  17.017 -0.6289  0.3376  0.4658
  596MPD2    H7 8843   3.722   4.590  16.953  2.7955 -0.7337 -0.4648
  597TMC3    C1 8844   3.639   4.667  17.169 -0.6349 -0.0740 -0.7308
  597TMC3    C2 8845   3.675   0.037  17.074  0.1042  0.0613  0.3076
  597TMC3    C3 8846   3.622   0.164  17.077 -0.5423  0.4921  0.0231
  597TMC3    C4 8847   3.552   4.696  17.268  0.5214  0.2324  0.7926
  597TMC3    C5 8848   3.503   0.100  17.278 -0.2661 -0.6554 -0.5182
  597TMC3    C6 8849   3.527   0.202  17.176 -0.5791 -0.4131  0.0441
  597TMC3     C 8850   3.665   4.523  17.142 -0.1457  0.3010  0.0057
  597TMC3     O 8851   3.610   4.438  17.212 -0.2980 -0.2396  0.1694
  597TMC3     H 8852   3.759   0.021  17.008  1.0950  0.7847  1.3875
  597TMC3    H1 8853   3.533   4.625  17.347  0.8089 -0.4767  0.2283
  597TMC3    H2 8854   3.484   0.301  17.175 -1.4010 -0.7688  0.2266
  597TMC3    C7 8855   3.389   0.128  17.366 -0.4356 -0.0155 -0.5708
  597TMC3    C8 8856   3.681   0.258  16.983 -0.2781  0.0244  0.4339
  597TMC3    O1 8857   3.339   0.033  17.415 -0.0357  0.7250 -0.1112
  597TMC3    O2 8858   3.751   0.219  16.893  0.4123 -0.2724 -0.6981
  598TMC3    C1 8859   1.619   1.087  15.600  0.0154  0.2018  0.6945
  598TMC3    C2 8860   1.538   0.978  15.583  0.0995 -0.4613  0.1478
  598TMC3    C3 8861   1.491   0.943  15.457 -0.2295  0.0409  0.2238
  598TMC3    C4 8862   1.639   1.174  15.499  0.0353 -0.2250  0.2088
  598TMC3    C5 8863   1.570   1.151  15.378  0.4907 -0.2422  0.0466
  598TMC3    C6 8864   1.507   1.037  15.355  0.5865 -0.2289  0.1225
  598TMC3     C 8865   1.649   1.132  15.739  0.1560  0.3757  0.9232
  598TMC3     O 8866   1.666   1.251  15.750  0.4722 -0.0551  0.2461
  598TMC3     H 8867   1.517   0.912  15.667  0.3597 -0.3216  0.3225
  598TMC3    H1 8868   1.691   1.265  15.525 -1.0278  1.3558 -3.1803
  598TMC3    H2 8869   1.456   1.021  15.261 -0.9126  0.9875  0.7441
  598TMC3    C7 8870   1.631   1.204  15.259  0.1352 -0.5229  0.0651
  598TMC3    C8 8871   1.429   0.815  15.436  0.2509 -0.0932  0.1826
  598TMC3    O1 8872   1.599   1.154  15.150  0.3844 -0.6249  0.3439
  598TMC3    O2 8873   1.379   0.790  15.328  0.3523 -0.2670  0.5780
  599MPD2     C 8874   1.388   4.054  15.784 -0.6120 -0.5663 -0.1383
  599MPD2    C1 8875   1.366   3.922  15.818 -0.2984  0.1353 -0.3342
  599MPD2    C2 8876   1.294   3.893  15.936  0.2724  0.4582  0.3245
  599MPD2    C3 8877   1.250   3.998  16.016 -0.9240 -0.1131  0.2822
  599MPD2    C4 8878   1.273   4.124  15.973  0.1914 -0.0095 -0.3851
  599MPD2    C5 8879   1.349   4.154  15.865  0.2520  0.6958 -0.0950
  599MPD2     H 8880   1.269   3.790  15.957  1.6766 -0.4361 -2.4146
  599MPD2    H1 8881   1.241   4.206  16.035 -1.4239 -0.3979 -0.6982
  599MPD2    H2 8882   1.452   4.080  15.701 -0.6534  0.3379  0.1186
  599MPD2    H3 8883   1.350   4.262  15.852 -1.2992  0.6882 -0.3317
  599MPD2     N 8884   1.164   3.979  16.133  0.1510 -0.1273  0.1332
  599MPD2    H5 8885   1.139   4.064  16.182  0.1048  0.7948 -1.4761
  599MPD2    N1 8886   1.422   3.824  15.737 -0.1145  0.4115  0.5149
  599MPD2    H7 8887   1.458   3.860  15.649 -1.2874 -1.1887 -0.6114
  600TMC3    C1 8888   1.021   3.868  16.293 -0.1715  0.3271  0.1914
  600TMC3    C2 8889   0.995   3.755  16.372  0.3412 -0.1671  0.0453
  600TMC3    C3 8890   0.903   3.774  16.475  0.5159 -0.5179 -0.3544
  600TMC3    C4 8891   0.968   3.986  16.329 -0.2392 -0.4995 -0.2320
  600TMC3    C5 8892   0.898   4.001  16.444  0.3313  0.9737 -0.1877
  600TMC3    C6 8893   0.865   3.895  16.520 -0.5522 -0.2147 -0.5759
  600TMC3     C 8894   1.126   3.856  16.188  0.2351 -0.4550  0.2415
  600TMC3     O 8895   1.153   3.744  16.150 -0.8066  0.0950  0.8930
  600TMC3     H 8896   1.054   3.667  16.347 -1.9192 -1.7409  0.2198
  600TMC3    H1 8897   0.983   4.077  16.271 -1.7562 -0.7623 -1.0261
  600TMC3    H2 8898   0.807   3.915  16.610 -0.3189 -0.3094 -0.4055
  600TMC3    C7 8899   0.863   4.136  16.484 -0.2447 -0.4715  0.2169
  600TMC3    C8 8900   0.909   3.674  16.572  0.3201 -0.5748 -0.1743
  600TMC3    O1 8901   0.862   4.226  16.398 -0.1660  0.2102  0.0252
  600TMC3    O2 8902   1.004   3.599  16.570 -0.2008 -0.0596 -0.9291
  601MPD2     C 8903   3.535   1.732  17.398  0.1270  0.2381  0.4805
  601MPD2    C1 8904   3.404   1.733  17.428  0.0598  1.0626  0.0077
  601MPD2    C2 8905   3.360   1.670  17.534  0.3999 -0.0957  0.0882
  601MPD2    C3 8906   3.451   1.601  17.620  0.1415  0.0602 -0.2512
  601MPD2    C4 8907   3.585   1.605  17.599 -0.1014 -0.0245  0.2314
  601MPD2    C5 8908   3.623   1.673  17.490 -0.0661  0.0610 -0.3252
  601MPD2     H 8909   3.254   1.672  17.556  0.3662  1.1846 -0.1623
  601MPD2    H1 8910   3.662   1.553  17.655  0.4158  1.8119  1.2381
  601MPD2    H2 8911   3.578   1.779  17.310 -1.1923  0.6473  0.0542
  601MPD2    H3 8912   3.731   1.670  17.474 -0.2187  0.2688 -1.3388
  601MPD2     N 8913   3.408   1.522   0.034 -0.3842  0.4448  0.7838
  601MPD2    H5 8914   3.476   1.473   0.090  2.2098 -1.3257 -3.8962
  601MPD2    N1 8915   3.314   1.804  17.353 -0.1419  0.2239 -0.1704
  601MPD2    H7 8916   3.226   1.824  17.400  0.3042 -0.1978  0.8645
  602TMC3    C1 8917   3.237   1.951  17.196  0.1992 -0.2842 -0.2198
  602TMC3    C2 8918   3.179   2.036  17.290  0.2814  0.7753  0.5850
  602TMC3    C3 8919   3.109   2.143  17.248  0.3935 -0.0039 -1.0512
  602TMC3    C4 8920   3.227   1.982  17.062 -0.0998 -0.3775 -0.8457
  602TMC3    C5 8921   3.142   2.084  17.022  0.6985 -0.4770 -0.6444
  602TMC3    C6 8922   3.089   2.166  17.115  0.6627 -0.1416 -0.9619
  602TMC3     C 8923   3.334   1.849  17.229 -0.3784 -0.5608  0.1766
  602TMC3     O 8924   3.406   1.812  17.144  0.7287 -0.2220  0.4894
  602TMC3     H 8925   3.197   2.023  17.396  3.1348 -1.1567 -0.1340
  602TMC3    H1 8926   3.264   1.921  16.981 -0.0704  0.0911 -1.1874
  602TMC3    H2 8927   3.024   2.244  17.078 -0.1313  0.4699  1.7086
  602TMC3    C7 8928   3.111   2.107  16.884  0.8743 -0.1311  0.3896
  602TMC3    C8 8929   3.021   2.207  17.342  0.9156  0.0387  0.8912
  602TMC3    O1 8930   3.185   2.058  16.803 -0.4414  0.0392  0.0473
  602TMC3    O2 8931   2.965   2.133  17.422  0.5925  1.0107  0.7660
  603TMC3    C1 8932   1.556   2.111  11.324 -0.1512  0.0949  0.2498
  603TMC3    C2 8933   1.580   2.116  11.454  0.1190  0.4880  0.3682
  603TMC3    C3 8934   1.553   2.232  11.520 -0.2133  0.3351 -0.3136
  603TMC3    C4 8935   1.517   2.224  11.255  0.0757  0.0100 -0.0762
  603TMC3    C5 8936   1.496   2.340  11.321  0.8431  0.9213  0.0940
  603TMC3    C6 8937   1.512   2.347  11.458 -0.2879 -0.3002 -0.4776
  603TMC3     C 8938   1.560   1.991  11.243 -0.3922  0.0128  0.2139
  603TMC3     O 8939   1.479   1.985  11.151 -0.1859  0.0806 -0.4411
  603TMC3     H 8940   1.613   2.024  11.502 -3.9759 -0.1479  1.9610
  603TMC3    H1 8941   1.513   2.224  11.147 -0.2559 -0.3200 -0.0648
  603TMC3    H2 8942   1.453   2.421  11.512  1.5885  1.3352 -0.6530
  603TMC3    C7 8943   1.415   2.446  11.260  0.1442 -0.0064  0.2075
  603TMC3    C8 8944   1.576   2.228  11.662  1.0121  0.4637  0.4000
  603TMC3    O1 8945   1.408   2.556  11.314 -0.4861 -0.3556  1.0251
  603TMC3    O2 8946   1.581   2.116  11.715  0.0487  0.2720 -0.0776
  604MPD2     C 8947   2.126   0.537  16.416 -1.1487  0.3490 -0.5689
  604MPD2    C1 8948   2.265   0.568  16.421 -0.2647 -0.2441  0.6650
  604MPD2    C2 8949   2.363   0.503  16.349  0.0954 -0.1868 -0.1807
  604MPD2    C3 8950   2.323   0.419  16.248  0.4279  0.8703 -0.4371
  604MPD2    C4 8951   2.182   0.386  16.230 -0.6808 -0.2347 -0.1132
  604MPD2    C5 8952   2.090   0.445  16.316  0.1512 -0.4895  0.2950
  604MPD2     H 8953   2.462   0.541  16.367  1.9508 -4.7255 -0.7974
  604MPD2    H1 8954   2.151   0.321  16.148  0.8662  0.2669 -1.1020
  604MPD2    H2 8955   2.049   0.594  16.468  1.9398  1.6165  2.6329
  604MPD2    H3 8956   1.983   0.434  16.304 -0.1444  1.3611  1.0921
  604MPD2     N 8957   2.425   0.385  16.148 -0.7975  0.3339  0.1306
  604MPD2    H5 8958   2.518   0.421  16.170 -0.2346 -1.1842  0.2193
  604MPD2    N1 8959   2.290   0.685  16.503 -0.0542 -0.3400  0.1133
  604MPD2    H7 8960   2.211   0.741  16.532  0.0452  0.4973 -1.2230
  605TMC3    C1 8961   2.428   0.837  16.626  0.3617  0.7024 -0.0684
  605TMC3    C2 8962   2.553   0.896  16.635  0.1887 -0.1454  0.2344
  605TMC3    C3 8963   2.551   1.033  16.658 -0.0688 -0.4464 -0.7293
  605TMC3    C4 8964   2.309   0.898  16.661 -0.2557  0.0192 -0.1263
  605TMC3    C5 8965   2.316   1.033  16.698  0.0946  0.1075 -0.3960
  605TMC3    C6 8966   2.434   1.102  16.679 -0.1841  0.4353 -1.0422
  605TMC3     C 8967   2.421   0.720  16.544 -0.0036  0.2504  0.4055
  605TMC3     O 8968   2.524   0.658  16.543  0.1805  0.3116  0.4502
  605TMC3     H 8969   2.642   0.837  16.620  0.0106  0.0565 -1.5617
  605TMC3    H1 8970   2.211   0.854  16.647  1.3410 -3.5734 -0.1640
  605TMC3    H2 8971   2.443   1.207  16.705  0.9035 -0.7621  3.4157
  605TMC3    C7 8972   2.199   1.113  16.675  0.0438  0.2179  0.7439
  605TMC3    C8 8973   2.642   1.102  16.582  0.9392 -0.2720 -0.0438
  605TMC3    O1 8974   2.208   1.210  16.598  0.6882 -0.3368  0.7437
  605TMC3    O2 8975   2.744   1.046  16.547  0.8499  0.0959  0.3660
  606TMC3    C1 8976   4.134   4.147  17.330  0.5876 -0.1574 -0.1482
  606TMC3    C2 8977   4.131   4.221  17.448  0.5244 -0.0171 -0.4197
  606TMC3    C3 8978   4.102   4.145  17.560 -0.2825  0.3000  0.6860
  606TMC3    C4 8979   4.113   4.010  17.327  0.3393 -0.0700 -0.4639
  606TMC3    C5 8980   4.091   3.941  17.444  0.7992  0.0953 -0.0193
  606TMC3    C6 8981   4.082   4.009  17.563 -0.6004 -0.3495  0.5521
  606TMC3     C 8982   4.119   4.234  17.213 -0.1024 -0.0786 -0.0681
  606TMC3     O 8983   4.077   4.350  17.237 -0.4553 -0.4043 -0.2719
  606TMC3     H 8984   4.153   4.327  17.454  0.1452  0.2095 -3.3054
  606TMC3    H1 8985   4.113   3.953  17.235  1.1138  0.0604 -0.5435
  606TMC3    H2 8986   4.058   3.959  17.656 -1.6366 -2.1355 -0.6832
  606TMC3    C7 8987   4.063   3.800  17.435  0.5825 -0.2735 -0.6652
  606TMC3    C8 8988   4.089   4.228  17.683 -0.1390 -0.2219  0.1321
  606TMC3    O1 8989   4.109   3.738  17.342  0.0692 -0.0798 -0.2981
  606TMC3    O2 8990   4.147   4.334   0.007 -0.0197  0.3519  0.1564
  607MPD2     C 8991   0.195   2.422  11.949  0.6238  0.2372 -0.1381
  607MPD2    C1 8992   0.284   2.516  11.993  0.3240 -1.0995 -0.8719
  607MPD2    C2 8993   0.331   2.506  12.119  0.6300  0.1518  0.0151
  607MPD2    C3 8994   0.309   2.399  12.198 -0.5790 -0.8773  0.2691
  607MPD2    C4 8995   0.227   2.302  12.155  0.2596  0.1631  1.0906
  607MPD2    C5 8996   0.164   2.316  12.032 -0.1144 -0.2023 -1.0146
  607MPD2     H 8997   0.395   2.589  12.147 -0.7589  0.6694  1.6573
  607MPD2    H1 8998   0.209   2.207  12.203 -1.4739 -0.0393  0.0300
  607MPD2    H2 8999   0.149   2.419  11.851  1.3135  1.5000 -0.4849
  607MPD2    H3 9000   0.100   2.234  12.003  0.9891 -1.6047  0.4911
  607MPD2     N 9001   0.382   2.388  12.319 -0.7954  0.3685  0.5578
  607MPD2    H5 9002   0.453   2.459  12.327  0.4912 -0.8910  0.2451
  607MPD2    N1 9003   0.327   2.624  11.921 -0.5306 -0.0025  0.8535
  607MPD2    H7 9004   0.373   2.691  11.983 -1.5341  1.4111  0.0852
  608TMC3    C1 9005   0.442   2.714  11.743  0.0413  0.3109  0.4171
  608TMC3    C2 9006   0.559   2.691  11.802  0.2215 -0.4929 -0.0483
  608TMC3    C3 9007   0.665   2.755  11.750  0.1339 -0.1658  0.3557
  608TMC3    C4 9008   0.431   2.785  11.629  0.1005  0.6886  0.2516
  608TMC3    C5 9009   0.543   2.863  11.591 -0.7611 -0.0861 -0.1670
  608TMC3    C6 9010   0.665   2.850  11.650 -0.3264  0.3638 -0.5169
  608TMC3     C 9011   0.324   2.639  11.786  0.4792 -0.3706  0.9722
  608TMC3     O 9012   0.262   2.567  11.707  0.1411  0.5965  0.1240
  608TMC3     H 9013   0.566   2.606  11.870 -0.9391 -0.9971 -0.5569
  608TMC3    H1 9014   0.333   2.798  11.583 -0.4201 -0.9502  0.9084
  608TMC3    H2 9015   0.750   2.912  11.621  0.1444 -0.3508 -0.6744
  608TMC3    C7 9016   0.535   2.945  11.472  0.1831  0.2402 -0.3545
  608TMC3    C8 9017   0.787   2.734  11.826 -0.1733  0.2168 -0.0543
  608TMC3    O1 9018   0.603   3.047  11.477  0.2431  0.0000  0.5971
  608TMC3    O2 9019   0.889   2.740  11.760 -0.7442 -0.2062  0.4601
  609TMC3    C1 9020   4.232   1.039   9.603 -0.3687  0.4198  0.0236
  609TMC3    C2 9021   4.231   1.167   9.556  0.1679  0.5195 -1.3524
  609TMC3    C3 9022   4.353   1.228   9.533 -0.3191 -0.1323 -0.0891
  609TMC3    C4 9023   4.348   0.972   9.627 -0.1241 -0.3903 -0.6044
  609TMC3    C5 9024   4.468   1.034   9.606  0.0281  0.0079 -0.0353
  609TMC3    C6 9025   4.469   1.155   9.555  0.9975 -0.2777  0.7293
  609TMC3     C 9026   4.109   0.974   9.655 -0.6176 -0.3700  0.5638
  609TMC3     O 9027   4.103   0.851   9.677 -0.1734 -0.4274 -0.1982
  609TMC3     H 9028   4.145   1.225   9.523  0.7126  1.1125 -1.7326
  609TMC3    H1 9029   4.343   0.891   9.699 -2.4650  0.3440  0.0504
  609TMC3    H2 9030   4.561   1.211   9.546 -0.5481  2.1146 -0.1811
  609TMC3    C7 9031   4.589   0.990   9.668  0.1709 -0.5849 -0.0077
  609TMC3    C8 9032   4.368   1.376   9.529 -0.1877  0.2445 -0.0621
  609TMC3    O1 9033   4.678   1.071   9.689  0.1515  0.0345 -0.3144
  609TMC3    O2 9034   4.464   1.413   9.473 -0.2229 -0.0793  0.1009
  610TMC3    C1 9035   1.408   2.590  12.959 -0.3903 -0.4075  0.0092
  610TMC3    C2 9036   1.517   2.656  12.912  0.4502 -0.5239 -0.9117
  610TMC3    C3 9037   1.633   2.593  12.916  0.2063 -0.0250  0.4423
  610TMC3    C4 9038   1.416   2.471  13.022  0.2319 -0.1297 -0.2975
  610TMC3    C5 9039   1.539   2.416  13.029 -0.7037 -0.2117 -0.4485
  610TMC3    C6 9040   1.648   2.472  12.975 -0.5786  0.0216 -0.1392
  610TMC3     C 9041   1.279   2.639  12.921 -0.0060 -0.6776  0.0594
  610TMC3     O 9042   1.281   2.737  12.845 -0.6958  0.1331 -0.1399
  610TMC3     H 9043   1.512   2.742  12.847 -0.5635 -0.8722 -1.2862
  610TMC3    H1 9044   1.334   2.412  13.061  1.1710 -0.5249  1.0738
  610TMC3    H2 9045   1.731   2.407  12.951 -0.3203  0.7579 -1.2051
  610TMC3    C7 9046   1.562   2.276  13.075 -0.2305 -0.1827 -0.3381
  610TMC3    C8 9047   1.740   2.640  12.828 -0.1625  0.1401 -0.0462
  610TMC3    O1 9048   1.672   2.240  13.110  0.3121  0.1059  0.4135
  610TMC3    O2 9049   1.707   2.661  12.712  0.6604 -0.3553 -0.1065
  611MPD2     C 9050   0.001   2.127  10.746  0.0222 -0.1735 -0.2245
  611MPD2    C1 9051   0.055   2.050  10.648 -0.2439  0.2926 -0.7615
  611MPD2    C2 9052   0.196   2.059  10.629 -1.0805 -0.8436 -0.4144
  611MPD2    C3 9053   0.265   2.156  10.696 -0.4061  0.4137  0.5272
  611MPD2    C4 9054   0.210   2.236  10.800 -0.0809  0.9607 -0.3725
  611MPD2    C5 9055   0.077   2.222  10.817 -0.5823  0.0271 -0.7963
  611MPD2     H 9056   0.250   2.005  10.552 -0.2587  1.3649 -1.4153
  611MPD2    H1 9057   0.276   2.300  10.858 -0.1390  1.0101 -0.3608
  611MPD2    H2 9058   4.619   2.131  10.768 -0.3573 -1.6901 -1.7347
  611MPD2    H3 9059   0.027   2.275  10.897  0.1613 -0.0674 -0.2717
  611MPD2     N 9060   0.412   2.163  10.685 -0.1465  0.0452  0.0672
  611MPD2    H5 9061   0.466   2.232  10.736  0.7408  1.3466 -2.6324
  611MPD2    N1 9062   4.697   1.958  10.581 -0.6198  0.4642 -0.9109
  611MPD2    H7 9063   4.603   1.946  10.618 -0.1189 -0.8056 -0.0493
  612TMC3    C1 9064   0.638   2.122  10.640  0.6428  0.0633 -0.4167
  612TMC3    C2 9065   0.673   2.238  10.693  0.0670 -0.3659  0.0305
  612TMC3    C3 9066   0.809   2.255  10.718 -0.0111 -0.1392  0.0314
  612TMC3    C4 9067   0.732   2.022  10.603  0.1437  0.0184  1.2303
  612TMC3    C5 9068   0.860   2.056  10.615 -0.5013 -0.3042 -0.3091
  612TMC3    C6 9069   0.902   2.164  10.681  0.2139  0.1912  0.3896
  612TMC3     C 9070   0.501   2.067  10.645  0.4438  0.7165  0.5380
  612TMC3     O 9071   0.477   1.955  10.607 -0.1792 -0.1829 -0.2605
  612TMC3     H 9072   0.597   2.305  10.730 -0.0345  0.1003 -1.0075
  612TMC3    H1 9073   0.692   1.930  10.561  0.6212  0.0354  0.7398
  612TMC3    H2 9074   1.005   2.197  10.687  0.9889 -2.2794  0.7407
  612TMC3    C7 9075   0.959   1.962  10.566 -0.1623  0.2532 -0.2215
  612TMC3    C8 9076   0.863   2.372  10.779  0.0933  0.0758  0.6418
  612TMC3    O1 9077   0.928   1.843  10.561  0.2265  0.6318  0.4869
  612TMC3    O2 9078   0.794   2.471  10.768 -0.1348  0.3365  0.1440
  613MPD2     C 9079   0.155   4.496  16.102  0.1090  0.6771 -0.6957
  613MPD2    C1 9080   0.211   4.493  15.974 -0.1363  0.2345 -0.1430
  613MPD2    C2 9081   0.208   4.377  15.901 -0.2066 -0.2241 -0.5607
  613MPD2    C3 9082   0.151   4.262  15.950  0.6327  0.0345 -0.1659
  613MPD2    C4 9083   0.097   4.258  16.080  1.0036  0.7618 -0.5126
  613MPD2    C5 9084   0.105   4.376  16.149 -0.5342  0.3500 -0.4670
  613MPD2     H 9085   0.232   4.368  15.796  0.7097  1.0159 -0.4564
  613MPD2    H1 9086   0.054   4.170  16.127 -0.2630  1.2895 -0.6622
  613MPD2    H2 9087   0.159   4.583  16.166  1.2932 -0.3031  0.5420
  613MPD2    H3 9088   0.075   4.382  16.253 -2.8800  2.7933 -1.2785
  613MPD2     N 9089   0.151   4.156  15.859 -0.7181  0.8498 -0.9130
  613MPD2    H5 9090   0.217   4.152  15.781  0.0021  1.8874 -0.3623
  613MPD2    N1 9091   0.262   4.618  15.915 -0.2284 -0.3123 -0.7543
  613MPD2    H7 9092   0.244   4.701  15.970  0.2766  1.0203 -2.6082
  614TMC3    C1 9093   0.376   0.040  15.752  0.1345 -0.9324 -0.0528
  614TMC3    C2 9094   0.479   0.026  15.665  0.1638  0.2144 -0.7317
  614TMC3    C3 9095   0.478   0.083  15.546 -1.1394  0.4959  0.1162
  614TMC3    C4 9096   0.266   0.114  15.714 -0.1223 -0.7412 -0.3492
  614TMC3    C5 9097   0.273   0.191  15.602 -0.9164  0.5423  0.0003
  614TMC3    C6 9098   0.384   0.179  15.519 -0.0360 -0.7281 -0.5285
  614TMC3     C 9099   0.335   4.630  15.794  0.0346 -0.0672 -0.1936
  614TMC3     O 9100   0.359   4.539  15.716  0.4387 -0.7582  0.2854
  614TMC3     H 9101   0.557   4.681  15.695 -0.5470 -0.6727 -0.9383
  614TMC3    H1 9102   0.171   0.104  15.765 -0.4760 -0.1051 -0.8869
  614TMC3    H2 9103   0.377   0.226  15.422  0.1133 -0.1928 -0.2812
  614TMC3    C7 9104   0.153   0.200  15.531  0.2045 -0.2510  0.8284
  614TMC3    C8 9105   0.476   4.723  15.431 -0.0175 -0.9717  0.3629
  614TMC3    O1 9106   0.142   0.127  15.432 -0.5869 -0.1974 -0.2010
  614TMC3    O2 9107   0.513   0.045  15.324  0.1902  0.3205  0.3123
  615MPD2     C 9108   4.697   0.858  16.268  0.2008 -0.3505 -0.2578
  615MPD2    C1 9109   0.047   0.941  16.197 -0.5264  0.7116 -0.2353
  615MPD2    C2 9110   4.715   1.010  16.091  0.2522 -0.4092  0.0984
  615MPD2    C3 9111   4.578   0.992  16.054 -0.2941 -0.4231 -0.4957
  615MPD2    C4 9112   4.502   0.909  16.135  0.1704  0.0456 -0.4151
  615MPD2    C5 9113   4.566   0.844  16.232 -0.7254  0.9453  0.7303
  615MPD2     H 9114   0.054   1.088  16.050  0.8400  0.5112  2.7457
  615MPD2    H1 9115   4.404   0.876  16.106 -0.5902  2.7681 -0.9390
  615MPD2    H2 9116   0.007   0.800  16.353 -2.0351  0.6865  1.3431
  615MPD2    H3 9117   4.520   0.759  16.282 -0.7615  0.9948  0.7818
  615MPD2     N 9118   4.510   1.060  15.942  0.5430 -0.7454 -0.0641
  615MPD2    H5 9119   4.413   1.035  15.927  0.4334  1.2973 -2.8811
  615MPD2    N1 9120   0.179   0.980  16.227 -0.1015 -0.6601  0.3637
  615MPD2    H7 9121   0.202   1.073  16.193  2.9120 -1.2816  0.7068
  616TMC3    C1 9122   0.366   1.012  16.366  0.1309  0.2318 -0.5480
  616TMC3    C2 9123   0.393   1.035  16.496 -0.7965 -0.1280 -0.1400
  616TMC3    C3 9124   0.509   1.111  16.533 -0.3332  0.1510 -0.1702
  616TMC3    C4 9125   0.435   1.055  16.258 -0.1408  0.0536  0.0093
  616TMC3    C5 9126   0.545   1.129  16.296  0.3606  0.0815  0.3864
  616TMC3    C6 9127   0.581   1.161  16.428  0.1988 -0.2979  0.4283
  616TMC3     C 9128   0.238   0.947  16.342  0.5445  0.1877 -0.1535
  616TMC3     O 9129   0.188   0.897  16.440  0.0066  0.8969 -0.2704
  616TMC3     H 9130   0.339   0.993  16.580 -0.3930 -1.3413 -0.4853
  616TMC3    H1 9131   0.401   1.036  16.157 -0.3623 -2.2984  0.5221
  616TMC3    H2 9132   0.669   1.217  16.457  0.8023 -0.3866 -1.2386
  616TMC3    C7 9133   0.620   1.193  16.186 -0.0814 -0.2437 -0.4543
  616TMC3    C8 9134   0.524   1.159  16.671  1.3211 -0.3179 -0.0592
  616TMC3    O1 9135   0.686   1.288  16.218 -0.5572  0.0527  0.1803
  616TMC3    O2 9136   0.467   1.091  16.757  0.1840  0.1051 -0.1807
  617MPD2     C 9137   2.492   4.518  14.070  0.4164  0.5507 -0.1807
  617MPD2    C1 9138   2.507   4.448  14.183 -0.1048  0.0132  0.7190
  617MPD2    C2 9139   2.394   4.414  14.252 -0.5105 -0.7911  0.2357
  617MPD2    C3 9140   2.270   4.433  14.190  0.2021  0.7781  0.1860
  617MPD2    C4 9141   2.259   4.490  14.063  0.3139  0.9357  0.1132
  617MPD2    C5 9142   2.371   4.543  14.014 -0.2188  1.1443 -0.6618
  617MPD2     H 9143   2.392   4.365  14.349  1.6418 -1.7581 -0.2013
  617MPD2    H1 9144   2.162   4.517  14.023  0.8323  0.7551 -1.2659
  617MPD2    H2 9145   2.578   4.557  14.015  1.2609 -2.6199 -1.0900
  617MPD2    H3 9146   2.362   4.595  13.919  1.9445 -1.0446 -2.0928
  617MPD2     N 9147   2.146   4.406  14.257  0.3629  0.5197  0.1834
  617MPD2    H5 9148   2.061   4.424  14.204  0.3676 -0.2759 -0.0996
  617MPD2    N1 9149   2.634   4.408  14.220  0.3288  0.2681  0.7720
  617MPD2    H7 9150   2.707   4.443  14.160 -1.0113 -1.8715 -2.1044
  618TMC3    C1 9151   2.805   4.282  14.327  0.1019  0.0145 -0.5663
  618TMC3    C2 9152   2.847   4.153  14.317 -0.3971 -0.1229  0.0029
  618TMC3    C3 9153   2.977   4.127  14.290 -0.0869 -0.6303  0.3726
  618TMC3    C4 9154   2.887   4.386  14.313  0.1699 -0.3620  0.0589
  618TMC3    C5 9155   3.020   4.356  14.283  0.4433 -0.5024 -0.2166
  618TMC3    C6 9156   3.066   4.227  14.277  0.1480 -0.7162  0.7571
  618TMC3     C 9157   2.664   4.310  14.314 -0.2579 -0.2913  0.0571
  618TMC3     O 9158   2.588   4.233  14.371 -0.1059  0.0720  0.0923
  618TMC3     H 9159   2.781   4.070  14.337  1.4388 -2.3548 -3.2335
  618TMC3    H1 9160   2.844   4.485  14.320 -0.1494 -0.6282  1.6939
  618TMC3    H2 9161   3.172   4.202  14.281  0.6912  1.7285  1.3508
  618TMC3    C7 9162   3.115   4.471  14.284 -0.1999 -0.3592  0.2077
  618TMC3    C8 9163   2.975   4.022  14.189  0.1987 -0.3921  0.5451
  618TMC3    O1 9164   3.080   4.567  14.350  0.6577 -0.5130 -0.0792
  618TMC3    O2 9165   2.870   3.962  14.161  0.1772 -0.2584  0.5798
  619MPD2     C 9166   3.506   0.509  13.364 -0.5190 -0.9065 -0.2128
  619MPD2    C1 9167   3.409   0.562  13.290  0.5693 -0.2559  0.3530
  619MPD2    C2 9168   3.276   0.525  13.321 -0.7134 -0.1654  0.3413
  619MPD2    C3 9169   3.246   0.433  13.427  0.0375  0.3943 -0.7872
  619MPD2    C4 9170   3.355   0.377  13.487 -0.2126 -0.6904 -0.4039
  619MPD2    C5 9171   3.485   0.414  13.464  0.4705 -0.8133 -0.3282
  619MPD2     H 9172   3.201   0.587  13.274  0.1424 -0.4823 -1.4115
  619MPD2    H1 9173   3.340   0.295  13.555  1.7235 -0.3497  0.4270
  619MPD2    H2 9174   3.606   0.536  13.333  0.9363 -4.0698  1.7480
  619MPD2    H3 9175   3.571   0.359  13.503  1.4550 -0.1609 -1.5848
  619MPD2     N 9176   3.120   0.397  13.467  0.0052 -0.2548  0.0473
  619MPD2    H5 9177   3.119   0.329  13.542  3.6652 -1.4497 -1.0115
  619MPD2    N1 9178   3.424   0.643  13.179  0.4118 -0.6912 -0.0296
  619MPD2    H7 9179   3.338   0.658  13.128  0.4356 -0.3005  0.0450
  620TMC3    C1 9180   3.495   0.820  13.055  0.8766  0.3735 -0.5320
  620TMC3    C2 9181   3.381   0.790  12.985  0.1169 -0.1837  0.3176
  620TMC3    C3 9182   3.284   0.891  12.981 -0.9775 -0.4593  0.1146
  620TMC3    C4 9183   3.534   0.941  13.100  0.2848  0.2947 -0.0871
  620TMC3    C5 9184   3.444   1.045  13.084  0.1582  0.5860  0.0105
  620TMC3    C6 9185   3.313   1.016  13.033 -0.3176  0.6200 -0.1943
  620TMC3     C 9186   3.539   0.721  13.156 -0.0399  0.5407  0.2244
  620TMC3     O 9187   3.646   0.730  13.218  0.0405  0.2582  0.6763
  620TMC3     H 9188   3.354   0.693  12.945  2.1372  0.2787 -2.2125
  620TMC3    H1 9189   3.621   0.957  13.163 -0.6271  2.1741  0.7104
  620TMC3    H2 9190   3.233   1.089  13.033  0.2460  1.2474  2.7648
  620TMC3    C7 9191   3.451   1.155  13.188 -0.0061 -0.1675 -0.6621
  620TMC3    C8 9192   3.162   0.851  13.044  0.3952  0.1201 -0.1256
  620TMC3    O1 9193   3.489   1.118  13.304  0.0448 -0.2656 -0.3876
  620TMC3    O2 9194   3.171   0.745  13.099  0.1706  0.1382  0.1488
  621MPD2     C 9195   4.145   0.081   9.995 -0.4052  0.3614  0.0009
  621MPD2    C1 9196   4.116   0.183   9.907  0.6557 -0.2724  0.4408
  621MPD2    C2 9197   4.179   0.304   9.928 -0.0263 -0.4489 -0.2341
  621MPD2    C3 9198   4.272   0.320  10.025 -0.2425  0.0089 -0.0283
  621MPD2    C4 9199   4.299   0.212  10.106  0.3647  0.4832 -0.3801
  621MPD2    C5 9200   4.227   0.096  10.100 -0.3600  0.1219  0.5164
  621MPD2     H 9201   4.155   0.384   9.860 -0.6639  0.6840  1.3185
  621MPD2    H1 9202   4.391   0.202  10.163  0.5481  0.5567 -0.6652
  621MPD2    H2 9203   4.090   4.711   9.993 -0.6455  0.4442  2.8259
  621MPD2    H3 9204   4.248   0.010  10.163 -0.6911  0.9536  1.7718
  621MPD2     N 9205   4.326   0.451  10.039 -0.4981 -0.4737 -0.3372
  621MPD2    H5 9206   4.296   0.519   9.970 -2.0294 -2.0169 -1.1998
  621MPD2    N1 9207   4.023   0.178   9.800  0.1682 -0.1601  0.4377
  621MPD2    H7 9208   3.998   0.267   9.758 -2.7931 -1.6696 -1.0025
  622TMC3    C1 9209   3.896   0.075   9.623  0.0527  0.7314  0.1323
  622TMC3    C2 9210   3.851   4.684   9.565 -0.3878  0.4309 -0.1238
  622TMC3    C3 9211   3.779   4.693   9.449 -0.5287 -0.2980 -0.2762
  622TMC3    C4 9212   3.855   0.200   9.579 -0.5249 -0.5382  0.1829
  622TMC3    C5 9213   3.788   0.207   9.459 -0.2771 -0.7807  0.4409
  622TMC3    C6 9214   3.751   0.093   9.396  0.0783  0.0555 -0.7523
  622TMC3     C 9215   3.976   0.062   9.746 -0.0509 -0.5338 -0.4472
  622TMC3     O 9216   3.991   4.668   9.782  0.1641  0.2661  0.4007
  622TMC3     H 9217   3.877   4.584   9.600 -0.7064  0.7291  0.9598
  622TMC3    H1 9218   3.900   0.285   9.629  1.3039 -2.4103  1.6828
  622TMC3    H2 9219   3.695   0.097   9.303 -0.1153 -0.7415 -0.6691
  622TMC3    C7 9220   3.763   0.348   9.413  0.1259 -0.0138 -0.2480
  622TMC3    C8 9221   3.685   4.588   9.401 -0.1896 -0.4611  0.5109
  622TMC3    O1 9222   3.824   0.426   9.489 -0.7753  0.3408 -0.2815
  622TMC3    O2 9223   3.626   4.620   9.300 -0.2721  0.4024  0.1684
  623MPD2     C 9224   3.198   1.922  15.691 -0.0283 -0.5242 -0.0452
  623MPD2    C1 9225   3.107   1.811  15.713 -0.5450 -0.5857 -0.1205
  623MPD2    C2 9226   3.136   1.706  15.793  0.3985  0.2016  0.2633
  623MPD2    C3 9227   3.238   1.723  15.877  0.3788 -0.2648  1.1000
  623MPD2    C4 9228   3.326   1.832  15.868  0.8253  0.5998 -0.0466
  623MPD2    C5 9229   3.309   1.928  15.774  0.6340  0.1446  0.5419
  623MPD2     H 9230   3.068   1.627  15.822 -0.2067  0.5136 -0.2887
  623MPD2    H1 9231   3.421   1.833  15.921  0.7056  4.4850  0.1009
  623MPD2    H2 9232   3.180   1.998  15.615  1.6066 -0.7346 -0.6586
  623MPD2    H3 9233   3.384   2.006  15.762  0.9743 -0.4465 -1.3128
  623MPD2     N 9234   3.246   1.631  15.986  0.0360 -0.1739 -0.4527
  623MPD2    H5 9235   3.177   1.556  15.991 -1.1639  0.8264 -2.1696
  623MPD2    N1 9236   2.980   1.829  15.650 -0.5928  0.2978  0.2509
  623MPD2    H7 9237   2.963   1.916  15.601 -0.7178  0.7187  1.0368
  624TMC3    C1 9238   3.435   1.363  16.318 -0.3087 -0.8943 -0.4868
  624TMC3    C2 9239   3.311   1.324  16.354 -0.2699 -0.0590  0.1496
  624TMC3    C3 9240   3.206   1.397  16.305 -0.0932 -0.8861  0.5087
  624TMC3    C4 9241   3.451   1.457  16.222  0.5023 -0.6923  0.3656
  624TMC3    C5 9242   3.338   1.512  16.164 -0.0920 -0.7244 -0.7650
  624TMC3    C6 9243   3.219   1.497  16.218 -0.7382 -0.4856 -0.8087
  624TMC3     C 9244   3.544   1.295  16.386  0.4530 -0.1700 -0.4939
  624TMC3     O 9245   3.512   1.237  16.487  0.2013 -0.8387 -0.1916
  624TMC3     H 9246   3.292   1.253  16.434 -2.5580  0.7247  0.2815
  624TMC3    H1 9247   3.547   1.476  16.174  0.9099 -0.4815  1.2601
  624TMC3    H2 9248   3.134   1.558  16.189 -1.8367 -1.3589  0.6113
  624TMC3    C7 9249   3.351   1.628  16.081 -0.0514  0.3105 -0.5496
  624TMC3    C8 9250   3.073   1.353  16.346  0.8662 -0.5950 -0.9426
  624TMC3    O1 9251   3.460   1.684  16.088 -0.3485 -0.5545 -0.2407
  624TMC3    O2 9252   3.063   1.260  16.423 -0.6439  0.1709 -0.3111
  625MPD2     C 9253   3.071   1.777   0.651 -0.0702  0.1526 -0.4293
  625MPD2    C1 9254   3.163   1.880   0.658  0.6016 -0.1653  0.7720
  625MPD2    C2 9255   3.286   1.841   0.709 -0.5976  0.2860  0.3859
  625MPD2    C3 9256   3.319   1.717   0.749  0.2355 -0.0169 -0.2610
  625MPD2    C4 9257   3.228   1.620   0.739  0.4784  0.1748  0.5021
  625MPD2    C5 9258   3.101   1.656   0.699  0.2453  0.4442 -0.2776
  625MPD2     H 9259   3.359   1.921   0.717  1.2321 -1.1544 -1.9304
  625MPD2    H1 9260   3.240   1.517   0.773  3.1459  0.4595  0.3779
  625MPD2    H2 9261   2.968   1.792   0.618 -1.4654 -5.1304  1.4983
  625MPD2    H3 9262   3.028   1.577   0.703  1.3375 -0.6148 -1.2455
  625MPD2     N 9263   3.454   1.691   0.782  0.0384  0.2800 -0.3220
  625MPD2    H5 9264   3.525   1.762   0.769  0.7412 -0.8745 -2.6568
  625MPD2    N1 9265   3.139   2.020   0.639  0.6069 -0.5783  0.7565
  625MPD2    H7 9266   3.212   2.083   0.670 -0.5395  2.1729 -2.1556
  626TMC3    C1 9267   3.041   2.227   0.606 -0.2074  0.6651  0.2197
  626TMC3    C2 9268   2.960   2.298   0.524  0.1489  0.5151  0.6566
  626TMC3    C3 9269   2.964   2.435   0.537 -0.4973 -0.9750 -0.1939
  626TMC3    C4 9270   3.114   2.279   0.711  0.2240 -0.2279  0.3150
  626TMC3    C5 9271   3.094   2.415   0.739  0.9596 -0.4048 -0.1403
  626TMC3    C6 9272   3.016   2.494   0.650 -0.6026 -0.7723 -0.0129
  626TMC3     C 9273   3.030   2.081   0.582  0.8373  0.1532  0.3411
  626TMC3     O 9274   2.927   2.034   0.527  0.3860  0.2895  0.3475
  626TMC3     H 9275   2.914   2.259   0.434 -1.4776 -0.5429  1.9521
  626TMC3    H1 9276   3.168   2.221   0.784  1.0663  0.2800  0.0889
  626TMC3    H2 9277   3.017   2.602   0.656  1.3218 -0.8628  1.0401
  626TMC3    C7 9278   3.110   2.454   0.878  0.7609  0.2408  0.0954
  626TMC3    C8 9279   2.905   2.521   0.433 -0.3295  0.7719 -0.5019
  626TMC3    O1 9280   3.193   2.394   0.948  0.3409  0.2504  0.0828
  626TMC3    O2 9281   2.951   2.635   0.420  0.2436 -0.1703 -0.0613
  627MPD2     C 9282   1.577   3.209  14.571  0.3848 -0.3082  0.2536
  627MPD2    C1 9283   1.631   3.125  14.666  0.3813 -0.5741 -0.1520
  627MPD2    C2 9284   1.614   2.993  14.663  0.1253 -0.2821 -0.5799
  627MPD2    C3 9285   1.545   2.929  14.563  0.1003  0.0119 -0.7954
  627MPD2    C4 9286   1.489   3.006  14.467  0.3971 -0.4471 -0.0038
  627MPD2    C5 9287   1.507   3.146  14.465  0.5253  0.0383 -0.0011
  627MPD2     H 9288   1.666   2.929  14.734 -1.3631 -1.8542 -0.8814
  627MPD2    H1 9289   1.422   2.965  14.392  1.8548 -1.4274 -0.7617
  627MPD2    H2 9290   1.593   3.316  14.578  1.5974 -0.3695 -1.5111
  627MPD2    H3 9291   1.464   3.206  14.387  1.8698 -0.6006 -1.2383
  627MPD2     N 9292   1.513   2.791  14.580 -0.2163 -0.3379  0.1526
  627MPD2    H5 9293   1.550   2.755  14.668 -1.6925  0.4866  1.1070
  627MPD2    N1 9294   1.721   3.179  14.764  0.3107 -0.0975  0.0243
  627MPD2    H7 9295   1.761   3.110  14.828 -2.3735 -0.0794  1.7376
  628TMC3    C1 9296   1.863   3.326  14.887  0.2170 -0.4178 -0.8762
  628TMC3    C2 9297   1.940   3.220  14.934 -0.4491  0.4853  0.0154
  628TMC3    C3 9298   2.040   3.247  15.018  0.9426  0.4117 -0.8879
  628TMC3    C4 9299   1.887   3.460  14.922  0.2023  0.6453 -0.3308
  628TMC3    C5 9300   2.006   3.476  14.992  1.1475  0.8881 -0.6580
  628TMC3    C6 9301   2.088   3.377  15.035  0.1189  0.1064 -0.1761
  628TMC3     C 9302   1.751   3.310  14.790 -0.1994  0.0073 -0.3639
  628TMC3     O 9303   1.686   3.414  14.762 -0.3433  0.2483  0.0761
  628TMC3     H 9304   1.912   3.118  14.913  0.4187  0.6833 -2.0833
  628TMC3    H1 9305   1.817   3.539  14.897  0.4443  0.5982 -1.1377
  628TMC3    H2 9306   2.159   3.406  15.112 -0.1383 -0.0682  0.1261
  628TMC3    C7 9307   2.045   3.616  15.020  0.0385  0.2312  0.4125
  628TMC3    C8 9308   2.124   3.132  15.045 -0.2466 -0.0333  0.2281
  628TMC3    O1 9309   2.138   3.635  15.099 -0.4724  0.7337  0.2131
  628TMC3    O2 9310   2.070   3.023  15.028 -0.3333 -0.0601 -0.0585
  629MPD2     C 9311   0.687   1.486  17.027 -0.2102 -0.0941 -0.8473
  629MPD2    C1 9312   0.673   1.551  16.904  0.0140 -0.2255 -0.1690
  629MPD2    C2 9313   0.651   1.482  16.785 -0.0554 -0.0732 -0.2058
  629MPD2    C3 9314   0.622   1.351  16.793  0.6347  0.1337  0.5875
  629MPD2    C4 9315   0.628   1.288  16.915 -0.0254 -0.1541  0.7147
  629MPD2    C5 9316   0.668   1.349  17.027  0.3921 -0.4920 -0.7722
  629MPD2     H 9317   0.654   1.535  16.690 -2.4744  3.7747  1.8812
  629MPD2    H1 9318   0.602   1.183  16.922 -1.4763  0.1455 -0.1161
  629MPD2    H2 9319   0.737   1.529  17.113 -1.0211  1.1365 -0.9959
  629MPD2    H3 9320   0.662   1.286  17.114 -3.3232 -0.1270 -0.7846
  629MPD2     N 9321   0.581   1.283  16.679  0.8723  0.7185 -0.2549
  629MPD2    H5 9322   0.577   1.342  16.596  0.2773  1.3887  0.2572
  629MPD2    N1 9323   0.681   1.693  16.912 -0.1705  0.9180 -0.8093
  629MPD2    H7 9324   0.681   1.739  17.003  0.2419  2.3354 -1.5303
  630TMC3    C1 9325   0.633   1.912  16.862  0.6879  0.2123 -0.0642
  630TMC3    C2 9326   0.699   2.023  16.808 -0.7269 -0.0450  0.4278
  630TMC3    C3 9327   0.696   2.136  16.880  0.2084 -0.4638  0.6425
  630TMC3    C4 9328   0.576   1.915  16.985  0.2393 -0.4862 -0.7584
  630TMC3    C5 9329   0.558   2.035  17.052 -0.6679 -0.4147 -0.2277
  630TMC3    C6 9330   0.614   2.143  16.997  0.3195  0.3455  0.3974
  630TMC3     C 9331   0.669   1.784  16.813  0.0781 -0.3498 -0.4129
  630TMC3     O 9332   0.671   1.763  16.693  0.0155  0.5249 -0.4305
  630TMC3     H 9333   0.753   2.007  16.715  0.0554  0.4964  0.7883
  630TMC3    H1 9334   0.506   1.835  17.005  0.6787 -0.6705  0.0394
  630TMC3    H2 9335   0.590   2.237  17.046 -1.3707  0.5958 -0.9198
  630TMC3    C7 9336   0.483   2.027  17.169  0.5234  0.0357 -0.1526
  630TMC3    C8 9337   0.775   2.254  16.846 -0.6727  1.3450  0.5114
  630TMC3    O1 9338   0.420   1.925  17.178 -0.4640  0.3991  0.0829
  630TMC3    O2 9339   0.831   2.259  16.738 -0.0554 -0.1011  0.4739
  631MPD2     C 9340   3.747   1.185  15.282  0.5456 -0.8208 -0.0220
  631MPD2    C1 9341   3.814   1.304  15.304  0.0632 -0.5756 -0.3376
  631MPD2    C2 9342   3.945   1.314  15.348  0.5045  0.4447 -0.2958
  631MPD2    C3 9343   4.012   1.200  15.385  0.6427 -0.4005 -0.2656
  631MPD2    C4 9344   3.939   1.078  15.374 -0.5753  0.4442  0.3986
  631MPD2    C5 9345   3.813   1.068  15.319 -0.1302 -0.2924 -0.4016
  631MPD2     H 9346   3.989   1.412  15.355  0.8475  0.2775 -0.0999
  631MPD2    H1 9347   3.992   0.990  15.409  0.3174  0.4245 -0.9738
  631MPD2    H2 9348   3.647   1.179  15.240  0.6673  0.5645 -0.4817
  631MPD2    H3 9349   3.764   0.972  15.306 -0.3880 -0.2300  0.1117
  631MPD2     N 9350   4.144   1.220  15.441  0.6481  0.2416 -0.2402
  631MPD2    H5 9351   4.178   1.316  15.439 -0.3711  0.6179  0.4929
  631MPD2    N1 9352   3.738   1.418  15.275  0.1108 -0.1781  0.5985
  631MPD2    H7 9353   3.650   1.410  15.224 -0.2634  0.1462  1.1892
  632TMC3    C1 9354   3.674   1.649  15.297 -0.2605  0.5418 -0.1536
  632TMC3    C2 9355   3.683   1.763  15.375  0.3621 -0.5555  0.0600
  632TMC3    C3 9356   3.607   1.871  15.332 -0.0442 -0.2249 -0.5336
  632TMC3    C4 9357   3.590   1.635  15.186 -0.3250 -0.4042 -1.2000
  632TMC3    C5 9358   3.513   1.746  15.158 -0.9056  0.4609  0.0416
  632TMC3    C6 9359   3.519   1.864  15.227 -0.2811 -0.0341 -0.5706
  632TMC3     C 9360   3.762   1.533  15.342  0.8185 -0.1640  0.2243
  632TMC3     O 9361   3.839   1.556  15.436  0.2147 -0.2722 -0.0150
  632TMC3     H 9362   3.738   1.755  15.468 -0.6353  2.9578  0.9678
  632TMC3    H1 9363   3.600   1.550  15.120  2.4552 -1.1835  0.2192
  632TMC3    H2 9364   3.472   1.957  15.196 -1.2851  0.0457  1.1542
  632TMC3    C7 9365   3.458   1.742  15.022  0.2326  0.6294  0.9017
  632TMC3    C8 9366   3.592   1.986  15.421  0.3999  0.2529  0.1174
  632TMC3    O1 9367   3.534   1.697  14.939 -0.0458  0.5611 -0.2790
  632TMC3    O2 9368   3.491   2.055  15.414 -0.1914  0.1645 -0.1669
  633MPD2     C 9369   3.055   4.220  17.657 -0.4339 -0.2403  0.0326
  633MPD2    C1 9370   3.128   4.152  17.556 -0.2105 -0.1354  1.0025
  633MPD2    C2 9371   3.168   4.018  17.573 -0.6857  0.3618 -0.2728
  633MPD2    C3 9372   3.141   3.953  17.693 -0.1919  0.9603 -0.4151
  633MPD2    C4 9373   3.082   4.032   0.099  0.5074 -0.1260 -0.1858
  633MPD2    C5 9374   3.030   4.155   0.079  0.1044  0.5302 -0.1912
  633MPD2     H 9375   3.224   3.974  17.492  0.1872  0.1021  0.4688
  633MPD2    H1 9376   3.065   3.986   0.196  0.1483 -2.3893 -1.3304
  633MPD2    H2 9377   3.032   4.326  17.660  0.7282  0.0928 -3.2401
  633MPD2    H3 9378   2.980   4.200   0.164 -0.5137  0.9753 -0.7928
  633MPD2     N 9379   3.147   3.815   0.023 -0.2836  0.5391 -0.3988
  633MPD2    H5 9380   3.137   3.779   0.118 -0.3839  0.4410 -0.4465
  633MPD2    N1 9381   3.171   4.218  17.438  0.0854 -0.6458  0.0030
  633MPD2    H7 9382   3.190   4.154  17.361  3.9927 -1.3569  1.6027
  634TMC3    C1 9383   3.236   4.398  17.287  0.1095 -0.4616  0.6656
  634TMC3    C2 9384   3.284   4.310  17.195 -0.6314 -0.5242 -0.1272
  634TMC3    C3 9385   3.310   4.349  17.066  0.0595  0.2777  0.3522
  634TMC3    C4 9386   3.217   4.530  17.259  0.6133 -0.7112  0.0090
  634TMC3    C5 9387   3.249   4.571  17.134 -0.1899 -0.1483 -0.0787
  634TMC3    C6 9388   3.294   4.483  17.037  0.4374  0.0549 -0.3612
  634TMC3     C 9389   3.176   4.356  17.418 -0.2127  0.3898  0.2680
  634TMC3     O 9390   3.166   4.439  17.507  0.1393 -0.6825  0.1719
  634TMC3     H 9391   3.298   4.207  17.228  0.0560 -0.0722  0.9954
  634TMC3    H1 9392   3.163   4.581  17.338  2.6963  1.8724 -0.2121
  634TMC3    H2 9393   3.320   4.516  16.937  2.8896 -0.5068  0.1070
  634TMC3    C7 9394   3.193   4.696  17.084 -0.2188  0.5522 -0.1431
  634TMC3    C8 9395   3.353   4.253  16.965 -0.0225 -0.2558  0.2367
  634TMC3    O1 9396   3.220   0.003  16.971 -0.9468 -0.4470 -0.1072
  634TMC3    O2 9397   3.368   4.138  17.003 -0.0634  0.7249 -0.5932
  635TMC3    C1 9398   3.416   0.407   0.079  0.4991  0.1800  0.1189
  635TMC3    C2 9399   3.524   0.346   0.023  0.5923 -0.2163 -0.5227
  635TMC3    C3 9400   3.523   0.207   0.028  0.0624  0.6185  0.2945
  635TMC3    C4 9401   3.315   0.342   0.139  0.0888 -0.2135 -0.3049
  635TMC3    C5 9402   3.318   0.203   0.148 -0.6748 -0.4973  0.4355
  635TMC3    C6 9403   3.421   0.130   0.090  0.5372 -0.0627 -0.0883
  635TMC3     C 9404   3.430   0.551   0.108 -0.3583 -0.3610  0.0915
  635TMC3     O 9405   3.331   0.606   0.154  0.4237 -0.0212 -0.1564
  635TMC3     H 9406   3.607   0.391  17.666  0.5261  0.8147  0.2423
  635TMC3    H1 9407   3.246   0.392   0.205  0.9677 -0.4775  0.8132
  635TMC3    H2 9408   3.438   0.029   0.123 -0.9308 -0.8097 -1.6278
  635TMC3    C7 9409   3.250   0.145   0.260  0.2733 -0.6958 -0.0864
  635TMC3    C8 9410   3.630   0.148  17.647  0.9081  0.2249 -0.4183
  635TMC3    O1 9411   3.209   0.220   0.343 -0.1514 -0.0378 -0.3373
  635TMC3    O2 9412   3.714   0.219  17.590  0.1487 -0.7408  0.2363
  636MPD2     C 9413   4.257   4.428  15.505  0.3394 -0.8800 -0.9661
  636MPD2    C1 9414   4.354   4.448  15.601 -0.1417 -0.5025  0.1043
  636MPD2    C2 9415   4.443   4.350  15.623 -0.6194 -0.3025  0.1896
  636MPD2    C3 9416   4.451   4.236  15.545 -0.4190  0.3767 -0.3446
  636MPD2    C4 9417   4.359   4.221  15.438 -0.4416 -0.2580  0.1338
  636MPD2    C5 9418   4.268   4.321  15.425 -0.6252  0.2902  0.1282
  636MPD2     H 9419   4.517   4.377  15.697 -0.0310  0.1502 -0.5561
  636MPD2    H1 9420   4.354   4.137  15.370 -0.4796  0.0876 -0.2841
  636MPD2    H2 9421   4.181   4.498  15.475 -1.9752 -2.5303  1.0244
  636MPD2    H3 9422   4.191   4.307  15.349 -0.9137  0.2346  0.4299
  636MPD2     N 9423   4.552   4.142  15.563  0.2127 -0.9961  0.0497
  636MPD2    H5 9424   4.613   4.156  15.643  1.7046 -0.1403 -1.2265
  636MPD2    N1 9425   4.363   4.560  15.686  0.3488 -0.1910 -0.3881
  636MPD2    H7 9426   4.430   4.554  15.762 -0.5170 -0.1091  0.3824
  637TMC3    C1 9427   4.697   3.974  15.544 -0.1439 -0.4532 -0.3238
  637TMC3    C2 9428   4.689   3.959  15.677  0.2757 -0.2525  0.1296
  637TMC3    C3 9429   0.078   3.964  15.756 -0.7817  0.2240 -0.0303
  637TMC3    C4 9430   0.097   3.983  15.479 -0.2531 -0.0891  0.6436
  637TMC3    C5 9431   0.207   3.981  15.566 -0.2852 -0.1801 -0.5030
  637TMC3    C6 9432   0.203   3.966  15.700  0.0418 -0.9387  0.2074
  637TMC3     C 9433   4.592   4.044  15.482  0.4156  1.0160 -0.2549
  637TMC3     O 9434   4.550   4.001  15.376 -0.4324 -0.0615 -0.3730
  637TMC3     H 9435   4.597   3.950  15.733 -0.9367  3.3752 -1.3164
  637TMC3    H1 9436   0.093   4.017  15.376 -0.1487 -1.1308  0.2971
  637TMC3    H2 9437   0.290   3.951  15.762  1.4827  0.1650 -1.5305
  637TMC3    C7 9438   0.294   4.100  15.547 -0.2980 -0.9035 -0.7322
  637TMC3    C8 9439   0.062   4.049  15.871  0.6111  0.4166 -0.8478
  637TMC3    O1 9440   0.304   4.169  15.647 -0.0962 -0.2712 -0.1400
  637TMC3    O2 9441   4.680   4.042  15.933 -0.1550 -0.6140 -0.3099
  638MPD2     C 9442   3.998   3.735  14.794 -0.4987  0.2668  0.3148
  638MPD2    C1 9443   3.962   3.621  14.725 -0.1290 -0.2897  0.2051
  638MPD2    C2 9444   3.937   3.501  14.792  0.4148 -0.4113 -0.0277
  638MPD2    C3 9445   3.972   3.492  14.924 -0.0401  0.1602  0.2379
  638MPD2    C4 9446   4.006   3.605  14.994  0.0358 -0.4949 -0.2825
  638MPD2    C5 9447   4.007   3.726  14.936 -0.5192 -0.4236 -0.5906
  638MPD2     H 9448   3.896   3.413  14.745 -0.1419  0.5775 -1.4064
  638MPD2    H1 9449   4.032   3.608  15.099  1.7914 -0.7514 -0.7028
  638MPD2    H2 9450   4.032   3.828  14.749  1.9840  0.9746  3.6405
  638MPD2    H3 9451   4.026   3.813  14.998 -1.2049  0.1723 -1.2120
  638MPD2     N 9452   3.975   3.361  14.979 -0.1136  0.0627  0.6884
  638MPD2    H5 9453   3.961   3.288  14.909 -0.9431  0.2110  0.7089
  638MPD2    N1 9454   3.945   3.637  14.586  0.3712  0.4264 -0.0326
  638MPD2    H7 9455   3.973   3.725  14.545 -0.6214  1.3089  1.1989
  639TMC3    C1 9456   3.971   3.196  15.143  0.4027 -0.0964  0.0662
  639TMC3    C2 9457   3.867   3.140  15.073  0.0048 -0.0531  0.2503
  639TMC3    C3 9458   3.812   3.019  15.117 -0.1537  0.0724  0.4609
  639TMC3    C4 9459   4.031   3.137  15.252  0.3929 -0.1241 -0.3632
  639TMC3    C5 9460   3.989   3.007  15.274  0.1472  0.2811  0.4357
  639TMC3    C6 9461   3.885   2.949  15.206  0.3783 -0.2179  0.7122
  639TMC3     C 9462   3.998   3.334  15.112  0.4946  0.3624  0.2299
  639TMC3     O 9463   4.010   3.414  15.205 -0.1837 -0.1130  0.3823
  639TMC3     H 9464   3.805   3.195  15.004 -1.3205 -3.1227 -0.9979
  639TMC3    H1 9465   4.114   3.174  15.311  1.2037 -2.0110 -0.3318
  639TMC3    H2 9466   3.869   2.842  15.213  0.5035 -0.2373  0.6989
  639TMC3    C7 9467   4.096   2.912  15.303  0.5047 -0.6113  1.0030
  639TMC3    C8 9468   3.735   2.949  15.022 -0.2841 -0.2307  0.4970
  639TMC3    O1 9469   4.063   2.816  15.366  0.0055  0.0481  0.8466
  639TMC3    O2 9470   3.766   2.942  14.905 -0.3344 -0.1307 -0.3230
  640MPD2     C 9471   4.354   1.929  10.077  0.2460  0.5904 -0.3502
  640MPD2    C1 9472   4.427   2.022  10.148 -0.1819 -0.3060  0.3193
  640MPD2    C2 9473   4.372   2.140  10.205 -0.1705  0.1095 -0.8159
  640MPD2    C3 9474   4.235   2.157  10.187  0.3237 -0.6209  0.4412
  640MPD2    C4 9475   4.159   2.055  10.123  0.0012  0.0482  0.3463
  640MPD2    C5 9476   4.222   1.948  10.060 -0.2784  0.1170 -0.0404
  640MPD2     H 9477   4.422   2.216  10.264  1.9419 -1.8587 -0.0903
  640MPD2    H1 9478   4.052   2.067  10.115 -0.0889 -1.5095 -0.8520
  640MPD2    H2 9479   4.396   1.837  10.039 -1.1891 -0.2947  0.2092
  640MPD2    H3 9480   4.171   1.863  10.017  1.6258 -1.8740  1.6483
  640MPD2     N 9481   4.159   2.264  10.236  0.5439  0.2838  0.3631
  640MPD2    H5 9482   4.061   2.271  10.210  0.7925  2.4645  0.0357
  640MPD2    N1 9483   4.563   1.991  10.159  0.7352 -0.0679  0.3734
  640MPD2    H7 9484   4.596   1.923  10.092  2.1675  1.9932 -0.9972
  641TMC3    C1 9485   0.053   2.059  10.146 -0.3976  0.4561 -0.7018
  641TMC3    C2 9486   0.099   1.928  10.148 -0.2536  0.4056 -0.5039
  641TMC3    C3 9487   0.200   1.903  10.068  0.3243  0.3391 -0.3807
  641TMC3    C4 9488   0.093   2.157  10.058 -0.2261  0.1581 -0.4268
  641TMC3    C5 9489   0.176   2.110   9.962  0.5511  0.6184 -0.5435
  641TMC3    C6 9490   0.241   1.993   9.982 -0.4253  0.2612 -0.2092
  641TMC3     C 9491   4.659   2.081  10.218 -0.0779  0.2823 -0.1676
  641TMC3     O 9492   4.650   2.185  10.279  0.2331 -0.4412 -0.4067
  641TMC3     H 9493   0.056   1.851  10.211  0.8991  0.9887  0.9765
  641TMC3    H1 9494   0.022   2.238  10.055 -0.6588 -0.1565  1.0902
  641TMC3    H2 9495   0.316   1.964   9.909 -1.2306  0.5173 -1.1429
  641TMC3    C7 9496   0.215   2.195   9.849  0.0648 -0.0346 -0.2842
  641TMC3    C8 9497   0.290   1.796  10.098  0.5258  0.2027 -0.3877
  641TMC3    O1 9498   0.310   2.166   9.774 -0.1786  0.3422  0.2620
  641TMC3    O2 9499   0.387   1.775  10.027  0.5152 -0.1006  0.1380
  642TMC3    C1 9500   0.837   2.965  12.310 -0.0095  0.3646 -0.0930
  642TMC3    C2 9501   0.884   2.995  12.188  0.2662  0.0439  0.6192
  642TMC3    C3 9502   0.800   2.992  12.078 -0.2369  0.4730 -0.4396
  642TMC3    C4 9503   0.704   2.935  12.330  0.3789 -0.2095 -0.2724
  642TMC3    C5 9504   0.619   2.938  12.221  0.8618  0.0408  0.1792
  642TMC3    C6 9505   0.671   2.955  12.098  0.0704 -0.2634  0.2168
  642TMC3     C 9506   0.916   2.999  12.422 -0.1074  1.0219 -0.5655
  642TMC3     O 9507   1.032   2.958  12.417  0.1153 -0.1341  0.3684
  642TMC3     H 9508   0.991   3.015  12.181  0.5295 -1.5158  0.1643
  642TMC3    H1 9509   0.664   2.924  12.430  1.9617 -1.2705  0.2389
  642TMC3    H2 9510   0.623   2.935  12.003 -2.8426 -2.3067  2.1388
  642TMC3    C7 9511   0.492   2.871  12.221 -0.3652  0.0300  0.3774
  642TMC3    C8 9512   0.843   3.031  11.946  0.2404 -0.1541  0.5859
  642TMC3    O1 9513   0.459   2.812  12.118  0.4701  0.6141  0.0352
  642TMC3    O2 9514   0.765   3.084  11.865 -0.5279  0.2054  0.3510
  643TMC3    C1 9515   0.135   2.864   0.606 -0.1871  0.2338  0.9112
  643TMC3    C2 9516   0.092   2.945   0.503 -0.2422  0.3513 -0.3435
  643TMC3    C3 9517   4.714   2.892   0.424  0.0541 -0.3526 -0.0627
  643TMC3    C4 9518   0.106   2.734   0.618  0.6159 -0.3516  0.0882
  643TMC3    C5 9519   0.025   2.677   0.525  0.4953  0.1686  0.1107
  643TMC3    C6 9520   4.676   2.757   0.440 -0.4823  0.5793 -0.0348
  643TMC3     C 9521   0.224   2.922   0.704  0.4331  0.3462  0.2115
  643TMC3     O 9522   0.238   3.041   0.690  0.1267  0.0570 -0.3634
  643TMC3     H 9523   0.121   3.049   0.492 -0.1048  0.3858  0.3642
  643TMC3    H1 9524   0.145   2.675   0.700 -0.0758 -0.7689  0.1138
  643TMC3    H2 9525   4.600   2.712   0.377  0.4635 -3.1931  1.5375
  643TMC3    C7 9526   4.705   2.542   0.555 -0.3994  0.0135  0.2120
  643TMC3    C8 9527   4.713   2.923   0.281 -0.1515 -0.4584  0.6862
  643TMC3    O1 9528   4.714   2.512   0.671  0.1549  0.1948 -0.1772
  643TMC3    O2 9529   4.638   2.862   0.203 -0.2468 -0.6876  0.0250
  644MPD2     C 9530   0.064   3.209   9.776  0.4807  0.4803  0.1424
  644MPD2    C1 9531   0.081   3.121   9.875  0.3283  0.1899 -0.3425
  644MPD2    C2 9532   0.070   3.162  10.004 -0.0869 -0.7093  0.3297
  644MPD2    C3 9533   0.041   3.289  10.038  0.0184 -0.1386  0.5824
  644MPD2    C4 9534   0.011   3.375   9.928 -0.0680 -0.2195  0.1743
  644MPD2    C5 9535   0.021   3.331   9.799  0.3692 -0.0647  0.4585
  644MPD2     H 9536   0.089   3.089  10.082  1.3151 -2.1728 -1.3733
  644MPD2    H1 9537   4.704   3.477   9.949 -0.6231 -0.0441 -1.4360
  644MPD2    H2 9538   0.088   3.177   9.676 -3.8993 -3.0302  0.2298
  644MPD2    H3 9539   4.719   3.407   9.726 -1.0492 -0.3900  0.6315
  644MPD2     N 9540   0.043   3.328  10.180  0.5660 -0.5079  0.4637
  644MPD2    H5 9541   0.058   3.245  10.237  0.4042 -1.2782 -0.6310
  644MPD2    N1 9542   0.108   2.986   9.842  0.3499  0.1733  0.0199
  644MPD2    H7 9543   0.123   2.963   9.744 -0.3544  0.3150 -0.1247
  645TMC3    C1 9544   0.053   3.454  10.370  0.1913  0.0564  0.1101
  645TMC3    C2 9545   0.011   3.344  10.442 -0.6004 -0.5480  0.0915
  645TMC3    C3 9546   0.010   3.357  10.577 -0.4635  0.7412  0.4550
  645TMC3    C4 9547   0.094   3.569  10.431  0.1962  0.8079  0.8428
  645TMC3    C5 9548   0.096   3.574  10.570 -0.4114  0.5822 -0.2103
  645TMC3    C6 9549   0.054   3.467  10.643 -0.3117 -0.8544  0.0155
  645TMC3     C 9550   0.034   3.455  10.227 -0.3743 -0.0811  0.1342
  645TMC3     O 9551   0.034   3.562  10.167 -0.2516  0.0877 -0.0848
  645TMC3     H 9552   4.707   3.252  10.391 -0.5610 -0.8493  0.6141
  645TMC3    H1 9553   0.123   3.652  10.367  2.2951  0.2642  1.0892
  645TMC3    H2 9554   0.062   3.465  10.751 -0.7937  0.1662  0.0741
  645TMC3    C7 9555   0.162   3.681  10.640 -0.2879 -0.2278  0.0751
  645TMC3    C8 9556   0.010   3.228  10.651 -0.0696 -0.3136 -0.3643
  645TMC3    O1 9557   0.167   3.674  10.761  0.7129 -0.1879 -0.3838
  645TMC3    O2 9558   0.073   3.140  10.599 -0.3861 -0.0451  0.3554
  646MPD2     C 9559   4.127   1.996  14.533 -0.2297  0.1242 -0.9348
  646MPD2    C1 9560   4.064   2.026  14.649 -0.3342  0.2697 -0.6515
  646MPD2    C2 9561   3.959   2.115  14.644 -0.3405 -0.1105 -0.7078
  646MPD2    C3 9562   3.925   2.176  14.529  0.6349 -0.2071  0.1296
  646MPD2    C4 9563   3.989   2.139  14.414  0.5466  0.2372  0.4740
  646MPD2    C5 9564   4.096   2.054  14.419 -0.8134  0.5929 -0.3621
  646MPD2     H 9565   3.901   2.133  14.733 -0.4808  0.6059 -0.9402
  646MPD2    H1 9566   3.949   2.181  14.322 -1.4942 -3.1229 -0.1686
  646MPD2    H2 9567   4.216   1.934  14.533 -0.8587 -0.7798 -0.4900
  646MPD2    H3 9568   4.152   2.033  14.329  2.1411  1.1443  1.3684
  646MPD2     N 9569   3.807   2.249  14.524 -0.6570 -0.4039  0.0045
  646MPD2    H5 9570   3.753   2.256  14.610  0.1367 -0.3065  0.4911
  646MPD2    N1 9571   4.110   1.972  14.775  0.2078  0.1439 -0.5751
  646MPD2    H7 9572   4.187   1.906  14.768 -1.0764 -1.4988  1.1105
  647TMC3    C1 9573   4.164   1.948  15.002 -0.4767  0.1008 -0.0784
  647TMC3    C2 9574   4.158   1.813  15.013 -0.4369 -0.0166  0.2136
  647TMC3    C3 9575   4.224   1.757  15.118 -0.4143  0.5643  0.4344
  647TMC3    C4 9576   4.252   2.023  15.079  0.6304  0.0228  0.0461
  647TMC3    C5 9577   4.327   1.961  15.178  0.4291 -0.0732 -0.0849
  647TMC3    C6 9578   4.297   1.827  15.212  0.8388  0.1636  0.1261
  647TMC3     C 9579   4.083   2.017  14.899 -0.0461 -0.2453  0.4772
  647TMC3     O 9580   4.023   2.119  14.929 -0.0700 -0.5774 -0.0430
  647TMC3     H 9581   4.081   1.757  14.961 -0.4310  1.4873 -1.3822
  647TMC3    H1 9582   4.264   2.127  15.052  2.9597 -0.3139 -0.2408
  647TMC3    H2 9583   4.358   1.779  15.286  2.2479 -0.9642 -1.7710
  647TMC3    C7 9584   4.476   1.982  15.180  0.5777 -0.4709 -0.0705
  647TMC3    C8 9585   4.226   1.613  15.150 -0.0143 -0.1866  0.5953
  647TMC3    O1 9586   4.542   1.882  15.155 -0.9437  0.4901 -0.2102
  647TMC3    O2 9587   4.277   1.579  15.254 -0.1837 -0.2731  0.2998
  648TMC3    C1 9588   3.725   4.370  16.382 -0.0540 -0.0555 -0.1711
  648TMC3    C2 9589   3.838   4.313  16.330 -0.1806 -0.2499  0.6682
  648TMC3    C3 9590   3.856   4.324  16.198 -0.2844  0.2905 -0.1122
  648TMC3    C4 9591   3.647   4.453  16.300  0.1511 -0.8355  0.0498
  648TMC3    C5 9592   3.670   4.460  16.167  0.1024  0.2153  0.4422
  648TMC3    C6 9593   3.777   4.396  16.109 -0.4646  0.3694  0.0146
  648TMC3     C 9594   3.714   4.395  16.523 -1.1092 -0.6112  0.3719
  648TMC3     O 9595   3.668   4.505  16.551 -0.5135 -0.2200  0.0050
  648TMC3     H 9596   3.901   4.247  16.389  0.4417  1.9656  2.4765
  648TMC3    H1 9597   3.560   4.497  16.346  0.2880  1.2191 -1.6699
  648TMC3    H2 9598   3.793   4.400  16.002  0.7361  4.5007  0.3325
  648TMC3    C7 9599   3.570   4.518  16.077 -0.1587  0.8260 -0.3130
  648TMC3    C8 9600   3.990   4.296  16.155 -0.3931  0.3416  0.4169
  648TMC3    O1 9601   3.546   4.472  15.965  0.3888  0.8130 -0.7666
  648TMC3    O2 9602   4.076   4.303  16.240 -0.1268  0.4574 -0.2961
  649TMC3    C1 9603   2.246   0.501  12.647  0.5929  0.3627 -0.3086
  649TMC3    C2 9604   2.381   0.513  12.653 -0.2216 -0.1049  0.1351
  649TMC3    C3 9605   2.441   0.450  12.753 -0.5211 -0.3282  0.0475
  649TMC3    C4 9606   2.167   0.431  12.736  0.1322 -0.3344  0.4992
  649TMC3    C5 9607   2.242   0.355  12.822  0.2049  0.0694  0.1877
  649TMC3    C6 9608   2.376   0.362  12.831  0.7554  0.4645 -0.0735
  649TMC3     C 9609   2.180   0.544  12.531  0.3907  0.1343  0.1104
  649TMC3     O 9610   2.061   0.575  12.545 -0.3700 -0.0831 -0.3883
  649TMC3     H 9611   2.439   0.581  12.593  0.3172 -1.5008 -0.9115
  649TMC3    H1 9612   2.059   0.439  12.746  0.1954  0.2483  0.7055
  649TMC3    H2 9613   2.430   0.308  12.907 -0.9114 -0.7864  0.2271
  649TMC3    C7 9614   2.181   0.292  12.938  0.4068  0.3579 -0.6633
  649TMC3    C8 9615   2.573   0.483  12.793 -0.1882 -0.3738  0.5237
  649TMC3    O1 9616   2.076   0.339  12.973  0.7545  0.0518 -0.0693
  649TMC3    O2 9617   2.634   0.411  12.872 -0.2696  0.1725  0.1101
  650TMC3    C1 9618   0.288   2.421  12.802  0.0568  0.5405  0.1940
  650TMC3    C2 9619   0.341   2.528  12.858  0.1394  0.2036  0.3472
  650TMC3    C3 9620   0.250   2.629  12.895 -0.3363  0.0839  0.5262
  650TMC3    C4 9621   0.156   2.415  12.769 -0.1720 -1.4770  0.7888
  650TMC3    C5 9622   0.071   2.507  12.820  0.1787  0.1441  0.5334
  650TMC3    C6 9623   0.115   2.625  12.871  0.1699  0.6321 -0.1855
  650TMC3     C 9624   0.369   2.302  12.824  0.1224  0.2176 -0.5518
  650TMC3     O 9625   0.489   2.325  12.848 -0.3952  0.7332 -0.3559
  650TMC3     H 9626   0.448   2.545  12.854  0.1380  0.0461 -0.3414
  650TMC3    H1 9627   0.111   2.337  12.708  0.5006 -0.3568 -1.1213
  650TMC3    H2 9628   0.040   2.692  12.912 -0.1976  1.9987 -3.0895
  650TMC3    C7 9629   4.654   2.473  12.788  0.6862 -0.0842 -0.4221
  650TMC3    C8 9630   0.301   2.755  12.948  0.2409  0.6441  0.9565
  650TMC3    O1 9631   4.625   2.373  12.728  0.4776 -0.4196 -0.1216
  650TMC3    O2 9632   0.413   2.787  12.910  0.2485  0.9181  0.6692
  651MPD2     C 9633   4.123   4.249  11.382 -0.1114 -0.3458 -0.0356
  651MPD2    C1 9634   4.052   4.305  11.280 -0.4203 -0.1045 -0.2249
  651MPD2    C2 9635   4.113   4.340  11.164  0.6447 -0.0329  0.1504
  651MPD2    C3 9636   4.255   4.329  11.159  0.0496  0.4872  0.1521
  651MPD2    C4 9637   4.331   4.284  11.267  0.1023  0.2562 -0.3436
  651MPD2    C5 9638   4.260   4.239  11.373 -0.7000  0.7270  0.2299
  651MPD2     H 9639   4.053   4.388  11.088  1.5262  0.1641 -0.4270
  651MPD2    H1 9640   4.439   4.281  11.275  0.1748 -0.6010 -1.7170
  651MPD2    H2 9641   4.085   4.215  11.478  1.2199 -2.1363 -0.1449
  651MPD2    H3 9642   4.302   4.192  11.460 -1.7239  0.6292  0.6762
  651MPD2     N 9643   4.321   4.383  11.047 -0.1507  0.0321  0.8582
  651MPD2    H5 9644   4.268   4.444  10.986 -0.1897  1.0323  1.8645
  651MPD2    N1 9645   3.909   4.309  11.285  0.4015  0.2372  0.2999
  651MPD2    H7 9646   3.861   4.332  11.198 -1.7991  0.3084  1.5243
  652TMC3    C1 9647   4.652   4.548  10.779 -0.3435  0.1642  0.7313
  652TMC3    C2 9648   4.595   4.441  10.846 -0.0152  0.9533  0.0792
  652TMC3    C3 9649   4.485   4.467  10.921  0.3619  0.4089 -0.8230
  652TMC3    C4 9650   4.616   4.678  10.802 -0.3584 -0.0809  0.4304
  652TMC3    C5 9651   4.525   4.706  10.897  0.2297  0.2821  0.3736
  652TMC3    C6 9652   4.451   4.600  10.944  0.3708  0.1657 -0.2689
  652TMC3     C 9653   0.073   4.529  10.748  0.1509 -0.1364 -0.0643
  652TMC3     O 9654   0.128   4.432  10.800 -0.2647  0.2473 -0.5533
  652TMC3     H 9655   4.642   4.343  10.849 -1.7438  0.0610 -2.1864
  652TMC3    H1 9656   4.664   0.040  10.755  0.8692 -1.0979 -0.1662
  652TMC3    H2 9657   4.386   4.624  11.028 -1.4590 -0.6259 -1.4578
  652TMC3    C7 9658   4.585   0.062  11.002  0.5978 -0.2187 -0.4208
  652TMC3    C8 9659   4.461   4.380  11.030  0.2196  0.4095  0.2076
  652TMC3    O1 9660   4.552   0.031  11.115  0.1405  0.5364  0.3520
  652TMC3    O2 9661   4.546   4.294  11.055 -0.3212  0.5807  0.2016
  653MPD2     C 9662   2.737   4.132   0.186  0.4135 -0.6127 -0.3696
  653MPD2    C1 9663   2.703   4.224   0.091  0.6297  0.8276  0.2909
  653MPD2    C2 9664   2.645   4.191  17.669  0.5613 -0.3121 -0.1964
  653MPD2    C3 9665   2.619   4.057  17.636  0.5007  0.3352  0.1117
  653MPD2    C4 9666   2.656   3.967   0.042 -0.3801  0.1983 -0.1877
  653MPD2    C5 9667   2.713   4.005   0.160  0.0450 -0.2774  0.1900
  653MPD2     H 9668   2.616   4.265  17.596 -0.8403 -0.6508  0.0217
  653MPD2    H1 9669   2.630   3.863   0.031  1.3149 -0.2095 -0.2885
  653MPD2    H2 9670   2.782   4.159   0.281  0.1001 -0.6282 -0.2156
  653MPD2    H3 9671   2.737   3.929   0.234 -0.5991  0.2879  0.9851
  653MPD2     N 9672   2.566   4.022  17.514 -0.0558  0.0272 -0.3335
  653MPD2    H5 9673   2.551   4.095  17.446  0.5369 -0.1429 -0.6429
  653MPD2    N1 9674   2.720   4.363   0.122 -0.3908  0.0231  0.4635
  653MPD2    H7 9675   2.697   4.427   0.047  0.6414 -0.3333 -0.1594
  654TMC3    C1 9676   2.489   3.886  17.348 -0.3018  0.3979  0.4544
  654TMC3    C2 9677   2.421   3.987  17.289 -1.5016 -0.3710 -0.2254
  654TMC3    C3 9678   2.396   3.979  17.160 -0.3821 -0.0555  0.1088
  654TMC3    C4 9679   2.539   3.782  17.280  0.1208  0.0120  0.2678
  654TMC3    C5 9680   2.515   3.778  17.141 -0.4488  0.6249  0.4705
  654TMC3    C6 9681   2.443   3.877  17.081  0.4752  0.3111 -0.1637
  654TMC3     C 9682   2.530   3.890  17.485 -0.1938 -0.6662 -0.3263
  654TMC3     O 9683   2.560   3.785  17.537  0.2003  0.6578  0.1211
  654TMC3     H 9684   2.376   4.065  17.351 -0.5486  0.6813 -0.8613
  654TMC3    H1 9685   2.614   3.711  17.313 -1.1239 -0.5994  1.7420
  654TMC3    H2 9686   2.447   3.895  16.974 -0.9237 -0.5007 -0.3530
  654TMC3    C7 9687   2.566   3.680  17.051 -0.5372 -0.0375  0.7295
  654TMC3    C8 9688   2.324   4.088  17.100 -1.0220  0.0421  0.0782
  654TMC3    O1 9689   2.576   3.715  16.935  0.0399 -0.2438  0.2745
  654TMC3    O2 9690   2.300   4.182  17.174 -0.3440 -0.1291 -0.3195
  655MPD2     C 9691   3.967   4.493  15.789  0.4739  0.4894  0.0799
  655MPD2    C1 9692   3.857   4.570  15.762 -0.2067  0.4219 -0.1399
  655MPD2    C2 9693   3.789   4.545  15.639 -0.2071  0.0197 -0.1771
  655MPD2    C3 9694   3.836   4.450  15.544  0.2475 -0.3839  1.1724
  655MPD2    C4 9695   3.935   4.366  15.586  0.0125 -0.0376 -0.4563
  655MPD2    C5 9696   4.001   4.392  15.701 -0.1663  0.0606 -0.0884
  655MPD2     H 9697   3.710   4.614  15.611 -0.1159  0.9631  1.8772
  655MPD2    H1 9698   3.978   4.290  15.522  1.7411 -0.4355  1.1490
  655MPD2    H2 9699   4.025   4.522  15.876  0.2050 -2.8050  1.3634
  655MPD2    H3 9700   4.091   4.335  15.723 -1.0985 -1.2641  0.2947
  655MPD2     N 9701   3.777   4.427  15.422 -0.1247  0.2274  0.6040
  655MPD2    H5 9702   3.817   4.357  15.361 -0.2596 -0.5533  1.4054
  655MPD2    N1 9703   3.814   4.682  15.839 -0.0254  0.0704 -0.4999
  655MPD2    H7 9704   3.729   4.722  15.801  0.1945  0.6872 -0.3453
  656TMC3    C1 9705   3.792   0.103  16.031 -0.0095  0.1067 -0.0096
  656TMC3    C2 9706   3.778   0.100  16.165 -0.5443 -0.4469  0.5688
  656TMC3    C3 9707   3.708   0.201  16.223 -0.7709  0.0449  0.0401
  656TMC3    C4 9708   3.728   0.191  15.950  0.3124 -0.2079  0.4056
  656TMC3    C5 9709   3.651   0.282  16.017 -0.0988 -0.7806 -0.2065
  656TMC3    C6 9710   3.641   0.293  16.152  0.2012  0.2665 -0.1036
  656TMC3     C 9711   3.866   4.716  15.962 -0.0592 -0.4354 -0.5390
  656TMC3     O 9712   3.958   4.663  16.027  0.3509 -0.2346  0.6512
  656TMC3     H 9713   3.839   0.037  16.228 -2.3959 -2.1951  0.6074
  656TMC3    H1 9714   3.733   0.189  15.841  1.3698 -1.7728  0.4710
  656TMC3    H2 9715   3.571   0.362  16.197 -0.1887  0.9150 -1.6994
  656TMC3    C7 9716   3.563   0.364  15.938 -1.1256  0.2619  0.0878
  656TMC3    C8 9717   3.645   0.164  16.346 -0.3817 -0.5655 -0.0107
  656TMC3    O1 9718   3.602   0.423  15.839 -0.1817  0.3688 -0.1851
  656TMC3    O2 9719   3.614   0.048  16.366  0.0713 -0.2823  0.5124
  657TMC3    C1 9720   2.915   3.813  15.488  0.8313  0.2039  0.5107
  657TMC3    C2 9721   3.008   3.853  15.585 -0.3598 -0.6985 -0.8142
  657TMC3    C3 9722   2.960   3.884  15.708 -0.5228  0.3043 -0.2980
  657TMC3    C4 9723   2.786   3.781  15.518 -0.4861 -0.5601  0.2078
  657TMC3    C5 9724   2.747   3.820  15.637  0.4341  0.2259 -0.0201
  657TMC3    C6 9725   2.828   3.881  15.732  0.2953 -0.3878 -0.0345
  657TMC3     C 9726   2.957   3.760  15.361  0.3055 -0.9154  0.3096
  657TMC3     O 9727   2.876   3.690  15.302 -0.1056  0.2206  0.3361
  657TMC3     H 9728   3.115   3.862  15.565 -0.1768 -2.6614 -0.6903
  657TMC3    H1 9729   2.720   3.756  15.436  1.2918 -2.0305 -0.7878
  657TMC3    H2 9730   2.784   3.905  15.829  1.5605  0.1451  0.4065
  657TMC3    C7 9731   2.603   3.807  15.664 -0.0652  0.4558  0.1619
  657TMC3    C8 9732   3.043   3.906  15.818 -0.3114 -0.1934  0.0300
  657TMC3    O1 9733   2.551   3.898  15.728  0.0714  0.3775  0.7498
  657TMC3    O2 9734   2.992   3.925  15.925  0.1603  0.5007 -0.7591
  658MPD2     C 9735   4.022   4.384  14.842  0.7988  0.2843  1.1339
  658MPD2    C1 9736   3.890   4.415  14.812  0.1846 -0.8119  0.0597
  658MPD2    C2 9737   3.852   4.463  14.682 -0.5275 -0.3256 -0.0102
  658MPD2    C3 9738   3.952   4.478  14.586  0.4421 -0.3467 -0.7480
  658MPD2    C4 9739   4.079   4.441  14.621  0.4377 -0.5453 -0.9019
  658MPD2    C5 9740   4.111   4.397  14.744 -0.2950  0.2445  0.6912
  658MPD2     H 9741   3.748   4.484  14.661  0.0854  0.2071 -2.6358
  658MPD2    H1 9742   4.156   4.449  14.545  1.7334  0.9801  0.5701
  658MPD2    H2 9743   4.064   4.344  14.934 -0.9045 -1.2770  1.2333
  658MPD2    H3 9744   4.215   4.365  14.755 -0.1061  0.7726  0.4115
  658MPD2     N 9745   3.913   4.524  14.454  0.0051  0.6908  0.5704
  658MPD2    H5 9746   3.815   4.541  14.434  0.7052  1.4921 -2.1629
  658MPD2    N1 9747   3.804   4.395  14.926 -0.3856 -0.4924 -0.0080
  658MPD2    H7 9748   3.853   4.370  15.011 -1.1390  0.9733  0.8373
  659TMC3    C1 9749   3.600   4.359  15.045 -0.3207 -0.1217  0.4334
  659TMC3    C2 9750   3.670   4.389  15.163  0.0068 -0.1009 -0.4214
  659TMC3    C3 9751   3.600   4.405  15.272 -0.4453  0.1561  0.4183
  659TMC3    C4 9752   3.464   4.340  15.042 -0.2787 -0.2560 -0.1305
  659TMC3    C5 9753   3.398   4.339  15.161  0.0698 -0.0467 -0.1176
  659TMC3    C6 9754   3.470   4.378  15.279 -0.1547  0.0076 -0.2662
  659TMC3     C 9755   3.669   4.390  14.916  0.3513  1.0922 -0.4701
  659TMC3     O 9756   3.591   4.407  14.822 -0.0671  0.5215 -0.0881
  659TMC3     H 9757   3.779   4.396  15.164  0.0156 -0.5813  1.7038
  659TMC3    H1 9758   3.422   4.313  14.946  1.9979  0.9401 -1.4485
  659TMC3    H2 9759   3.421   4.402  15.373  1.3652  1.4824  0.1438
  659TMC3    C7 9760   3.256   4.306  15.162 -0.0480 -0.3452  0.0552
  659TMC3    C8 9761   3.657   4.479  15.379 -0.0184  0.1088 -0.3346
  659TMC3    O1 9762   3.194   4.368  15.248 -0.0104  0.1114  0.4537
  659TMC3    O2 9763   3.581   4.555  15.431 -0.5584 -0.7410  0.2095
  660MPD2     C 9764   1.966   3.421  12.842  0.4475  1.4502  0.6721
  660MPD2    C1 9765   1.828   3.416  12.843 -0.3123 -0.2943  0.5057
  660MPD2    C2 9766   1.757   3.370  12.955 -0.6937  0.2100 -0.1254
  660MPD2    C3 9767   1.836   3.337  13.073  0.6154  0.1417  0.0787
  660MPD2    C4 9768   1.972   3.340  13.061 -0.8744  0.3277  0.2071
  660MPD2    C5 9769   2.038   3.374  12.952 -0.9089 -0.3567  0.1378
  660MPD2     H 9770   1.649   3.367  12.959 -0.5727 -2.2431  1.1330
  660MPD2    H1 9771   2.037   3.311  13.143  1.3511  0.1077 -1.6180
  660MPD2    H2 9772   2.018   3.451  12.752  1.4777  1.8822  1.4219
  660MPD2    H3 9773   2.146   3.373  12.952 -0.8800  2.4254  3.0003
  660MPD2     N 9774   1.789   3.305  13.204  0.4439  0.0270  0.1597
  660MPD2    H5 9775   1.859   3.297  13.277 -0.5146  1.8866  1.2847
  660MPD2    N1 9776   1.762   3.464  12.727 -0.4902 -0.2317 -0.0395
  660MPD2    H7 9777   1.821   3.493  12.649 -0.3584  0.1820  0.2129
  661TMC3    C1 9778   1.579   3.499  12.576  0.1318 -0.1614 -0.0493
  661TMC3    C2 9779   1.658   3.459  12.472 -0.5311 -0.3748  0.4099
  661TMC3    C3 9780   1.608   3.477  12.347  0.0720  0.3044  0.0466
  661TMC3    C4 9781   1.461   3.565  12.553 -0.0088 -0.2716 -0.7039
  661TMC3    C5 9782   1.408   3.553  12.428 -0.0538  0.4561 -0.0514
  661TMC3    C6 9783   1.477   3.509  12.320 -0.4540  0.2436 -0.1479
  661TMC3     C 9784   1.627   3.467  12.710  0.1153  0.5063  0.3291
  661TMC3     O 9785   1.540   3.463  12.796 -0.7036 -0.7278  0.0745
  661TMC3     H 9786   1.753   3.412  12.494  0.4228  1.4450  0.0850
  661TMC3    H1 9787   1.409   3.609  12.638  1.0218  0.7864 -0.6138
  661TMC3    H2 9788   1.438   3.539  12.223 -1.4731 -2.2220 -0.4805
  661TMC3    C7 9789   1.266   3.574  12.425  0.6386 -0.2073  0.9545
  661TMC3    C8 9790   1.687   3.457  12.225  0.1289 -0.3256  0.0751
  661TMC3    O1 9791   1.222   3.620  12.532  0.1621  0.0377 -0.4936
  661TMC3    O2 9792   1.648   3.484  12.110 -0.0496  0.6616 -0.6058
  662MPD2     C 9793   2.276   3.244  17.596 -0.1798 -0.1638  0.1612
  662MPD2    C1 9794   2.168   3.158  17.605  1.0721 -0.2689 -0.3271
  662MPD2    C2 9795   2.044   3.212  17.636 -0.2274 -0.3397  0.3446
  662MPD2    C3 9796   2.022   3.341  17.669 -0.5796  0.4659 -0.1302
  662MPD2    C4 9797   2.132   3.423  17.660  0.2041  0.3935  0.5063
  662MPD2    C5 9798   2.254   3.377  17.622 -0.1035  0.3085 -0.0304
  662MPD2     H 9799   1.952   3.154  17.645 -0.0906 -1.0149 -2.5761
  662MPD2    H1 9800   2.120   3.527  17.690  1.9645  1.0802 -1.1783
  662MPD2    H2 9801   2.379   3.215  17.577  0.0450  0.5069  0.3498
  662MPD2    H3 9802   2.334   3.450  17.615  0.2658 -0.1925 -1.0586
  662MPD2     N 9803   1.893   3.392   0.012 -0.1208 -0.1851 -0.2515
  662MPD2    H5 9804   1.899   3.471   0.076  0.7024  0.4436 -1.1121
  662MPD2    N1 9805   2.176   3.020  17.592 -0.6739  0.2324 -0.6896
  662MPD2    H7 9806   2.110   2.963  17.644  0.0902 -0.2278 -0.2225
  663TMC3    C1 9807   2.267   2.814  17.526  0.4932  0.4307 -0.0246
  663TMC3    C2 9808   2.228   2.760  17.646  0.7888  0.5716  0.6373
  663TMC3    C3 9809   2.178   2.627  17.636 -0.2794  0.1865 -0.0097
  663TMC3    C4 9810   2.288   2.745  17.412  0.3993 -0.2741 -0.2014
  663TMC3    C5 9811   2.267   2.611  17.414 -0.3270  0.3117  0.6927
  663TMC3    C6 9812   2.216   2.549  17.525  0.0433  0.0498  0.6578
  663TMC3     C 9813   2.271   2.958  17.513  0.2174 -0.3425 -0.6280
  663TMC3     O 9814   2.350   3.010  17.432  0.3179 -0.1179 -0.1833
  663TMC3     H 9815   2.212   2.822   0.038  1.7864  0.9358  0.5596
  663TMC3    H1 9816   2.329   2.801  17.328 -1.3993 -1.5367 -1.9001
  663TMC3    H2 9817   2.181   2.447  17.515 -1.7120  0.8278 -1.1422
  663TMC3    C7 9818   2.273   2.543  17.285  0.2103  0.2407  0.4509
  663TMC3    C8 9819   2.158   2.544   0.056  0.2102  0.2994  0.3945
  663TMC3    O1 9820   2.291   2.615  17.187  0.1166  0.6878  0.1926
  663TMC3    O2 9821   2.167   2.420   0.047  0.5803 -0.2965 -0.0438
  664MPD2     C 9822   4.690   1.229   0.146  0.4900  0.0876 -0.2688
  664MPD2    C1 9823   4.710   1.356   0.191 -0.0708 -0.0238  0.6506
  664MPD2    C2 9824   0.012   1.363   0.326 -0.3684  0.7617  0.7675
  664MPD2    C3 9825   0.018   1.253   0.409  0.3917  0.0501  0.0345
  664MPD2    C4 9826   4.723   1.131   0.357 -0.3925 -1.1342 -0.4310
  664MPD2    C5 9827   4.695   1.121   0.228  0.1480  0.1450  0.4999
  664MPD2     H 9828   0.026   1.464   0.365  0.6063  1.2105 -0.7623
  664MPD2    H1 9829   4.712   1.040   0.414 -1.7144 -0.8253 -0.1852
  664MPD2    H2 9830   4.652   1.219   0.045  2.5682  1.7660 -1.2111
  664MPD2    H3 9831   4.683   1.023   0.183 -1.0611  2.2171 -3.6209
  664MPD2     N 9832   0.041   1.284   0.550  0.0074 -0.0442  0.0623
  664MPD2    H5 9833   0.065   1.377   0.582 -1.8669  1.1486 -2.0201
  664MPD2    N1 9834   4.721   1.472   0.107  0.6776 -0.4188  0.6330
  664MPD2    H7 9835   0.010   1.559   0.157  3.0255  0.4322 -1.4450
  665TMC3    C1 9836   0.072   1.240   0.784 -0.7654  0.5435  0.3595
  665TMC3    C2 9837   0.165   1.169   0.868  0.2058  0.9127  0.6010
  665TMC3    C3 9838   0.212   1.237   0.976  0.7060  0.1232  0.6897
  665TMC3    C4 9839   0.018   1.362   0.811 -0.3782 -0.6336  0.5163
  665TMC3    C5 9840   0.062   1.424   0.929  0.0214 -0.3374 -0.1187
  665TMC3    C6 9841   0.168   1.367   1.006  0.1138 -0.1770 -0.0861
  665TMC3     C 9842   0.050   1.191   0.650 -0.7791 -0.0094 -0.2772
  665TMC3     O 9843   0.048   1.068   0.633  0.1541 -0.6187  0.5795
  665TMC3     H 9844   0.202   1.072   0.838 -0.5115  1.7502 -2.8973
  665TMC3    H1 9845   4.664   1.397   0.743 -1.5078 -4.0332  0.0343
  665TMC3    H2 9846   0.197   1.425   1.094  0.3771  0.1417 -0.3842
  665TMC3    C7 9847   0.008   1.556   0.960  0.5998  0.4340 -0.3724
  665TMC3    C8 9848   0.324   1.195   1.057 -0.0956 -0.0761  0.2305
  665TMC3    O1 9849   4.633   1.590   0.898  0.4310  0.4623 -0.2390
  665TMC3    O2 9850   0.375   1.282   1.136 -0.1169 -0.0801 -0.3305
  666TMC3    C1 9851   4.480   0.621  10.113 -0.5343 -0.1626  0.2713
  666TMC3    C2 9852   4.598   0.651  10.180  0.4370 -0.1391  0.1477
  666TMC3    C3 9853   4.639   0.786  10.183  0.1962 -0.1941  0.8197
  666TMC3    C4 9854   4.414   0.717  10.042  0.4098 -0.1891  0.2819
  666TMC3    C5 9855   4.465   0.844  10.042 -0.3768  0.4559  0.8290
  666TMC3    C6 9856   4.570   0.882  10.119 -0.3473  0.1346  1.4611
  666TMC3     C 9857   4.439   0.484  10.122  0.7809  0.4099 -0.2700
  666TMC3     O 9858   4.503   0.414  10.201 -0.5281 -0.4178  0.4599
  666TMC3     H 9859   4.651   0.576  10.239  0.3850  0.4136  0.9008
  666TMC3    H1 9860   4.317   0.713   9.992  0.6543  2.0995 -0.4008
  666TMC3    H2 9861   4.584   0.988  10.140 -0.6642 -0.0914  2.7955
  666TMC3    C7 9862   4.387   0.951   9.993 -0.0414 -0.0849  0.3058
  666TMC3    C8 9863   0.019   0.820  10.286 -0.1635 -0.1389 -0.5589
  666TMC3    O1 9864   4.269   0.943  10.018  0.2088  0.2631  0.1921
  666TMC3    O2 9865   0.054   0.732  10.359  0.1558 -0.4129  0.1901
  667MPD2     C 9866   1.404   1.113  14.636 -0.0387 -0.1023 -0.7676
  667MPD2    C1 9867   1.347   1.234  14.678 -0.4437  0.0146  0.3347
  667MPD2    C2 9868   1.230   1.264  14.618  0.4584 -0.4262  0.2712
  667MPD2    C3 9869   1.173   1.202  14.508  0.5538 -0.1038  0.0663
  667MPD2    C4 9870   1.249   1.096  14.459 -0.0699 -0.4834 -0.0434
  667MPD2    C5 9871   1.364   1.056  14.521 -0.2212  0.0542  0.1169
  667MPD2     H 9872   1.180   1.357  14.642  2.6877  0.1511  2.5208
  667MPD2    H1 9873   1.224   1.040  14.370  1.2010  0.0550 -0.7363
  667MPD2    H2 9874   1.485   1.066  14.690  0.0855 -1.3246 -2.0336
  667MPD2    H3 9875   1.408   0.961  14.492 -1.8791 -0.2379 -1.4570
  667MPD2     N 9876   1.055   1.255  14.445 -0.4993  1.1316 -0.3186
  667MPD2    H5 9877   1.011   1.338  14.481  0.7279 -0.1470  4.1706
  667MPD2    N1 9878   1.396   1.307  14.787  0.0231  0.4691 -0.0579
  667MPD2    H7 9879   1.334   1.378  14.825  1.0311  1.7532 -0.8721
  668TMC3    C1 9880   1.535   1.401  14.937 -0.2282  0.8816 -0.2325
  668TMC3    C2 9881   1.605   1.507  14.908 -0.4195 -1.3361 -0.4205
  668TMC3    C3 9882   1.599   1.612  14.996 -0.4908 -0.3886 -0.1088
  668TMC3    C4 9883   1.438   1.392  15.035  0.5805  0.2313  0.1995
  668TMC3    C5 9884   1.432   1.497  15.121 -0.2167  0.8379  0.1377
  668TMC3    C6 9885   1.513   1.605  15.105  0.0838 -0.4137  0.1766
  668TMC3     C 9886   1.522   1.305  14.831 -0.3133  0.7682  0.1052
  668TMC3     O 9887   1.625   1.271  14.773  0.2809  0.5045 -0.4826
  668TMC3     H 9888   1.658   1.517  14.813  0.4847 -1.8363  0.0353
  668TMC3    H1 9889   1.376   1.306  15.053  1.1981 -0.4353 -0.9035
  668TMC3    H2 9890   1.506   1.688  15.175 -2.1550 -0.8501  0.4527
  668TMC3    C7 9891   1.333   1.499  15.228  0.0109  0.8684 -0.3275
  668TMC3    C8 9892   1.624   1.749  14.943 -0.0169 -0.4182 -0.0189
  668TMC3    O1 9893   1.351   1.567  15.327  0.0858  0.0478  0.1557
  668TMC3    O2 9894   1.545   1.829  14.990  0.1161  1.1261  0.4565
  669TMC3    C1 9895   3.546   1.068  14.786  0.3311 -0.2712 -0.0904
  669TMC3    C2 9896   3.457   1.035  14.685 -0.0388  0.3880 -0.0895
  669TMC3    C3 9897   3.479   1.099  14.566  0.2272  0.4212 -0.1470
  669TMC3    C4 9898   3.662   1.138  14.763 -0.1608  0.5502  0.1719
  669TMC3    C5 9899   3.669   1.197  14.637 -0.1423 -0.0523  0.5123
  669TMC3    C6 9900   3.582   1.185  14.533 -0.1653 -0.7917 -0.0578
  669TMC3     C 9901   3.548   0.995  14.907  0.1001  0.3316  0.2955
  669TMC3     O 9902   3.559   1.060  15.010  0.0079 -0.1917 -0.1400
  669TMC3     H 9903   3.367   0.977  14.699 -0.1419  0.3266 -0.9939
  669TMC3    H1 9904   3.726   1.164  14.846  0.7690  0.1883 -0.4284
  669TMC3    H2 9905   3.588   1.215  14.428 -0.0011 -2.3198 -0.4880
  669TMC3    C7 9906   3.802   1.230  14.587 -0.1837 -0.0446 -0.3987
  669TMC3    C8 9907   3.384   1.068  14.461  0.3135 -0.1505 -0.1753
  669TMC3    O1 9908   3.833   1.349  14.571  0.1704 -0.5258  0.2317
  669TMC3    O2 9909   3.417   1.055  14.343  0.2643 -0.5833  0.5104
  670MPD2     C 9910   2.305   4.074  13.867 -0.0224  0.4013 -0.6337
  670MPD2    C1 9911   2.431   4.117  13.916  0.4664 -0.2468 -1.2409
  670MPD2    C2 9912   2.452   4.125  14.047  0.7956 -0.5576  0.5547
  670MPD2    C3 9913   2.350   4.095  14.137 -0.1969 -0.4930  0.4023
  670MPD2    C4 9914   2.232   4.043  14.090 -0.9893 -0.2139 -0.7069
  670MPD2    C5 9915   2.212   4.036  13.957  0.0060 -0.1413  0.5415
  670MPD2     H 9916   2.547   4.157  14.090  1.0782 -0.7318  0.0640
  670MPD2    H1 9917   2.146   4.014  14.149 -0.4082 -0.5794 -0.0501
  670MPD2    H2 9918   2.275   4.080  13.763 -0.9283  1.9894 -0.2710
  670MPD2    H3 9919   2.108   4.018  13.933  0.2398  0.1272 -0.6624
  670MPD2     N 9920   2.377   4.084  14.280  0.2606 -0.5721  0.3061
  670MPD2    H5 9921   2.466   4.123  14.309 -0.8710  1.6302  0.8701
  670MPD2    N1 9922   2.542   4.143  13.831 -0.8232 -0.3333  0.7889
  670MPD2    H7 9923   2.616   4.182  13.889 -2.1844 -0.0605  2.3321
  671TMC3    C1 9924   2.355   3.981  14.496 -0.2597  1.1461  0.1890
  671TMC3    C2 9925   2.483   3.938  14.475  0.2587  0.3320  0.6297
  671TMC3    C3 9926   2.527   3.832  14.543 -0.6851  0.4067 -0.4254
  671TMC3    C4 9927   2.262   3.912  14.574  0.5322 -0.1050 -0.1553
  671TMC3    C5 9928   2.317   3.805  14.643  1.0678 -0.3015  0.9918
  671TMC3    C6 9929   2.446   3.763  14.628  0.2096  0.0036  0.1681
  671TMC3     C 9930   2.293   4.024  14.373 -0.1488  0.5699  0.5567
  671TMC3     O 9931   2.176   3.996  14.360  0.1508  0.2576 -0.1431
  671TMC3     H 9932   2.546   3.964  14.391  1.8170 -0.7774  1.4398
  671TMC3    H1 9933   2.157   3.939  14.583  0.5106 -0.0967 -0.4288
  671TMC3    H2 9934   2.491   3.674  14.669  2.4800  1.7424  1.4597
  671TMC3    C7 9935   2.224   3.700  14.686 -0.4935 -0.0370 -0.3325
  671TMC3    C8 9936   2.599   3.738  14.452 -0.3586 -0.0918 -0.5772
  671TMC3    O1 9937   2.114   3.718  14.637 -0.1105  0.1711  0.3182
  671TMC3    O2 9938   2.545   3.632  14.428  0.9765 -0.0459  0.2037
  672MPD2     C 9939   2.129   3.645   1.110  0.0057  0.3945 -0.3062
  672MPD2    C1 9940   2.265   3.667   1.094  0.0184 -0.2998 -0.2307
  672MPD2    C2 9941   2.334   3.740   1.184 -0.3487 -0.2023  0.0708
  672MPD2    C3 9942   2.265   3.782   1.296  0.7633  1.3041 -0.4166
  672MPD2    C4 9943   2.130   3.760   1.315 -0.4882 -0.0494  0.1833
  672MPD2    C5 9944   2.062   3.688   1.219 -0.8807  0.0145  0.1906
  672MPD2     H 9945   2.442   3.752   1.172  0.2082 -2.1353  3.0730
  672MPD2    H1 9946   2.080   3.785   1.408 -2.9950 -1.7125 -0.7357
  672MPD2    H2 9947   2.077   3.569   1.052 -0.4651  0.8291 -0.4501
  672MPD2    H3 9948   1.960   3.653   1.228 -0.9504  0.0525 -0.4719
  672MPD2     N 9949   2.346   3.872   1.379 -0.2940 -0.3126  0.0024
  672MPD2    H5 9950   2.439   3.880   1.340  0.4953  0.1487  1.9951
  672MPD2    N1 9951   2.333   3.630   0.975  0.3796 -0.2956  0.0728
  672MPD2    H7 9952   2.430   3.661   0.970 -0.1869  1.0520 -2.3896
  673TMC3    C1 9953   2.390   3.521   0.770  0.4103  0.4801  0.0885
  673TMC3    C2 9954   2.403   3.399   0.722 -0.6762  0.1731 -0.1236
  673TMC3    C3 9955   2.518   3.371   0.648  0.5357  0.0668  0.3198
  673TMC3    C4 9956   2.473   3.627   0.737  0.1659  0.0293 -0.2573
  673TMC3    C5 9957   2.583   3.593   0.657 -1.4405 -0.2363  0.8625
  673TMC3    C6 9958   2.608   3.464   0.624  0.3398  0.8101 -0.7784
  673TMC3     C 9959   2.294   3.555   0.864 -0.4327 -0.5369  0.1221
  673TMC3     O 9960   2.192   3.490   0.842  0.3108  0.3911 -0.1776
  673TMC3     H 9961   2.330   3.321   0.741 -3.2199  2.5413 -0.1267
  673TMC3    H1 9962   2.458   3.728   0.772 -1.3288 -0.6711  1.1091
  673TMC3    H2 9963   2.695   3.431   0.568  1.1171  1.4977  0.0233
  673TMC3    C7 9964   2.692   3.685   0.633  0.0198  0.5100  0.8122
  673TMC3    C8 9965   2.566   3.236   0.651  0.0581 -0.5786 -1.0470
  673TMC3    O1 9966   2.788   3.650   0.566  0.6381  0.6608 -0.4033
  673TMC3    O2 9967   2.626   3.205   0.549 -0.0547 -0.0047 -0.3231
  674MPD2     C 9968   2.454   3.768   0.355  0.4943  0.3930 -0.3237
  674MPD2    C1 9969   2.361   3.669   0.380  0.3120 -0.1262  0.0990
  674MPD2    C2 9970   2.267   3.697   0.479  0.4609 -0.1229 -0.6127
  674MPD2    C3 9971   2.257   3.822   0.534 -0.5782 -0.2453  0.3474
  674MPD2    C4 9972   2.353   3.914   0.514  0.6126  0.2496  0.2738
  674MPD2    C5 9973   2.457   3.887   0.428  0.4050 -0.1999 -0.0785
  674MPD2     H 9974   2.199   3.617   0.506 -1.7358  1.5133 -1.2652
  674MPD2    H1 9975   2.343   4.012   0.560  1.7552  0.6123 -0.2563
  674MPD2    H2 9976   2.534   3.747   0.285 -0.6106 -1.8409 -0.9194
  674MPD2    H3 9977   2.524   3.970   0.407  1.3536 -0.8368  0.4635
  674MPD2     N 9978   2.144   3.849   0.617 -0.1156  0.2408  0.4560
  674MPD2    H5 9979   2.069   3.782   0.599  0.2413 -0.1100  0.2503
  674MPD2    N1 9980   2.372   3.548   0.305 -0.0926 -0.2799  0.3298
  674MPD2    H7 9981   2.429   3.539   0.222 -0.5170  2.3163 -0.2209
  675TMC3    C1 9982   2.327   3.324   0.249  0.1211  0.5108  0.1917
  675TMC3    C2 9983   2.271   3.206   0.287 -0.2599  0.4214  0.0922
  675TMC3    C3 9984   2.313   3.094   0.226 -0.1184  1.2590 -0.1291
  675TMC3    C4 9985   2.445   3.327   0.180 -0.8951  0.0142  0.1186
  675TMC3    C5 9986   2.492   3.211   0.136  0.1131  0.6061  0.0816
  675TMC3    C6 9987   2.423   3.093   0.152 -1.2508  0.0398 -0.4740
  675TMC3     C 9988   2.290   3.441   0.327  0.8015 -0.1106  0.1036
  675TMC3     O 9989   2.205   3.421   0.413 -0.1358 -0.5949  0.0129
  675TMC3     H 9990   2.171   3.200   0.329 -0.7629  1.6441 -0.9542
  675TMC3    H1 9991   2.499   3.417   0.156 -0.1945 -0.4460 -0.0228
  675TMC3    H2 9992   2.463   3.001   0.113 -1.6273  0.2108 -1.2726
  675TMC3    C7 9993   2.625   3.206   0.083 -0.0536  0.6406 -0.0998
  675TMC3    C8 9994   2.283   2.968   0.299 -0.6016  0.5168 -0.2711
  675TMC3    O1 9995   2.660   3.293   0.002 -1.0451 -0.4443  0.5473
  675TMC3    O2 9996   2.318   2.865   0.244 -0.1252 -0.0352 -0.3790
  676MPD2     C 9997   4.497   2.074  11.181 -0.2199  0.3592 -0.1558
  676MPD2    C1 9998   4.449   1.983  11.273 -0.4717  0.7491  0.6303
  676MPD2    C2 9999   4.458   1.844  11.244 -0.0346  0.4302 -0.6838
  676MPD2    C310000   4.495   1.793  11.124 -0.4926 -0.4519  0.4928
  676MPD2    C410001   4.543   1.886  11.031  0.1185  0.0513  0.1236
  676MPD2    C510002   4.546   2.020  11.066  0.3458 -0.3518 -0.0653
  676MPD2     H10003   4.427   1.782  11.327  0.1852 -0.7785 -1.5114
  676MPD2    H110004   4.580   1.853  10.935  1.3151  0.3873  0.4677
  676MPD2    H210005   4.515   2.181  11.190 -1.6745  0.4314  1.9349
  676MPD2    H310006   4.566   2.095  10.990 -0.9916  0.6640  0.5893
  676MPD2     N10007   4.484   1.653  11.097  0.3287  0.0712 -0.1571
  676MPD2    H510008   4.532   1.623  11.014  2.1767  3.4527 -0.2984
  676MPD2    N110009   4.394   2.026  11.398 -0.3572  0.0003 -0.6202
  676MPD2    H710010   4.363   1.955  11.464  1.0863 -0.1997 -0.1622
  677TMC3    C110011   4.264   2.177  11.527 -0.2553 -0.0472 -0.2046
  677TMC3    C210012   4.177   2.078  11.552 -0.6979  0.2628  0.2756
  677TMC3    C310013   4.071   2.104  11.634  0.2488  0.2117  0.4947
  677TMC3    C410014   4.241   2.308  11.560 -0.1662 -0.4795  0.1007
  677TMC3    C510015   4.136   2.329  11.644 -0.5206  0.1913 -0.5285
  677TMC3    C610016   4.047   2.230  11.676 -0.6053 -0.7630  0.3946
  677TMC3     C10017   4.376   2.158  11.431 -0.2809  0.4171 -1.0245
  677TMC3     O10018   4.437   2.257  11.397  0.1590 -0.4533 -0.0467
  677TMC3     H10019   4.195   1.971  11.548 -1.0337  0.1696  1.1652
  677TMC3    H110020   4.312   2.389  11.545 -1.1453 -0.1806 -2.9396
  677TMC3    H210021   3.975   2.249  11.755 -0.5373  1.7298 -0.1584
  677TMC3    C710022   4.129   2.458  11.723 -0.3581  0.5824  0.2831
  677TMC3    C810023   4.008   1.981  11.686 -0.1349 -0.3653 -0.3952
  677TMC3    O110024   4.052   2.451  11.821  0.0889 -0.1940  0.0433
  677TMC3    O210025   3.962   1.906  11.604  0.6228  0.2776 -0.3284
  678MPD2     C10026   1.493   2.269   1.951 -0.2825  0.1652 -0.2408
  678MPD2    C110027   1.547   2.212   1.839  0.0915  0.7485  0.4838
  678MPD2    C210028   1.461   2.132   1.764 -0.1165 -0.3699 -0.4301
  678MPD2    C310029   1.331   2.123   1.799 -0.4391 -0.9384 -0.3220
  678MPD2    C410030   1.285   2.171   1.914 -0.5133 -0.3709 -0.9875
  678MPD2    C510031   1.364   2.248   1.987 -0.6172  0.0509  0.4769
  678MPD2     H10032   1.497   2.095   1.669 -1.8644  0.3655 -1.3912
  678MPD2    H110033   1.186   2.154   1.955 -0.7549 -0.3511 -1.5640
  678MPD2    H210034   1.555   2.323   2.022 -0.4553  0.2937 -0.1873
  678MPD2    H310035   1.329   2.304   2.074 -1.4272  1.3970 -0.7080
  678MPD2     N10036   1.236   2.073   1.705  0.2510 -0.6354 -0.2921
  678MPD2    H510037   1.266   2.042   1.613  1.1153  0.7477 -0.4703
  678MPD2    N110038   1.676   2.233   1.795  0.0440  0.1065 -0.4240
  678MPD2    H710039   1.714   2.173   1.722  0.0329  2.2618 -2.1850
  679TMC3    C110040   2.052   2.238   1.627 -0.0785  0.4718  0.2774
  679TMC3    C210041   1.950   2.231   1.716 -0.6935  0.1723 -0.6441
  679TMC3    C310042   1.881   2.343   1.757  0.0349  0.3761 -0.1036
  679TMC3    C410043   2.073   2.354   1.564  0.3373  0.1407 -0.1539
  679TMC3    C510044   2.011   2.468   1.608  0.6178 -0.1594 -0.1961
  679TMC3    C610045   1.911   2.461   1.704 -0.1586 -0.5099  0.5686
  679TMC3     C10046   2.144   2.125   1.611 -0.0818  0.3235 -0.4287
  679TMC3     O10047   2.102   2.027   1.672 -0.5153  0.3216 -0.1289
  679TMC3     H10048   1.923   2.138   1.764  0.7828  0.5758  0.9689
  679TMC3    H110049   2.143   2.369   1.483  1.0309  0.3524  0.4899
  679TMC3    H210050   1.870   2.554   1.743  1.3908  0.3365  0.1704
  679TMC3    C710051   2.007   2.578   1.517  0.3917  0.1925  0.5318
  679TMC3    C810052   1.758   2.337   1.838  0.7053 -0.4416 -0.4180
  679TMC3    O110053   2.047   2.554   1.401 -0.5136  0.4617  0.8427
  679TMC3    O210054   1.720   2.448   1.886 -0.5259  0.5161  0.5042
  680MPD2     C10055   2.004   0.766  13.543 -0.6984  0.6448 -0.1936
  680MPD2    C110056   2.070   0.698  13.642  0.0763  0.2322  0.4890
  680MPD2    C210057   2.190   0.744  13.689  1.1510 -0.1570  0.6533
  680MPD2    C310058   2.237   0.865  13.644 -0.3790 -0.2088  0.5694
  680MPD2    C410059   2.167   0.939  13.550  0.2764  0.2026  0.4432
  680MPD2    C510060   2.055   0.886  13.500 -0.3431  0.1088  0.2679
  680MPD2     H10061   2.254   0.687  13.755  0.9470  0.7630  1.6453
  680MPD2    H110062   2.204   1.038  13.523  1.5441  0.3875  2.8120
  680MPD2    H210063   1.910   0.728  13.503 -0.4303  1.4625 -1.6175
  680MPD2    H310064   2.010   0.952  13.426 -1.7716  1.3684  2.2559
  680MPD2     N10065   2.348   0.929  13.705  0.2469  0.0026 -0.2036
  680MPD2    H510066   2.336   1.029  13.690  2.1586  0.0003 -1.6913
  680MPD2    N110067   2.024   0.572  13.685  0.3921 -0.3282 -0.8194
  680MPD2    H710068   2.093   0.520  13.738 -0.2909 -0.2035  0.1960
  681TMC3    C110069   1.903   0.372  13.686 -0.7184 -0.1466 -0.7190
  681TMC3    C210070   1.931   0.330  13.814  0.2976  0.7794  0.5493
  681TMC3    C310071   1.940   0.194  13.835 -0.9538  0.1861 -0.1694
  681TMC3    C410072   1.898   0.290  13.582 -0.3649 -0.1449 -0.5098
  681TMC3    C510073   1.911   0.153  13.602  0.4314  0.1068  0.7023
  681TMC3    C610074   1.926   0.109  13.730  0.0511  0.1184  0.2057
  681TMC3     C10075   1.899   0.513  13.658 -0.1266 -0.2782  0.2863
  681TMC3     O10076   1.803   0.552  13.592 -0.9017 -0.4372 -0.7808
  681TMC3     H10077   1.957   0.406  13.886  0.4656  2.9248 -1.8063
  681TMC3    H110078   1.864   0.334  13.489 -1.0403  1.1312  0.3475
  681TMC3    H210079   1.950   0.005  13.750 -1.2094 -0.4329 -1.1439
  681TMC3    C710080   1.925   0.066  13.489  0.3334  0.6428 -0.1319
  681TMC3    C810081   1.999   0.134  13.950 -0.5887  0.5604 -1.0898
  681TMC3    O110082   1.892   4.673  13.511 -0.5008 -0.5636 -0.6083
  681TMC3    O210083   2.044   0.022  13.942  0.2016  0.1785  0.2842
  682MPD2     C10084   3.908   1.862  10.737  0.2852  0.3312  0.6361
  682MPD2    C110085   3.813   1.763  10.711  0.0239  0.2482  0.6605
  682MPD2    C210086   3.736   1.719  10.818  0.0857  0.1245  0.2888
  682MPD2    C310087   3.734   1.782  10.938 -0.6116 -0.3072 -0.3287
  682MPD2    C410088   3.830   1.879  10.966 -0.3440 -0.1479 -0.6173
  682MPD2    C510089   3.918   1.911  10.865 -0.1573  0.0066 -0.0488
  682MPD2     H10090   3.668   1.642  10.783  1.9151 -1.3755  0.0539
  682MPD2    H110091   3.833   1.933  11.060 -0.9730  1.5722 -1.5740
  682MPD2    H210092   3.988   1.886  10.667  0.3668 -0.9320  0.2915
  682MPD2    H310093   3.995   1.984  10.888 -1.7963  1.6932  0.0785
  682MPD2     N10094   3.634   1.756  11.034  0.4432 -0.9410  0.5517
  682MPD2    H510095   3.626   1.821  11.112 -0.9415 -0.2526 -0.1725
  682MPD2    N110096   3.797   1.698  10.588  0.0887 -0.2142 -0.3016
  682MPD2    H710097   3.736   1.616  10.590  1.5764 -1.2888  2.0064
  683TMC3    C110098   3.460   1.622  11.359  0.8405  0.2595 -0.5687
  683TMC3    C210099   3.337   1.555  11.352  0.6205 -0.5318 -0.1223
  683TMC3    C310100   3.280   1.532  11.232 -0.0115 -0.1526  0.8328
  683TMC3    C410101   3.519   1.675  11.253 -0.4356  0.4527 -0.0160
  683TMC3    C510102   3.452   1.657  11.135 -0.1414  0.1367  0.3205
  683TMC3    C610103   3.332   1.589  11.123 -0.3184 -0.8983  0.1189
  683TMC3     C10104   3.496   1.678  11.486 -0.1066 -0.2843  0.8091
  683TMC3     O10105   3.525   1.796  11.479 -0.7200 -0.0120 -0.4303
  683TMC3     H10106   3.303   1.514  11.446 -1.3722  0.1872 -0.5386
  683TMC3    H110107   3.616   1.723  11.265 -0.1953  0.3991 -1.7145
  683TMC3    H210108   3.289   1.575  11.025 -0.8633  1.2185  0.0591
  683TMC3    C710109   3.520   1.680  11.011  0.2241  0.1246  0.8125
  683TMC3    C810110   3.213   1.404  11.206 -0.6281 -0.2881 -0.1816
  683TMC3    O110111   3.484   1.627  10.906  0.1440  0.0842 -0.3789
  683TMC3    O210112   3.202   1.363  11.093  0.5293  0.2044  0.4279
  684MPD2     C10113   2.324   2.096  16.017 -0.5930 -0.4398 -0.8210
  684MPD2    C110114   2.392   2.145  15.906  0.2931  0.0851 -0.5155
  684MPD2    C210115   2.401   2.278  15.884 -0.2776 -0.7288  0.8674
  684MPD2    C310116   2.347   2.372  15.973  0.3349 -0.3014  0.3231
  684MPD2    C410117   2.288   2.322  16.085 -0.2178  0.1365 -0.4432
  684MPD2    C510118   2.264   2.191  16.100 -0.2342  0.5382  0.3581
  684MPD2     H10119   2.446   2.316  15.792 -0.1122  2.5209  2.2917
  684MPD2    H110120   2.242   2.399  16.146 -2.3833 -0.7336 -0.9699
  684MPD2    H210121   2.314   1.989  16.031 -0.5413 -0.3074  0.2045
  684MPD2    H310122   2.197   2.160  16.180  0.0231  1.5206  0.9576
  684MPD2     N10123   2.353   2.511  15.951  0.1742 -0.0779  0.3737
  684MPD2    H510124   2.298   2.571  16.012 -1.9401 -1.2438 -0.3956
  684MPD2    N110125   2.454   2.043  15.826  0.5161  0.1297  0.0081
  684MPD2    H710126   2.426   1.949  15.852 -0.7003  1.0106  1.8295
  685TMC3    C110127   2.585   1.948  15.671 -0.4144  0.0398 -0.4850
  685TMC3    C210128   2.486   1.854  15.661 -0.5849 -1.0185  0.6830
  685TMC3    C310129   2.522   1.725  15.632 -0.2734  0.0417 -0.8290
  685TMC3    C410130   2.719   1.916  15.657  0.2072  0.7826 -1.0227
  685TMC3    C510131   2.749   1.786  15.614 -0.1771 -0.2304 -0.4149
  685TMC3    C610132   2.650   1.690  15.601 -0.9278  0.5804  0.1906
  685TMC3     C10133   2.540   2.070  15.729  0.7914  0.0468  0.6876
  685TMC3     O10134   2.601   2.173  15.701 -0.3637  0.1474 -0.1144
  685TMC3     H10135   2.381   1.879  15.662  0.0981  1.7275  2.3390
  685TMC3    H110136   2.793   1.988  15.688 -0.7038  0.7072  1.3114
  685TMC3    H210137   2.667   1.584  15.591 -0.1633  0.8661 -1.4700
  685TMC3    C710138   2.878   1.731  15.657 -0.1377 -0.0314 -0.0958
  685TMC3    C810139   2.419   1.627  15.623  0.4700 -0.6857  0.6378
  685TMC3    O110140   2.883   1.613  15.678 -0.6070 -0.3859  0.8157
  685TMC3    O210141   2.444   1.534  15.546 -0.3647 -0.3537  0.3316
  686MPD2     C10142   4.021   1.745  15.749  0.6144 -0.2378  0.1375
  686MPD2    C110143   4.049   1.612  15.736 -0.0736  0.6173  0.1079
  686MPD2    C210144   4.172   1.566  15.695  0.7196  0.2394 -0.5287
  686MPD2    C310145   4.280   1.665  15.673  1.2554 -0.2165  0.0323
  686MPD2    C410146   4.245   1.788  15.693 -0.1600 -0.3403 -0.5736
  686MPD2    C510147   4.119   1.834  15.729 -0.0064  0.3839  0.7659
  686MPD2     H10148   4.197   1.461  15.692 -1.5307 -0.3423  1.3212
  686MPD2    H110149   4.326   1.859  15.683 -1.6691  1.5815  0.9155
  686MPD2    H210150   3.918   1.776  15.763  0.9511  0.1681  1.6161
  686MPD2    H310151   4.093   1.938  15.715 -1.3603  0.0817  1.0483
  686MPD2     N10152   4.412   1.643  15.629  0.6599 -0.2907 -0.4041
  686MPD2    H510153   4.457   1.733  15.611 -1.1917  0.7047 -0.0475
  686MPD2    N110154   3.946   1.527  15.769 -0.0913  0.3044  0.4602
  686MPD2    H710155   3.855   1.568  15.791  0.2433 -0.1641  2.6825
  687TMC3    C110156   4.425   1.401  15.634  0.6406 -0.4196  0.1111
  687TMC3    C210157   4.368   1.323  15.538  0.2230 -0.1790  0.6558
  687TMC3    C310158   4.335   1.197  15.578  0.2446 -0.4474 -0.1257
  687TMC3    C410159   4.481   1.343  15.741  0.2854  0.0123  0.3192
  687TMC3    C510160   4.466   1.213  15.771  0.1529  0.5596 -0.0258
  687TMC3    C610161   4.399   1.132  15.686 -0.1406  0.3091  0.2871
  687TMC3     C10162   4.485   1.529  15.591  0.3648  0.3634  0.0331
  687TMC3     O10163   4.592   1.528  15.534 -0.0646 -0.6141 -0.0734
  687TMC3     H10164   4.333   1.365  15.444  1.7651  1.5796  0.8645
  687TMC3    H110165   4.530   1.412  15.808  2.0139 -1.0261  0.1100
  687TMC3    H210166   4.378   1.029  15.713  0.5577 -0.4091 -1.8761
  687TMC3    C710167   4.559   1.160  15.865  0.2272  0.4875  0.3150
  687TMC3    C810168   4.223   1.131  15.508  0.1819 -0.2418 -0.0839
  687TMC3    O110169   4.674   1.209  15.879  0.2020  0.4047 -0.2394
  687TMC3    O210170   4.211   1.008  15.520 -0.0714 -0.6381 -0.0327
  688MPD2     C10171   3.050   0.415  17.628 -0.1584 -0.7536 -0.6214
  688MPD2    C110172   3.064   0.278  17.630  0.1731 -1.5697  0.4219
  688MPD2    C210173   3.167   0.219  17.553  0.4608 -0.2688  0.6503
  688MPD2    C310174   3.254   0.306  17.479 -0.5210 -0.4647  0.4766
  688MPD2    C410175   3.241   0.446  17.486 -0.1968  0.0111 -0.5405
  688MPD2    C510176   3.132   0.496  17.551  0.0857  0.6802 -0.6391
  688MPD2     H10177   3.173   0.111  17.548  1.6502 -0.0639 -2.0344
  688MPD2    H110178   3.299   0.519  17.431  0.3264  0.1542  0.1966
  688MPD2    H210179   2.971   0.452  17.693  0.9805  1.9280 -0.7640
  688MPD2    H310180   3.115   0.603  17.544  1.0358  0.9269  0.8834
  688MPD2     N10181   3.354   0.257  17.389  0.4207 -0.3392 -0.2291
  688MPD2    H510182   3.406   0.326  17.336  1.1916 -2.3053 -2.0333
  688MPD2    N110183   2.973   0.207   0.014  0.0135  0.8466  0.2090
  688MPD2    H710184   2.901   0.260   0.062  1.1523  0.5402  2.2667
  689TMC3    C110185   2.880   0.017   0.143 -0.4560 -0.5963  0.9207
  689TMC3    C210186   2.865   0.092   0.259  0.8075  0.0535 -0.2198
  689TMC3    C310187   2.816   0.031   0.371 -0.5164  0.7835 -0.0409
  689TMC3    C410188   2.852   4.611   0.143  0.6925  0.4078  0.8066
  689TMC3    C510189   2.787   4.555   0.253 -0.4115  0.2921 -0.2855
  689TMC3    C610190   2.763   4.624   0.369  0.2325 -0.3082 -0.2984
  689TMC3     C10191   2.978   0.066   0.038 -0.0814  0.1758 -0.0504
  689TMC3     O10192   3.050   4.706  17.677 -0.2539  0.5948 -0.1369
  689TMC3     H10193   2.919   0.186   0.271 -1.5096  1.0897  2.0221
  689TMC3    H110194   2.876   4.553   0.055 -3.3211 -0.7584  0.5029
  689TMC3    H210195   2.703   4.578   0.447  1.6624 -1.1128  0.3433
  689TMC3    C710196   2.735   4.419   0.246  0.2913 -0.5470  0.6273
  689TMC3    C810197   2.756   0.110   0.476  0.5309  0.2860 -0.0424
  689TMC3    O110198   2.720   4.368   0.352  0.8227  0.0682  0.9176
  689TMC3    O210199   2.722   0.056   0.579  0.1331 -0.2912 -0.3448
  690MPD2     C10200   0.536   2.319  15.813  0.1567 -0.0913  0.2713
  690MPD2    C110201   0.536   2.288  15.678 -0.0284 -0.4196 -0.3500
  690MPD2    C210202   0.646   2.317  15.601  0.3753 -0.1422  0.5784
  690MPD2    C310203   0.756   2.394  15.656  0.7232  0.2736  0.6768
  690MPD2    C410204   0.755   2.415  15.790 -0.6068  0.1912  0.0810
  690MPD2    C510205   0.653   2.369  15.869 -0.2678 -0.6971  0.4748
  690MPD2     H10206   0.646   2.294  15.496 -2.2413 -1.3438  0.8425
  690MPD2    H110207   0.830   2.471  15.846 -0.8220  0.6711 -0.1165
  690MPD2    H210208   0.459   2.280  15.879  0.4251 -1.1903 -0.0598
  690MPD2    H310209   0.649   2.393  15.974  0.0939 -0.5846  0.4629
  690MPD2     N10210   0.860   2.450  15.574  0.4216  0.5472  0.3794
  690MPD2    H510211   0.863   2.419  15.477 -1.2628  2.4038 -0.2580
  690MPD2    N110212   0.424   2.207  15.623  0.2207 -0.5462  0.3761
  690MPD2    H710213   0.432   2.152  15.538 -0.4979  0.1405 -0.1375
  691TMC3    C110214   0.231   2.075  15.628 -0.1553  0.1504 -0.0867
  691TMC3    C210215   0.095   2.077  15.636  0.2917  0.0258 -0.2177
  691TMC3    C310216   0.023   1.962  15.633  0.5708  0.3980 -0.1214
  691TMC3    C410217   0.296   1.957  15.604 -0.8677 -0.5530 -0.2797
  691TMC3    C510218   0.221   1.847  15.585 -0.3295  0.0235 -0.0091
  691TMC3    C610219   0.082   1.847  15.593  0.6922  0.8021  0.0850
  691TMC3     C10220   0.297   2.188  15.675 -0.4138  0.0264 -0.2755
  691TMC3     O10221   0.239   2.256  15.762 -0.5736 -0.6732 -0.3505
  691TMC3     H10222   0.040   2.166  15.662  1.2872  1.6962 -3.8163
  691TMC3    H110223   0.404   1.949  15.601 -1.0069 -3.3695  2.5746
  691TMC3    H210224   0.021   1.758  15.585  0.4647  0.7872  1.9965
  691TMC3    C710225   0.301   1.719  15.558 -0.2708  0.4413  0.1059
  691TMC3    C810226   4.601   1.973  15.600  0.0035 -0.2474  0.3974
  691TMC3    O110227   0.416   1.711  15.592 -0.3042 -0.5453  0.1392
  691TMC3    O210228   4.539   1.877  15.559 -0.2430  0.2157  0.2035
  692TMC3    C110229   1.506   3.617  15.664  0.0093  0.4483 -0.6499
  692TMC3    C210230   1.622   3.679  15.633  0.3263  0.0263 -0.0782
  692TMC3    C310231   1.736   3.607  15.612  0.2227 -0.0866 -0.5786
  692TMC3    C410232   1.486   3.485  15.661  0.5666 -0.4527  0.6929
  692TMC3    C510233   1.602   3.408  15.633  0.0961 -0.1214  0.2896
  692TMC3    C610234   1.725   3.470  15.624 -0.3832  0.4980 -0.6764
  692TMC3     C10235   1.420   3.689  15.760 -0.4849 -0.0358  0.3105
  692TMC3     O10236   1.379   3.626  15.858 -0.6127 -0.2240  0.4875
  692TMC3     H10237   1.634   3.785  15.653  2.2219 -0.0759 -0.6864
  692TMC3    H110238   1.390   3.451  15.697 -0.7796  0.7729 -1.7351
  692TMC3    H210239   1.811   3.422  15.579  0.6168 -1.2353  3.1127
  692TMC3    C710240   1.590   3.265  15.649 -0.4941 -0.3908  1.0650
  692TMC3    C810241   1.847   3.672  15.675 -0.8893 -0.3098  0.4752
  692TMC3    O110242   1.476   3.217  15.661 -0.8265  0.1009  0.7469
  692TMC3    O210243   1.868   3.792  15.648 -0.6680 -0.9213 -0.8067
  693MPD2     C10244   1.064   1.717  11.275  0.8902 -0.0970  0.0952
  693MPD2    C110245   1.035   1.649  11.162 -0.0619  0.4576  0.2408
  693MPD2    C210246   1.136   1.604  11.078  0.4260  0.6062  0.4716
  693MPD2    C310247   1.267   1.623  11.111  0.6142  0.3314 -0.2857
  693MPD2    C410248   1.292   1.705  11.221  0.5498 -0.4256 -0.5037
  693MPD2    C510249   1.192   1.752  11.297  0.1076  0.1525 -0.2737
  693MPD2     H10250   1.106   1.552  10.987 -3.4064  0.4039  1.8214
  693MPD2    H110251   1.390   1.718  11.267  0.1923 -2.5426  0.8767
  693MPD2    H210252   0.995   1.756  11.349 -0.2690  0.0866 -1.0979
  693MPD2    H310253   1.205   1.798  11.395  1.6822 -2.2557  0.6465
  693MPD2     N10254   1.372   1.559  11.045  0.4800  0.3275 -0.1771
  693MPD2    H510255   1.463   1.554  11.090 -0.9750 -2.8670  2.4498
  693MPD2    N110256   0.899   1.611  11.140  0.2910 -0.1729  0.1987
  693MPD2    H710257   0.829   1.637  11.209 -0.1490 -0.0634 -0.2943
  694TMC3    C110258   0.750   1.423  11.118 -0.6431 -0.8116 -0.5838
  694TMC3    C210259   0.734   1.311  11.040 -0.7890  0.3670 -0.1193
  694TMC3    C310260   0.698   1.195  11.108 -0.0202 -0.5102 -0.4455
  694TMC3    C410261   0.759   1.419  11.259  0.4671 -0.3619  0.3225
  694TMC3    C510262   0.726   1.299  11.319 -0.1597  0.3059 -0.1512
  694TMC3    C610263   0.688   1.190  11.245 -0.7108 -0.1974  0.3524
  694TMC3     C10264   0.847   1.514  11.052  0.1268  0.0024 -0.0387
  694TMC3     O10265   0.876   1.496  10.939 -0.0680 -0.2533  0.1562
  694TMC3     H10266   0.744   1.333  10.934  2.6110 -2.5441 -0.3850
  694TMC3    H110267   0.808   1.497  11.317  1.6055 -2.3879  2.1147
  694TMC3    H210268   0.672   1.097  11.298 -0.6746 -0.2365  0.2941
  694TMC3    C710269   0.758   1.287  11.464 -0.2574 -0.4332  0.8502
  694TMC3    C810270   0.683   1.065  11.041  0.5956  0.7602  0.1269
  694TMC3    O110271   0.761   1.392  11.527  0.5592 -0.1190  0.3055
  694TMC3    O210272   0.653   0.975  11.120 -0.0045 -0.9293 -0.2154
  695MPD2     C10273   2.255   3.028  13.728  0.2036 -0.0810  0.1849
  695MPD2    C110274   2.297   3.044  13.857 -0.3017 -1.0725 -0.1335
  695MPD2    C210275   2.210   3.080  13.961  0.3388 -0.0657  0.4033
  695MPD2    C310276   2.076   3.108  13.926  0.0693 -0.4413 -0.4060
  695MPD2    C410277   2.035   3.094  13.794 -0.4191  0.2638  0.1802
  695MPD2    C510278   2.130   3.056  13.694 -0.2756  0.4545 -0.1085
  695MPD2     H10279   2.235   3.086  14.066 -1.5528  0.3379  0.8370
  695MPD2    H110280   1.935   3.102  13.752  0.1083 -2.8604 -1.7260
  695MPD2    H210281   2.329   3.004  13.652  0.8631  1.0773  0.4527
  695MPD2    H310282   2.094   3.028  13.596  1.1741  0.8332 -0.7596
  695MPD2     N10283   1.988   3.134  14.032  0.0579 -0.3219  0.0678
  695MPD2    H510284   2.028   3.145  14.124 -0.9750  2.3397  0.2000
  695MPD2    N110285   2.426   3.040  13.897  0.4577  0.2460 -0.2496
  695MPD2    H710286   2.438   3.045  13.998 -0.8064 -1.6001 -0.0151
  696TMC3    C110287   1.791   3.224  14.132 -0.0101 -1.0000 -0.3152
  696TMC3    C210288   1.857   3.243  14.246  0.0025  0.1765  0.6583
  696TMC3    C310289   1.809   3.335  14.342  0.0953 -0.9163  0.1809
  696TMC3    C410290   1.677   3.297  14.107 -0.0034 -0.3222  0.0149
  696TMC3    C510291   1.636   3.392  14.201 -0.4264  0.4089  0.2279
  696TMC3    C610292   1.699   3.408  14.325 -0.2259 -0.1591  0.6772
  696TMC3     C10293   1.858   3.157  14.016  0.2023 -0.7525 -0.6352
  696TMC3     O10294   1.786   3.142  13.917 -0.2977  0.1046  0.5258
  696TMC3     H10295   1.951   3.196  14.270  0.7703  1.2721 -0.1994
  696TMC3    H110296   1.627   3.284  14.012 -1.6004  3.6339  0.3346
  696TMC3    H210297   1.682   3.478  14.406  2.6868 -0.3317  1.4508
  696TMC3    C710298   1.542   3.489  14.154  0.3809 -0.6483 -0.0927
  696TMC3    C810299   1.886   3.373  14.452 -0.8868  0.1943 -0.9157
  696TMC3    O110300   1.474   3.463  14.056  0.6138 -0.2178 -0.1652
  696TMC3    O210301   1.878   3.494  14.480  0.4777  0.0717  0.0831
  697MPD2     C10302   1.473   4.559  15.636  0.7211 -0.5873  1.3550
  697MPD2    C110303   1.396   4.583  15.519  0.3384 -0.1278 -0.2165
  697MPD2    C210304   1.435   4.685  15.431  0.2734  0.2710  0.4268
  697MPD2    C310305   1.533   0.052  15.460 -0.5417  0.5307  0.3531
  697MPD2    C410306   1.606   0.027  15.578 -0.0256 -0.1481 -0.4514
  697MPD2    C510307   1.577   4.644  15.659  0.1256  0.1726  0.0623
  697MPD2     H10308   1.371   4.706  15.345  1.1411  0.9918 -0.0502
  697MPD2    H110309   1.692   0.081  15.616  1.0956 -2.8551  0.8674
  697MPD2    H210310   1.454   4.479  15.707 -1.3317 -0.8386  0.5280
  697MPD2    H310311   1.636   4.635  15.749  0.5265  0.3031 -0.1891
  697MPD2     N10312   1.556   0.168  15.383 -0.2923  0.3397 -0.1087
  697MPD2    H510313   1.475   0.198  15.330 -0.0098  1.8489  0.3167
  697MPD2    N110314   1.288   4.503  15.485 -0.0591 -1.1419 -0.3083
  697MPD2    H710315   1.262   4.498  15.388  0.3948  2.9565 -0.6594
  698TMC3    C110316   1.666   0.383  15.336 -0.2803  0.5708  0.1605
  698TMC3    C210317   1.730   0.476  15.407 -0.3371 -0.0455 -0.3952
  698TMC3    C310318   1.699   0.602  15.370  0.5292 -0.7380 -0.3642
  698TMC3    C410319   1.594   0.403  15.228  0.6172 -0.2425  0.2810
  698TMC3    C510320   1.581   0.534  15.181  0.6902  0.0775  0.4572
  698TMC3    C610321   1.630   0.637  15.256 -0.5541  0.0716  0.2778
  698TMC3     C10322   1.678   0.243  15.387  0.1943  0.0943 -0.0633
  698TMC3     O10323   1.785   0.229  15.446  0.0564 -0.2698  0.3163
  698TMC3     H10324   1.801   0.450  15.485 -1.5759  1.2259  1.1535
  698TMC3    H110325   1.559   0.315  15.176 -0.6586  0.0468  0.6573
  698TMC3    H210326   1.588   0.734  15.233  0.4531  0.4293 -0.0548
  698TMC3    C710327   1.497   0.558  15.058  0.5303 -0.2945  0.0797
  698TMC3    C810328   1.781   0.705  15.422  0.2279 -0.7988  0.0584
  698TMC3    O110329   1.477   0.465  14.981 -0.1896 -0.0689 -0.1704
  698TMC3    O210330   1.831   0.677  15.531 -0.1897 -0.5583 -0.1109
  699TMC3    C110331   1.626   3.224  13.356  0.0765  0.3403  0.2802
  699TMC3    C210332   1.714   3.128  13.413  0.2214  0.0842 -0.7602
  699TMC3    C310333   1.661   3.035  13.493 -0.5252 -0.3886 -0.2983
  699TMC3    C410334   1.493   3.232  13.397  0.1537 -0.0946 -0.5232
  699TMC3    C510335   1.449   3.136  13.484 -0.9890 -0.3973  0.2285
  699TMC3    C610336   1.529   3.035  13.527 -0.2017  0.2789 -0.6944
  699TMC3     C10337   1.658   3.287  13.228  0.1393  1.0072 -0.6179
  699TMC3     O10338   1.572   3.308  13.150  0.0360 -0.1353 -0.3006
  699TMC3     H10339   1.820   3.131  13.388  0.8031 -0.4050  1.6334
  699TMC3    H110340   1.433   3.308  13.348 -0.6988  0.5353  1.5295
  699TMC3    H210341   1.491   2.981  13.614  0.5163  0.9129  0.0027
  699TMC3    C710342   1.310   3.120  13.505  0.7960 -0.3930  0.1785
  699TMC3    C810343   1.740   2.919  13.546 -0.8161  0.4457 -0.9735
  699TMC3    O110344   1.273   3.011  13.549 -0.8049  0.0500  0.5804
  699TMC3    O210345   1.678   2.868  13.636 -0.8180 -0.5673 -0.0963
  700TMC3    C110346   1.105   0.900  17.137  0.5505  0.0246  0.1247
  700TMC3    C210347   1.128   0.768  17.160 -0.3099  0.0494 -0.2008
  700TMC3    C310348   1.216   0.728  17.256  0.0128 -0.3394 -0.4254
  700TMC3    C410349   1.169   0.993  17.209  0.2917  0.3343 -0.0018
  700TMC3    C510350   1.251   0.951  17.312 -0.4318  1.0098 -0.0604
  700TMC3    C610351   1.287   0.823  17.329 -0.3734 -0.2450 -0.1099
  700TMC3     C10352   1.033   0.938  17.016  0.1983 -0.8125  0.1972
  700TMC3     O10353   0.973   0.840  16.965 -0.3425  0.3925  0.1613
  700TMC3     H10354   1.059   0.697  17.116  0.7956 -1.4993  0.5827
  700TMC3    H110355   1.176   1.097  17.180  1.1124  0.3480  0.2505
  700TMC3    H210356   1.347   0.783  17.410 -1.5619 -1.7032  0.0624
  700TMC3    C710357   1.293   1.048  17.411  0.2418  0.2660  0.4475
  700TMC3    C810358   1.287   0.605  17.235 -0.4986  0.5294  0.1002
  700TMC3    O110359   1.387   1.024  17.487 -0.1962 -0.1283 -0.1085
  700TMC3    O210360   1.385   0.580  17.303  0.5981  0.6017 -0.2757
  701TMC3    C110361   0.666   4.011  15.657  0.3024 -0.0939  0.4859
  701TMC3    C210362   0.738   3.922  15.575 -0.2070 -0.1390  0.2245
  701TMC3    C310363   0.784   3.962  15.457 -0.2027 -0.7022 -0.3603
  701TMC3    C410364   0.649   4.144  15.624  0.4238  0.0646 -0.2397
  701TMC3    C510365   0.709   4.186  15.509 -0.6661  0.6404 -0.3473
  701TMC3    C610366   0.777   4.089  15.423 -0.0478  0.2946  0.0320
  701TMC3     C10367   0.577   3.963  15.759  0.0945 -0.3719  0.1402
  701TMC3     O10368   0.534   4.043  15.838  0.7444  0.5692  0.3746
  701TMC3     H10369   0.745   3.819  15.609  0.1083 -0.1696  0.0698
  701TMC3    H110370   0.598   4.213  15.690  1.0268 -0.3777  0.6831
  701TMC3    H210371   0.824   4.125  15.333 -1.6576  0.1938 -0.8423
  701TMC3    C710372   0.746   4.324  15.491 -0.0775 -0.0167  0.1059
  701TMC3    C810373   0.865   3.869  15.375  0.0194 -0.1280 -0.0991
  701TMC3    O110374   0.766   4.371  15.378 -0.0609  0.0948  0.1931
  701TMC3    O210375   0.932   3.780  15.426 -0.2767  0.7264 -0.6989
  702MPD2     C10376   4.346   1.155  10.521  0.3535 -0.4772 -0.4376
  702MPD2    C110377   4.426   1.257  10.568  0.6597  0.2283  0.2398
  702MPD2    C210378   4.520   1.313  10.482 -0.0405  0.3054  0.6793
  702MPD2    C310379   4.526   1.273  10.349 -0.2100 -0.2152  0.0670
  702MPD2    C410380   4.444   1.174  10.305  0.8983 -0.1231  0.2332
  702MPD2    C510381   4.358   1.113  10.396 -0.5623  0.2532  0.4588
  702MPD2     H10382   4.587   1.386  10.525  1.5152 -1.4433  1.2397
  702MPD2    H110383   4.452   1.143  10.201  0.6737  0.7784 -0.0537
  702MPD2    H210384   4.264   1.109  10.574  0.3790  2.0564  1.8558
  702MPD2    H310385   4.303   1.030  10.353 -0.3292 -0.5572  1.7478
  702MPD2     N10386   4.601   1.338  10.246  0.4333  0.6582  0.7236
  702MPD2    H510387   4.586   1.303  10.152 -0.8797  0.1773  1.1056
  702MPD2    N110388   4.425   1.305  10.704 -0.5233 -0.0993 -0.0411
  702MPD2    H710389   4.498   1.370  10.732  0.8743 -1.3546 -0.7833
  703TMC3    C110390   4.598   1.563  10.334  0.4188 -0.1328  0.3457
  703TMC3    C210391   4.463   1.591  10.330 -0.0330 -0.4253  0.3069
  703TMC3    C310392   4.420   1.707  10.391 -0.4611  0.3241  1.0815
  703TMC3    C410393   4.688   1.656  10.377  0.3170  0.6778  0.1351
  703TMC3    C510394   4.643   1.772  10.441  0.0246 -0.3271  0.1983
  703TMC3    C610395   4.507   1.797  10.442  0.1190  0.1381 -0.9495
  703TMC3     C10396   4.666   1.458  10.259 -0.1834 -0.4494 -0.3697
  703TMC3     O10397   0.022   1.502  10.174  0.0256 -0.0397  0.0612
  703TMC3     H10398   4.399   1.521  10.276 -1.6392  0.3495  1.2027
  703TMC3    H110399   0.070   1.630  10.371  0.3480  1.0989 -1.1705
  703TMC3    H210400   4.467   1.895  10.466  2.1318  0.5223  0.8328
  703TMC3    C710401   0.019   1.864  10.490 -0.3829 -0.6077  0.5431
  703TMC3    C810402   4.294   1.701  10.463 -0.0915  0.3174  0.2169
  703TMC3    O110403   0.133   1.856  10.445 -0.7503 -0.2840  0.2549
  703TMC3    O210404   4.271   1.789  10.545  0.0577  0.1479 -0.3743
  704TMC3    C110405   2.534   4.415  12.328 -0.6334  0.0596 -0.2543
  704TMC3    C210406   2.658   4.476  12.346  0.0091 -0.1565 -0.1316
  704TMC3    C310407   2.706   4.491  12.472 -0.2422  0.6809 -0.2624
  704TMC3    C410408   2.475   4.353  12.434  0.4249  0.5209 -0.2107
  704TMC3    C510409   2.532   4.364  12.562 -0.1493  0.8937 -0.2059
  704TMC3    C610410   2.642   4.438  12.581 -0.5768 -0.2415  0.4636
  704TMC3     C10411   2.457   4.411  12.205  0.3023  0.0961 -0.2907
  704TMC3     O10412   2.346   4.376  12.233  0.3128 -0.1133  0.4088
  704TMC3     H10413   2.712   4.529  12.268  0.1489 -0.1159 -0.0085
  704TMC3    H110414   2.393   4.284  12.417  1.5590 -1.0670  0.6797
  704TMC3    H210415   2.700   4.439  12.673 -0.9289 -1.1431  0.6944
  704TMC3    C710416   2.551   4.236  12.619  0.0183  0.0530  0.6169
  704TMC3    C810417   2.845   4.511  12.480 -0.4465 -0.5161 -0.0177
  704TMC3    O110418   2.666   4.208  12.641 -0.8521  0.0242 -0.4782
  704TMC3    O210419   2.908   4.449  12.389 -0.1842 -0.1187 -0.2415
  705MPD2     C10420   2.367   3.053  16.873 -0.5437 -0.5121 -0.0455
  705MPD2    C110421   2.356   3.187  16.835 -0.5742  0.7129  0.4639
  705MPD2    C210422   2.276   3.273  16.909  0.1604  0.1001  0.5177
  705MPD2    C310423   2.208   3.229  17.020 -0.1184  0.2148  0.0340
  705MPD2    C410424   2.218   3.097  17.058 -0.6323  0.4561 -0.8723
  705MPD2    C510425   2.305   3.016  16.992 -0.2271  0.5311  0.0556
  705MPD2     H10426   2.264   3.377  16.880  3.7723 -0.4711 -3.0833
  705MPD2    H110427   2.178   3.048  17.146  0.3053 -0.1165 -0.7636
  705MPD2    H210428   2.425   2.980  16.819  0.5781 -0.8767  1.6480
  705MPD2    H310429   2.322   2.910  17.011 -0.5901  0.4476 -0.0924
  705MPD2     N10430   2.122   3.311  17.091 -0.6327 -0.7765 -0.6280
  705MPD2    H510431   2.059   3.269  17.158 -0.4003  0.4173  0.3253
  705MPD2    N110432   2.417   3.242  16.719  0.2779 -0.0976  0.4812
  705MPD2    H710433   2.397   3.342  16.710 -2.6026 -0.6589  0.7544
  706TMC3    C110434   2.716   3.287  16.372 -0.5355 -0.1258  1.0180
  706TMC3    C210435   2.673   3.408  16.327  0.5137 -0.2105  0.3380
  706TMC3    C310436   2.571   3.457  16.407  0.0291 -0.0208  0.4480
  706TMC3    C410437   2.651   3.206  16.466  0.2389  0.0793 -0.3221
  706TMC3    C510438   2.544   3.259  16.527  0.2955 -0.1769 -0.4815
  706TMC3    C610439   2.502   3.390  16.508 -0.0005 -0.1516  0.0558
  706TMC3     C10440   2.853   3.238  16.341  0.0984 -0.0693 -0.4699
  706TMC3     O10441   2.900   3.156  16.417 -0.4457  0.4768 -0.0619
  706TMC3     H10442   2.729   3.459  16.250  1.2129 -2.3181 -0.5447
  706TMC3    H110443   2.692   3.108  16.488  0.8860  0.7811  1.5430
  706TMC3    H210444   2.409   3.422  16.553 -0.2813 -1.0205  0.0954
  706TMC3    C710445   2.493   3.174  16.627  0.2979  0.8400 -0.1639
  706TMC3    C810446   2.518   3.585  16.361 -0.3337 -0.6937  0.3584
  706TMC3    O110447   2.508   3.055  16.621  0.2689  0.3663  0.3419
  706TMC3    O210448   2.540   3.619  16.249  0.0466 -0.2833 -0.0807
  707TMC3    C110449   0.498   1.986   2.176  0.1382 -0.2833 -0.5677
  707TMC3    C210450   0.630   1.941   2.177  0.4598  0.1711  0.0087
  707TMC3    C310451   0.690   1.917   2.294 -0.0444 -0.2439  0.6101
  707TMC3    C410452   0.430   1.989   2.295 -0.4282  0.3211  0.1295
  707TMC3    C510453   0.499   1.972   2.414  0.4824 -0.1709 -0.1407
  707TMC3    C610454   0.626   1.934   2.414 -0.8904  0.0831  0.1870
  707TMC3     C10455   0.427   1.943   2.058  0.1852 -0.1659 -0.2515
  707TMC3     O10456   0.491   1.866   1.983  0.4462 -0.4810 -0.2268
  707TMC3     H10457   0.679   1.927   2.082  3.0787 -1.0866  1.5434
  707TMC3    H110458   0.322   2.003   2.301 -0.5077 -0.8343  1.5250
  707TMC3    H210459   0.674   1.910   2.508 -0.3570 -0.4071 -0.2158
  707TMC3    C710460   0.428   1.982   2.543 -0.8181 -0.2020  0.0680
  707TMC3    C810461   0.785   1.809   2.300  0.1725  0.1759  0.2250
  707TMC3    O110462   0.471   1.903   2.632  0.1351  0.1250  0.0705
  707TMC3    O210463   0.852   1.817   2.401  0.3758 -0.6003  0.9538
  708MPD2     C10464   0.972   1.589  13.674  0.5441 -1.0435  0.0004
  708MPD2    C110465   0.982   1.453  13.654  0.2495 -0.4598  0.3553
  708MPD2    C210466   1.096   1.390  13.699  0.7461  0.5664  0.0144
  708MPD2    C310467   1.194   1.449  13.778 -0.4146  0.1311  0.2933
  708MPD2    C410468   1.167   1.583  13.810 -0.4560  0.0108 -0.0962
  708MPD2    C510469   1.062   1.652  13.759 -0.4830  0.2968 -0.1172
  708MPD2     H10470   1.107   1.287  13.667 -0.3338  1.6146 -3.6622
  708MPD2    H110471   1.237   1.638  13.872 -1.3153 -0.0973  0.9746
  708MPD2    H210472   0.894   1.658  13.644  1.9823  0.1651 -0.9637
  708MPD2    H310473   1.046   1.756  13.784  0.7365  0.7828 -1.3912
  708MPD2     N10474   1.309   1.384  13.824  0.4976 -0.0251 -0.0350
  708MPD2    H510475   1.362   1.435  13.895  2.0456 -1.2192 -0.3346
  708MPD2    N110476   0.876   1.378  13.607  0.2943  0.6331  0.3008
  708MPD2    H710477   0.899   1.280  13.595  1.2427  0.7241  1.3078
  709TMC3    C110478   0.658   1.308  13.587  0.3751  0.5254  0.3512
  709TMC3    C210479   0.553   1.297  13.503  0.0107  0.0674 -0.2838
  709TMC3    C310480   0.482   1.176  13.502  0.0923 -0.0436 -0.1764
  709TMC3    C410481   0.697   1.201  13.665 -0.3684 -0.3507 -0.1593
  709TMC3    C510482   0.634   1.082  13.656 -0.2195  0.1343 -0.0635
  709TMC3    C610483   0.523   1.071  13.582 -0.4974 -0.0350 -0.6671
  709TMC3     C10484   0.747   1.421  13.575  0.5608 -0.0897 -0.6488
  709TMC3     O10485   0.698   1.530  13.546  0.4782  0.0368 -0.1065
  709TMC3     H10486   0.513   1.383  13.451  0.3646 -0.6937 -1.8313
  709TMC3    H110487   0.768   1.214  13.745 -0.3250  3.8811 -0.8831
  709TMC3    H210488   0.466   0.979  13.578 -0.5452 -0.0049 -0.6889
  709TMC3    C710489   0.677   0.968  13.732  0.9106 -0.2227  0.0150
  709TMC3    C810490   0.342   1.167  13.474  0.1028 -0.2575 -0.0057
  709TMC3    O110491   0.597   0.877  13.751 -0.6968 -0.5272  0.1426
  709TMC3    O210492   0.271   1.128  13.563  0.1851  0.0291  0.0020
  710TMC3    C110493   1.756   3.098   0.815  0.4419  0.3617 -0.1878
  710TMC3    C210494   1.804   3.049   0.700  0.4660  0.5261 -0.1021
  710TMC3    C310495   1.875   2.932   0.711  0.3372 -0.9851  0.1670
  710TMC3    C410496   1.791   3.049   0.939 -0.5658 -1.0663 -0.4016
  710TMC3    C510497   1.888   2.954   0.936 -0.4643 -0.8616 -0.4773
  710TMC3    C610498   1.926   2.891   0.826 -0.1970 -0.5315 -0.4148
  710TMC3     C10499   1.638   3.186   0.804  0.4491 -0.0576 -0.2607
  710TMC3     O10500   1.556   3.174   0.709 -0.0877  0.0346 -0.5944
  710TMC3     H10501   1.764   3.084   0.606 -1.9514  1.6858  1.3526
  710TMC3    H110502   1.731   3.065   1.028 -0.4320 -0.2474 -0.4625
  710TMC3    H210503   1.991   2.806   0.838  0.9758  0.1815 -1.6871
  710TMC3    C710504   1.940   2.906   1.064  0.1725 -0.4755 -0.0122
  710TMC3    C810505   1.920   2.856   0.592 -0.1638  0.1102 -0.6134
  710TMC3    O110506   1.990   2.794   1.070 -0.3204  0.3988  0.4739
  710TMC3    O210507   1.896   2.907   0.480  0.2992  0.4213  0.3303
  711TMC3    C110508   1.560   3.663  15.048 -0.4602  0.1805  0.1875
  711TMC3    C210509   1.605   3.789  15.074  0.1087  0.1543 -0.0106
  711TMC3    C310510   1.680   3.806  15.187  0.1810  0.2013 -0.1279
  711TMC3    C410511   1.609   3.557  15.121 -0.8190 -0.6455  0.0053
  711TMC3    C510512   1.697   3.576  15.226 -0.0901  0.3105 -0.3189
  711TMC3    C610513   1.732   3.703  15.263  0.1441  0.0693 -0.0136
  711TMC3     C10514   1.472   3.618  14.939  0.6969  0.9210 -0.3027
  711TMC3     O10515   1.422   3.507  14.951 -0.0543 -0.2288  0.1893
  711TMC3     H10516   1.560   3.871  15.019  0.9998  1.4947  1.2928
  711TMC3    H110517   1.593   3.457  15.083 -0.4007 -0.2892 -1.1156
  711TMC3    H210518   1.789   3.716  15.354  1.8360 -1.3625 -0.8681
  711TMC3    C710519   1.776   3.465  15.270  0.1183 -0.8684 -0.4603
  711TMC3    C810520   1.727   3.941  15.192  0.0054  0.5594  0.1797
  711TMC3    O110521   1.885   3.492  15.323 -0.3109  0.2866 -0.3789
  711TMC3    O210522   1.712   4.011  15.089  0.5583 -0.7892 -0.1030
  712MPD2     C10523   2.953   4.275  13.291 -0.3452  0.4434  0.0713
  712MPD2    C110524   2.831   4.311  13.336 -0.8019  0.5053 -0.3416
  712MPD2    C210525   2.809   4.443  13.366  0.0650 -0.2307  0.7448
  712MPD2    C310526   2.916   4.529  13.383 -0.2014 -0.4697 -0.3208
  712MPD2    C410527   3.042   4.488  13.351  0.3848  0.0344  0.3360
  712MPD2    C510528   3.051   4.360  13.306 -0.0898 -0.2134 -0.0483
  712MPD2     H10529   2.707   4.476  13.372  0.7167  1.8327  0.2833
  712MPD2    H110530   3.133   4.547  13.351  0.4692 -0.1066 -0.6833
  712MPD2    H210531   2.967   4.175  13.251  0.8837 -0.7207  3.4090
  712MPD2    H310532   3.150   4.319  13.290 -0.7237 -0.7370 -2.6653
  712MPD2     N10533   2.902   4.671  13.410 -0.4802  0.3863 -0.3692
  712MPD2    H510534   2.980   0.008  13.389  1.2499 -2.2296 -1.5392
  712MPD2    N110535   2.713   4.238  13.311 -0.0090 -0.0455  0.0767
  712MPD2    H710536   2.622   4.266  13.347  0.6153  1.4934  0.4602
  713TMC3    C110537   2.784   0.147  13.449 -0.4447 -0.7348 -0.2182
  713TMC3    C210538   2.899   0.223  13.440  0.0283 -0.4840 -0.0746
  713TMC3    C310539   2.879   0.361  13.441  0.3873 -0.4071 -0.0454
  713TMC3    C410540   2.662   0.210  13.440 -0.5766 -0.3708  0.3450
  713TMC3    C510541   2.650   0.343  13.423 -0.8439 -0.3058 -0.0977
  713TMC3    C610542   2.761   0.429  13.432  0.3610  0.1399 -0.2581
  713TMC3     C10543   2.785   0.002  13.455  1.0763 -0.1285 -0.3107
  713TMC3     O10544   2.680   4.675  13.490  0.0071 -0.3664  0.1710
  713TMC3     H10545   2.995   0.173  13.428  0.1739 -0.4774  1.0502
  713TMC3    H110546   2.567   0.158  13.445 -0.0214 -1.3046  1.1988
  713TMC3    H210547   2.763   0.537  13.439 -1.3480  0.3548 -3.3932
  713TMC3    C710548   2.537   0.391  13.339  0.1369 -0.4924  0.8694
  713TMC3    C810549   3.001   0.439  13.409  0.2936 -0.5162 -0.6542
  713TMC3    O110550   2.440   0.318  13.325 -0.3088 -0.8080  0.1196
  713TMC3    O210551   2.987   0.539  13.342 -0.2029 -0.5671 -0.3978
  714MPD2     C10552   0.842   3.861   1.423  0.1826 -0.3559 -0.4751
  714MPD2    C110553   0.747   3.774   1.466  0.1534  0.9425  0.4032
  714MPD2    C210554   0.615   3.810   1.438 -0.2824  0.5333 -0.1230
  714MPD2    C310555   0.581   3.922   1.363 -0.2767  1.0055 -0.7611
  714MPD2    C410556   0.683   3.999   1.310  0.3478 -0.3645 -0.1915
  714MPD2    C510557   0.811   3.970   1.345 -0.3231  0.1387  0.2930
  714MPD2     H10558   0.536   3.744   1.472 -1.4345  2.8979  1.8427
  714MPD2    H110559   0.684   4.082   1.239  1.1496  1.2652  1.7407
  714MPD2    H210560   0.945   3.843   1.451 -0.1229 -3.0388 -1.1428
  714MPD2    H310561   0.892   4.023   1.295  0.8001 -1.4272  0.4605
  714MPD2     N10562   0.446   3.954   1.333 -0.3674 -0.2462  0.2010
  714MPD2    H510563   0.425   4.041   1.285 -0.0095 -0.9198 -1.2060
  714MPD2    N110564   0.783   3.665   1.545 -0.1720  0.5050  0.4155
  714MPD2    H710565   0.879   3.658   1.576  0.6782  1.2302 -2.0132
  715TMC3    C110566   0.757   3.454   1.654 -1.0918  0.7784  0.5916
  715TMC3    C210567   0.708   3.328   1.650  0.1658  0.2642 -0.1883
  715TMC3    C310568   0.748   3.241   1.750  0.1490 -0.4651  0.1455
  715TMC3    C410569   0.830   3.500   1.762 -0.4199 -0.8633 -0.0562
  715TMC3    C510570   0.861   3.407   1.862  0.3394  0.4984 -0.7297
  715TMC3    C610571   0.826   3.277   1.858 -0.9673  0.8136  0.9935
  715TMC3     C10572   0.707   3.552   1.558 -0.0015 -0.5490 -0.2287
  715TMC3     O10573   0.597   3.517   1.507 -0.2900 -0.0310  0.2164
  715TMC3     H10574   0.657   3.293   1.561 -0.3984 -0.5597  0.4546
  715TMC3    H110575   0.851   3.606   1.770  2.1815 -1.3990  0.3904
  715TMC3    H210576   0.870   3.213   1.933  2.1849 -0.5784 -2.0341
  715TMC3    C710577   0.930   3.465   1.977 -0.1844 -0.8109  0.0255
  715TMC3    C810578   0.738   3.100   1.704 -0.1969  0.0806  0.4229
  715TMC3    O110579   0.969   3.578   1.966 -0.4994  0.3563 -0.0505
  715TMC3    O210580   0.712   3.080   1.583  0.2635  0.2937  0.3345
  716MPD2     C10581   0.441   1.669  10.403 -0.6704 -0.4414  0.8856
  716MPD2    C110582   0.380   1.659  10.280 -0.2198 -0.2971  0.3620
  716MPD2    C210583   0.412   1.551  10.199 -0.8644  0.5941 -0.1172
  716MPD2    C310584   0.500   1.446  10.246  0.0768 -0.0262 -0.9603
  716MPD2    C410585   0.559   1.462  10.366 -0.2405  0.6023  0.0345
  716MPD2    C510586   0.528   1.572  10.442 -0.2502 -0.3610 -0.0590
  716MPD2     H10587   0.377   1.545  10.097  0.3646 -1.7951 -0.4135
  716MPD2    H110588   0.625   1.388  10.411 -2.1993 -0.2136  1.5982
  716MPD2    H210589   0.406   1.746  10.470  0.9621  1.6682 -0.6924
  716MPD2    H310590   0.588   1.586  10.531  1.9322  1.4576 -1.8176
  716MPD2     N10591   0.516   1.334  10.172 -0.5198 -0.6047 -0.5153
  716MPD2    H510592   0.445   1.323  10.100 -0.8318  1.5479 -0.5290
  716MPD2    N110593   0.295   1.761  10.232 -0.0797 -0.0803  0.9762
  716MPD2    H710594   0.268   1.841  10.289 -0.1951 -0.5296  1.5472
  717TMC3    C110595   0.603   1.130  10.093  0.4790 -0.5039 -0.3681
  717TMC3    C210596   0.482   1.098  10.042  0.0980 -0.1884  0.4751
  717TMC3    C310597   0.462   0.968  10.001 -0.1830 -0.8096 -0.2401
  717TMC3    C410598   0.704   1.035  10.105 -0.8122 -0.3222  0.4469
  717TMC3    C510599   0.683   0.910  10.045  1.1374 -0.2209 -0.2795
  717TMC3    C610600   0.565   0.876   9.991  0.1104  0.0863 -0.3482
  717TMC3     C10601   0.618   1.240  10.186 -0.1366  0.2015  0.0960
  717TMC3     O10602   0.719   1.253  10.251 -0.2494  0.3020 -0.4114
  717TMC3     H10603   0.407   1.176  10.047 -1.4942 -1.6725 -0.1403
  717TMC3    H110604   0.805   1.074  10.103 -0.3462 -1.5119  0.9633
  717TMC3    H210605   0.551   0.773   9.958 -0.5809  0.2806 -0.6507
  717TMC3    C710606   0.811   0.857   9.988  0.6855  0.4723 -0.5417
  717TMC3    C810607   0.331   0.952   9.945 -0.5805  0.6260 -0.1069
  717TMC3    O110608   0.920   0.901  10.027 -0.5136 -0.0165  0.3640
  717TMC3    O210609   0.281   1.047   9.886 -0.2302 -0.3486 -0.1669
  718MPD2     C10610   4.235   0.719  12.777  0.4520  0.0810  0.5452
  718MPD2    C110611   4.118   0.751  12.711 -0.1634 -0.3717  0.7389
  718MPD2    C210612   4.034   0.643  12.693  0.2599  0.0359 -0.4419
  718MPD2    C310613   4.066   0.511  12.724  0.2974 -0.4023 -0.0825
  718MPD2    C410614   4.183   0.482  12.796 -0.1972 -0.5838 -0.9368
  718MPD2    C510615   4.267   0.588  12.817 -0.1467 -0.2457  0.5152
  718MPD2     H10616   3.941   0.652  12.639  0.3400  0.0277 -0.5809
  718MPD2    H110617   4.206   0.380  12.821  0.2723 -0.5085 -1.0743
  718MPD2    H210618   4.304   0.797  12.803 -0.4178  0.5905  1.3183
  718MPD2    H310619   4.355   0.579  12.879  0.8218  0.5475 -0.7279
  718MPD2     N10620   3.974   0.408  12.692 -0.1918 -0.3501  0.1384
  718MPD2    H510621   3.882   0.440  12.662  0.5592  0.4321 -1.3148
  718MPD2    N110622   4.105   0.873  12.640 -1.0399  0.0537  0.2420
  718MPD2    H710623   4.189   0.923  12.616 -0.4120 -1.6552 -1.1492
  719TMC3    C110624   4.019   0.998  12.470  0.1988 -1.1336  0.5733
  719TMC3    C210625   3.970   0.932  12.361 -0.8887 -0.0522  0.3256
  719TMC3    C310626   4.054   0.904  12.256 -0.6883 -0.5262 -0.1530
  719TMC3    C410627   4.148   1.058  12.467 -0.2308 -0.1657  0.6188
  719TMC3    C510628   4.229   1.030  12.363  0.7657 -0.4609 -0.1968
  719TMC3    C610629   4.186   0.949  12.263 -0.1095  0.1043  0.2007
  719TMC3     C10630   3.990   0.922  12.587  0.6244 -0.8179  0.3663
  719TMC3     O10631   3.881   0.872  12.613 -0.0327 -0.1996  0.0078
  719TMC3     H10632   3.886   0.867  12.382 -1.9792  1.4172  0.5677
  719TMC3    H110633   4.183   1.126  12.544 -1.5503  0.4352  0.6917
  719TMC3    H210634   4.259   0.911  12.192  0.2717 -1.0133  1.1897
  719TMC3    C710635   4.344   1.106  12.350  0.4024 -0.0448  0.3944
  719TMC3    C810636   4.017   0.777  12.202  1.0413 -0.4964 -0.9267
  719TMC3    O110637   4.434   1.041  12.300 -0.5859 -0.0518 -0.5410
  719TMC3    O210638   4.097   0.691  12.229 -0.0649 -0.0898  0.5396
  720MPD2     C10639   2.929   1.594  13.591  0.2328  0.1365  0.7513
  720MPD2    C110640   2.877   1.697  13.664 -0.3269  0.3577  0.1877
  720MPD2    C210641   2.951   1.723  13.785  0.5314 -0.0450 -0.0851
  720MPD2    C310642   3.061   1.645  13.829  0.0990 -0.6568 -0.3813
  720MPD2    C410643   3.107   1.550  13.743  0.5165  1.1366 -0.3053
  720MPD2    C510644   3.042   1.528  13.628  0.0326  0.0582 -0.7028
  720MPD2     H10645   2.916   1.807  13.844 -1.3127 -0.9989  0.1809
  720MPD2    H110646   3.193   1.486  13.753 -0.5911 -0.1358  1.1443
  720MPD2    H210647   2.899   1.565  13.491 -0.2076  1.0373  0.6220
  720MPD2    H310648   3.075   1.445  13.567  0.5703 -0.5047  0.3486
  720MPD2     N10649   3.122   1.672  13.954  0.4554  0.4360  0.7499
  720MPD2    H510650   3.109   1.764  13.994 -0.5501  0.5581  0.1564
  720MPD2    N110651   2.764   1.762  13.611 -0.4808  0.2391 -0.0859
  720MPD2    H710652   2.727   1.709  13.533 -1.3568 -0.7991  1.0407
  721TMC3    C110653   3.301   1.644  14.115  0.8260 -0.5564  0.4431
  721TMC3    C210654   3.233   1.716  14.210  0.0390  0.3581 -0.3505
  721TMC3    C310655   3.304   1.729  14.324 -0.1169  0.0501 -0.1021
  721TMC3    C410656   3.417   1.570  14.139  0.3210 -0.4672  0.2403
  721TMC3    C510657   3.469   1.573  14.260  0.5456  0.1261  0.8978
  721TMC3    C610658   3.425   1.668  14.349 -0.9819  0.1807 -0.0026
  721TMC3     C10659   3.217   1.589  14.008 -0.2940 -0.3370  0.3581
  721TMC3     O10660   3.238   1.471  13.983 -0.1833 -0.1197  0.1191
  721TMC3     H10661   3.134   1.758  14.196  0.6070  1.1204 -2.0661
  721TMC3    H110662   3.474   1.524  14.059  3.6491  2.7436  0.7714
  721TMC3    H210663   3.488   1.687  14.435 -1.6631  0.5084  0.4284
  721TMC3    C710664   3.617   1.546  14.256 -0.8357 -0.2992 -0.7606
  721TMC3    C810665   3.248   1.823  14.423 -0.1891 -0.7121  0.0249
  721TMC3    O110666   3.690   1.614  14.328  0.1171 -0.3017  0.1626
  721TMC3    O210667   3.151   1.887  14.391 -0.1038 -0.1701 -0.3504
  722MPD2     C10668   1.535   0.453  13.498 -0.2527 -0.2939 -0.5106
  722MPD2    C110669   1.481   0.480  13.375 -1.0826 -0.5063  0.2191
  722MPD2    C210670   1.343   0.502  13.373 -0.1910  0.3289 -0.2282
  722MPD2    C310671   1.267   0.502  13.487  0.0046  0.0264 -0.0431
  722MPD2    C410672   1.324   0.477  13.612 -0.2600  0.3642  0.3657
  722MPD2    C510673   1.461   0.453  13.611  0.1174  0.0282 -0.1821
  722MPD2     H10674   1.294   0.532  13.281 -1.5419 -0.4819  0.2296
  722MPD2    H110675   1.281   0.473  13.711  0.3947  0.7214  0.6581
  722MPD2    H210676   1.638   0.419  13.503 -0.4496 -0.4317  2.7349
  722MPD2    H310677   1.510   0.431  13.705 -0.7251  0.2480  0.3156
  722MPD2     N10678   1.132   0.525  13.476 -0.1953 -0.1819  0.2130
  722MPD2    H510679   1.091   0.533  13.384 -0.2406  0.1259  0.2593
  722MPD2    N110680   1.549   0.490  13.252  0.1738  0.0131  0.6573
  722MPD2    H710681   1.499   0.509  13.166  1.1173 -0.5673 -0.0314
  723TMC3    C110682   0.912   0.562  13.517 -0.8347  0.1276  0.7710
  723TMC3    C210683   0.887   0.470  13.421  0.0910  0.5339 -0.4773
  723TMC3    C310684   0.785   0.493  13.333 -0.4801 -0.4400  0.3847
  723TMC3    C410685   0.859   0.687  13.511 -0.3876 -0.0685  0.2025
  723TMC3    C510686   0.761   0.719  13.417 -0.6173  0.4361 -0.0354
  723TMC3    C610687   0.715   0.612  13.334 -0.2035 -0.5439  0.1388
  723TMC3     C10688   1.048   0.552  13.577  0.2613 -0.1135  0.0565
  723TMC3     O10689   1.066   0.578  13.696 -0.4877 -0.0613  0.4411
  723TMC3     H10690   0.924   0.368  13.434 -0.0586  0.2237 -2.5099
  723TMC3    H110691   0.901   0.761  13.577  1.9835 -0.7090 -0.5824
  723TMC3    H210692   0.648   0.629  13.250 -1.4565 -3.6677  0.5103
  723TMC3    C710693   0.754   0.857  13.370 -0.1596 -0.0250 -0.3211
  723TMC3    C810694   0.762   0.395  13.226  0.5373 -0.1044 -0.3633
  723TMC3    O110695   0.809   0.937  13.439 -0.2664  0.0741  0.3620
  723TMC3    O210696   0.674   0.422  13.144  0.4234 -0.5655 -0.2914
  724TMC3    C110697   1.522   3.320  10.870  0.1544 -0.5148 -0.0992
  724TMC3    C210698   1.449   3.359  10.758 -0.6403  0.7178  0.0993
  724TMC3    C310699   1.503   3.464  10.680 -0.4801 -0.0395 -1.3409
  724TMC3    C410700   1.647   3.373  10.893  0.5037  0.4063  0.7267
  724TMC3    C510701   1.692   3.466  10.806  0.3949  0.7236 -0.1300
  724TMC3    C610702   1.627   3.517  10.700  0.2269  0.0337 -0.0759
  724TMC3     C10703   1.449   3.252  10.975 -0.1026  0.7819 -0.1780
  724TMC3     O10704   1.485   3.272  11.091 -0.2103 -0.4324  0.2200
  724TMC3     H10705   1.346   3.326  10.748 -0.5936  0.3315  0.8762
  724TMC3    H110706   1.697   3.353  10.987 -0.0665  2.3565  1.4331
  724TMC3    H210707   1.672   3.590  10.635  0.1292  0.6610  0.5651
  724TMC3    C710708   1.834   3.498  10.808  0.4905 -0.3224 -0.5163
  724TMC3    C810709   1.421   3.511  10.571  0.4495  0.5230  1.0680
  724TMC3    O110710   1.889   3.507  10.703 -0.0978 -0.3349 -0.3764
  724TMC3    O210711   1.312   3.457  10.543 -0.0375  0.2460 -0.2438
  725TMC3    C110712   3.206   2.550  12.795  0.2381  0.3024  0.3282
  725TMC3    C210713   3.167   2.592  12.676  0.0895  0.2224 -0.1925
  725TMC3    C310714   3.135   2.490  12.587  0.4461 -0.2752  0.4816
  725TMC3    C410715   3.193   2.423  12.841 -0.0166 -0.3057  0.2859
  725TMC3    C510716   3.141   2.332  12.758 -0.1790 -0.9690  0.2359
  725TMC3    C610717   3.106   2.364  12.627 -0.0808 -0.5819  0.7439
  725TMC3     C10718   3.258   2.648  12.887 -0.4006  0.2539 -0.2995
  725TMC3     O10719   3.316   2.607  12.986 -0.6678 -0.1898 -0.3710
  725TMC3     H10720   3.160   2.696  12.648 -1.7483  0.0083 -0.5188
  725TMC3    H110721   3.223   2.395  12.941 -0.6594 -0.2601  0.4910
  725TMC3    H210722   3.065   2.287  12.562  0.2970 -0.4631  0.3624
  725TMC3    C710723   3.218   2.208  12.754  0.0685  0.2668 -0.1476
  725TMC3    C810724   3.170   2.521  12.453 -0.3186 -1.1515  0.5109
  725TMC3    O110725   3.252   2.174  12.642  0.2930 -0.2275 -0.6695
  725TMC3    O210726   3.128   2.626  12.398  0.8897 -0.3825 -0.0536
  726MPD2     C10727   1.059   3.655  11.463  0.6971  0.5665  0.5125
  726MPD2    C110728   1.076   3.720  11.337  0.1585 -0.1173  0.1450
  726MPD2    C210729   0.983   3.691  11.239  0.3872  0.0345 -0.2693
  726MPD2    C310730   0.874   3.604  11.262  0.0502 -0.2158 -0.0347
  726MPD2    C410731   0.853   3.555  11.386 -1.2266  0.3582  0.1769
  726MPD2    C510732   0.947   3.579  11.482  0.5371  0.3162 -0.4935
  726MPD2     H10733   1.005   3.726  11.139  1.7873  1.9846  0.7266
  726MPD2    H110734   0.765   3.500  11.416 -0.0635 -1.3171  0.5861
  726MPD2    H210735   1.119   3.675  11.551  0.1696  0.2189  0.9525
  726MPD2    H310736   0.937   3.537  11.581  1.2971 -0.9421 -0.9430
  726MPD2     N10737   0.767   3.585  11.167 -0.5178  0.6035 -0.0568
  726MPD2    H510738   0.689   3.536  11.209 -0.9049  0.2927 -1.1402
  726MPD2    N110739   1.186   3.810  11.311 -0.6280  0.5257  0.5528
  726MPD2    H710740   1.176   3.858  11.222  0.3450  0.6398  0.5096
  727TMC3    C110741   1.395   3.922  11.334  0.2913  0.0875  0.0850
  727TMC3    C210742   1.511   3.924  11.399  0.4615 -0.8845  0.2349
  727TMC3    C310743   1.609   4.005  11.356  0.5377 -0.0258 -0.3226
  727TMC3    C410744   1.374   3.991  11.216 -0.5013 -0.4935  0.2350
  727TMC3    C510745   1.474   4.064  11.172  0.0353 -0.3563  0.2705
  727TMC3    C610746   1.593   4.082  11.244 -0.4069  0.2284 -0.0321
  727TMC3     C10747   1.298   3.827  11.391 -0.1936 -0.7281  0.1091
  727TMC3     O10748   1.321   3.769  11.493 -0.1815  0.6413 -0.2026
  727TMC3     H10749   1.533   3.865  11.487  0.0754  0.3166  1.1404
  727TMC3    H110750   1.291   3.966  11.152  0.0273 -1.7372  0.0317
  727TMC3    H210751   1.676   4.135  11.199 -0.8253  0.6819 -0.2676
  727TMC3    C710752   1.453   4.151  11.058 -0.2251  0.4145 -0.0882
  727TMC3    C810753   1.746   3.990  11.395 -0.3726 -0.2261 -0.1618
  727TMC3    O110754   1.337   4.169  11.033 -0.2670  0.5129  0.2790
  727TMC3    O210755   1.823   4.082  11.363 -0.1920  0.1651 -0.0103
  728TMC3    C110756   1.034   2.589  15.485  0.5296  0.5102  0.7433
  728TMC3    C210757   1.088   2.718  15.491  0.0697  0.0270  0.1644
  728TMC3    C310758   1.122   2.787  15.374 -0.1388 -0.7716  0.7363
  728TMC3    C410759   1.007   2.538  15.361 -0.3216 -0.3999 -0.2984
  728TMC3    C510760   1.032   2.611  15.250 -0.3218  0.3180  0.2237
  728TMC3    C610761   1.080   2.742  15.254 -0.0984  0.7716  0.2493
  728TMC3     C10762   0.959   2.538  15.602 -0.0772  0.5166  0.3222
  728TMC3     O10763   0.974   2.608  15.701  0.5319  0.4710  0.6602
  728TMC3     H10764   1.112   2.763  15.587  2.9901  0.3304 -0.6989
  728TMC3    H110765   0.975   2.435  15.351  0.4400 -1.0127  3.7270
  728TMC3    H210766   1.082   2.808  15.168  0.6422 -0.2012 -0.4798
  728TMC3    C710767   0.985   2.557  15.122  0.3439 -0.2098 -0.2060
  728TMC3    C810768   1.159   2.921  15.393 -0.0566  0.7792  0.2789
  728TMC3    O110769   0.899   2.473  15.138 -0.3601 -0.5154 -0.0914
  728TMC3    O210770   1.218   2.952  15.498  0.5037 -0.0013  0.5429
  729MPD2     C10771   3.104   3.511  16.912 -0.2585 -0.1415  0.2366
  729MPD2    C110772   3.230   3.482  16.949  0.8334  0.6358 -0.8577
  729MPD2    C210773   3.260   3.443  17.078 -0.2008 -0.3465 -0.0923
  729MPD2    C310774   3.154   3.435  17.171  0.2453  0.0366 -0.1928
  729MPD2    C410775   3.024   3.456  17.129  1.3733 -0.4866  0.3356
  729MPD2    C510776   3.004   3.500  17.001  0.2606 -0.5304 -0.8842
  729MPD2     H10777   3.364   3.435  17.105  0.2459  1.5555 -1.2311
  729MPD2    H110778   2.934   3.440  17.187 -0.8224  0.4200 -2.8545
  729MPD2    H210779   3.074   3.536  16.811  1.5654  1.0380 -0.0120
  729MPD2    H310780   2.903   3.527  16.970  0.5205 -1.3513 -2.4515
  729MPD2     N10781   3.165   3.411  17.304 -0.3322 -0.5348  0.3386
  729MPD2    H510782   3.081   3.421  17.361 -1.8219 -0.1486 -1.9605
  729MPD2    N110783   3.322   3.495  16.841  0.0553 -0.6845 -0.0798
  729MPD2    H710784   3.287   3.527  16.751  0.6871 -2.9293 -1.1349
  730TMC3    C110785   3.260   3.419  17.510 -0.4596  0.2211  0.2499
  730TMC3    C210786   3.366   3.404  17.587  0.9242 -0.4333 -0.7402
  730TMC3    C310787   3.392   3.478   0.002  0.5380  0.3878 -0.5449
  730TMC3    C410788   3.156   3.500  17.551 -0.1317  0.1128 -0.2513
  730TMC3    C510789   3.185   3.583  17.656  0.5868 -0.4922 -0.0596
  730TMC3    C610790   3.297   3.569   0.031 -0.0667 -0.2222 -0.2583
  730TMC3     C10791   3.283   3.404  17.372 -0.3548 -0.2587  0.1319
  730TMC3     O10792   3.393   3.372  17.327 -0.1218  0.9125  0.0394
  730TMC3     H10793   3.440   3.331  17.556  1.5672  0.7121 -1.9497
  730TMC3    H110794   3.066   3.506  17.491 -0.8621 -0.5266  0.7987
  730TMC3    H210795   3.320   3.644   0.105 -0.3049  1.5468 -1.9836
  730TMC3    C710796   3.157   3.716  17.626 -0.2366  0.3725  0.3763
  730TMC3    C810797   3.523   3.531   0.025  0.8578 -0.1544 -0.5933
  730TMC3    O110798   3.167   3.732  17.507  0.0859  1.0615 -0.8869
  730TMC3    O210799   3.532   3.640   0.078 -0.3964  0.3666  0.2802
  731MPD2     C10800   2.332   1.880  12.404  0.3551 -0.1509  0.2393
  731MPD2    C110801   2.413   1.807  12.322 -0.0427 -0.1845 -0.2070
  731MPD2    C210802   2.417   1.666  12.340 -0.4652  0.3006  0.0609
  731MPD2    C310803   2.328   1.613  12.438 -1.0137  0.4759 -0.2776
  731MPD2    C410804   2.245   1.686  12.519  0.2652 -0.9620 -0.0165
  731MPD2    C510805   2.254   1.823  12.505  0.6438 -0.5571 -0.3965
  731MPD2     H10806   2.487   1.600  12.291 -0.6833 -0.3308  0.5960
  731MPD2    H110807   2.180   1.649  12.598  1.0487 -1.1758  0.5341
  731MPD2    H210808   2.317   1.987  12.393 -0.4363 -0.2984 -0.0458
  731MPD2    H310809   2.195   1.885  12.571  0.9279  2.3257 -2.8838
  731MPD2     N10810   2.329   1.471  12.446  0.5972  0.1638 -0.4756
  731MPD2    H510811   2.392   1.413  12.392 -0.4734 -0.7509 -0.7489
  731MPD2    N110812   2.494   1.859  12.220  0.0673 -0.3472 -0.1544
  731MPD2    H710813   2.543   1.786  12.169 -0.0139 -1.0802  0.8216
  732TMC3    C110814   2.524   2.004  12.044  0.3408 -0.4264  0.2535
  732TMC3    C210815   2.450   1.920  11.972 -0.9968 -0.0127  0.5096
  732TMC3    C310816   2.497   1.865  11.856  1.2241 -0.7191  0.5624
  732TMC3    C410817   2.653   2.021  12.008  0.0744  0.2920 -0.7821
  732TMC3    C510818   2.693   1.980  11.883 -0.0596  0.3240 -0.4296
  732TMC3    C610819   2.621   1.895  11.807  0.5013  0.0689  1.2172
  732TMC3     C10820   2.503   1.990  12.183 -0.1704  0.2951 -0.4838
  732TMC3     O10821   2.470   2.092  12.240 -0.4931  0.4271 -0.1382
  732TMC3     H10822   2.346   1.913  12.002 -1.7321  1.9005 -1.6145
  732TMC3    H110823   2.712   2.090  12.068 -0.0509 -1.9042  1.8240
  732TMC3    H210824   2.647   1.870  11.704 -0.6285 -2.6135  1.5836
  732TMC3    C710825   2.831   1.996  11.853  0.2712  0.1452  0.0349
  732TMC3    C810826   2.447   1.727  11.825  0.4270  0.4392  0.9031
  732TMC3    O110827   2.860   2.045  11.745 -0.1574 -0.2277  0.1225
  732TMC3    O210828   2.512   1.673  11.733 -0.7554  0.3784  0.9663
  733TMC3    C110829   3.651   0.128  12.656 -0.6522 -0.2059  0.1829
  733TMC3    C210830   3.768   0.171  12.723 -1.2711  0.2991 -0.1497
  733TMC3    C310831   3.876   0.191  12.638  0.3959 -0.0937  0.8001
  733TMC3    C410832   3.651   0.112  12.516 -0.2389  0.0425  0.0110
  733TMC3    C510833   3.756   0.149  12.447 -0.3613 -0.0806 -0.3006
  733TMC3    C610834   3.878   0.185  12.503  0.1908  0.0731 -0.0076
  733TMC3     C10835   3.527   0.167  12.706  0.5110  0.0713  0.1464
  733TMC3     O10836   3.449   0.201  12.618 -0.7840 -0.0158  0.9096
  733TMC3     H10837   3.774   0.176  12.831  1.0295 -1.0246 -0.2187
  733TMC3    H110838   3.560   0.069  12.474  0.4770 -2.0116  0.5299
  733TMC3    H210839   3.962   0.180  12.435  2.4240 -0.4148  2.8020
  733TMC3    C710840   3.722   0.214  12.320  0.8492 -0.1361 -0.0968
  733TMC3    C810841   3.994   0.267  12.696 -0.7398  0.1611  0.0561
  733TMC3    O110842   3.629   0.164  12.256 -0.7912 -0.5760 -0.0448
  733TMC3    O210843   4.104   0.209  12.689 -0.1198  0.3236  0.1251
  734MPD2     C10844   1.006   2.576  12.269 -0.1917  0.4729  0.3585
  734MPD2    C110845   0.872   2.573  12.281 -0.0336 -0.5040 -0.1027
  734MPD2    C210846   0.797   2.612  12.180  0.4537 -0.0188 -0.0647
  734MPD2    C310847   0.856   2.646  12.053  0.3978 -0.4091  0.9243
  734MPD2    C410848   0.994   2.635  12.039  0.0353 -0.2799 -0.0017
  734MPD2    C510849   1.071   2.601  12.149  0.5236  0.2019 -0.3891
  734MPD2     H10850   0.689   2.614  12.191  0.5170 -1.5479  0.8166
  734MPD2    H110851   1.037   2.659  11.942 -0.2151 -1.6208 -0.4421
  734MPD2    H210852   1.063   2.554  12.359  2.1577  0.1683 -1.2004
  734MPD2    H310853   1.179   2.599  12.146  0.5730  1.8734  0.4086
  734MPD2     N10854   0.765   2.686  11.958  0.2785  0.2241  0.0721
  734MPD2    H510855   0.668   2.693  11.988  0.5522  1.4764  0.6596
  734MPD2    N110856   0.815   2.534  12.403  0.0233 -0.0643 -0.1778
  734MPD2    H710857   0.879   2.498  12.473  2.3954  3.6911 -0.3983
  735TMC3    C110858   0.642   2.462  12.547 -0.3779 -0.1294  0.2960
  735TMC3    C210859   0.513   2.441  12.526 -0.6413 -0.2585 -0.1609
  735TMC3    C310860   0.479   2.309  12.510  0.2423  0.0239  0.0243
  735TMC3    C410861   0.725   2.366  12.589 -0.0004 -0.2632 -0.5121
  735TMC3    C510862   0.693   2.239  12.577  1.1652 -0.1360  0.7025
  735TMC3    C610863   0.567   2.205  12.534 -0.2831 -0.0253  0.7498
  735TMC3     C10864   0.685   2.533  12.429  0.0372  0.5452  0.9011
  735TMC3     O10865   0.592   2.568  12.359 -0.2181 -0.1989 -0.0832
  735TMC3     H10866   0.435   2.516  12.520 -1.9660 -1.6420 -0.2920
  735TMC3    H110867   0.829   2.384  12.615  0.1246 -0.0776 -1.1325
  735TMC3    H210868   0.548   2.103  12.504 -0.1294  0.3262 -0.5081
  735TMC3    C710869   0.808   2.148  12.582  0.5176 -0.1023  0.0165
  735TMC3    C810870   0.388   2.279  12.399  0.5638  0.7305 -0.0724
  735TMC3    O110871   0.922   2.195  12.562  0.5051  0.5504 -0.0792
  735TMC3    O210872   0.327   2.171  12.402 -0.2713  0.0421 -0.5602
  736MPD2     C10873   0.811   1.790  12.671 -0.3567  0.6657 -0.2473
  736MPD2    C110874   0.863   1.907  12.618  0.5879 -0.1502  0.3678
  736MPD2    C210875   0.998   1.914  12.605 -0.0537 -0.4493 -0.1076
  736MPD2    C310876   1.079   1.798  12.597 -1.2906  0.3116  0.1814
  736MPD2    C410877   1.020   1.685  12.642 -0.0255 -0.2049 -0.5439
  736MPD2    C510878   0.892   1.681  12.682 -0.0754 -0.0673 -0.2964
  736MPD2     H10879   1.035   2.015  12.590  0.2295 -0.3515  1.2737
  736MPD2    H110880   1.072   1.592  12.661 -0.1159  0.0490  0.9585
  736MPD2    H210881   0.706   1.774  12.697 -0.1802 -2.1651 -1.2459
  736MPD2    H310882   0.849   1.593  12.728  1.8915 -1.7456 -1.6394
  736MPD2     N10883   1.218   1.802  12.571  0.7410 -0.1687 -0.1918
  736MPD2    H510884   1.267   1.713  12.566 -3.4353 -2.5974  1.9126
  736MPD2    N110885   0.774   2.017  12.605 -0.0796 -0.6269  0.2645
  736MPD2    H710886   0.678   1.986  12.608  0.6107 -2.9316 -0.6087
  737TMC3    C110887   1.426   1.894  12.502 -0.5349  0.6060  0.7714
  737TMC3    C210888   1.467   2.019  12.466  0.9465  0.4615  0.1207
  737TMC3    C310889   1.547   2.028  12.353 -0.0513 -0.3137  1.0071
  737TMC3    C410890   1.461   1.777  12.434  0.3510 -0.3765  0.5473
  737TMC3    C510891   1.556   1.797  12.332  0.0802 -0.5920  0.2031
  737TMC3    C610892   1.590   1.922  12.281  0.1565 -0.6799  0.0612
  737TMC3     C10893   1.282   1.915  12.533  0.1361 -0.5912  0.8890
  737TMC3     O10894   1.236   2.027  12.515  0.3341  0.1824  0.7862
  737TMC3     H10895   1.439   2.105  12.526  0.8322 -0.2477  1.0816
  737TMC3    H110896   1.429   1.679  12.466  0.8136 -1.0224 -0.9632
  737TMC3    H210897   1.651   1.927  12.192  1.1606 -3.0972  0.6283
  737TMC3    C710898   1.583   1.676  12.256 -0.4487 -0.1397  0.0887
  737TMC3    C810899   1.561   2.165  12.298  0.6526  0.2010  0.0178
  737TMC3    O110900   1.504   1.585  12.271  0.3514 -0.0487  0.3636
  737TMC3    O210901   1.560   2.258  12.376  0.6050 -0.3987  1.1657
  738MPD2     C10902   1.905   0.964  15.511 -0.2057  1.0071  0.0232
  738MPD2    C110903   1.890   0.923  15.381 -0.1784 -0.8475  0.4276
  738MPD2    C210904   1.951   1.005  15.276 -0.1535  0.5903  0.6238
  738MPD2    C310905   2.039   1.104  15.311  0.5404  0.1367  0.6310
  738MPD2    C410906   2.049   1.143  15.446 -0.5502 -0.2766 -0.3490
  738MPD2    C510907   1.978   1.073  15.540 -0.2779  0.5874  0.1301
  738MPD2     H10908   1.948   0.973  15.173 -0.9820 -0.9066  1.1105
  738MPD2    H110909   2.107   1.229  15.479 -0.2416 -0.4439 -0.4609
  738MPD2    H210910   1.857   0.918  15.596  0.2507  1.1187  0.3387
  738MPD2    H310911   1.994   1.098  15.644  0.8341  0.2771  0.0285
  738MPD2     N10912   2.121   1.173  15.218 -0.3872  0.2601 -0.0523
  738MPD2    H510913   2.183   1.243  15.258  0.4289 -0.5205  0.0257
  738MPD2    N110914   1.806   0.820  15.341 -0.0677 -0.0504 -0.0148
  738MPD2    H710915   1.775   0.818  15.244 -1.2693  1.9592  0.3387
  739TMC3    C110916   2.246   1.217  15.023  0.3110  0.3726  0.1332
  739TMC3    C210917   2.315   1.145  14.933 -0.9407  0.0413  0.1270
  739TMC3    C310918   2.419   1.214  14.870 -0.5631 -0.2112  0.5866
  739TMC3    C410919   2.261   1.349  15.061  0.1691  0.3691  0.7035
  739TMC3    C510920   2.370   1.412  15.006 -0.1351  0.1720 -0.2651
  739TMC3    C610921   2.436   1.352  14.901  0.3519  0.0070  0.0456
  739TMC3     C10922   2.133   1.151  15.081 -1.0618 -0.7888 -0.4613
  739TMC3     O10923   2.086   1.065  15.010  0.6754 -0.1266  0.3876
  739TMC3     H10924   2.301   1.037  14.934 -2.3698  0.2525  3.3123
  739TMC3    H110925   2.187   1.397  15.125  0.2434 -0.5610  1.4889
  739TMC3    H210926   2.517   1.407  14.853 -0.5133  0.1085 -1.3156
  739TMC3    C710927   2.386   1.554  15.026  0.7568  0.9778  0.4621
  739TMC3    C810928   2.491   1.158  14.753 -0.3227 -0.0088  0.8338
  739TMC3    O110929   2.455   1.612  14.946  0.1062  0.1955 -0.2649
  739TMC3    O210930   2.535   1.232  14.670  0.2114  0.2443 -0.0394
  740TMC3    C110931   2.642   2.287  14.300  0.0040  0.0664 -0.6926
  740TMC3    C210932   2.716   2.300  14.413  0.7915  0.0690  1.0942
  740TMC3    C310933   2.843   2.245  14.407  0.5652 -0.5495 -0.1144
  740TMC3    C410934   2.698   2.251  14.180  0.9240 -0.2652  0.1766
  740TMC3    C510935   2.825   2.212  14.177 -0.3645  0.2942 -0.4028
  740TMC3    C610936   2.894   2.188  14.290 -0.5252 -0.0523  0.0235
  740TMC3     C10937   2.506   2.329  14.310 -0.1150  0.0500  0.1523
  740TMC3     O10938   2.440   2.366  14.210  0.0526  0.2954 -0.1676
  740TMC3     H10939   2.683   2.349  14.504  0.3541 -1.1314  1.5818
  740TMC3    H110940   2.631   2.240  14.095  1.9443  1.8160 -0.8921
  740TMC3    H210941   2.997   2.155  14.294 -0.4372  0.1502 -0.6327
  740TMC3    C710942   2.889   2.171  14.051 -0.3464  0.1806  0.1413
  740TMC3    C810943   2.919   2.239  14.530  0.1453  0.0438  0.8758
  740TMC3    O110944   2.993   2.111  14.065  0.0056 -0.3558 -0.3463
  740TMC3    O210945   3.036   2.273  14.516 -0.0741 -0.2529  0.6649
  741TMC3    C110946   2.900   1.312  14.059 -0.4074 -0.1019  0.3980
  741TMC3    C210947   2.765   1.342  14.090  0.1567  0.1559  0.0315
  741TMC3    C310948   2.747   1.394  14.217 -0.1681  0.7016  0.4719
  741TMC3    C410949   3.010   1.331  14.139  0.2963 -0.0187  0.3410
  741TMC3    C510950   2.980   1.377  14.268 -0.1493 -0.2759  0.4223
  741TMC3    C610951   2.855   1.420  14.305 -0.1687 -0.8301  0.4115
  741TMC3     C10952   2.925   1.263  13.922 -0.9416  0.5447  0.0620
  741TMC3     O10953   2.832   1.231  13.848 -0.1048 -0.3429 -0.1937
  741TMC3     H10954   2.678   1.343  14.025 -0.1914  1.4363  0.5309
  741TMC3    H110955   3.110   1.303  14.105 -0.0068 -0.3369 -0.2904
  741TMC3    H210956   2.835   1.482  14.392 -1.6483  0.2179 -0.6669
  741TMC3    C710957   3.097   1.400  14.351 -1.0693  0.7542  0.0317
  741TMC3    C810958   2.620   1.463  14.251  0.4640  0.2507 -0.4025
  741TMC3    O110959   3.202   1.382  14.295  0.2453  0.6094  0.5559
  741TMC3    O210960   2.544   1.483  14.156 -0.3004  0.0176  1.0380
  742TMC3    C110961   2.265   0.576  15.579  0.0807 -0.0744  0.0491
  742TMC3    C210962   2.173   0.563  15.477  0.1888 -0.4598  0.1286
  742TMC3    C310963   2.168   0.443  15.409 -0.6897 -0.0261 -0.2225
  742TMC3    C410964   2.367   0.489  15.596 -0.3553  0.3659  0.8958
  742TMC3    C510965   2.370   0.381  15.509 -0.4238  0.1234  0.5131
  742TMC3    C610966   2.264   0.348  15.420 -0.7692  0.6445  0.0067
  742TMC3     C10967   2.272   0.705  15.635  0.4799  1.0152  0.4339
  742TMC3     O10968   2.387   0.742  15.659  0.5098 -0.0588 -0.5117
  742TMC3     H10969   2.095   0.639  15.480  1.9142  1.2112  2.1607
  742TMC3    H110970   2.440   0.505  15.676 -0.5323  1.5176  0.8266
  742TMC3    H210971   2.265   0.264  15.351 -1.1185  0.7340 -0.1099
  742TMC3    C710972   2.473   0.286  15.523 -0.1454  0.8817  0.4491
  742TMC3    C810973   2.066   0.423  15.306 -0.0214  0.6457  0.3767
  742TMC3    O110974   2.460   0.177  15.467  0.3004  0.3066 -0.3301
  742TMC3    O210975   2.058   0.304  15.268  0.1109 -0.0435  0.7248
  743MPD2     C10976   1.412   1.040   1.827 -0.5200 -0.0966 -1.1394
  743MPD2    C110977   1.349   1.012   1.706 -0.7752  0.5350 -0.5205
  743MPD2    C210978   1.425   0.964   1.607  0.8116 -0.0314  0.6941
  743MPD2    C310979   1.559   0.932   1.621 -0.3729 -0.4633  0.6951
  743MPD2    C410980   1.617   0.948   1.742  0.0753 -0.7456 -0.1763
  743MPD2    C510981   1.546   1.004   1.844 -0.1832  0.6355 -0.7134
  743MPD2     H10982   1.387   0.964   1.506  0.4185  2.2037  0.8269
  743MPD2    H110983   1.725   0.945   1.754 -0.1340  0.4334  1.8613
  743MPD2    H210984   1.350   1.072   1.909  0.4484 -1.6077  0.1818
  743MPD2    H310985   1.601   1.022   1.936  0.1141  2.3189 -1.2171
  743MPD2     N10986   1.628   0.905   1.501 -0.4004 -0.4151  0.6578
  743MPD2    H510987   1.585   0.919   1.411 -0.8753  1.6070  1.1938
  743MPD2    N110988   1.218   1.052   1.699 -0.3849 -0.3899  0.4778
  743MPD2    H710989   1.182   1.099   1.782  2.4097 -1.0548  2.0969
  744TMC3    C110990   1.023   1.121   1.599  0.2329  0.9414  0.5079
  744TMC3    C210991   1.004   1.206   1.705  0.4915  0.0353 -0.5935
  744TMC3    C310992   0.878   1.253   1.728 -0.1281  0.2682 -0.9107
  744TMC3    C410993   0.924   1.085   1.507  0.0063 -0.5739  0.3477
  744TMC3    C510994   0.803   1.125   1.549  0.0574  0.0961  0.1188
  744TMC3    C610995   0.777   1.205   1.653 -0.2303 -0.4944 -0.4211
  744TMC3     C10996   1.141   1.036   1.581 -0.1167 -0.3108 -0.0653
  744TMC3     O10997   1.157   0.969   1.480  0.5627  0.7386 -0.5701
  744TMC3     H10998   1.084   1.234   1.772  1.0791 -3.4999  0.2008
  744TMC3    H110999   0.951   1.056   1.406  0.9853  0.2402  0.3762
  744TMC3    H211000   0.675   1.228   1.679  0.4434  0.6410  1.2430
  744TMC3    C711001   0.685   1.103   1.456  0.3144 -0.5055  0.1809
  744TMC3    C811002   0.843   1.339   1.839 -0.1824 -0.8321 -0.8687
  744TMC3    O111003   0.575   1.150   1.491  0.3925 -0.3926  0.0014
  744TMC3    O211004   0.743   1.411   1.818  0.3788 -0.0785  0.0523
  745TMC3    C111005   2.551   4.133  13.200  0.2671 -0.4976  0.1734
  745TMC3    C211006   2.472   4.119  13.308  0.1195 -0.0677 -0.0439
  745TMC3    C311007   2.338   4.118  13.294  0.4113  0.0529 -0.4463
  745TMC3    C411008   2.500   4.155  13.075 -1.1060 -0.2740 -0.2688
  745TMC3    C511009   2.366   4.169  13.067 -0.4198 -0.2433 -0.3010
  745TMC3    C611010   2.287   4.159  13.175 -0.3322  0.1389 -0.5838
  745TMC3     C11011   2.700   4.148  13.211  0.6162  0.3142  0.2362
  745TMC3     O11012   2.767   4.134  13.107 -0.5824  0.7354 -0.1666
  745TMC3     H11013   2.511   4.104  13.408  1.0497  2.3390 -0.0549
  745TMC3    H111014   2.567   4.177  12.992  1.9256  1.1413  2.5877
  745TMC3    H211015   2.179   4.165  13.171 -0.2278  1.4503 -1.5731
  745TMC3    C711016   2.306   4.245  12.949 -0.0643  0.1549 -0.9560
  745TMC3    C811017   2.263   4.155  13.412  0.8138 -0.3374  0.3116
  745TMC3    O111018   2.197   4.203  12.911  0.1964 -0.2659  0.1624
  745TMC3    O211019   2.192   4.069  13.459  0.0059  0.5325 -0.3220
  746TMC3    C111020   4.400   1.426  11.117  0.4302 -0.3613  0.2645
  746TMC3    C211021   4.414   1.398  10.987 -0.3646 -0.7550  0.3780
  746TMC3    C311022   4.404   1.271  10.940 -0.2229  0.2530  0.2210
  746TMC3    C411023   4.363   1.328  11.206  0.1637 -0.4236  0.3628
  746TMC3    C511024   4.359   1.201  11.159  0.7882  0.6893  0.0949
  746TMC3    C611025   4.385   1.168  11.026  0.0157  0.0329  0.0367
  746TMC3     C11026   4.403   1.563  11.172  0.2692 -0.8978 -0.1440
  746TMC3     O11027   4.336   1.583  11.272 -0.4378  0.0203  0.2394
  746TMC3     H11028   4.409   1.480  10.916  1.6090 -1.2934 -0.3756
  746TMC3    H111029   4.339   1.348  11.310  0.0401 -1.2871  0.5077
  746TMC3    H211030   4.354   1.070  10.991  1.6092 -0.7313  0.7881
  746TMC3    C711031   4.275   1.105  11.229  0.0493  0.3034  0.8358
  746TMC3    C811032   4.357   1.241  10.805 -0.7338 -0.3451 -0.1866
  746TMC3    O111033   4.296   0.986  11.209 -0.0717 -0.0081 -0.2322
  746TMC3    O211034   4.269   1.158  10.796  0.0443 -0.1083 -0.3248
  747TMC3    C111035   2.246   1.572  11.479 -0.0634 -0.0296 -0.4919
  747TMC3    C211036   2.168   1.558  11.587 -1.0610 -0.2491 -0.4255
  747TMC3    C311037   2.130   1.678  11.646 -0.1813 -0.7128  0.5647
  747TMC3    C411038   2.277   1.692  11.418 -0.4803 -0.0352  0.0023
  747TMC3    C511039   2.235   1.808  11.486  0.4316  0.5944  0.1099
  747TMC3    C611040   2.157   1.807  11.596 -0.7125  0.0958  0.3470
  747TMC3     C11041   2.318   1.455  11.441  0.0328  0.4831 -0.8236
  747TMC3     O11042   2.256   1.353  11.431 -0.3408 -0.2291  0.4615
  747TMC3     H11043   2.145   1.459  11.625 -2.1101 -0.2097 -0.9542
  747TMC3    H111044   2.329   1.693  11.323 -1.1121 -0.8922 -0.3482
  747TMC3    H211045   2.131   1.896  11.651 -0.7144  0.6089 -0.4892
  747TMC3    C711046   2.310   1.925  11.452  0.3997 -0.3174  0.2843
  747TMC3    C811047   2.021   1.682  11.748  0.1939  1.1887  0.1302
  747TMC3    O111048   2.321   2.007  11.543 -0.1725  0.2881  0.0206
  747TMC3    O211049   1.998   1.791  11.794 -0.9483  0.1735 -0.2222
  748MPD2     C11050   3.826   2.976   1.789 -0.4853 -0.1918 -1.1543
  748MPD2    C111051   3.910   2.869   1.797  0.7373 -0.4253 -0.3583
  748MPD2    C211052   4.043   2.885   1.771  0.2181  0.2529 -0.1390
  748MPD2    C311053   4.089   3.015   1.757  0.8888  0.2846  0.5800
  748MPD2    C411054   4.006   3.124   1.751 -0.7967  0.0348 -0.1895
  748MPD2    C511055   3.872   3.104   1.751 -0.3063  0.3284  0.5036
  748MPD2     H11056   4.118   2.807   1.780  1.0631  1.0207 -0.5167
  748MPD2    H111057   4.047   3.224   1.738  0.3857 -0.4031  0.2192
  748MPD2    H211058   3.719   2.970   1.807 -0.4631 -0.3896 -1.0928
  748MPD2    H311059   3.806   3.188   1.735 -2.0174 -0.9112  1.0313
  748MPD2     N11060   4.228   3.033   1.757 -0.2764  0.6180  0.0637
  748MPD2    H511061   4.287   2.960   1.794  0.3395  1.5280  0.8520
  748MPD2    N111062   3.847   2.749   1.836 -0.2269 -0.2139  0.0338
  748MPD2    H711063   3.746   2.755   1.842 -0.1261  3.0663 -1.8528
  749TMC3    C111064   4.441   3.137   1.713  0.9566  0.5155 -0.1550
  749TMC3    C211065   4.506   3.036   1.781 -0.5220 -0.3899 -0.3025
  749TMC3    C311066   4.641   3.014   1.752  0.0574  0.3761 -0.9643
  749TMC3    C411067   4.508   3.197   1.605 -0.3912 -0.5140  0.1210
  749TMC3    C511068   4.633   3.155   1.565 -0.2200  0.1706 -0.0704
  749TMC3    C611069   4.699   3.073   1.643  0.1748 -0.0816  0.2502
  749TMC3     C11070   4.297   3.143   1.704 -0.7141 -0.5192 -0.3742
  749TMC3     O11071   4.255   3.229   1.626 -0.2137 -0.2122  0.1973
  749TMC3     H11072   4.463   2.997   1.873  1.8471  0.6088  1.2251
  749TMC3    H111073   4.462   3.280   1.552 -0.9516 -1.3443 -0.6996
  749TMC3    H211074   0.080   3.052   1.623  0.5731  1.6019  0.5315
  749TMC3    C711075   4.656   3.179   1.428  0.1630  0.5431 -0.1775
  749TMC3    C811076   4.704   2.923   1.850 -1.1253  0.2449  0.2022
  749TMC3    O111077   4.582   3.264   1.378  0.3588 -0.4029 -0.2810
  749TMC3    O211078   4.671   2.950   1.966  0.3435  0.2008  0.4223
  750MPD2     C11079   4.261   3.501  11.198  0.4769  0.3260  0.1813
  750MPD2    C111080   4.240   3.394  11.283 -0.4843 -0.2183 -0.0010
  750MPD2    C211081   4.247   3.264  11.237 -0.1134 -0.5256  0.1919
  750MPD2    C311082   4.257   3.241  11.100 -0.2618 -0.5610 -0.2755
  750MPD2    C411083   4.273   3.348  11.019 -0.1484  0.1436 -0.3494
  750MPD2    C511084   4.288   3.478  11.067  0.0925 -0.2041 -0.9196
  750MPD2     H11085   4.231   3.182  11.306 -0.2889 -0.8694 -0.2553
  750MPD2    H111086   4.278   3.330  10.912 -2.3535 -0.3544 -0.3565
  750MPD2    H211087   4.265   3.602  11.240 -1.1950  0.7533 -0.7077
  750MPD2    H311088   4.306   3.569  11.009  2.7692  0.4389  0.8980
  750MPD2     N11089   4.253   3.109  11.038  0.7007  0.1034  0.2798
  750MPD2    H511090   4.279   3.103  10.940 -0.3152  1.6336 -0.0936
  750MPD2    N111091   4.218   3.434  11.419 -0.3460 -0.9030  0.5013
  750MPD2    H711092   4.215   3.532  11.444  0.2423 -0.2096 -2.1282
  751TMC3    C111093   4.249   2.876  11.022  0.4005  0.5854 -0.2059
  751TMC3    C211094   4.214   2.763  11.088 -0.4860  0.1290 -0.6218
  751TMC3    C311095   4.250   2.642  11.044  0.2280 -0.3190 -0.2582
  751TMC3    C411096   4.320   2.879  10.905  1.0770 -0.1699  0.3617
  751TMC3    C511097   4.344   2.754  10.850 -0.2453  0.6018  0.5997
  751TMC3    C611098   4.326   2.639  10.923 -0.1793 -0.0648  0.1971
  751TMC3     C11099   4.223   2.998  11.102  0.5503  0.5993 -0.1343
  751TMC3     O11100   4.177   2.985  11.214 -0.0218 -0.1977 -0.0024
  751TMC3     H11101   4.164   2.768  11.184 -0.5009 -0.4266 -0.6030
  751TMC3    H111102   4.328   2.968  10.844  2.3382 -0.6387 -0.1589
  751TMC3    H211103   4.359   2.545  10.882 -2.3891 -0.4062 -0.8383
  751TMC3    C711104   4.455   2.751  10.750 -0.3652  0.6053 -0.4806
  751TMC3    C811105   4.183   2.520  11.093  0.1201 -0.7567  0.6572
  751TMC3    O111106   4.503   2.861  10.719 -0.2863 -0.2620  0.2500
  751TMC3    O211107   4.223   2.414  11.044  0.4684 -0.2117  0.5118
  752TMC3    C111108   4.070   2.651  16.728  0.5582  0.3178  0.1981
  752TMC3    C211109   4.039   2.522  16.688  0.7878 -1.0043  0.7333
  752TMC3    C311110   4.025   2.432  16.783  0.0371  0.0098 -0.2402
  752TMC3    C411111   4.090   2.695  16.855 -0.5889 -0.1597 -0.2412
  752TMC3    C511112   4.103   2.587  16.946  0.2508  0.1366 -0.9362
  752TMC3    C611113   4.075   2.463  16.906 -0.2183  0.0776 -0.5247
  752TMC3     C11114   4.084   2.743  16.616  0.1265  0.2884  0.7758
  752TMC3     O11115   4.117   2.682  16.515  0.4300  0.0940  0.7656
  752TMC3     H11116   4.027   2.487  16.586  1.8111  2.4482 -0.5742
  752TMC3    H111117   4.119   2.798  16.874 -0.6135 -0.4075  1.1604
  752TMC3    H211118   4.102   2.379  16.968 -0.0065 -1.1156 -2.2562
  752TMC3    C711119   4.181   2.618  17.064  0.1990 -0.4649 -0.5120
  752TMC3    C811120   4.017   2.296  16.746 -0.0141  0.0145  0.2560
  752TMC3    O111121   4.273   2.548  17.088 -0.0081 -0.0176 -0.3556
  752TMC3    O211122   4.026   2.258  16.630  0.2591  0.2379 -0.6686
  753TMC3    C111123   0.854   4.467  13.841  0.2421 -0.3400  0.5584
  753TMC3    C211124   0.966   4.539  13.890 -0.4860  0.3495 -0.9134
  753TMC3    C311125   1.058   4.463  13.956 -0.4965 -0.0009 -0.7181
  753TMC3    C411126   0.835   4.332  13.846  0.0452 -0.5476  0.3305
  753TMC3    C511127   0.941   4.266  13.907 -0.5429 -0.0285 -0.8396
  753TMC3    C611128   1.051   4.329  13.961 -0.1695  0.4043 -0.5503
  753TMC3     C11129   0.770   4.533  13.751  1.3007  0.3080  0.2502
  753TMC3     O11130   0.708   4.461  13.668  1.0702  0.1052 -0.6650
  753TMC3     H11131   0.977   4.646  13.882  0.6597  0.2513 -0.5552
  753TMC3    H111132   0.754   4.280  13.795 -0.2378 -0.7360  0.9647
  753TMC3    H211133   1.129   4.268  14.006 -0.6826  0.7783  0.8580
  753TMC3    C711134   0.957   4.125  13.893 -0.1708 -0.4948 -0.6715
  753TMC3    C811135   1.151   4.512  14.046  0.0497 -0.6031 -0.5052
  753TMC3    O111136   1.050   4.077  13.957  0.1309 -0.5080  0.2751
  753TMC3    O211137   1.245   4.438  14.076 -0.6566 -0.1557 -0.4016
  754MPD2     C11138   4.573   2.723  13.407  0.4973  0.3339  1.1738
  754MPD2    C111139   4.482   2.622  13.419 -0.4806  0.1436 -0.0941
  754MPD2    C211140   4.348   2.645  13.397  0.6859  0.6646 -0.6573
  754MPD2    C311141   4.302   2.776  13.396  0.0347  0.3581  0.2934
  754MPD2    C411142   4.389   2.879  13.400  0.4076  0.4344  0.1476
  754MPD2    C511143   4.524   2.847  13.400  0.1369 -0.1414  0.3089
  754MPD2     H11144   4.279   2.563  13.383 -0.4265  1.2395  1.5042
  754MPD2    H111145   4.359   2.983  13.398  0.9913  0.5561 -1.9489
  754MPD2    H211146   4.679   2.701  13.408  0.2171 -1.0096  0.4719
  754MPD2    H311147   4.600   2.923  13.409  0.8712 -0.7787 -0.4060
  754MPD2     N11148   4.167   2.811  13.393 -0.3531 -0.1504  0.1958
  754MPD2    H511149   4.156   2.910  13.375  0.8446 -0.0730 -0.1319
  754MPD2    N111150   4.545   2.499  13.451 -0.1498 -0.4767 -0.2791
  754MPD2    H711151   4.646   2.508  13.449 -0.4067  2.4919 -0.1593
  755MPD2     C11152   4.192   3.561  13.538  0.1831  0.2102 -0.3851
  755MPD2    C111153   4.069   3.550  13.595 -0.0641  0.7109 -0.2039
  755MPD2    C211154   4.007   3.424  13.579  0.1115  0.6343  0.6453
  755MPD2    C311155   4.061   3.325  13.501 -0.1967  0.3163 -0.2344
  755MPD2    C411156   4.192   3.345  13.464  0.9290 -1.0482  0.1086
  755MPD2    C511157   4.259   3.462  13.470  0.7211  0.3965 -0.6850
  755MPD2     H11158   3.909   3.404  13.620 -0.5605  0.3603 -1.1304
  755MPD2    H111159   4.239   3.265  13.407  1.8823 -0.6792  0.3754
  755MPD2    H211160   4.246   3.653  13.551  0.4941 -0.0083 -0.1162
  755MPD2    H311161   4.352   3.468  13.415  0.1064  2.1415 -1.5392
  755MPD2     N11162   4.003   3.203  13.468  0.1292 -0.2095 -0.3964
  755MPD2    H511163   4.059   3.138  13.414 -0.9940 -1.3638 -0.1935
  755MPD2    N111164   4.009   3.657  13.660 -1.1914  0.3635 -0.2666
  755MPD2    H711165   4.071   3.733  13.689  0.7645 -1.6827  0.9442
  756MPD2     C11166   4.623   4.073   9.372 -0.6383 -0.0020 -0.1337
  756MPD2    C111167   4.583   3.994   9.475 -0.3757 -0.3286 -0.0986
  756MPD2    C211168   4.497   3.892   9.450 -0.1804 -0.0004  0.4176
  756MPD2    C311169   4.467   3.847   9.322 -0.0967 -0.4595  0.3942
  756MPD2    C411170   4.510   3.926   9.218 -0.2698 -0.0696  0.7721
  756MPD2    C511171   4.583   4.039   9.244  0.1024 -0.7439 -0.0978
  756MPD2     H11172   4.452   3.840   9.533  0.3398  3.1361  2.6711
  756MPD2    H111173   4.494   3.903   9.113  0.6728  0.3644  0.5292
  756MPD2    H211174   4.676   4.167   9.381  0.6251 -0.9054  1.7049
  756MPD2    H311175   4.636   4.082   9.160 -0.5377  0.8712  0.3245
  756MPD2     N11176   4.396   3.722   9.310  0.3883  0.3690 -0.1013
  756MPD2    H511177   4.394   3.666   9.394 -2.2123  0.5736 -0.0014
  756MPD2    N111178   4.612   4.012   9.612 -0.3426 -0.8171  0.6838
  756MPD2    H711179   4.594   3.932   9.673  1.5009 -1.4130  0.4366
  757MPD2     C11180   3.669   3.192   9.740 -0.0531 -0.7281  0.0512
  757MPD2    C111181   3.721   3.097   9.654  0.0607 -0.3129  0.2638
  757MPD2    C211182   3.818   3.122   9.561  0.4708  1.0335  0.2053
  757MPD2    C311183   3.876   3.252   9.564  0.2786  0.3584 -0.5283
  757MPD2    C411184   3.818   3.348   9.646  0.6006  0.2236  0.1205
  757MPD2    C511185   3.713   3.323   9.729  0.4462 -0.5897 -0.1579
  757MPD2     H11186   3.844   3.044   9.490  1.3281  0.7879  0.7771
  757MPD2    H111187   3.850   3.451   9.649  0.1236  0.3199  1.8000
  757MPD2    H211188   3.597   3.169   9.818 -0.0058  1.4721  0.7305
  757MPD2    H311189   3.671   3.396   9.798 -0.9496 -1.0912 -0.4783
  757MPD2     N11190   3.974   3.290   9.467 -0.0173 -0.0724 -0.2466
  757MPD2    H511191   3.995   3.221   9.396 -2.5204 -2.0451  0.9015
  757MPD2    N111192   3.672   2.968   9.656  0.1374  0.2749 -0.0683
  757MPD2    H711193   3.716   2.894   9.601  1.3394  0.7338  0.2931
  758MPD2     C11194   4.421   2.952  15.985 -0.1267 -0.7593 -0.1400
  758MPD2    C111195   4.495   2.843  16.027  0.1652 -0.2211  0.4890
  758MPD2    C211196   4.505   2.817  16.158 -0.5178 -0.4592  0.4255
  758MPD2    C311197   4.442   2.896  16.257  0.5882  0.2003 -0.6451
  758MPD2    C411198   4.360   2.991  16.216 -0.3722 -0.9399  0.0237
  758MPD2    C511199   4.344   3.018  16.085  0.0824  0.2509 -0.0126
  758MPD2     H11200   4.571   2.736  16.186 -2.0423 -1.1193  2.1115
  758MPD2    H111201   4.299   3.049  16.284  1.2824  0.1043  0.6406
  758MPD2    H211202   4.422   2.986  15.882  1.7177 -4.0205 -1.1825
  758MPD2    H311203   4.267   3.088  16.056 -0.5286  0.0071  1.0544
  758MPD2     N11204   4.463   2.852  16.395  0.4189  1.5167  0.0119
  758MPD2    H511205   4.513   2.765  16.410  2.0140  2.2052 -1.2552
  758MPD2    N111206   4.566   2.758  15.947  0.0037  0.1803 -0.2259
  758MPD2    H711207   4.617   2.683  15.994 -0.8353  1.0030  1.9738
  759MPD2     C11208   3.649   4.533  10.038  0.7329 -0.0540 -0.2655
  759MPD2    C111209   3.529   4.537   9.971 -0.2169  0.2301 -0.2527
  759MPD2    C211210   3.505   4.653   9.890 -0.0374  0.5741 -0.1630
  759MPD2    C311211   3.597   0.034   9.883 -0.1040  0.7117 -0.3501
  759MPD2    C411212   3.714   0.029   9.958 -0.0025  0.7398  0.1708
  759MPD2    C511213   3.728   4.637  10.033 -0.6079  0.9490 -0.0786
  759MPD2     H11214   3.416   4.647   9.829 -0.1295 -1.5914  0.1860
  759MPD2    H111215   3.785   0.111   9.952 -0.8867  1.6439  1.8658
  759MPD2    H211216   3.682   4.454  10.105 -0.1066  0.8495  1.2229
  759MPD2    H311217   3.822   4.624  10.087 -0.7380  2.0268  0.3998
  759MPD2     N11218   3.567   0.137   9.787  0.2343 -0.0113  0.0686
  759MPD2    H511219   3.488   0.120   9.726  0.7047 -0.5082 -0.4103
  759MPD2    N111220   3.427   4.436   9.975 -0.2943  0.3995  0.1295
  759MPD2    H711221   3.336   4.460   9.935 -0.0601  1.4439  0.2124
  760MPD2     C11222   3.216   3.309  11.985 -0.1394 -0.2044 -0.2653
  760MPD2    C111223   3.291   3.304  11.868 -0.0955 -0.4085 -0.5940
  760MPD2    C211224   3.286   3.194  11.785 -0.0567 -0.3782  0.4022
  760MPD2    C311225   3.211   3.083  11.821 -0.0360  0.1151 -0.6069
  760MPD2    C411226   3.124   3.090  11.931 -0.1264  0.4813 -0.4122
  760MPD2    C511227   3.123   3.208  12.000 -0.2636  0.8352 -1.0954
  760MPD2     H11228   3.358   3.192  11.704 -0.2196 -2.0302  0.3079
  760MPD2    H111229   3.045   3.017  11.946  0.0809  0.0996 -1.1987
  760MPD2    H211230   3.222   3.391  12.055  2.5394 -1.4405  0.9515
  760MPD2    H311231   3.063   3.207  12.090  0.2884  1.0865 -0.7309
  760MPD2     N11232   3.213   2.964  11.753  0.0033 -0.5462 -0.6586
  760MPD2    H511233   3.162   2.887  11.795 -2.5840  0.6326 -1.6382
  760MPD2    N111234   3.379   3.408  11.833 -0.0107 -0.1313 -0.3837
  760MPD2    H711235   3.417   3.417  11.739 -2.0437  1.6424 -1.0186
  761MPD2     C11236   3.881   2.238  11.404  0.0518 -0.6633 -0.5661
  761MPD2    C111237   3.964   2.194  11.309  0.7901  0.0716  0.0201
  761MPD2    C211238   4.034   2.291  11.230  1.0136 -0.0449 -0.2550
  761MPD2    C311239   4.020   2.431  11.259 -0.3688 -0.2897  0.4624
  761MPD2    C411240   3.931   2.473  11.354 -0.3913  0.4767 -0.3127
  761MPD2    C511241   3.857   2.375  11.416  1.2591 -0.3922 -0.2690
  761MPD2     H11242   4.112   2.262  11.161 -1.3692 -0.7765 -2.6489
  761MPD2    H111243   3.909   2.577  11.373  0.1326  0.4468  0.4368
  761MPD2    H211244   3.821   2.173  11.466  1.4792 -0.2180  1.2860
  761MPD2    H311245   3.778   2.415  11.478  0.8450 -0.4537 -0.7520
  761MPD2     N11246   4.082   2.534  11.185 -0.1884 -0.4109 -0.0331
  761MPD2    H511247   4.062   2.626  11.224  1.2350 -0.2699  0.3782
  761MPD2    N111248   3.987   2.056  11.301 -0.3920  0.5347  0.5834
  761MPD2    H711249   3.942   1.995  11.369 -1.8583  1.5213  0.5117
  762MPD2     C11250   4.027   1.360  10.718  0.0873 -0.4906  0.7918
  762MPD2    C111251   4.098   1.473  10.759 -0.6338 -0.0004  0.9484
  762MPD2    C211252   4.166   1.546  10.664 -0.0590 -0.1757  0.4743
  762MPD2    C311253   4.172   1.505  10.530  0.4668 -0.3985 -0.6880
  762MPD2    C411254   4.108   1.386  10.500  0.1949  0.6450 -0.0326
  762MPD2    C511255   4.034   1.323  10.592  0.5989 -0.3160 -0.6288
  762MPD2     H11256   4.211   1.638  10.700  0.4068  0.3756 -1.5050
  762MPD2    H111257   4.118   1.339  10.403  2.2241  1.0356 -0.0050
  762MPD2    H211258   3.976   1.297  10.789  0.4772 -0.8089  0.7913
  762MPD2    H311259   3.990   1.225  10.575 -0.4900  0.0963 -0.1660
  762MPD2     N11260   4.236   1.579  10.432  0.0456  0.2877  0.3656
  762MPD2    H511261   4.258   1.532  10.345 -0.2165 -2.0098  1.5254
  762MPD2    N111262   4.088   1.517  10.896  0.1068  0.5907 -0.1860
  762MPD2    H711263   4.005   1.482  10.943  0.4828 -1.2273 -0.8824
  763MPD2     C11264   2.105   2.580  16.629  0.4094 -0.0680 -0.3152
  763MPD2    C111265   2.059   2.639  16.516 -0.0857 -0.0654 -0.6015
  763MPD2    C211266   2.059   2.778  16.499 -1.0427  0.1371 -0.2408
  763MPD2    C311267   2.108   2.858  16.599  0.9005 -0.2453 -0.3459
  763MPD2    C411268   2.159   2.794  16.717  0.1007  0.1388 -0.5053
  763MPD2    C511269   2.162   2.657  16.725 -1.1978  0.2727 -1.0421
  763MPD2     H11270   2.017   2.816  16.407 -2.6222  0.7465  0.7387
  763MPD2    H111271   2.195   2.857  16.797  0.6448 -0.2961 -0.4086
  763MPD2    H211272   2.097   2.474  16.647  1.8765  0.1814  1.7523
  763MPD2    H311273   2.203   2.608  16.813 -1.6069 -0.8692 -1.4859
  763MPD2     N11274   2.135   3.001  16.587 -0.0756  0.0042 -0.2700
  763MPD2    H511275   2.173   3.054  16.665 -2.6758  0.8217  0.4358
  763MPD2    N111276   2.009   2.561  16.407 -0.4981 -0.1745  0.0655
  763MPD2    H711277   1.982   2.609  16.322  0.5952  0.5094  0.0995
  764MPD2     C11278   4.132   0.522   0.274  0.3982  0.1217  0.4818
  764MPD2    C111279   4.099   0.406   0.215  0.5851  0.3847  1.0910
  764MPD2    C211280   4.123   0.291   0.290 -0.0323 -0.2764 -0.2755
  764MPD2    C311281   4.160   0.293   0.426 -0.0143 -0.4976 -0.4911
  764MPD2    C411282   4.182   0.416   0.476  0.6773 -0.0691  1.2889
  764MPD2    C511283   4.168   0.528   0.402 -0.2484  0.6062 -0.2150
  764MPD2     H11284   4.139   0.196   0.241 -4.0296 -1.5781  0.9436
  764MPD2    H111285   4.221   0.424   0.577  1.7282  0.2617  0.8500
  764MPD2    H211286   4.110   0.619   0.231 -0.8388 -0.3275  0.0918
  764MPD2    H311287   4.198   0.617   0.457 -0.6055  0.9333 -0.5482
  764MPD2     N11288   4.174   0.168   0.490  0.2994  0.5699  0.5443
  764MPD2    H511289   4.147   0.094   0.425  2.9190  1.2944 -1.3646
  764MPD2    N111290   4.072   0.396   0.079  0.2120  0.0768 -0.4322
  764MPD2    H711291   4.043   0.304   0.048 -0.0132 -0.1466  0.4221
  765MPD2     C11292   4.175   2.230  15.469  0.1973 -0.2529 -0.2214
  765MPD2    C111293   4.246   2.310  15.554  0.3865  0.0943  0.3940
  765MPD2    C211294   4.368   2.262  15.610  0.7371 -0.6780  0.6102
  765MPD2    C311295   4.410   2.132  15.583 -0.5041  0.5194 -0.0152
  765MPD2    C411296   4.330   2.050  15.503  0.2968  0.2823 -0.3042
  765MPD2    C511297   4.210   2.098  15.458 -0.2606  0.8810 -0.2501
  765MPD2     H11298   4.430   2.332  15.664 -0.1655 -0.0933  0.8864
  765MPD2    H111299   4.347   1.946  15.478  0.9838  0.9030 -2.4356
  765MPD2    H211300   4.089   2.276  15.420  0.5399  1.1190  0.4560
  765MPD2    H311301   4.149   2.018  15.418  0.5402  0.6858 -1.0778
  765MPD2     N11302   4.545   2.096  15.628  0.2785 -0.3977 -0.2750
  765MPD2    H511303   4.595   2.162  15.687 -0.3046  0.2358 -0.4926
  765MPD2    N111304   4.208   2.437  15.576 -0.2148 -0.0942  0.0422
  765MPD2    H711305   4.118   2.467  15.538 -0.5212 -2.1813 -0.8654
  766MPD2     C11306   3.625   2.600  15.448 -0.2399  0.3931 -0.0932
  766MPD2    C111307   3.758   2.630  15.417 -0.2972 -0.1698 -0.5544
  766MPD2    C211308   3.802   2.595  15.290 -0.3033 -0.2636 -0.2608
  766MPD2    C311309   3.717   2.541  15.192  0.7628 -0.0516 -0.0565
  766MPD2    C411310   3.584   2.518  15.223  0.2473  0.0049 -0.3338
  766MPD2    C511311   3.539   2.543  15.351  0.3114  0.2120  1.0362
  766MPD2     H11312   3.907   2.611  15.273  0.2196 -2.0803  1.2543
  766MPD2    H111313   3.514   2.484  15.147  3.0771 -4.9868 -0.7050
  766MPD2    H211314   3.583   2.612  15.548 -1.8730 -0.8526 -0.6208
  766MPD2    H311315   3.435   2.523  15.376  0.9626 -3.2459  0.9499
  766MPD2     N11316   3.761   2.513  15.061 -0.6829 -0.3491 -0.2896
  766MPD2    H511317   3.706   2.445  15.009 -0.8670 -0.3762 -0.0621
  766MPD2    N111318   3.855   2.680  15.516  0.3379 -1.3066 -0.4234
  766MPD2    H711319   3.941   2.720  15.479  0.0570 -0.6700 -0.3908
  767MPD2     C11320   3.422   2.779  15.117 -0.0323  0.4227 -0.7237
  767MPD2    C111321   3.537   2.806  15.043 -0.0966 -0.1270  0.3674
  767MPD2    C211322   3.554   2.744  14.920  0.2223  0.0176 -0.5230
  767MPD2    C311323   3.450   2.653  14.872  0.4882  0.5923 -0.5172
  767MPD2    C411324   3.335   2.635  14.946 -0.0049 -0.1158 -0.1922
  767MPD2    C511325   3.326   2.686  15.072  0.5190 -0.8046 -0.0057
  767MPD2     H11326   3.636   2.771  14.855  1.0094 -1.9342 -0.3464
  767MPD2    H111327   3.254   2.572  14.910 -1.5832  1.5800  0.4069
  767MPD2    H211328   3.407   2.835  15.208 -3.5021 -2.8839  0.7554
  767MPD2    H311329   3.240   2.667  15.136  3.1122 -1.1805  3.3871
  767MPD2     N11330   3.478   2.573  14.750  0.0208  0.5710 -0.3198
  767MPD2    H511331   3.563   2.590  14.697 -0.5138 -0.9344 -1.6600
  767MPD2    N111332   3.628   2.894  15.096  0.6830 -0.3001  0.6362
  767MPD2    H711333   3.620   2.920  15.193  0.3903 -0.1098  0.5578
  768MPD2     C11334   4.386   0.719  10.749  0.4248 -0.0275 -0.1401
  768MPD2    C111335   4.299   0.725  10.850 -1.0390 -0.0481  0.5774
  768MPD2    C211336   4.349   0.748  10.982 -0.1103  0.3027 -0.0608
  768MPD2    C311337   4.481   0.771  11.013 -0.0514 -0.9101  0.0175
  768MPD2    C411338   4.571   0.758  10.904 -0.0221  0.0990 -0.5389
  768MPD2    C511339   4.520   0.733  10.779 -0.1890 -0.4723 -0.0141
  768MPD2     H11340   4.286   0.748  11.070 -1.6993 -2.7824 -1.1758
  768MPD2    H111341   4.676   0.784  10.908 -0.3108  1.2463 -0.3806
  768MPD2    H211342   4.357   0.698  10.647 -2.7432 -1.6974  1.1201
  768MPD2    H311343   4.596   0.740  10.703  0.8913 -0.0433  1.0950
  768MPD2     N11344   4.531   0.791  11.143  0.7352  0.6333 -0.5103
  768MPD2    H511345   4.465   0.822  11.214  0.0348  1.0640 -1.3492
  768MPD2    N111346   4.161   0.689  10.830  0.1344  0.2133  0.1123
  768MPD2    H711347   4.131   0.668  10.735 -0.4522  0.1417  0.3154
  769MPD2     C11348   0.937   3.650  14.926 -0.2348 -0.2680 -0.3874
  769MPD2    C111349   0.832   3.739  14.909  0.4210 -0.2848 -0.5414
  769MPD2    C211350   0.798   3.816  15.015 -0.5299  0.0020  0.0999
  769MPD2    C311351   0.870   3.813  15.133  0.2456  0.1524  0.1575
  769MPD2    C411352   0.990   3.736  15.139  0.0500  1.3469 -0.5851
  769MPD2    C511353   1.025   3.662  15.031  0.2490 -0.2365  0.5284
  769MPD2     H11354   0.699   3.860  15.023 -0.7278 -0.4214 -0.0268
  769MPD2    H111355   1.050   3.731  15.229 -1.7830  1.7507  0.6623
  769MPD2    H211356   0.960   3.575  14.852  1.4567  1.1190 -1.2808
  769MPD2    H311357   1.111   3.597  15.038  0.8860  0.4710 -0.7938
  769MPD2     N11358   0.814   3.877  15.245  0.0147  0.0930 -0.0970
  769MPD2    H511359   0.721   3.917  15.247  0.8410  2.0665 -0.9009
  769MPD2    N111360   0.758   3.733  14.790  0.4710  0.3380 -0.3498
  769MPD2    H711361   0.782   3.657  14.727  2.6165  1.1215 -0.5023
  770MPD2     C11362   0.448   2.951  14.373 -0.5713 -0.1253  0.3901
  770MPD2    C111363   0.355   2.998  14.468 -0.4704  0.3103 -0.4763
  770MPD2    C211364   0.352   3.133  14.511  0.1065 -0.0980  0.1707
  770MPD2    C311365   0.444   3.218  14.453 -0.1679 -0.3363 -0.1140
  770MPD2    C411366   0.542   3.168  14.366 -0.0731 -0.2358 -0.1726
  770MPD2    C511367   0.550   3.035  14.328 -0.1342 -0.6416  0.2633
  770MPD2     H11368   0.283   3.168  14.587  1.4539  1.5937  0.6227
  770MPD2    H111369   0.617   3.231  14.318  0.9650 -0.2704  1.3947
  770MPD2    H211370   0.465   2.850  14.337  1.0328  0.2410  0.1241
  770MPD2    H311371   0.618   2.992  14.255 -0.1815 -0.2235 -0.0286
  770MPD2     N11372   0.420   3.354  14.489 -0.7507  0.0917 -0.0844
  770MPD2    H511373   0.339   3.366  14.550 -1.9859 -0.4971 -1.6249
  770MPD2    N111374   0.273   2.908  14.529 -0.3448 -0.4312 -0.3140
  770MPD2    H711375   0.286   2.810  14.503  1.3143 -0.5495  0.9810
  771MPD2     C11376   1.543   1.681  13.687  0.5648  0.1844 -0.8987
  771MPD2    C111377   1.482   1.805  13.675  0.2740  0.9402  0.5551
  771MPD2    C211378   1.365   1.813  13.607  0.0788 -0.0715 -0.3713
  771MPD2    C311379   1.315   1.701  13.541  0.2512  0.2281 -1.1789
  771MPD2    C411380   1.378   1.583  13.552 -0.4753  0.0611  0.1343
  771MPD2    C511381   1.494   1.574  13.625 -0.1789 -0.0545 -0.4365
  771MPD2     H11382   1.299   1.899  13.600 -0.1324 -0.4160 -2.5667
  771MPD2    H111383   1.346   1.498  13.493  2.2986 -0.4425 -0.6738
  771MPD2    H211384   1.634   1.681  13.745  1.7988  0.8466 -2.8589
  771MPD2    H311385   1.550   1.482  13.627 -2.1897 -1.3151 -2.1952
  771MPD2     N11386   1.195   1.715  13.465 -0.0209 -0.2268  0.2496
  771MPD2    H511387   1.142   1.798  13.491 -1.5612 -1.0976 -0.1034
  771MPD2    N111388   1.530   1.925  13.741 -0.3431  0.4243  0.7913
  771MPD2    H711389   1.484   2.014  13.732  0.8031  1.0356  0.9050
  772MPD2     C11390   1.266   2.440  14.139 -0.1107 -0.3298  0.7260
  772MPD2    C111391   1.283   2.325  14.065  1.0149  0.1818  0.3497
  772MPD2    C211392   1.170   2.247  14.056 -0.3501 -0.4340  0.6133
  772MPD2    C311393   1.056   2.280  14.120  0.0259  0.3533 -0.3439
  772MPD2    C411394   1.045   2.394  14.197  0.2062 -0.1622  0.6578
  772MPD2    C511395   1.151   2.476  14.196  0.3624  0.1663  0.0398
  772MPD2     H11396   1.171   2.156  13.997  0.1019  0.0245 -0.0803
  772MPD2    H111397   0.958   2.418  14.257 -1.0376 -0.7599 -0.8992
  772MPD2    H211398   1.348   2.509  14.156 -0.5634  0.9022 -2.1052
  772MPD2    H311399   1.137   2.569  14.249 -3.2609 -1.3523  1.7310
  772MPD2     N11400   0.925   2.212  14.107 -0.4389 -0.0776 -0.7723
  772MPD2    H511401   0.852   2.252  14.164 -1.0733  0.8989 -2.2820
  772MPD2    N111402   1.399   2.281  14.002  0.3574  0.0944 -0.7078
  772MPD2    H711403   1.394   2.202  13.938  3.7468 -1.3495  0.7770
  773MPD2     C11404   0.880   3.584   0.453 -0.4526  0.5964 -0.1136
  773MPD2    C111405   0.764   3.520   0.421  0.1402 -0.8470  0.6793
  773MPD2    C211406   0.747   3.389   0.465 -0.8511  0.3218  0.1154
  773MPD2    C311407   0.839   3.321   0.534 -0.4207 -0.1449  0.4991
  773MPD2    C411408   0.955   3.394   0.555  0.0295  0.9202 -0.3261
  773MPD2    C511409   0.980   3.520   0.521  0.6583 -0.3465  0.1118
  773MPD2     H11410   0.662   3.326   0.443  0.9006 -1.5749 -1.2927
  773MPD2    H111411   1.039   3.348   0.606  0.2282  2.8321  1.0811
  773MPD2    H211412   0.892   3.687   0.420  0.4803  2.1622  5.1781
  773MPD2    H311413   1.073   3.571   0.546  2.0591 -1.4574 -2.8164
  773MPD2     N11414   0.823   3.177   0.556  0.2622 -0.2337 -0.1541
  773MPD2    H511415   0.730   3.138   0.566  0.4759 -0.9249 -0.8698
  773MPD2    N111416   0.655   3.569   0.343 -0.5622  0.0736  0.0152
  773MPD2    H711417   0.581   3.501   0.327 -0.3173 -0.1862 -0.0164
  774MPD2     C11418   3.950   1.721  13.737  0.4794 -0.1393  0.2005
  774MPD2    C111419   4.087   1.746  13.744  0.3112 -0.2835  0.5141
  774MPD2    C211420   4.132   1.868  13.704 -0.9060 -0.2487 -0.8951
  774MPD2    C311421   4.052   1.960  13.639  0.2686  0.0302  0.0866
  774MPD2    C411422   3.913   1.941  13.648  0.2467  0.6127 -0.0205
  774MPD2    C511423   3.864   1.821  13.697 -0.3480 -0.2713 -0.2347
  774MPD2     H11424   4.239   1.887  13.711 -0.9895  0.5985 -1.9389
  774MPD2    H111425   3.845   2.016  13.609 -0.3034  1.5682  2.7892
  774MPD2    H211426   3.906   1.626  13.768 -3.2717  0.5274 -3.0882
  774MPD2    H311427   3.758   1.799  13.705 -0.2077 -1.6066 -2.0875
  774MPD2     N11428   4.113   2.078  13.602  1.0293 -0.3521  1.3871
  774MPD2    H511429   4.215   2.081  13.608  0.9420  2.2937  1.7596
  774MPD2    N111430   4.172   1.648  13.791 -0.1987 -0.5922  0.5449
  774MPD2    H711431   4.126   1.568  13.834  0.4622 -0.3449  1.7223
  775MPD2     C11432   0.826   3.688  16.020 -0.4980 -0.3117 -0.2230
  775MPD2    C111433   0.813   3.822  16.031 -0.5237 -0.1544  0.3314
  775MPD2    C211434   0.886   3.896  15.934 -0.3772 -0.0541 -0.3921
  775MPD2    C311435   0.971   3.840  15.844 -0.2976  0.4386 -0.0691
  775MPD2    C411436   0.994   3.706  15.845  0.8339 -0.1554  0.0424
  775MPD2    C511437   0.914   3.630  15.927 -0.5013  0.0125  0.0674
  775MPD2     H11438   0.883   4.004  15.940 -0.6291  0.0034 -1.4186
  775MPD2    H111439   1.077   3.674  15.783  1.2855 -0.9541  1.0641
  775MPD2    H211440   0.771   3.624  16.088  0.3514 -1.2226 -0.3836
  775MPD2    H311441   0.930   3.523  15.928 -2.0781 -0.2055  0.7870
  775MPD2     N11442   1.043   3.914  15.746  0.0365  0.3549  0.2854
  775MPD2    H511443   1.129   3.880  15.704 -0.7375 -1.3432  0.0993
  775MPD2    N111444   0.720   3.871  16.127 -0.2453  0.1894 -0.1380
  775MPD2    H711445   0.675   3.802  16.186 -1.0761 -0.5917 -1.6961
  776MPD2     C11446   4.217   4.019  11.882  0.2444  0.3567  0.2902
  776MPD2    C111447   4.304   3.911  11.876  0.3476  0.0028 -0.4321
  776MPD2    C211448   4.444   3.933  11.885 -0.1956 -0.1099 -0.0732
  776MPD2    C311449   4.482   4.063  11.903  0.4151  0.1272 -0.3049
  776MPD2    C411450   4.390   4.161  11.910 -0.1663  0.3450 -0.5076
  776MPD2    C511451   4.255   4.143  11.901  0.1651  0.6961 -0.4234
  776MPD2     H11452   4.508   3.846  11.882 -0.3107 -0.2312  1.1245
  776MPD2    H111453   4.426   4.261  11.929  2.0622 -0.9271  2.0520
  776MPD2    H211454   4.109   4.004  11.881  0.3785 -0.5228 -0.9350
  776MPD2    H311455   4.196   4.234  11.911 -0.1538  0.5146 -0.6374
  776MPD2     N11456   4.624   4.092  11.908 -0.2532  0.7828 -0.2497
  776MPD2    H511457   4.687   4.018  11.880 -0.6613  0.4506 -0.2987
  776MPD2    N111458   4.244   3.785  11.849 -0.0612  0.2526  0.3347
  776MPD2    H711459   4.145   3.787  11.869  0.0541  2.4861  0.7134
  777MPD2     C11460   4.701   2.023   1.171  0.6812  0.4797  0.1619
  777MPD2    C111461   0.098   1.963   1.213 -0.0287  0.0424 -0.4043
  777MPD2    C211462   0.128   1.830   1.163 -0.4843  0.0079  0.3108
  777MPD2    C311463   0.042   1.762   1.080  0.3216 -0.5409 -0.1987
  777MPD2    C411464   4.637   1.817   1.051 -0.3910  0.0380 -0.5277
  777MPD2    C511465   4.610   1.945   1.091 -0.0050 -0.5458 -0.1793
  777MPD2     H11466   0.219   1.782   1.197 -0.1701 -0.3702 -1.0851
  777MPD2    H111467   4.558   1.767   0.997 -0.2449  1.4004 -2.0079
  777MPD2    H211468   4.668   2.125   1.187  0.5788  0.5968 -0.7996
  777MPD2    H311469   4.514   1.984   1.059 -1.0564 -1.7670  1.5511
  777MPD2     N11470   0.076   1.626   1.051 -0.0933  0.1283 -0.0045
  777MPD2    H511471   0.171   1.596   1.070 -0.2288  0.7194  1.6162
  777MPD2    N111472   0.176   2.030   1.312 -0.1147  0.3577 -0.4360
  777MPD2    H711473   0.141   2.119   1.347 -0.7145  0.1703 -0.5476
  778MPD2     C11474   1.619   1.945  14.734 -0.3554  0.1915 -0.4821
  778MPD2    C111475   1.732   1.872  14.752 -0.0851  0.2981  0.9906
  778MPD2    C211476   1.840   1.884  14.666  0.3884  0.4090  0.0793
  778MPD2    C311477   1.835   1.969  14.554 -1.2060  0.5879 -0.0202
  778MPD2    C411478   1.719   2.046  14.539 -0.3100  0.1697  0.0190
  778MPD2    C511479   1.618   2.027  14.626  0.0932 -0.2435 -0.3564
  778MPD2     H11480   1.931   1.830  14.688 -0.6664 -1.0818  0.8019
  778MPD2    H111481   1.701   2.115  14.457 -3.4444 -0.3500  0.2992
  778MPD2    H211482   1.530   1.936  14.795 -0.9987 -2.7275 -1.8389
  778MPD2    H311483   1.526   2.084  14.617 -0.7194 -1.7587 -1.6480
  778MPD2     N11484   1.943   1.981  14.473  0.3860  0.0089  0.2686
  778MPD2    H511485   2.019   1.924  14.509 -1.5078 -3.1033 -0.6117
  778MPD2    N111486   1.725   1.764  14.841  0.7698 -0.3067 -0.4004
  778MPD2    H711487   1.790   1.687  14.825 -0.9842 -1.5738 -1.3940
  779MPD2     C11488   1.792   0.850  13.909  0.1569 -0.1864  0.7302
  779MPD2    C111489   1.751   0.893  14.035 -0.2681  0.5114  0.2530
  779MPD2    C211490   1.782   1.018  14.072 -0.2695  0.2413 -0.7176
  779MPD2    C311491   1.834   1.112  13.986 -0.0583  0.5732 -0.1599
  779MPD2    C411492   1.863   1.074  13.858 -0.1925  0.5489 -0.5659
  779MPD2    C511493   1.835   0.945  13.820 -0.0225 -0.1434 -0.0152
  779MPD2     H11494   1.765   1.052  14.174  2.2506  0.5224 -0.4091
  779MPD2    H111495   1.918   1.141  13.792 -0.4571 -0.0888 -1.4390
  779MPD2    H211496   1.783   0.753  13.863  0.3974  0.1081  0.0720
  779MPD2    H311497   1.872   0.898  13.729  0.5471  2.2139 -1.0029
  779MPD2     N11498   1.849   1.242  14.031  0.4781  0.1585 -0.3997
  779MPD2    H511499   1.841   1.262  14.130 -1.7839  1.3076 -0.8048
  779MPD2    N111500   1.682   0.809  14.120  0.4579 -0.0634  0.1491
  779MPD2    H711501   1.651   0.850  14.208  0.7038  1.1467 -0.3349
  780MPD2     C11502   0.097   0.739   0.048  0.6798 -0.0392  0.0901
  780MPD2    C111503   0.204   0.676   0.104 -0.8242  0.2716 -0.5220
  780MPD2    C211504   0.322   0.746   0.107 -0.3590 -0.4463  0.2396
  780MPD2    C311505   0.337   0.872   0.047 -0.0966  0.7512  0.4149
  780MPD2    C411506   0.225   0.936  17.688 -0.0147  0.3039  0.1332
  780MPD2    C511507   0.107   0.865  17.690 -0.0144  0.4260 -0.0172
  780MPD2     H11508   0.406   0.697   0.156 -0.3641 -0.1839  0.5104
  780MPD2    H111509   0.226   1.027  17.630  0.4962  0.6712  0.7312
  780MPD2    H211510   0.004   0.682   0.045  0.2199  0.7762 -1.0170
  780MPD2    H311511   0.016   0.908  17.649 -0.4202  1.0808  1.5564
  780MPD2     N11512   0.470   0.920   0.036  0.0364  0.3944  0.7154
  780MPD2    H511513   0.542   0.870   0.088  0.4789 -0.5135 -0.7605
  780MPD2    N111514   0.179   0.552   0.151 -0.5287  0.3570 -0.7726
  780MPD2    H711515   0.090   0.506   0.132 -1.0057  1.4064 -1.1181
  781MPD2     C11516   2.035   2.552  11.951  0.1110  0.1613  0.1045
  781MPD2    C111517   2.152   2.531  12.016  0.0382 -0.4099  0.0391
  781MPD2    C211518   2.267   2.545  11.947  0.1730  0.0878 -0.7798
  781MPD2    C311519   2.267   2.574  11.809 -0.0868  0.5932 -0.8187
  781MPD2    C411520   2.149   2.591  11.749  0.4679 -0.2797 -0.0561
  781MPD2    C511521   2.031   2.580  11.815  0.1559 -0.0837 -0.3482
  781MPD2     H11522   2.360   2.527  11.999  1.0351 -1.0123 -2.6889
  781MPD2    H111523   2.162   2.628  11.648 -1.0505 -0.0313 -0.1654
  781MPD2    H211524   1.941   2.545  12.005 -0.3522  1.6850 -0.4829
  781MPD2    H311525   1.944   2.603  11.755 -1.1719 -2.0774  0.8026
  781MPD2     N11526   2.381   2.582  11.719 -0.5475 -0.6204 -0.1012
  781MPD2    H511527   2.366   2.604  11.621 -2.4014  1.6690  0.6928
  781MPD2    N111528   2.159   2.507  12.159  0.0229  0.1366  0.0759
  781MPD2    H711529   2.254   2.489  12.190  0.0120  1.2689  0.7509
  782MPD2     C11530   0.506   3.429  10.164 -0.6754  0.3871 -0.5473
  782MPD2    C111531   0.434   3.341  10.236 -0.2133 -0.1058  0.0435
  782MPD2    C211532   0.414   3.374  10.367  0.0695 -0.0213  0.5214
  782MPD2    C311533   0.454   3.501  10.416 -0.2900 -0.3140  0.3254
  782MPD2    C411534   0.499   3.597  10.332 -0.6492 -0.4811 -0.9114
  782MPD2    C511535   0.518   3.558  10.202 -0.1616  0.0033  0.0502
  782MPD2     H11536   0.386   3.303  10.445 -1.6796 -0.9064 -0.9179
  782MPD2    H111537   0.529   3.695  10.368  1.2520 -1.1528 -0.6143
  782MPD2    H211538   0.538   3.414  10.061  0.9629 -2.6664  0.4084
  782MPD2    H311539   0.556   3.634  10.135 -0.0100 -1.6018 -1.6834
  782MPD2     N11540   0.467   3.514  10.557 -0.2167 -0.1174 -0.0851
  782MPD2    H511541   0.450   3.427  10.606  1.3452  0.1757  0.9692
  782MPD2    N111542   0.415   3.216  10.181 -0.3332 -0.1655 -0.5948
  782MPD2    H711543   0.453   3.184  10.093  0.1968 -0.1179 -0.3809
  783MPD2     C11544   4.618   2.450  10.608 -0.5820  0.1863 -0.1005
  783MPD2    C111545   4.599   2.587  10.623  0.2112  0.2348  0.9261
  783MPD2    C211546   4.682   2.682  10.567 -0.2145 -0.7145 -0.3536
  783MPD2    C311547   0.067   2.634  10.483 -0.1610 -0.6712 -0.2641
  783MPD2    C411548   0.077   2.499  10.460  0.4470 -0.7285  0.4626
  783MPD2    C511549   4.713   2.412  10.521 -0.4063  0.0553 -0.2191
  783MPD2     H11550   4.664   2.787  10.584  0.4649 -0.8587  1.2382
  783MPD2    H111551   0.139   2.465  10.379 -0.1806  1.7996 -1.0866
  783MPD2    H211552   4.551   2.375  10.649 -0.4951  2.4427  4.1443
  783MPD2    H311553   4.713   2.310  10.484 -4.7431  0.2884 -0.8448
  783MPD2     N11554   0.162   2.730  10.433  0.2650  0.6235 -1.1339
  783MPD2    H511555   0.143   2.829  10.441  0.0505  0.5761 -1.0576
  783MPD2    N111556   4.486   2.627  10.707  0.1669  0.0444  0.2077
  783MPD2    H711557   4.437   2.557  10.761 -0.7262  0.1806 -0.4370
  784MPD2     C11558   2.883   2.928   0.926 -0.4725 -0.8426 -0.8618
  784MPD2    C111559   2.831   3.029   1.008  0.8041  0.0307 -0.1193
  784MPD2    C211560   2.732   3.105   0.949 -0.2227  0.1694  0.0371
  784MPD2    C311561   2.687   3.104   0.815  0.0979 -0.3580  0.3775
  784MPD2    C411562   2.748   3.007   0.741  0.1440  0.1600  0.0835
  784MPD2    C511563   2.841   2.920   0.794  0.0441 -0.2782 -0.1172
  784MPD2     H11564   2.690   3.181   1.014 -0.9722  0.5747 -0.9176
  784MPD2    H111565   2.721   2.998   0.636  1.4876 -0.3664 -0.2222
  784MPD2    H211566   2.967   2.865   0.953 -0.7487 -1.0189 -0.4264
  784MPD2    H311567   2.877   2.838   0.733 -1.4936 -0.7263 -0.4350
  784MPD2     N11568   2.593   3.196   0.777 -0.0772  0.0074  0.0276
  784MPD2    H511569   2.549   3.242   0.856 -2.3754 -0.7604 -0.8017
  784MPD2    N111570   2.893   3.072   1.130  0.6743  0.8518  0.4783
  784MPD2    H711571   2.823   3.127   1.178 -1.4812  0.0496 -1.7789
  785MPD2     C11572   2.148   1.171  10.438 -1.0486  0.1520 -0.1606
  785MPD2    C111573   2.109   1.275  10.517 -0.4374 -0.0275  1.4247
  785MPD2    C211574   2.003   1.355  10.474  0.1729 -0.1431 -1.0024
  785MPD2    C311575   1.937   1.342  10.356 -0.0789 -0.1946  0.0920
  785MPD2    C411576   1.984   1.242  10.277 -0.3729 -0.7801 -0.0407
  785MPD2    C511577   2.085   1.154  10.319 -0.1081 -0.1052 -0.7528
  785MPD2     H11578   1.981   1.442  10.535 -0.0606  0.0173 -1.3180
  785MPD2    H111579   1.931   1.222  10.185  0.5599  1.2426 -1.0112
  785MPD2    H211580   2.222   1.098  10.469  0.2148  1.3634 -0.3090
  785MPD2    H311581   2.095   1.068  10.254 -0.9064 -0.8774  0.1379
  785MPD2     N11582   1.845   1.443  10.313  0.5173 -0.5331 -0.7827
  785MPD2    H511583   1.822   1.510  10.386  1.7692 -0.1758 -0.7208
  785MPD2    N111584   2.164   1.286  10.646  0.2761 -0.3082 -0.6796
  785MPD2    H711585   2.239   1.225  10.676  0.4971 -0.5612 -1.7599
  786MPD2     C11586   1.839   0.594  14.889 -0.5279  0.2237 -0.4060
  786MPD2    C111587   1.857   0.463  14.930 -0.0051 -0.4594 -0.6487
  786MPD2    C211588   1.918   0.438  15.049 -0.1778 -0.2989  0.3635
  786MPD2    C311589   1.961   0.546  15.127  0.5272  0.0251 -0.6570
  786MPD2    C411590   1.948   0.676  15.079  0.2374  0.6674  0.2852
  786MPD2    C511591   1.892   0.704  14.956  0.3519  0.1099 -0.1251
  786MPD2     H11592   1.930   0.333  15.075  0.0139 -0.4189 -0.2081
  786MPD2    H111593   1.993   0.764  15.124 -0.6023  1.5145 -0.5200
  786MPD2    H211594   1.785   0.616  14.798 -0.8597 -0.4746 -0.3788
  786MPD2    H311595   1.876   0.808  14.932 -1.4942 -0.2359 -0.3608
  786MPD2     N11596   2.023   0.536  15.247 -0.7279  0.3429  0.2965
  786MPD2    H511597   2.052   0.616  15.302 -1.4081  1.7208 -1.3828
  786MPD2    N111598   1.827   0.350  14.849 -0.0456  0.0056  0.2719
  786MPD2    H711599   1.828   0.264  14.903 -1.0478  1.3212  2.4431
  787MPD2     C11600   2.076   4.586  15.080  0.0544 -1.2672  0.4013
  787MPD2    C111601   2.091   4.569  14.947  0.0458  0.3834 -0.1314
  787MPD2    C211602   2.198   4.493  14.906 -0.1344 -0.5564  0.7335
  787MPD2    C311603   2.283   4.433  14.993  1.2946 -0.5278  0.5632
  787MPD2    C411604   2.264   4.456  15.125  0.1136 -0.3951  0.2714
  787MPD2    C511605   2.157   4.526  15.172 -0.2129 -0.5995  0.3583
  787MPD2     H11606   2.211   4.473  14.800 -0.1032  1.3155  0.3801
  787MPD2    H111607   2.331   4.415  15.199  1.0637 -0.3869 -0.5799
  787MPD2    H211608   1.989   4.644  15.111 -1.2639 -2.0684 -1.8221
  787MPD2    H311609   2.146   4.552  15.277 -4.0264 -0.8536  0.0159
  787MPD2     N11610   2.376   4.332  14.952  0.9265  0.1499 -0.1785
  787MPD2    H511611   2.400   4.320  14.854 -0.8583  0.2495 -0.6203
  787MPD2    N111612   2.007   4.639  14.861 -0.6455 -0.4334  0.2422
  787MPD2    H711613   1.944   4.706  14.905  0.6058 -0.3481  1.8974
  788MPD2     C11614   3.864   2.117   1.005 -0.3132 -0.0287 -0.0725
  788MPD2    C111615   3.916   2.049   0.901 -0.2658 -0.5860  0.1046
  788MPD2    C211616   3.974   2.117   0.797 -0.7696  0.1828  0.7329
  788MPD2    C311617   4.001   2.252   0.801  0.4493  0.0438 -0.9827
  788MPD2    C411618   3.947   2.325   0.905  0.1306  1.1433  0.1889
  788MPD2    C511619   3.881   2.256   1.005  0.6194  0.0173 -0.8683
  788MPD2     H11620   4.020   2.067   0.712  0.3721 -0.7323  1.8874
  788MPD2    H111621   3.960   2.432   0.909  1.4981  0.9414  1.3643
  788MPD2    H211622   3.819   2.069   1.091  0.6491 -2.4554 -0.9039
  788MPD2    H311623   3.826   2.316   1.077  0.5011  1.8355 -2.5009
  788MPD2     N11624   4.041   2.340   0.695  0.4567  0.0628  0.1964
  788MPD2    H511625   4.033   2.440   0.711  1.7913  0.3147 -0.7301
  788MPD2    N111626   3.890   1.910   0.902  0.1595  0.1077  0.0212
  788MPD2    H711627   3.867   1.868   0.991  1.6455  1.6674  1.1281
  789MPD2     C11628   4.106   2.491  16.014  0.3776  0.8746  0.7133
  789MPD2    C111629   4.053   2.398  16.103  0.0951  1.0738  0.2327
  789MPD2    C211630   3.967   2.440  16.202  0.0115 -0.0751  0.2114
  789MPD2    C311631   3.944   2.580  16.218  0.9732 -0.1819  0.6441
  789MPD2    C411632   3.989   2.670  16.126 -0.1488  0.0724  0.1451
  789MPD2    C511633   4.074   2.623  16.031  0.8889 -1.0303 -0.1388
  789MPD2     H11634   3.925   2.366  16.271 -0.0296  0.1733  0.4547
  789MPD2    H111635   3.970   2.776  16.142 -1.8889 -0.3134  0.6488
  789MPD2    H211636   4.167   2.473  15.927 -0.9160  0.8402 -0.1930
  789MPD2    H311637   4.109   2.694  15.956 -2.6095 -0.8277 -1.5634
  789MPD2     N11638   3.854   2.634  16.310  0.0218  0.1411 -0.0662
  789MPD2    H511639   3.838   2.734  16.301 -1.4684 -0.2064 -1.1447
  789MPD2    N111640   4.073   2.256  16.081  0.3251  0.0801  0.0447
  789MPD2    H711641   4.029   2.189  16.142 -1.2474  1.9648  0.9965
  790MPD2     C11642   0.193   0.209  13.253 -0.1781 -0.7246 -0.2191
  790MPD2    C111643   0.223   0.095  13.319 -0.2408 -0.3334  0.6454
  790MPD2    C211644   0.211   4.697  13.251  0.5185 -0.3099  0.1232
  790MPD2    C311645   0.167   4.688  13.120 -0.3289 -0.1165 -0.0039
  790MPD2    C411646   0.142   0.080  13.052  0.0738 -0.0540 -0.3868
  790MPD2    C511647   0.157   0.201  13.118  0.3850 -0.0074  0.4775
  790MPD2     H11648   0.231   4.605  13.306 -0.7392 -0.6218  0.0652
  790MPD2    H111649   0.104   0.080  12.951 -1.9091 -4.9809  0.3571
  790MPD2    H211650   0.219   0.306  13.295 -0.0502 -0.7179 -0.3132
  790MPD2    H311651   0.138   0.295  13.067 -0.1052  0.1382  0.9314
  790MPD2     N11652   0.156   4.560  13.056 -0.0455 -0.8945 -0.0475
  790MPD2    H511653   0.167   4.475  13.111  3.3531 -0.6129 -0.3169
  790MPD2    N111654   0.237   0.100  13.456  0.5023 -0.3111  0.3412
  790MPD2    H711655   0.249   0.190  13.501  1.5255 -0.6484  0.7553
  791MPD2     C11656   4.380   4.332  12.543  0.6420 -0.5255 -0.3968
  791MPD2    C111657   4.431   4.220  12.612  0.3095 -0.2532 -0.5658
  791MPD2    C211658   4.352   4.107  12.629  0.7107  0.8360  0.1847
  791MPD2    C311659   4.230   4.095  12.568  0.8910  0.2066 -0.8544
  791MPD2    C411660   4.177   4.205  12.505  0.1026 -0.4646  0.3029
  791MPD2    C511661   4.248   4.319  12.502  0.8771 -0.2632 -0.2740
  791MPD2     H11662   4.395   4.017  12.671  0.0743  1.9665  3.3137
  791MPD2    H111663   4.078   4.207  12.461  0.9359  0.5639 -1.5308
  791MPD2    H211664   4.444   4.417  12.520  1.5952 -1.6252 -1.8648
  791MPD2    H311665   4.194   4.396  12.447  2.9839  1.8101  0.5532
  791MPD2     N11666   4.161   3.974  12.580 -0.1830 -0.1724  0.4232
  791MPD2    H511667   4.218   3.902  12.623  0.6300 -1.8167 -3.3983
  791MPD2    N111668   4.556   4.233  12.665 -0.7433  0.4391 -0.2855
  791MPD2    H711669   4.594   4.326  12.648 -0.6008  0.5914  0.8629
  792MPD2     C11670   0.463   4.181  11.484  0.1433  0.0902  0.4099
  792MPD2    C111671   0.458   4.205  11.351 -0.1563 -0.4603  0.3453
  792MPD2    C211672   0.346   4.150  11.281  0.2711  0.1204 -0.5282
  792MPD2    C311673   0.258   4.061  11.339 -0.0263 -0.4469 -0.1269
  792MPD2    C411674   0.272   4.032  11.475  0.5380  0.0881 -1.1073
  792MPD2    C511675   0.376   4.091  11.544 -0.2089  0.0009 -0.2753
  792MPD2     H11676   0.329   4.193  11.183  0.9557  0.4966 -0.4776
  792MPD2    H111677   0.199   3.974  11.530  1.1345 -0.8694 -1.3314
  792MPD2    H211678   0.544   4.225  11.541 -1.1310  2.1422  0.6641
  792MPD2    H311679   0.407   4.068  11.646 -0.4370  1.1446  0.0440
  792MPD2     N11680   0.144   4.013  11.264  0.4295  0.3449 -0.7714
  792MPD2    H511681   0.091   3.940  11.311 -0.4802  0.8651 -1.0006
  792MPD2    N111682   0.558   4.292  11.301 -0.4640  0.1249 -0.4600
  792MPD2    H711683   0.614   4.331  11.377 -1.7463 -0.0970  0.5916
  793MPD2     C11684   4.485   3.738  10.318 -0.2870 -0.2851 -0.0226
  793MPD2    C111685   4.537   3.866  10.336 -0.3327 -0.7070 -0.5242
  793MPD2    C211686   4.555   3.914  10.461  0.0065 -0.3429 -0.4969
  793MPD2    C311687   4.532   3.833  10.567  0.5484 -0.7946  0.2351
  793MPD2    C411688   4.470   3.708  10.553  0.1614 -0.4099 -0.1111
  793MPD2    C511689   4.452   3.661  10.426  0.1445  0.8677  0.2645
  793MPD2     H11690   4.600   4.012  10.472 -2.0374  0.6456 -0.9372
  793MPD2    H111691   4.448   3.642  10.636  2.2262 -0.9804  0.0051
  793MPD2    H211692   4.472   3.692  10.220  0.7452 -0.4624 -0.0785
  793MPD2    H311693   4.405   3.567  10.404  1.1389  0.5212 -0.3764
  793MPD2     N11694   4.548   3.899  10.687  0.8367 -0.4147  0.3979
  793MPD2    H511695   4.588   3.992  10.683 -3.1205  1.1966 -1.7736
  793MPD2    N111696   4.571   3.942  10.222 -0.3236 -0.0670 -0.4290
  793MPD2    H711697   4.623   4.025  10.250  2.0140 -1.3692 -0.9155
  794MPD2     C11698   0.243   4.275   0.021  0.4003 -0.9807  0.4645
  794MPD2    C111699   0.207   4.157  17.654  1.0691 -0.1515  0.1232
  794MPD2    C211700   0.124   4.171  17.546 -0.3902  0.5102  0.0005
  794MPD2    C311701   0.101   4.293  17.487  0.3939  0.4761 -1.1606
  794MPD2    C411702   0.151   4.405  17.544  0.3656  0.1390 -0.8226
  794MPD2    C511703   0.208   4.396  17.670  0.1056  0.5311  0.0737
  794MPD2     H11704   0.079   4.081  17.507 -0.2279  0.5638 -0.3048
  794MPD2    H111705   0.137   4.504  17.504 -0.0172  1.0795  1.6390
  794MPD2    H211706   0.304   4.271   0.110  0.0746  0.6348  0.7617
  794MPD2    H311707   0.244   4.486   0.022 -1.0994  0.9761  0.1329
  794MPD2     N11708   0.021   4.318  17.377 -0.5158  0.2644 -0.0527
  794MPD2    H511709   0.018   4.413  17.343  2.3278  0.2077 -0.4604
  794MPD2    N111710   0.255   4.026  17.692  0.1662 -0.2899  0.4070
  794MPD2    H711711   0.241   3.952  17.624  2.6954  1.5941 -2.1511
  795MPD2     C11712   2.322   0.739  13.042  0.3613 -0.0039 -0.4254
  795MPD2    C111713   2.259   0.643  13.114  0.0148 -0.1484  0.3257
  795MPD2    C211714   2.340   0.568  13.202 -0.1198 -0.0646  0.5612
  795MPD2    C311715   2.482   0.587  13.208 -0.5745  0.2446  0.0680
  795MPD2    C411716   2.539   0.685  13.129 -0.1614  0.0784 -0.4321
  795MPD2    C511717   2.462   0.760  13.048 -0.5798 -0.2773 -0.0589
  795MPD2     H11718   2.301   0.490  13.265  1.9317 -0.9716  0.6958
  795MPD2    H111719   2.645   0.704  13.120 -0.1907 -0.1688 -1.2978
  795MPD2    H211720   2.268   0.805  12.974 -2.1610 -1.1961  0.4409
  795MPD2    H311721   2.502   0.851  13.005 -0.6041 -0.1855  0.1107
  795MPD2     N11722   2.573   0.503  13.274  0.2221 -0.4252  0.0193
  795MPD2    H511723   2.672   0.525  13.274  0.0044  0.5311  3.6814
  795MPD2    N111724   2.123   0.614  13.086 -0.4146  0.2003 -0.2126
  795MPD2    H711725   2.100   0.533  13.144  1.7708 -1.1136 -1.1979
  796MPD2     C11726   1.776   2.803  15.802 -0.0156  0.0123  0.3354
  796MPD2    C111727   1.876   2.895  15.800 -0.0555 -0.0593 -0.6094
  796MPD2    C211728   1.847   3.023  15.754 -0.4336 -1.1969 -0.0501
  796MPD2    C311729   1.726   3.059  15.710  0.3563 -0.5071 -0.2391
  796MPD2    C411730   1.630   2.958  15.699 -0.0140  0.6494  0.2724
  796MPD2    C511731   1.657   2.833  15.740  0.7489  0.2750  0.3791
  796MPD2     H11732   1.919   3.103  15.767 -1.1208 -0.7728  1.2337
  796MPD2    H111733   1.532   2.980  15.659  0.1984 -1.3447 -1.3462
  796MPD2    H211734   1.791   2.704  15.845 -0.0724 -0.5819 -1.0142
  796MPD2    H311735   1.585   2.752  15.733 -1.8995  2.6786 -0.1689
  796MPD2     N11736   1.711   3.201  15.680  0.6620  0.2762 -0.1214
  796MPD2    H511737   1.794   3.257  15.691  1.4621 -0.9583  0.1693
  796MPD2    N111738   2.006   2.855  15.840  0.1309  0.1155 -0.1832
  796MPD2    H711739   2.014   2.758  15.871 -0.3413  0.3776  0.7319
  797MPD2     C11740   3.003   2.264  16.646  0.7970 -0.9768 -0.5811
  797MPD2    C111741   2.935   2.250  16.763  0.1272 -0.2842 -0.5521
  797MPD2    C211742   2.814   2.314  16.775 -0.4117 -0.0589 -1.0275
  797MPD2    C311743   2.782   2.407  16.680  0.3088 -0.0031 -0.2569
  797MPD2    C411744   2.866   2.441  16.576 -1.0976  0.2844  0.2390
  797MPD2    C511745   2.980   2.371  16.566 -0.3289  0.2197 -0.1704
  797MPD2     H11746   2.747   2.284  16.855 -0.7353  2.6874 -0.2683
  797MPD2    H111747   2.835   2.513  16.501  3.5592  0.0450 -1.9313
  797MPD2    H211748   3.097   2.214  16.625  0.8794 -1.4120  0.8219
  797MPD2    H311749   3.056   2.387  16.490  1.9674 -0.2859  2.0511
  797MPD2     N11750   2.671   2.499  16.690  0.3310  0.4221 -0.0772
  797MPD2    H511751   2.678   2.577  16.626  0.1205  2.3629  2.2474
  797MPD2    N111752   2.988   2.166  16.871 -0.0573  0.0725  0.1026
  797MPD2    H711753   2.924   2.160  16.950  0.9407  1.6246  1.0160
  798MPD2     C11754   2.631   2.511  17.410  0.4828  0.1765 -0.1569
  798MPD2    C111755   2.697   2.554  17.292  0.2923  0.4348 -0.1693
  798MPD2    C211756   2.812   2.489  17.262 -0.2744 -0.7487 -0.1015
  798MPD2    C311757   2.863   2.384  17.336  0.7229  0.5564 -0.1422
  798MPD2    C411758   2.800   2.353  17.455  0.2493  0.8158  0.2113
  798MPD2    C511759   2.676   2.409  17.483  0.5582 -0.2674  0.5019
  798MPD2     H11760   2.867   2.509  17.171  0.4460  2.0962  0.9558
  798MPD2    H111761   2.832   2.271  17.517 -0.0378  0.1233 -0.5600
  798MPD2    H211762   2.535   2.552  17.440  0.3358 -0.7888  0.6938
  798MPD2    H311763   2.622   2.370  17.569 -0.2082  1.6389  0.8788
  798MPD2     N11764   2.978   2.322  17.291 -0.3413 -0.6328 -0.2616
  798MPD2    H511765   3.024   2.367  17.213  0.5157 -1.8191 -0.4418
  798MPD2    N111766   2.625   2.650  17.218 -0.2176  0.1624  0.0771
  798MPD2    H711767   2.528   2.669  17.241  0.0745 -0.2396  1.6657
  799MPD2     C11768   2.052   3.915  15.072  0.0395  0.2146 -0.4025
  799MPD2    C111769   2.000   3.854  14.961  0.2065 -0.0485  0.3702
  799MPD2    C211770   1.949   3.932  14.866  0.3575 -0.4753 -0.0111
  799MPD2    C311771   1.961   4.069  14.873  0.4408  0.4034 -0.0901
  799MPD2    C411772   2.041   4.127  14.966  1.0047 -0.4703 -0.1738
  799MPD2    C511773   2.097   4.047  15.060  0.3428  0.4620  0.4361
  799MPD2     H11774   1.908   3.886  14.777  1.1468 -1.7409  0.2758
  799MPD2    H111775   2.055   4.234  14.979 -2.3775 -0.0633  0.0327
  799MPD2    H211776   2.084   3.868  15.165 -2.4720 -0.8264 -0.0636
  799MPD2    H311777   2.154   4.082  15.145  1.0880 -1.4384  0.7304
  799MPD2     N11778   1.910   4.153  14.773  0.2464  0.3935 -0.4951
  799MPD2    H511779   1.943   4.249  14.776  1.5199  0.0026 -1.8058
  799MPD2    N111780   1.983   3.713  14.943  0.6092 -0.0671 -0.3025
  799MPD2    H711781   1.915   3.681  14.875  2.3265  0.3748 -2.2279
  800MPD2     C11782   2.097   4.494  13.759 -0.2361 -0.8256 -0.2326
  800MPD2    C111783   2.189   4.563  13.674 -0.1174  0.8932 -0.4077
  800MPD2    C211784   2.247   4.490  13.567 -0.3550  0.1158  0.8416
  800MPD2    C311785   2.229   4.355  13.553  0.6122  0.4166 -0.3966
  800MPD2    C411786   2.150   4.292  13.645 -0.3166 -0.6163  0.6437
  800MPD2    C511787   2.085   4.362  13.742  0.7802 -0.0666  0.6441
  800MPD2     H11788   2.315   4.537  13.497  0.4505 -0.5563  1.1672
  800MPD2    H111789   2.132   4.185  13.649 -3.3787 -0.1207  0.0823
  800MPD2    H211790   2.042   4.537  13.842  2.0696 -2.0111  1.9306
  800MPD2    H311791   2.014   4.317  13.811  1.6305 -4.3796 -1.2436
  800MPD2     N11792   2.293   4.283  13.450  0.1906 -0.2880  0.2063
  800MPD2    H511793   2.361   4.330  13.391  0.8250 -0.1875  1.0217
  800MPD2    N111794   2.225   4.699  13.716  0.4176 -0.1333 -0.4930
  800MPD2    H711795   2.181   0.012  13.800  0.8380  0.4602 -0.5268
  801MPD2     C11796   2.156   0.680  14.058  0.1965  0.4267  0.1762
  801MPD2    C111797   2.230   0.583  14.128  0.4929 -0.3424  0.4368
  801MPD2    C211798   2.242   0.597  14.261  0.1862 -0.0799 -0.6329
  801MPD2    C311799   2.187   0.704  14.325  0.1466  0.1807  0.1616
  801MPD2    C411800   2.119   0.799  14.259 -1.3542 -0.7667 -0.5505
  801MPD2    C511801   2.108   0.790  14.123 -0.2353  1.2048  0.0983
  801MPD2     H11802   2.305   0.528  14.317 -1.0923 -1.1626 -0.5456
  801MPD2    H111803   2.069   0.880  14.311 -0.8014  0.5088 -2.0040
  801MPD2    H211804   2.149   0.677  13.950 -3.1159  1.6112  0.3431
  801MPD2    H311805   2.071   0.876  14.067 -2.7827 -0.8669 -1.4041
  801MPD2     N11806   2.201   0.699  14.469 -0.3122  0.4931  0.6916
  801MPD2    H511807   2.259   0.623  14.505  2.7241  1.7304 -1.5461
  801MPD2    N111808   2.287   0.477  14.068  0.0738 -0.5460 -0.3735
  801MPD2    H711809   2.351   0.421  14.124  0.0463 -0.0715  0.1342
  802MPD2     C11810   2.054   0.754   0.372  0.6183  0.3528  1.0148
  802MPD2    C111811   2.021   0.874   0.309  0.8725  0.3459 -0.0416
  802MPD2    C211812   2.082   0.920   0.195 -0.1231 -0.0236  0.3930
  802MPD2    C311813   2.199   0.855   0.156  0.4424 -0.8217 -0.2020
  802MPD2    C411814   2.240   0.740   0.221 -0.6892  0.1018 -0.6548
  802MPD2    C511815   2.169   0.692   0.331 -0.4389  0.2103 -1.0118
  802MPD2     H11816   2.047   1.009   0.144  0.0001  0.4546  1.1270
  802MPD2    H111817   2.326   0.678   0.196 -1.2928 -2.0947  2.6735
  802MPD2    H211818   2.014   0.723   0.467 -0.6415 -2.9892 -0.6123
  802MPD2    H311819   2.206   0.608   0.389 -0.9771  0.7955  0.1743
  802MPD2     N11820   2.277   0.902   0.045 -0.1856 -0.2271 -0.3324
  802MPD2    H511821   2.246   0.992   0.010 -0.6603  0.2055  1.2144
  802MPD2    N111822   1.929   0.968   0.364  0.1090 -0.3867 -0.1610
  802MPD2    H711823   1.908   1.046   0.303  0.1028  0.9346  1.5505
  803MPD2     C11824   3.163   4.176  11.938  0.0153  0.1722 -0.1562
  803MPD2    C111825   3.219   4.136  12.053 -0.0554  0.1141  0.1507
  803MPD2    C211826   3.150   4.043  12.128 -0.5155 -0.1168 -0.1522
  803MPD2    C311827   3.037   3.984  12.075  0.3218 -0.0563  0.3510
  803MPD2    C411828   2.995   4.018  11.948 -0.3830  0.3707 -0.2956
  803MPD2    C511829   3.061   4.110  11.870 -0.1761 -0.2719  0.6779
  803MPD2     H11830   3.187   4.003  12.221 -2.4171  0.3325  0.7873
  803MPD2    H111831   2.903   3.977  11.907  0.3058  0.5463 -1.9992
  803MPD2    H211832   3.200   4.261  11.883 -0.5529 -1.0055 -2.3641
  803MPD2    H311833   3.025   4.137  11.772 -0.4328  1.2320  1.1862
  803MPD2     N11834   2.978   3.869  12.139 -0.0235 -0.0097  0.3057
  803MPD2    H511835   2.903   3.827  12.084  0.6370  0.2971 -0.8244
  803MPD2    N111836   3.323   4.207  12.118  0.3514  0.1610  0.0761
  803MPD2    H711837   3.347   4.193  12.216  2.1957 -1.2997 -0.5795
  804MPD2     C11838   2.477   0.777  17.122  0.4721  0.3347  0.3237
  804MPD2    C111839   2.593   0.749  17.192 -0.3531  0.1355  0.7781
  804MPD2    C211840   2.702   0.838  17.178 -0.7416  0.3693 -0.2508
  804MPD2    C311841   2.695   0.942  17.086 -0.1756  0.0402 -0.0100
  804MPD2    C411842   2.574   0.976  17.022 -0.0633  0.2227 -0.0454
  804MPD2    C511843   2.466   0.889  17.037 -0.4315  0.1632 -0.1871
  804MPD2     H11844   2.800   0.818  17.220 -0.6694 -2.3209 -1.7375
  804MPD2    H111845   2.570   1.047  16.940  2.0425 -0.1094 -0.4493
  804MPD2    H211846   2.387   0.717  17.126 -0.1686  1.3527  1.0586
  804MPD2    H311847   2.375   0.924  16.988 -0.5207 -1.4512 -1.1684
  804MPD2     N11848   2.814   1.022  17.065  0.5441  0.1659  0.6502
  804MPD2    H511849   2.893   0.989  17.120  1.0761 -0.0066 -0.2233
  804MPD2    N111850   2.607   0.642  17.285 -0.8465 -0.3317  0.0939
  804MPD2    H711851   2.697   0.629  17.330  0.4115 -0.5879 -2.4832
  805MPD2     C11852   1.873   4.188  15.259 -0.1121 -0.1059 -0.5012
  805MPD2    C111853   1.858   4.083  15.346 -0.5191 -0.0436 -0.5037
  805MPD2    C211854   1.915   4.093  15.468  0.7445 -0.0365  0.2395
  805MPD2    C311855   1.985   4.207  15.506 -0.1348 -0.3977 -0.3728
  805MPD2    C411856   2.002   4.316  15.417  0.4685 -0.1975  0.5908
  805MPD2    C511857   1.938   4.307  15.301 -0.5980 -0.4266  0.7769
  805MPD2     H11858   1.903   4.013  15.541  0.5196  0.0834  0.3336
  805MPD2    H111859   2.061   4.405  15.436  1.2212 -0.6361  0.3057
  805MPD2    H211860   1.839   4.185  15.156 -0.7022 -2.2590 -0.2239
  805MPD2    H311861   1.945   4.391  15.234 -0.7144 -0.5431  0.6186
  805MPD2     N11862   2.037   4.204  15.638 -0.5108  0.1730  0.0642
  805MPD2    H511863   2.007   4.123  15.691  0.3377  0.3379  0.8036
  805MPD2    N111864   1.786   3.967  15.311 -0.0520  0.0039  0.0228
  805MPD2    H711865   1.782   3.887  15.373  0.2865 -1.0867 -1.3545
  806MPD2     C11866   2.377   2.695   0.724  0.0055 -0.0626 -0.4228
  806MPD2    C111867   2.353   2.828   0.763  0.3071  0.1372  0.6526
  806MPD2    C211868   2.323   2.925   0.666 -0.0279 -0.5962  0.5219
  806MPD2    C311869   2.305   2.888   0.537  0.4953 -0.4206 -0.0127
  806MPD2    C411870   2.322   2.753   0.498  0.6891 -0.1628  0.0953
  806MPD2    C511871   2.363   2.661   0.595 -0.3001 -0.2172  0.9079
  806MPD2     H11872   2.309   3.030   0.691  0.1590  0.1487 -2.4933
  806MPD2    H111873   2.304   2.705   0.403 -0.5363 -0.5579  0.5314
  806MPD2    H211874   2.399   2.628   0.807  1.7028  0.0875 -0.7404
  806MPD2    H311875   2.390   2.558   0.579  1.0696  0.0223  1.6364
  806MPD2     N11876   2.276   2.992   0.436 -0.1941 -0.6273 -0.3935
  806MPD2    H511877   2.257   3.085   0.473  0.4320  0.2361 -2.2021
  806MPD2    N111878   2.380   2.856   0.894  0.7736 -0.8248  0.8042
  806MPD2    H711879   2.415   2.781   0.953  0.7383  0.6303  2.6976
  807MPD2     C11880   2.161   3.186   1.673 -0.2798 -0.6368 -0.7561
  807MPD2    C111881   2.204   3.051   1.655 -0.5637 -0.2278 -0.0376
  807MPD2    C211882   2.200   2.966   1.763 -0.6374 -0.3904 -0.5539
  807MPD2    C311883   2.138   3.003   1.882  0.2432  0.3427  0.6719
  807MPD2    C411884   2.120   3.137   1.905  0.1997  0.2247 -0.4854
  807MPD2    C511885   2.129   3.223   1.799  0.4189 -0.3323  0.2990
  807MPD2     H11886   2.228   2.862   1.748 -0.6056 -0.5103  0.3677
  807MPD2    H111887   2.087   3.183   1.998  0.3372 -1.4594  0.3896
  807MPD2    H211888   2.167   3.260   1.594  1.4782 -0.5240 -0.5178
  807MPD2    H311889   2.112   3.329   1.817  1.5129 -0.3104  1.2325
  807MPD2     N11890   2.129   2.906   1.988  0.5516 -0.0974  0.5780
  807MPD2    H511891   2.147   2.810   1.962  2.5506  0.4854 -0.2647
  807MPD2    N111892   2.258   2.997   1.535 -0.4547 -0.2280 -0.0681
  807MPD2    H711893   2.294   2.902   1.533 -2.0183 -0.8509  1.2648
  808MPD2     C11894   1.845   4.344   9.538 -0.2767 -0.6597 -1.0306
  808MPD2    C111895   1.923   4.386   9.645 -0.1650  0.2585  0.1349
  808MPD2    C211896   2.036   4.458   9.630 -0.1719 -0.3233 -0.4869
  808MPD2    C311897   2.072   4.488   9.502  0.4280  0.3106  0.2848
  808MPD2    C411898   1.997   4.446   9.393 -0.3853  0.3910 -0.1281
  808MPD2    C511899   1.873   4.381   9.407 -0.0051  0.4445 -0.3876
  808MPD2     H11900   2.105   4.472   9.712 -0.9813 -0.2574  0.1830
  808MPD2    H111901   2.021   4.478   9.292 -1.1674  2.8677  0.4760
  808MPD2    H211902   1.757   4.284   9.559 -0.2545  0.2312  1.6628
  808MPD2    H311903   1.805   4.361   9.325 -2.9516 -0.5892  2.3304
  808MPD2     N11904   2.180   4.577   9.489  0.2440 -0.1995  0.1316
  808MPD2    H511905   2.238   4.595   9.570  1.2196  0.4814 -0.7155
  808MPD2    N111906   1.905   4.337   9.776 -0.5921 -0.2987 -0.4587
  808MPD2    H711907   1.967   4.375   9.847  0.2260 -1.0032 -0.8003
  809MPD2     C11908   2.642   0.240   8.692 -0.4341 -0.2008  0.2382
  809MPD2    C111909   2.737   0.236   8.798 -0.0553  0.7349  0.0799
  809MPD2    C211910   2.704   0.177   8.913  0.4545  0.0031 -0.4813
  809MPD2    C311911   2.586   0.104   8.918  0.4671 -0.3226 -0.0845
  809MPD2    C411912   2.506   0.101   8.807  0.4838  0.0920 -0.5949
  809MPD2    C511913   2.526   0.166   8.691  0.5265 -0.0547 -0.1816
  809MPD2     H11914   2.772   0.181   8.997  0.4431  0.8698 -0.5192
  809MPD2    H111915   2.410   0.051   8.805 -0.6844  2.2891  0.6430
  809MPD2    H211916   2.655   0.302   8.604 -0.7757  0.1536  0.4373
  809MPD2    H311917   2.455   0.178   8.610 -0.3055 -0.9354  0.4282
  809MPD2     N11918   2.551   0.040   9.035 -0.2713  0.5543  0.2527
  809MPD2    H511919   2.455   0.009   9.045 -0.7657  2.1056  0.2479
  809MPD2    N111920   2.857   0.303   8.799 -0.2618 -0.0382 -0.5981
  809MPD2    H711921   2.911   0.295   8.884 -0.6011  1.1756 -0.2642
  810MPD2     C11922   2.321   4.214  10.547  0.4368 -0.0057  0.4407
  810MPD2    C111923   2.231   4.155  10.635  0.0790 -0.0858 -0.6391
  810MPD2    C211924   2.273   4.107  10.759  0.3238  0.3401  0.2670
  810MPD2    C311925   2.409   4.136  10.796 -0.1166  0.9087  0.5202
  810MPD2    C411926   2.500   4.183  10.697  0.1247  0.3434  0.6219
  810MPD2    C511927   2.454   4.219  10.574  0.1314 -0.1041 -0.1710
  810MPD2     H11928   2.217   4.036  10.819  0.3066  0.4659  0.4002
  810MPD2    H111929   2.605   4.180  10.725  0.1926 -1.3963  0.2274
  810MPD2    H211930   2.284   4.246  10.450 -1.9020 -0.8151  1.0623
  810MPD2    H311931   2.529   4.254  10.504 -0.9593 -0.3537 -1.4619
  810MPD2     N11932   2.477   4.078  10.910 -0.1487  0.1594  0.1024
  810MPD2    H511933   2.577   4.067  10.919 -0.0846  1.0254  0.4290
  810MPD2    N111934   2.090   4.144  10.598 -0.7763 -0.4005 -0.5314
  810MPD2    H711935   2.057   4.181  10.509 -0.6587 -1.2952 -0.9472
  811MPD2     C11936   1.360   4.316  10.183 -0.3142  0.3628 -0.3771
  811MPD2    C111937   1.458   4.372  10.265  0.4576  0.1496 -0.3549
  811MPD2    C211938   1.486   4.510  10.254  0.2346 -0.0684  0.2333
  811MPD2    C311939   1.429   4.586  10.159 -0.6369  0.0062  0.3651
  811MPD2    C411940   1.330   4.528  10.078  0.2994  0.3586 -0.8455
  811MPD2    C511941   1.303   4.392  10.082 -0.0909 -0.2479  0.3668
  811MPD2     H11942   1.553   4.567  10.317  0.3285  2.2479 -1.9257
  811MPD2    H111943   1.282   4.592  10.004 -1.9435 -1.0733 -0.6555
  811MPD2    H211944   1.337   4.211  10.165  0.5316  0.2605 -0.8742
  811MPD2    H311945   1.233   4.353  10.009 -0.1699  0.2158  0.1965
  811MPD2     N11946   1.481   4.717  10.144  0.3464  0.0162 -0.4080
  811MPD2    H511947   1.556   0.020  10.207 -1.4055  1.9882  0.8500
  811MPD2    N111948   1.525   4.287  10.360 -0.1805 -0.7599 -0.2745
  811MPD2    H711949   1.487   4.195  10.382 -2.3114  0.0752 -0.4252
  812MPD2     C11950   1.226   3.791  12.792  0.0871 -0.2231  0.0994
  812MPD2    C111951   1.127   3.879  12.814 -0.0707 -0.6030  0.0959
  812MPD2    C211952   1.039   3.840  12.916  0.2464  0.3375  0.1533
  812MPD2    C311953   1.039   3.715  12.974 -0.3902 -0.3963  0.4318
  812MPD2    C411954   1.130   3.622  12.932 -0.0751  0.1652  0.0360
  812MPD2    C511955   1.222   3.658  12.839  0.2274 -0.1920 -1.0488
  812MPD2     H11956   0.970   3.912  12.960 -2.5515 -2.6360  0.6207
  812MPD2    H111957   1.127   3.516  12.955  1.0241  0.2654  0.6387
  812MPD2    H211958   1.303   3.809  12.719  0.5227 -0.8292  0.4125
  812MPD2    H311959   1.297   3.584  12.813  0.4048 -1.3543  2.7472
  812MPD2     N11960   0.959   3.694  13.088 -0.8369  0.1482  0.2031
  812MPD2    H511961   0.927   3.780  13.132 -0.8791  0.9237 -1.3223
  812MPD2    N111962   1.129   4.004  12.747 -0.2626 -0.4211  0.7132
  812MPD2    H711963   1.200   4.001  12.674  0.4178 -1.3919  1.4060
  813MPD2     C11964   4.180   1.602  12.935  0.4271  0.4976  0.2158
  813MPD2    C111965   4.275   1.502  12.939  0.2851 -0.5109  0.3172
  813MPD2    C211966   4.278   1.413  13.043  0.1437 -0.3785  0.0852
  813MPD2    C311967   4.190   1.423  13.147  0.2720  0.4105 -0.1534
  813MPD2    C411968   4.091   1.520  13.135 -0.1209 -0.2868 -0.7906
  813MPD2    C511969   4.089   1.611  13.032 -0.4887 -0.8699 -0.0589
  813MPD2     H11970   4.356   1.338  13.057  1.0208  0.6909  0.9445
  813MPD2    H111971   4.016   1.535  13.212  0.1944 -0.1988 -0.4961
  813MPD2    H211972   4.170   1.670  12.851 -0.3828  0.9096  0.6489
  813MPD2    H311973   4.018   1.692  13.042  0.1135 -0.1153 -1.8181
  813MPD2     N11974   4.203   1.335  13.252 -0.2850  0.0578 -0.0068
  813MPD2    H511975   4.283   1.273  13.256 -0.7462 -0.4827  0.7933
  813MPD2    N111976   4.379   1.506  12.841  0.1694 -0.0611 -0.1210
  813MPD2    H711977   4.383   1.589  12.782 -0.1751  0.0148 -0.0324
  814MPD2     C11978   0.067   2.670  12.439  0.2218  0.4426  0.4452
  814MPD2    C111979   0.103   2.687  12.301  0.3582  0.0150 -0.1665
  814MPD2    C211980   0.223   2.750  12.274 -0.1836  0.4146 -0.0857
  814MPD2    C311981   0.306   2.796  12.376  0.5808 -0.3881 -0.0484
  814MPD2    C411982   0.268   2.776  12.513  0.4525 -0.0600  0.2779
  814MPD2    C511983   0.142   2.722  12.539 -0.9037 -0.6341 -0.3269
  814MPD2     H11984   0.239   2.759  12.167  0.4739  0.2972  0.0061
  814MPD2    H111985   0.320   2.820  12.598  1.9685 -0.2033 -0.5687
  814MPD2    H211986   4.703   2.609  12.457  1.3295 -1.6409 -1.1667
  814MPD2    H311987   0.101   2.730  12.638  0.4182  0.2578  0.1512
  814MPD2     N11988   0.434   2.859  12.344 -0.3972  0.3345  0.0911
  814MPD2    H511989   0.476   2.909  12.422 -0.7687 -0.3125  0.7026
  814MPD2    N111990   0.028   2.652  12.190 -0.2156  0.8026 -0.0566
  814MPD2    H711991   0.064   2.668  12.097 -0.7138  1.8579 -0.0669
  815MPD2     C11992   0.978   1.698  11.796  0.7013  0.6028  0.1146
  815MPD2    C111993   0.989   1.565  11.840  0.5698 -0.0416 -0.0224
  815MPD2    C211994   0.876   1.524  11.913 -0.1634 -0.4290 -0.4339
  815MPD2    C311995   0.779   1.603  11.961 -0.0094  0.1519  0.3189
  815MPD2    C411996   0.772   1.737  11.926 -0.0582 -0.3070  0.6681
  815MPD2    C511997   0.875   1.781  11.844 -0.6594 -0.5026 -0.6480
  815MPD2     H11998   0.863   1.417  11.924  1.1528 -0.5605 -0.1172
  815MPD2    H111999   0.706   1.803  11.982 -1.1642 -0.2900 -0.6602
  815MPD2    H212000   1.043   1.744  11.723  1.5018 -0.3828  0.2067
  815MPD2    H312001   0.875   1.881  11.803 -1.0039  0.0381  0.6495
  815MPD2     N12002   0.687   1.541  12.050 -0.6836 -0.5494  0.1931
  815MPD2    H512003   0.710   1.447  12.080  0.6982 -0.5970 -0.9894
  815MPD2    N112004   1.074   1.482  11.763  0.1075 -0.4932  0.1010
  815MPD2    H712005   1.128   1.517  11.684  0.3354 -2.7822 -0.7482
  816MPD2     C12006   1.193   0.321  17.018  0.3813  0.1683 -0.3245
  816MPD2    C112007   1.275   0.399  17.089 -0.1821 -0.5007  0.1861
  816MPD2    C212008   1.400   0.348  17.109  0.1244  0.2090 -0.0207
  816MPD2    C312009   1.444   0.230  17.054  0.1659 -0.0415  0.2394
  816MPD2    C412010   1.357   0.158  16.979  0.5634  0.4241  0.0328
  816MPD2    C512011   1.229   0.204  16.964 -0.4258  0.2781  0.3548
  816MPD2     H12012   1.475   0.409  17.160 -1.2092  0.2602  1.8758
  816MPD2    H112013   1.369   0.063  16.929  0.4411  1.3608 -1.7920
  816MPD2    H212014   1.092   0.353  16.995  0.2867  0.1864  0.1073
  816MPD2    H312015   1.158   0.146  16.907  1.7167  0.6295 -2.7068
  816MPD2     N12016   1.575   0.191  17.066 -0.3880  0.0758  0.1900
  816MPD2    H512017   1.637   0.260  17.107 -1.2440  0.6937  0.4504
  816MPD2    N112018   1.225   0.524  17.139  0.0530  0.2320  0.4170
  816MPD2    H712019   1.136   0.543  17.094 -0.0841 -0.8250  0.2336
  817MPD2     C12020   0.514   2.035  10.268  0.0462  0.3646 -0.1198
  817MPD2    C112021   0.569   2.047  10.145  0.2384 -0.1744  0.1485
  817MPD2    C212022   0.549   2.163  10.072 -0.1350  0.3427  0.2296
  817MPD2    C312023   0.459   2.261  10.107 -0.4137  0.3093  0.2876
  817MPD2    C412024   0.394   2.239  10.228  0.4074 -0.5598 -0.1228
  817MPD2    C512025   0.430   2.135  10.312  0.3462  1.0112 -0.7563
  817MPD2     H12026   0.600   2.176   9.977 -2.1367  1.1394 -0.7279
  817MPD2    H112027   0.322   2.305  10.275 -0.4006 -0.3296 -1.6855
  817MPD2    H212028   0.527   1.960  10.345 -3.3508  1.7433  1.7714
  817MPD2    H312029   0.383   2.133  10.410 -0.5649 -1.7942 -1.2309
  817MPD2     N12030   0.443   2.379  10.026 -0.5572  0.1636 -0.5987
  817MPD2    H512031   0.525   2.403   9.972  0.6897 -3.3869 -0.2674
  817MPD2    N112032   0.663   1.954  10.091 -0.5593  0.1815  0.4567
  817MPD2    H712033   0.671   1.940   9.990  0.1518  0.6188  0.4505
  818MPD2     C12034   4.361   1.457   9.980 -0.2867 -0.1926  0.1448
  818MPD2    C112035   4.259   1.371  10.012 -0.0728  0.2799 -0.1925
  818MPD2    C212036   4.292   1.235  10.004  0.1538  0.3147 -0.2562
  818MPD2    C312037   4.413   1.194   9.953  0.0319 -0.0674  0.3870
  818MPD2    C412038   4.503   1.285   9.908 -0.0117 -0.1881 -0.1478
  818MPD2    C512039   4.484   1.415   9.929 -0.3387  0.0362 -0.1902
  818MPD2     H12040   4.209   1.171  10.032  1.3896 -0.7084  1.0491
  818MPD2    H112041   4.597   1.248   9.869 -0.8384 -1.0059 -1.3511
  818MPD2    H212042   4.340   1.563   9.983  0.2098 -0.1621  2.3992
  818MPD2    H312043   4.555   1.491   9.900 -0.4882  0.8218  1.4609
  818MPD2     N12044   4.455   1.060   9.946  0.0052 -0.2204  0.0255
  818MPD2    H512045   4.555   1.048   9.928  0.0605 -0.9359  0.7954
  818MPD2    N112046   4.123   1.404  10.059 -0.0522  0.3707  0.6413
  818MPD2    H712047   4.056   1.331  10.080  0.7815 -0.2758  1.0776
  819MPD2     C12048   2.511   3.507  15.870  0.2764  0.7272 -0.3729
  819MPD2    C112049   2.584   3.398  15.820 -0.3884 -0.0286  0.0548
  819MPD2    C212050   2.719   3.394  15.833 -0.6424  0.2981  0.7361
  819MPD2    C312051   2.786   3.500  15.891 -0.1942 -0.0956  0.0296
  819MPD2    C412052   2.719   3.617  15.934 -0.5479  0.3584 -0.3082
  819MPD2    C512053   2.577   3.614  15.925 -0.2019  0.3345  0.4326
  819MPD2     H12054   2.770   3.302  15.808 -2.3204  0.3726 -2.9499
  819MPD2    H112055   2.768   3.697  15.987  0.4621  0.2095 -1.0221
  819MPD2    H212056   2.404   3.513  15.851  0.1467 -0.4696 -0.0048
  819MPD2    H312057   2.521   3.697  15.968  1.3670  1.8811 -0.4804
  819MPD2     N12058   2.925   3.480  15.898  0.1729 -0.2645 -0.0704
  819MPD2    H512059   2.973   3.408  15.844 -1.6432 -3.2502  2.3107
  819MPD2    N112060   2.512   3.301  15.750 -0.2860 -0.3480  0.2451
  819MPD2    H712061   2.412   3.308  15.741 -0.4650 -2.0628  0.9750
  820MPD2     C12062   1.664   3.120  15.299  0.5596  0.3023  0.0153
  820MPD2    C112063   1.751   3.226  15.308 -0.1331  0.3574  0.1569
  820MPD2    C212064   1.882   3.189  15.340 -0.2630 -0.2258  0.5276
  820MPD2    C312065   1.920   3.066  15.380 -0.4073  0.0790 -0.4976
  820MPD2    C412066   1.824   2.971  15.384  0.1203  0.5088  0.2978
  820MPD2    C512067   1.705   2.996  15.329 -0.0506  0.0860  0.0601
  820MPD2     H12068   1.954   3.271  15.340  0.5442 -0.9392  1.4507
  820MPD2    H112069   1.842   2.874  15.429 -1.8798  0.3529  0.7843
  820MPD2    H212070   1.564   3.135  15.261  1.8403  2.5164 -2.5064
  820MPD2    H312071   1.637   2.912  15.324  1.6936 -1.3302 -0.2984
  820MPD2     N12072   2.051   3.038  15.426 -0.4930 -0.4585  0.1148
  820MPD2    H512073   2.085   2.943  15.425  0.5938 -0.0647 -0.5926
  820MPD2    N112074   1.701   3.350  15.269  0.4035 -0.3650  0.2168
  820MPD2    H712075   1.602   3.360  15.248  0.1683  0.3209  1.6737
  821MPD2     C12076   2.220   4.452  12.752  0.4041  0.1512  0.1743
  821MPD2    C112077   2.339   4.456  12.821 -0.4005  1.0355  0.6870
  821MPD2    C212078   2.425   4.564  12.797  0.2088 -0.2882  0.5791
  821MPD2    C312079   2.383   4.669  12.710 -0.6822 -0.3521 -1.2650
  821MPD2    C412080   2.259   4.664  12.655 -0.3111 -0.7788 -0.1419
  821MPD2    C512081   2.181   4.554  12.673  1.0917 -0.7371 -0.3111
  821MPD2     H12082   2.512   4.568  12.862 -0.7191 -1.2549  1.8671
  821MPD2    H112083   2.218   0.013  12.586  0.3771  0.5947  0.8872
  821MPD2    H212084   2.134   4.388  12.767  0.4395 -0.0200 -0.3465
  821MPD2    H312085   2.092   4.546  12.612  0.3074  0.7451  0.6401
  821MPD2     N12086   2.467   0.052  12.679  0.3638 -0.4165  0.2776
  821MPD2    H512087   2.432   0.112  12.604  1.0229  0.1433  0.4187
  821MPD2    N112088   2.376   4.360  12.918 -0.2445 -0.2608 -0.0718
  821MPD2    H712089   2.461   4.387  12.967 -1.8052 -2.5826  3.9278
  822MPD2     C12090   3.295   4.599  16.023 -0.2701 -0.1274  0.1459
  822MPD2    C112091   3.373   4.660  16.120  0.0387  0.2088 -0.1167
  822MPD2    C212092   3.323   0.045  16.186 -0.3509  0.2516 -0.3111
  822MPD2    C312093   3.199   0.090  16.162  0.3939 -0.9953  0.0448
  822MPD2    C412094   3.118   0.013  16.080 -0.5566 -0.3799 -0.3502
  822MPD2    C512095   3.168   4.639  16.002 -0.0913  0.0833 -0.0977
  822MPD2     H12096   3.395   0.084  16.257  0.2806 -0.1624 -0.7271
  822MPD2    H112097   3.014   0.036  16.062 -0.5181 -0.6675 -0.9483
  822MPD2    H212098   3.324   4.511  15.968  0.7037 -0.3330  0.9916
  822MPD2    H312099   3.107   4.580  15.934  2.0311 -1.3085 -0.7995
  822MPD2     N12100   3.145   0.208  16.233 -0.6267 -0.2335  0.4714
  822MPD2    H512101   3.045   0.221  16.247 -0.6218  1.6040 -1.2247
  822MPD2    N112102   3.501   4.612  16.149 -0.6234  0.4378  0.4182
  822MPD2    H712103   3.554   4.664  16.217  0.3033 -0.1543  0.1524
  823MPD2     C12104   2.977   0.444  17.080 -0.1278 -0.1101 -0.0718
  823MPD2    C112105   3.027   0.369  16.974 -0.7768 -0.6975 -0.8996
  823MPD2    C212106   3.077   0.244  17.005  0.6397  0.1272  0.0429
  823MPD2    C312107   3.082   0.190  17.134  0.6712 -0.5701 -0.0610
  823MPD2    C412108   3.011   0.257  17.233 -0.3281  0.0795 -0.5406
  823MPD2    C512109   2.958   0.378  17.201 -0.0251  0.1960 -0.0137
  823MPD2     H12110   3.126   0.188  16.927 -3.4144 -0.6058 -1.9769
  823MPD2    H112111   3.002   0.216  17.333  2.1934  0.9798  0.0508
  823MPD2    H212112   2.952   0.548  17.062 -3.3705 -0.9450 -0.4013
  823MPD2    H312113   2.931   0.439  17.286 -0.4125  1.3829 -0.9771
  823MPD2     N12114   3.133   0.060  17.169 -0.5058  0.0477 -0.2606
  823MPD2    H512115   3.133   0.030  17.266 -4.4427  1.4405  0.1530
  823MPD2    N112116   3.039   0.422  16.842 -0.1517 -0.1727 -0.5328
  823MPD2    H712117   3.048   0.522  16.825  0.8344 -0.2831 -0.6664
  824MPD2     C12118   4.230   4.214  16.006  0.8869 -0.3040 -0.2947
  824MPD2    C112119   4.107   4.181  15.968  0.0111  0.8364  0.1364
  824MPD2    C212120   4.084   4.094  15.856  0.3323  0.1913 -0.3952
  824MPD2    C312121   4.190   4.033  15.797  0.2598  0.6540 -0.3304
  824MPD2    C412122   4.319   4.067  15.841 -0.2269  0.4254  0.6760
  824MPD2    C512123   4.332   4.150  15.946 -0.9806  0.2040 -0.6196
  824MPD2     H12124   3.982   4.076  15.825  0.1216  1.7195 -0.5772
  824MPD2    H112125   4.415   4.024  15.812  0.0003  0.9490  0.6599
  824MPD2    H212126   4.250   4.276  16.092 -0.8231 -0.5761  0.3139
  824MPD2    H312127   4.432   4.169  15.985 -1.4402  1.3385  0.0278
  824MPD2     N12128   4.166   3.945  15.693 -0.6272 -0.2171 -0.4366
  824MPD2    H512129   4.071   3.944  15.658 -1.1749 -2.7196  1.1268
  824MPD2    N112130   3.993   4.243  16.028  0.7148 -0.4220  0.4099
  824MPD2    H712131   3.906   4.223  15.980  1.4376 -0.6960 -0.7624
  825MPD2     C12132   4.436   4.037  14.910 -0.4340  0.5824  0.2406
  825MPD2    C112133   4.357   4.067  15.015 -0.8584 -0.8534 -0.1440
  825MPD2    C212134   4.331   4.199  15.032 -0.7173 -0.4898  0.5757
  825MPD2    C312135   4.384   4.297  14.939 -0.2535  0.2241  0.1708
  825MPD2    C412136   4.474   4.262  14.847 -0.0673 -0.4923  0.2830
  825MPD2    C512137   4.495   4.125  14.825 -1.2114 -0.1040 -0.9115
  825MPD2     H12138   4.260   4.224  15.109 -0.9468 -1.2129  0.5993
  825MPD2    H112139   4.522   4.323  14.771  1.6507  1.4279  2.9096
  825MPD2    H212140   4.449   3.935  14.879  1.7328  0.2474  2.2342
  825MPD2    H312141   4.547   4.086  14.738  1.1360  1.3242 -0.1489
  825MPD2     N12142   4.369   4.434  14.951 -0.3078  0.0823  0.3172
  825MPD2    H512143   4.432   4.494  14.897 -1.1881  1.5439  0.9043
  825MPD2    N112144   4.298   3.967  15.099  0.6403  0.2518 -0.3437
  825MPD2    H712145   4.335   3.875  15.076  1.1012  0.2903  0.2703
  826MPD2     C12146   4.573   4.067  13.729 -0.0224 -0.0094 -0.3293
  826MPD2    C112147   4.492   3.958  13.701 -0.4953 -0.2472 -0.4676
  826MPD2    C212148   4.367   3.984  13.654 -0.6026  0.0115 -0.0061
  826MPD2    C312149   4.327   4.110  13.616 -0.1527  0.2736 -0.4169
  826MPD2    C412150   4.411   4.215  13.642 -0.2954  0.0819 -0.2234
  826MPD2    C512151   4.531   4.189  13.690  1.2681  0.2533  0.3630
  826MPD2     H12152   4.309   3.895  13.631  0.0024 -0.5751  0.7380
  826MPD2    H112153   4.392   4.315  13.603 -1.5549  0.1353  0.5171
  826MPD2    H212154   4.675   4.051  13.761 -0.0784  0.2854  0.0049
  826MPD2    H312155   4.596   4.272  13.715  2.7324 -0.5733 -0.6814
  826MPD2     N12156   4.214   4.141  13.539 -0.2300  0.2366  0.4288
  826MPD2    H512157   4.189   4.237  13.518  0.3557 -0.7105 -4.5596
  826MPD2    N112158   4.541   3.825  13.723 -0.0222 -0.3183 -0.2416
  826MPD2    H712159   4.637   3.810  13.753 -0.6249  0.0903  1.9002
  827MPD2     C12160   0.279   0.354  10.361  0.2854 -0.1252 -0.2614
  827MPD2    C112161   0.244   0.284  10.470  1.1108 -0.7630  0.6811
  827MPD2    C212162   0.128   0.206  10.448  0.1458  0.4478  0.0457
  827MPD2    C312163   0.048   0.228  10.336  0.2460  0.0989 -0.2522
  827MPD2    C412164   0.076   0.328  10.246  0.3692  0.4553 -0.0744
  827MPD2    C512165   0.202   0.378  10.252  0.5781  0.4495 -0.2022
  827MPD2     H12166   0.095   0.138  10.525  1.1392 -0.7824 -0.6095
  827MPD2    H112167   0.004   0.340  10.166 -1.0346 -1.1783  0.9390
  827MPD2    H212168   0.374   0.405  10.355  0.3139  0.1824  3.0993
  827MPD2    H312169   0.225   0.455  10.179 -2.4612  1.6167  0.0797
  827MPD2     N12170   4.640   0.176  10.327 -0.1934  0.0010 -0.8917
  827MPD2    H512171   4.571   0.225  10.271 -2.2686 -0.4739  1.2335
  827MPD2    N112172   0.320   0.292  10.595  0.3941  0.2785  0.5766
  827MPD2    H712173   0.410   0.339  10.592 -0.7578  2.4455  0.3083
  828MPD2     C12174   3.068   0.117  12.360  0.2438 -0.4342 -0.2996
  828MPD2    C112175   3.037   0.078  12.231 -0.4141  0.4589  0.1246
  828MPD2    C212176   3.139   0.043  12.152 -0.6473  0.3241 -1.0512
  828MPD2    C312177   3.277   0.054  12.189 -0.1772 -0.1692 -0.6576
  828MPD2    C412178   3.302   0.088  12.316  0.6182 -0.4086 -0.2218
  828MPD2    C512179   3.196   0.122  12.401 -0.2879 -0.1243 -0.7146
  828MPD2     H12180   3.115   0.040  12.047  0.5050 -0.8024 -1.2763
  828MPD2    H112181   3.407   0.094  12.342  0.9076 -1.9713 -1.0337
  828MPD2    H212182   2.990   0.125  12.434 -0.1912  1.0473 -0.9139
  828MPD2    H312183   3.207   0.132  12.508 -1.8835 -0.0451 -0.5641
  828MPD2     N12184   3.386   0.018  12.105 -0.2438  0.1608  0.4644
  828MPD2    H512185   3.476   0.042  12.144  0.7141 -1.5848 -0.6908
  828MPD2    N112186   2.907   0.073  12.175  0.6078 -0.9223  0.0075
  828MPD2    H712187   2.890   0.068  12.075 -1.1570  1.2092  0.2030
  829MPD2     C12188   2.709   0.248  11.388  0.5144 -0.0908 -0.7186
  829MPD2    C112189   2.586   0.279  11.437 -0.1124  0.0970 -1.0946
  829MPD2    C212190   2.555   0.274  11.578 -0.4848  0.1447  0.3009
  829MPD2    C312191   2.660   0.243  11.660 -1.1592  0.3464 -0.3544
  829MPD2    C412192   2.781   0.191  11.610 -0.8305  0.4025 -0.1408
  829MPD2    C512193   2.801   0.197  11.474  0.3233 -0.0889  0.5305
  829MPD2     H12194   2.461   0.304  11.622  0.5176  1.1958  1.7210
  829MPD2    H112195   2.856   0.154  11.679 -0.6705  0.6462 -0.1843
  829MPD2    H212196   2.724   0.253  11.280 -0.6211  1.0638 -0.8210
  829MPD2    H312197   2.891   0.165  11.423 -0.4507 -4.1484  1.7141
  829MPD2     N12198   2.650   0.220  11.797 -0.5473 -0.1939 -0.1890
  829MPD2    H512199   2.731   0.173  11.836 -0.3995  0.8812  0.7768
  829MPD2    N112200   2.489   0.325  11.343 -0.5760  0.0588 -0.7147
  829MPD2    H712201   2.528   0.365  11.258  0.1291 -1.0071 -0.8975
  830MPD2     C12202   3.682   3.187  15.662 -0.3713 -0.0622 -0.2248
  830MPD2    C112203   3.598   3.299  15.661 -0.9489  0.4735  0.5478
  830MPD2    C212204   3.627   3.401  15.568 -0.1504 -0.7356 -0.3081
  830MPD2    C312205   3.739   3.393  15.479  0.2005  0.2043  0.1143
  830MPD2    C412206   3.822   3.287  15.496  0.0150 -0.2459  0.3906
  830MPD2    C512207   3.799   3.186  15.588 -0.0026 -0.0010  0.5320
  830MPD2     H12208   3.563   3.487  15.550  0.2892 -1.0914 -3.6435
  830MPD2    H112209   3.907   3.270  15.431 -1.1468 -0.8284 -0.9783
  830MPD2    H212210   3.667   3.107  15.733  0.1268 -0.0686 -0.1292
  830MPD2    H312211   3.864   3.100  15.580  0.7424  0.6134  0.0172
  830MPD2     N12212   3.776   3.484  15.381 -0.2835  0.3928  0.0767
  830MPD2    H512213   3.865   3.462  15.339  1.0879 -2.1909  4.2806
  830MPD2    N112214   3.490   3.304  15.747  0.3264  0.0220  0.2411
  830MPD2    H712215   3.488   3.246  15.830  1.6803  1.3401  1.1839
  831MPD2     C12216   3.534   0.355  16.635  0.4994  0.0380  0.3033
  831MPD2    C112217   3.531   0.253  16.541 -0.4737  0.2905  0.5227
  831MPD2    C212218   3.436   0.153  16.551 -0.7383 -0.2479  0.0389
  831MPD2    C312219   3.344   0.155  16.660  0.2051  0.1877 -0.3238
  831MPD2    C412220   3.349   0.258  16.745 -0.5674 -0.0783  0.1557
  831MPD2    C512221   3.440   0.355  16.732  0.0195  0.6146  0.5907
  831MPD2     H12222   3.426   0.071  16.481 -1.1852  0.8259 -1.1445
  831MPD2    H112223   3.290   0.263  16.836 -2.6229  2.2435 -1.2928
  831MPD2    H212224   3.596   0.443  16.631  0.6147  0.0067  1.2450
  831MPD2    H312225   3.440   0.432  16.809 -0.1301 -1.0843  2.2878
  831MPD2     N12226   3.235   0.065  16.680  0.1419 -0.0681  0.1015
  831MPD2    H512227   3.166   0.096  16.747 -0.5917 -1.6884  0.0906
  831MPD2    N112228   3.618   0.266  16.425  0.1985 -0.6331  0.0315
  831MPD2    H712229   3.673   0.351  16.421  1.0286 -1.1346  0.6836
  832MPD2     C12230   1.608   1.412  17.260  0.6086 -0.2014  0.7295
  832MPD2    C112231   1.672   1.510  17.186  0.4071  0.4734  0.1902
  832MPD2    C212232   1.593   1.595  17.100  0.0560 -0.6831 -0.6038
  832MPD2    C312233   1.456   1.582  17.103  0.2205  0.2505  0.6115
  832MPD2    C412234   1.397   1.478  17.166 -0.2271  0.6969 -0.2520
  832MPD2    C512235   1.470   1.394  17.249 -0.5865 -0.3733 -0.0840
  832MPD2     H12236   1.636   1.675  17.042 -2.9652  1.0283 -0.4865
  832MPD2    H112237   1.290   1.461  17.160 -0.1446 -0.8273  2.9930
  832MPD2    H212238   1.659   1.339  17.321  0.6345 -0.9166 -0.1416
  832MPD2    H312239   1.418   1.325  17.315  0.0340 -0.7091  0.0490
  832MPD2     N12240   1.373   1.651  17.013 -0.7802  0.3328 -0.0039
  832MPD2    H512241   1.276   1.624  17.000 -0.7932  0.2704  0.2257
  832MPD2    N112242   1.808   1.532  17.195  0.2443 -0.1142 -0.0438
  832MPD2    H712243   1.845   1.501  17.284  0.9000  1.2848  0.1859
  833MPD2     C12244   3.551   2.473  12.746 -0.1229  0.5603 -0.1398
  833MPD2    C112245   3.556   2.535  12.623  0.7858  0.1349 -0.2702
  833MPD2    C212246   3.612   2.456  12.525 -0.3893 -0.4414  0.5765
  833MPD2    C312247   3.648   2.325  12.536 -0.1764  0.0249 -0.0938
  833MPD2    C412248   3.626   2.259  12.655 -0.1304  0.5333 -0.2844
  833MPD2    C512249   3.585   2.342  12.757  0.3441  0.2228 -0.7096
  833MPD2     H12250   3.617   2.500  12.426  1.7802 -0.8814  0.5056
  833MPD2    H112251   3.640   2.152  12.666 -1.4742  0.7098  3.1651
  833MPD2    H212252   3.528   2.530  12.835  4.3012  1.0175  0.6739
  833MPD2    H312253   3.583   2.294  12.854 -0.8074 -1.0735 -1.3614
  833MPD2     N12254   3.721   2.252  12.440 -0.2936 -0.2879  0.3699
  833MPD2    H512255   3.741   2.154  12.458 -2.3196 -0.7143  0.2505
  833MPD2    N112256   3.533   2.676  12.611 -0.2597 -0.2117 -0.7350
  833MPD2    H712257   3.522   2.725  12.700  0.4375  1.3884 -1.5154
  834MPD2     C12258   3.481   1.516  11.817  0.6863  0.0181 -0.3164
  834MPD2    C112259   3.495   1.624  11.728  0.6903  0.2859  0.3903
  834MPD2    C212260   3.553   1.740  11.772  0.2541 -0.3348 -0.1419
  834MPD2    C312261   3.591   1.757  11.898 -0.3056  0.2749  0.8665
  834MPD2    C412262   3.590   1.652  11.986 -0.0021  0.0823  1.1068
  834MPD2    C512263   3.536   1.526  11.946 -0.5304  0.1212  0.3284
  834MPD2     H12264   3.577   1.816  11.698 -1.7200  2.7976  2.4186
  834MPD2    H112265   3.626   1.660  12.088  0.6435 -0.1286  0.8971
  834MPD2    H212266   3.447   1.417  11.789  1.0031  0.2282 -1.4296
  834MPD2    H312267   3.525   1.442  12.014  0.6191 -0.3152 -0.0212
  834MPD2     N12268   3.651   1.884  11.930 -0.7160 -0.3551  0.3367
  834MPD2    H512269   3.675   1.949  11.856 -2.2785 -0.1259  0.0428
  834MPD2    N112270   3.467   1.598  11.589  0.0407  0.2205 -0.2443
  834MPD2    H712271   3.453   1.501  11.561  0.9444 -0.5882  2.1090
  835MPD2     C12272   3.906   0.231  10.652 -0.3776 -0.7088 -0.0289
  835MPD2    C112273   3.797   0.156  10.681  0.2002  0.2637 -0.7834
  835MPD2    C212274   3.749   0.155  10.813  0.1404 -0.3943  0.9787
  835MPD2    C312275   3.794   0.240  10.911 -0.6054  0.4564  0.3960
  835MPD2    C412276   3.911   0.304  10.888 -0.9052  0.1123 -0.1570
  835MPD2    C512277   3.962   0.298  10.758  1.0781  0.4569  0.4777
  835MPD2     H12278   3.665   0.088  10.828 -0.9271  0.6932 -0.1960
  835MPD2    H112279   3.948   0.363  10.971  0.6544 -1.1162  0.0035
  835MPD2    H212280   3.950   0.257  10.556 -0.8614  0.8437  0.1577
  835MPD2    H312281   4.045   0.361  10.729 -0.8018  2.6196 -0.2338
  835MPD2     N12282   3.728   0.260  11.034  0.3615 -0.5017  0.3097
  835MPD2    H512283   3.768   0.321  11.105 -1.4861 -1.8563  2.5153
  835MPD2    N112284   3.721   0.087  10.591  0.4622 -0.5676  0.3178
  835MPD2    H712285   3.649   0.027  10.629  0.2395 -0.0142  0.7673
  836MPD2     C12286   3.070   0.562  11.071 -0.1864  0.2706 -0.1197
  836MPD2    C112287   3.085   0.499  11.190 -0.2326  0.1193  0.0745
  836MPD2    C212288   2.981   0.521  11.287 -0.8925 -0.0613  0.0015
  836MPD2    C312289   2.878   0.618  11.273 -0.1927 -0.2970 -0.6368
  836MPD2    C412290   2.868   0.679  11.153 -0.2891 -0.2566  0.2640
  836MPD2    C512291   2.960   0.651  11.054  0.4930 -0.5065  0.2021
  836MPD2     H12292   2.979   0.461  11.377  0.8783 -2.0872 -1.3037
  836MPD2    H112293   2.793   0.756  11.136 -0.2747 -0.6758 -1.6989
  836MPD2    H212294   3.140   0.541  10.991 -0.9626 -0.0322 -0.7255
  836MPD2    H312295   2.950   0.703  10.959  2.3645 -3.1364 -1.4024
  836MPD2     N12296   2.784   0.645  11.369 -0.0302  0.0268  0.4284
  836MPD2    H512297   2.716   0.717  11.348 -0.0668 -1.0359 -3.0098
  836MPD2    N112298   3.183   0.407  11.205  0.4823  0.1207  0.4947
  836MPD2    H712299   3.247   0.382  11.130  1.2997 -0.1510  1.2703
  837MPD2     C12300   2.008   0.374  10.500 -0.1034 -0.0699 -0.6770
  837MPD2    C112301   2.034   0.361  10.363  0.1095 -0.2097  0.7092
  837MPD2    C212302   2.133   0.446  10.310  0.2028  0.6188  0.3902
  837MPD2    C312303   2.191   0.539  10.386 -0.1452  0.1877 -0.6520
  837MPD2    C412304   2.164   0.546  10.524 -0.7479  0.1614  0.0245
  837MPD2    C512305   2.081   0.457  10.578  0.4629  0.5810 -0.6307
  837MPD2     H12306   2.150   0.446  10.202  0.4642 -0.5747  0.4321
  837MPD2    H112307   2.221   0.618  10.583 -1.1451  0.3198  0.2157
  837MPD2    H212308   1.938   0.302  10.541  0.4301 -1.8028 -2.7805
  837MPD2    H312309   2.067   0.471  10.685 -1.9658 -0.8738 -0.7481
  837MPD2     N12310   2.286   0.622  10.326 -0.0632  0.0019 -1.1270
  837MPD2    H512311   2.301   0.608  10.227  0.6340  3.1280 -1.4585
  837MPD2    N112312   1.962   0.280  10.270 -0.8044 -0.2837  0.0477
  837MPD2    H712313   2.001   0.275  10.177 -0.8278  1.0006 -0.0204
  838MPD2     C12314   0.062   3.384  12.251 -0.3713  0.3255  0.0666
  838MPD2    C112315   4.668   3.325  12.214  0.3413 -0.1446 -0.3060
  838MPD2    C212316   4.560   3.317  12.302 -0.4739  0.1576  0.1056
  838MPD2    C312317   4.582   3.353  12.433 -0.7687 -0.3228 -0.6661
  838MPD2    C412318   4.700   3.415  12.466 -0.5359 -0.5761  0.2330
  838MPD2    C512319   0.077   3.443  12.370  0.2930 -0.7091  0.5384
  838MPD2     H12320   4.466   3.272  12.271 -0.7939  1.0245 -0.1686
  838MPD2    H112321   4.706   3.463  12.562  3.8010  2.0047 -1.3282
  838MPD2    H212322   0.147   3.399  12.185  0.5355 -0.3437  1.0721
  838MPD2    H312323   0.161   3.509  12.390 -0.8111  1.2566 -1.3367
  838MPD2     N12324   4.490   3.339  12.533  0.5995 -0.4114 -0.1327
  838MPD2    H512325   4.521   3.361  12.628 -0.6394 -0.5023  0.2954
  838MPD2    N112326   4.656   3.288  12.080  0.0381  0.3437  0.2862
  838MPD2    H712327   4.568   3.249  12.048 -1.1318  2.3871  0.9516
  839MPD2     C12328   4.261   2.621  11.919 -0.0092  0.4463 -0.3882
  839MPD2    C112329   4.264   2.655  11.783 -0.1534 -0.2755 -0.0108
  839MPD2    C212330   4.320   2.775  11.743  0.3308 -0.4247  0.0266
  839MPD2    C312331   4.352   2.871  11.836 -0.0674  0.3165  0.2197
  839MPD2    C412332   4.337   2.839  11.970  0.0919  0.4721 -0.8582
  839MPD2    C512333   4.308   2.713  12.015 -0.5246 -0.6382 -0.2866
  839MPD2     H12334   4.329   2.788  11.636 -0.1519  0.8484  0.1383
  839MPD2    H112335   4.352   2.905  12.055 -1.3059 -0.3390  0.0188
  839MPD2    H212336   4.229   2.524  11.954 -2.3557  0.7850 -1.5546
  839MPD2    H312337   4.284   2.695  12.119  0.0297  1.2972  0.1830
  839MPD2     N12338   4.423   2.990  11.808  0.8911  0.3230  0.4878
  839MPD2    H512339   4.444   3.053  11.885  0.4333 -0.5038  1.2882
  839MPD2    N112340   4.212   2.561  11.687  0.5552 -0.0985  0.2561
  839MPD2    H712341   4.229   2.567  11.587 -1.7995 -0.4804 -0.1679
  840MPD2     C12342   0.605   0.762  10.631 -0.2146  0.0279  0.0329
  840MPD2    C112343   0.611   0.723  10.763  0.1227 -0.3341  0.1724
  840MPD2    C212344   0.642   0.821  10.859 -0.0963 -0.3726 -0.5461
  840MPD2    C312345   0.661   0.953  10.818 -0.0550 -0.0094 -0.1781
  840MPD2    C412346   0.657   0.985  10.684 -0.2130 -0.6899 -0.1552
  840MPD2    C512347   0.628   0.890  10.595  0.0996 -0.7671 -0.2155
  840MPD2     H12348   0.643   0.788  10.962 -0.9637  1.1474 -0.0563
  840MPD2    H112349   0.657   1.085  10.642 -0.3487 -0.4670  0.3745
  840MPD2    H212350   0.581   0.691  10.553 -0.4504  0.9714 -0.7532
  840MPD2    H312351   0.623   0.910  10.489 -1.7499 -1.5314 -0.2707
  840MPD2     N12352   0.678   1.065  10.906  0.5886 -0.0660 -0.0637
  840MPD2    H512353   0.674   1.152  10.853 -2.2345  0.5580  1.1740
  840MPD2    N112354   0.592   0.578  10.795  0.6289 -0.9235  0.0702
  840MPD2    H712355   0.587   0.512  10.717 -2.3146 -0.4746 -0.1342
  841MPD2     C12356   0.132   1.188  14.688 -0.0160  0.1061 -0.3285
  841MPD2    C112357   0.149   1.121  14.572  0.6042 -0.1249  1.0938
  841MPD2    C212358   0.260   1.141  14.491  0.2458 -0.4155  0.4220
  841MPD2    C312359   0.360   1.224  14.536 -0.4619 -0.1098  0.2782
  841MPD2    C412360   0.348   1.282  14.663 -1.0420  0.0528 -0.2084
  841MPD2    C512361   0.228   1.269  14.734  0.1808 -0.0905 -0.4907
  841MPD2     H12362   0.282   1.092  14.397 -1.5771  1.0764 -0.7631
  841MPD2    H112363   0.428   1.341  14.706  0.9461 -1.0683 -2.4305
  841MPD2    H212364   0.036   1.179  14.737  0.5053 -1.3308  0.4311
  841MPD2    H312365   0.214   1.300  14.837  0.4151  0.3948 -0.6038
  841MPD2     N12366   0.472   1.243  14.451  0.3374  0.1204 -0.2833
  841MPD2    H512367   0.475   1.187  14.367  0.7493 -1.2706  0.6486
  841MPD2    N112368   0.047   1.020  14.542  0.5736 -0.1725  0.2066
  841MPD2    H712369   4.708   0.991  14.616 -0.2162  1.6032  0.2336
  842MPD2     C12370   0.472   2.213  17.498  0.0621 -0.1191  0.2584
  842MPD2    C112371   0.426   2.137  17.386 -0.0279 -0.8155  0.6091
  842MPD2    C212372   0.304   2.075  17.396 -0.2026  0.1478  0.4423
  842MPD2    C312373   0.236   2.074  17.514 -0.0705 -0.5338 -0.7689
  842MPD2    C412374   0.275   2.144  17.625 -0.2992 -0.2214  0.2280
  842MPD2    C512375   0.395   2.211  17.616  0.1509  0.8898 -0.3312
  842MPD2     H12376   0.265   2.017  17.313  0.1703  2.6542 -1.4662
  842MPD2    H112377   0.219   2.158   0.020  1.3058  0.5437  1.1003
  842MPD2    H212378   0.565   2.269  17.497 -0.2702  0.3918 -1.9238
  842MPD2    H312379   0.419   2.269   0.007 -2.0958  0.4181  0.5903
  842MPD2     N12380   0.124   1.988  17.514  0.3053 -0.3215  0.1767
  842MPD2    H512381   0.111   1.935  17.428 -2.0493 -0.6398  0.7320
  842MPD2    N112382   0.497   2.131  17.262 -0.3118  0.6888  0.0150
  842MPD2    H712383   0.580   2.188  17.260  0.3284 -0.1516  3.4732
  843MPD2     C12384   2.462   1.757   0.054 -0.3530 -0.2976 -0.0236
  843MPD2    C112385   2.523   1.679   0.151  0.5752 -0.0864  0.4236
  843MPD2    C212386   2.650   1.701   0.192 -0.0140 -0.3402  0.2548
  843MPD2    C312387   2.721   1.804   0.139  1.0618 -0.3925  0.1949
  843MPD2    C412388   2.661   1.890   0.056  0.8513 -0.0009 -0.1876
  843MPD2    C512389   2.529   1.872   0.015  0.0213  0.3710 -0.0409
  843MPD2     H12390   2.697   1.639   0.268  1.1394 -0.5487 -0.6358
  843MPD2    H112391   2.713   1.978   0.022 -0.9396  0.9523 -0.4648
  843MPD2    H212392   2.355   1.745   0.038 -0.6617  1.2988  0.7465
  843MPD2    H312393   2.501   1.943  17.635 -1.7159  0.1221  0.3690
  843MPD2     N12394   2.847   1.843   0.188  0.3760  0.1234  0.4926
  843MPD2    H512395   2.891   1.920   0.137  0.2512 -0.4132 -0.4242
  843MPD2    N112396   2.439   1.574   0.200 -0.2164 -0.3523  0.0317
  843MPD2    H712397   2.345   1.559   0.163 -0.6079  1.4607  0.2765
  844MPD2     C12398   1.339   0.703  16.770 -0.1840  0.2669 -0.7059
  844MPD2    C112399   1.335   0.800  16.669 -0.6453 -0.1646  0.4408
  844MPD2    C212400   1.356   0.929  16.698 -0.2736  0.3885  0.1480
  844MPD2    C312401   1.389   0.963  16.829 -0.0060  0.0751 -0.5242
  844MPD2    C412402   1.391   0.866  16.932  0.4754  0.4179 -0.6836
  844MPD2    C512403   1.359   0.739  16.901  0.4402 -1.1570  0.1793
  844MPD2     H12404   1.351   1.016  16.633 -4.0973  0.9130  1.1363
  844MPD2    H112405   1.414   0.886  17.036  0.3262  1.1570 -0.7939
  844MPD2    H212406   1.326   0.599  16.740  0.9888 -0.3829  1.0707
  844MPD2    H312407   1.363   0.656  16.971  0.1385 -0.8936  0.5087
  844MPD2     N12408   1.409   1.098  16.859 -0.0373 -0.1432 -0.6380
  844MPD2    H512409   1.411   1.166  16.784  0.0016  0.4382 -0.1069
  844MPD2    N112410   1.320   0.767  16.531 -0.2847 -0.2263  0.9478
  844MPD2    H712411   1.345   0.838  16.463 -0.4978  0.8023  1.9324
  845MPD2     C12412   1.715   2.007  16.599  0.0264  0.4511 -0.2212
  845MPD2    C112413   1.777   1.989  16.720  0.4528 -0.4786 -0.3623
  845MPD2    C212414   1.768   1.860  16.767  1.0451  0.3445  0.3094
  845MPD2    C312415   1.687   1.762  16.708 -0.0048 -0.3551  1.0324
  845MPD2    C412416   1.616   1.792  16.601  0.1892 -0.2144  0.0778
  845MPD2    C512417   1.627   1.915  16.546 -0.3532  0.1024  0.2706
  845MPD2     H12418   1.821   1.836  16.859 -3.0334 -1.2303  2.2298
  845MPD2    H112419   1.558   1.718  16.547 -1.4865 -0.4087  2.1730
  845MPD2    H212420   1.728   2.099  16.542  0.9459 -0.1833 -1.0363
  845MPD2    H312421   1.575   1.930  16.452  1.2669  0.6233 -0.5470
  845MPD2     N12422   1.682   1.637  16.772 -0.4092 -0.1135  0.6936
  845MPD2    H512423   1.744   1.620  16.851  0.0138  1.3043  0.6576
  845MPD2    N112424   1.841   2.101  16.787  0.5103  0.3664 -0.2209
  845MPD2    H712425   1.840   2.188  16.734 -0.2324  0.7364  0.3948
  846MPD2     C12426   2.930   2.168  13.539  0.3194 -0.1674 -0.9106
  846MPD2    C112427   2.862   2.276  13.570 -0.2406  1.0393 -1.0280
  846MPD2    C212428   2.831   2.298  13.704 -0.6728 -0.4745  0.0804
  846MPD2    C312429   2.874   2.223  13.810  0.3738  1.3128 -0.0836
  846MPD2    C412430   2.955   2.115  13.769 -0.4913  0.0468  0.7808
  846MPD2    C512431   2.971   2.082  13.639 -0.0802 -0.2794  0.6049
  846MPD2     H12432   2.771   2.381  13.740  0.1980  0.2315 -0.1011
  846MPD2    H112433   2.995   2.051  13.846  2.2078 -0.2598 -0.8906
  846MPD2    H212434   2.953   2.135  13.438 -0.3204  0.8404 -1.3862
  846MPD2    H312435   3.026   1.996  13.603 -0.3376 -0.3917  0.4788
  846MPD2     N12436   2.835   2.241  13.942  0.0113  0.0625 -0.1583
  846MPD2    H512437   2.760   2.307  13.961 -0.0690 -0.0485 -0.0918
  846MPD2    N112438   2.830   2.377  13.472  0.3745  0.0239  0.0332
  846MPD2    H712439   2.797   2.465  13.511  0.3505 -0.5042  1.2041
  847MPD2     C12440   3.350   3.290  14.137 -0.3931  0.2636  0.2092
  847MPD2    C112441   3.395   3.310  14.264 -0.0393  0.4300 -0.3252
  847MPD2    C212442   3.383   3.207  14.358 -0.2461 -0.9246  0.2045
  847MPD2    C312443   3.338   3.084  14.324 -0.3520  0.2856  0.3843
  847MPD2    C412444   3.302   3.068  14.192 -0.1206  0.4599 -0.4355
  847MPD2    C512445   3.307   3.167  14.099  0.8175 -0.3353  0.0658
  847MPD2     H12446   3.388   3.231  14.463  1.5740  0.7228 -0.2682
  847MPD2    H112447   3.261   2.973  14.162  0.5202  0.1980 -0.4702
  847MPD2    H212448   3.372   3.363  14.059 -2.2470  1.1906  0.5580
  847MPD2    H312449   3.288   3.138  13.996 -0.4363 -1.2341  0.5442
  847MPD2     N12450   3.324   2.991  14.431  0.6478 -0.5485  0.6644
  847MPD2    H512451   3.344   3.021  14.526  0.7328 -1.5441  0.9609
  847MPD2    N112452   3.441   3.427  14.313  0.3390 -0.0507  0.0606
  847MPD2    H712453   3.472   3.416  14.409 -2.2365  0.3541  0.9532
  848MPD2     C12454   1.313   2.050  16.300 -0.6493 -0.3564  0.1664
  848MPD2    C112455   1.305   2.078  16.432  1.2384  0.7258  0.3094
  848MPD2    C212456   1.301   2.208  16.470 -0.3943 -1.0585  0.2444
  848MPD2    C312457   1.315   2.313  16.380 -0.4175 -0.4720 -0.0278
  848MPD2    C412458   1.328   2.281  16.245 -0.0107  0.3393  0.0399
  848MPD2    C512459   1.322   2.149  16.206  0.2055 -0.4142 -0.2365
  848MPD2     H12460   1.284   2.218  16.576 -2.8637  2.3434 -0.4513
  848MPD2    H112461   1.336   2.357  16.168 -1.8277 -1.8374 -2.3042
  848MPD2    H212462   1.328   1.945  16.277  0.9427 -0.5339  1.9525
  848MPD2    H312463   1.316   2.124  16.100  0.8151 -2.4312  0.2049
  848MPD2     N12464   1.314   2.445  16.434 -0.5088  0.5268  0.0713
  848MPD2    H512465   1.286   2.450  16.532 -1.9620 -1.5948 -0.2346
  848MPD2    N112466   1.294   1.984  16.537  0.3314 -0.4226 -0.4099
  848MPD2    H712467   1.283   2.020  16.631  2.0640 -1.3316  0.1434
  849MPD2     C12468   0.833   0.832  13.961  0.4889  0.0181  0.6136
  849MPD2    C112469   0.885   0.917  13.864  1.1175 -0.1361 -0.5944
  849MPD2    C212470   1.012   0.960  13.888  0.6058 -0.0242 -0.7855
  849MPD2    C312471   1.089   0.918  13.987 -0.5336  0.6774 -0.0095
  849MPD2    C412472   1.035   0.827  14.083  0.4777 -0.3720 -0.8936
  849MPD2    C512473   0.905   0.795  14.074 -0.4730  0.1560  0.2460
  849MPD2     H12474   1.048   1.035  13.818  0.5706  0.5652 -0.1766
  849MPD2    H112475   1.093   0.779  14.161  1.6567 -0.9378 -2.1098
  849MPD2    H212476   0.729   0.800  13.957  1.1689 -2.1920  0.6140
  849MPD2    H312477   0.858   0.727  14.144 -0.7227 -0.0706 -0.1452
  849MPD2     N12478   1.221   0.961  13.982  0.5403  0.4077 -0.1392
  849MPD2    H512479   1.250   1.009  13.898 -1.3930 -0.5664 -1.3506
  849MPD2    N112480   0.812   0.977  13.761 -0.1602 -0.0789  0.3030
  849MPD2    H712481   0.856   1.057  13.717 -1.4169  0.0105 -0.7735
  850MPD2     C12482   2.850   3.988  15.101  0.0554  0.5924  0.2378
  850MPD2    C112483   2.869   4.100  15.184 -0.3266 -0.0670 -0.3981
  850MPD2    C212484   2.990   4.169  15.177  0.1747  0.3917  0.7739
  850MPD2    C312485   3.089   4.133  15.093  0.5015 -0.7320  0.1358
  850MPD2    C412486   3.064   4.025  15.011 -0.6296  0.2287  0.3324
  850MPD2    C512487   2.952   3.954  15.018  0.9247  0.1920  0.5570
  850MPD2     H12488   3.005   4.259  15.237 -1.5565  0.9935  0.3089
  850MPD2    H112489   3.147   3.996  14.947  0.2006  1.4954  0.8231
  850MPD2    H212490   2.760   3.927  15.102 -0.2702  1.0856  1.4850
  850MPD2    H312491   2.945   3.862  14.960  2.0078  0.3644  0.1573
  850MPD2     N12492   3.215   4.203  15.084  0.2710  0.1525 -0.3243
  850MPD2    H512493   3.275   4.178  15.006  0.8672  0.0474  0.1648
  850MPD2    N112494   2.761   4.126  15.271  0.3174 -0.2277 -0.1391
  850MPD2    H712495   2.684   4.059  15.262  0.5688 -0.3706 -1.2452
  851MPD2     C12496   3.466   4.216  15.749 -0.6055  0.0180  0.1864
  851MPD2    C112497   3.406   4.179  15.630 -0.2355  0.3769 -0.4361
  851MPD2    C212498   3.488   4.139  15.524 -0.6987 -0.5911 -0.4315
  851MPD2    C312499   3.626   4.123  15.542 -0.5666  0.6304 -0.1800
  851MPD2    C412500   3.686   4.159  15.664 -0.2361  0.4907  0.3542
  851MPD2    C512501   3.605   4.211  15.764 -0.6575  0.4598 -0.1156
  851MPD2     H12502   3.442   4.113  15.429 -1.3233 -0.6442 -0.1141
  851MPD2    H112503   3.790   4.140  15.688 -0.9416 -1.5873  1.7146
  851MPD2    H212504   3.405   4.239  15.836 -0.6040  0.7438  0.0001
  851MPD2    H312505   3.644   4.231  15.863 -0.9604 -0.6807  0.2366
  851MPD2     N12506   3.697   4.062  15.433  0.5179  0.5584  0.1499
  851MPD2    H512507   3.638   4.047  15.351  0.6233 -4.8622  1.1203
  851MPD2    N112508   3.269   4.198  15.634 -0.5845  0.0997 -0.5799
  851MPD2    H712509   3.236   4.251  15.714 -0.9315 -0.8894 -0.0666
  852MPD2     C12510   2.197   2.026   9.943  0.2166  0.1474 -0.1371
  852MPD2    C112511   2.206   1.945  10.052  0.6678  0.3309 -0.1439
  852MPD2    C212512   2.320   1.933  10.123  0.0537  1.3391 -0.9835
  852MPD2    C312513   2.436   1.990  10.076  0.0719 -0.1292 -0.4018
  852MPD2    C412514   2.434   2.063   9.963 -0.0809 -0.1649 -0.0735
  852MPD2    C512515   2.317   2.078   9.895 -0.0976  0.3572 -0.3595
  852MPD2     H12516   2.326   1.862  10.205 -1.3279 -0.5494 -2.4865
  852MPD2    H112517   2.522   2.095   9.909 -1.1143 -0.0863 -1.6854
  852MPD2    H212518   2.105   2.058   9.895 -0.5036 -0.9209  0.5138
  852MPD2    H312519   2.314   2.125   9.798 -0.5540  1.1129  0.0233
  852MPD2     N12520   2.556   1.973  10.156 -0.3000 -0.0260  0.1679
  852MPD2    H512521   2.545   1.897  10.221  0.9627 -1.6452 -1.5075
  852MPD2    N112522   2.085   1.889  10.112  0.1221 -0.0191 -0.0752
  852MPD2    H712523   2.104   1.845  10.201  0.3277 -0.6552 -0.4314
  853MPD2     C12524   4.607   2.203  12.395  0.2616  0.5549  1.0437
  853MPD2    C112525   4.532   2.126  12.482  0.6855 -0.1704 -0.6453
  853MPD2    C212526   4.460   2.020  12.427 -0.4055  0.0796 -0.1092
  853MPD2    C312527   4.477   1.969  12.301 -0.5703 -0.7732 -0.4685
  853MPD2    C412528   4.562   2.043  12.221 -0.3223 -0.0086  0.3873
  853MPD2    C512529   4.619   2.161  12.268  0.6898 -0.0456  0.2273
  853MPD2     H12530   4.395   1.966  12.496 -0.0537 -1.2117 -0.7851
  853MPD2    H112531   4.575   2.012  12.118 -1.3282 -2.6193  1.0562
  853MPD2    H212532   4.668   2.283  12.434  0.2848  1.5739 -1.1273
  853MPD2    H312533   4.671   2.219  12.193 -1.1156 -1.2817 -1.9871
  853MPD2     N12534   4.406   1.866  12.234 -0.3371  0.7266  0.4502
  853MPD2    H512535   4.435   1.833  12.142 -0.4423 -1.2835  1.1215
  853MPD2    N112536   4.527   2.162  12.618  0.1837  0.1104  0.2054
  853MPD2    H712537   4.564   2.249  12.655 -0.9439 -0.2390  2.1177
  854MPD2     C12538   1.350   1.989  12.977  0.0571 -0.7803  0.0935
  854MPD2    C112539   1.443   2.060  13.057  0.0370  0.5306 -0.2532
  854MPD2    C212540   1.515   1.986  13.146 -0.3064 -0.6515  0.2765
  854MPD2    C312541   1.494   1.846  13.150  0.8382  0.1415  0.6467
  854MPD2    C412542   1.390   1.783  13.085  0.8538 -0.0768 -0.5641
  854MPD2    C512543   1.326   1.856  12.991  0.1545  0.1370 -1.2006
  854MPD2     H12544   1.577   2.045  13.213 -1.2038 -0.2880  0.7970
  854MPD2    H112545   1.379   1.675  13.089  0.4179  0.0236  0.8857
  854MPD2    H212546   1.302   2.045  12.898 -0.1458 -1.7031 -0.4423
  854MPD2    H312547   1.258   1.797  12.930  0.9872 -2.3875  0.3143
  854MPD2     N12548   1.567   1.755  13.230 -0.4109 -0.3730  0.3807
  854MPD2    H512549   1.526   1.662  13.236  0.1395 -0.6279  0.2263
  854MPD2    N112550   1.458   2.200  13.035 -0.9763  0.0106  0.0850
  854MPD2    H712551   1.388   2.240  12.974 -0.8522 -1.3669 -0.9478
  855MPD2     C12552   2.271   1.666  14.004  0.3505 -0.6215 -0.0036
  855MPD2    C112553   2.262   1.557  13.921  0.0613 -0.1851 -0.0046
  855MPD2    C212554   2.154   1.552  13.836 -0.1535  0.9052  0.8043
  855MPD2    C312555   2.059   1.658  13.831 -0.1879  0.1346  0.7869
  855MPD2    C412556   2.065   1.757  13.921 -0.2126 -0.4667  0.0993
  855MPD2    C512557   2.170   1.756  14.007  0.0192 -0.9570  0.7345
  855MPD2     H12558   2.139   1.460  13.780 -1.8024  2.0639 -0.6490
  855MPD2    H112559   1.993   1.838  13.926 -0.5395 -0.8350  1.3870
  855MPD2    H212560   2.349   1.672  14.079 -1.3039  0.8621  1.6148
  855MPD2    H312561   2.179   1.826  14.089 -1.5083  1.5316 -1.2580
  855MPD2     N12562   1.958   1.661  13.727  0.4616  0.2314 -0.0884
  855MPD2    H512563   1.891   1.737  13.733 -0.0619 -0.1069 -1.6828
  855MPD2    N112564   2.352   1.444  13.943  0.2879  0.7039  0.1082
  855MPD2    H712565   2.404   1.429  14.029 -0.0604  2.5428  0.6497
  856MPD2     C12566   3.573   2.393  13.859  0.0450 -0.3165  1.3915
  856MPD2    C112567   3.693   2.463  13.868  0.1678 -0.3906 -0.2162
  856MPD2    C212568   3.687   2.599  13.850 -0.4096  0.2798  0.5828
  856MPD2    C312569   3.568   2.665  13.831 -0.2038  0.0642 -0.0709
  856MPD2    C412570   3.450   2.589  13.821 -0.5064 -0.4760  0.3113
  856MPD2    C512571   3.453   2.451  13.834  0.0531  0.5370 -0.1035
  856MPD2     H12572   3.774   2.662  13.866 -0.0636 -0.5563  2.0422
  856MPD2    H112573   3.348   2.624  13.809 -0.0829  0.3597 -0.8615
  856MPD2    H212574   3.575   2.286  13.876 -1.1693 -0.5077  0.2974
  856MPD2    H312575   3.361   2.394  13.841  0.7977 -0.4937  1.2383
  856MPD2     N12576   3.559   2.811  13.812  0.1573  0.9489  1.1134
  856MPD2    H512577   3.464   2.845  13.798 -0.5640 -0.4107  2.5334
  856MPD2    N112578   3.815   2.416  13.916 -0.7957 -1.0429 -0.1150
  856MPD2    H712579   3.890   2.485  13.921 -0.8081 -1.0697  0.3548
  857MPD2     C12580   0.928   0.049  12.880 -0.0550 -0.0836 -0.9043
  857MPD2    C112581   0.994   0.023  13.002  0.0782  0.4013  0.3450
  857MPD2    C212582   0.974   0.109  13.108  0.1350 -0.2785  0.2113
  857MPD2    C312583   0.878   0.212  13.099  0.3582 -0.0879 -0.6169
  857MPD2    C412584   0.826   0.241  12.977 -0.1900  1.3658  0.0120
  857MPD2    C512585   0.851   0.166  12.866 -0.4312 -0.2474 -0.0563
  857MPD2     H12586   1.007   0.077  13.206 -0.6900  0.0649  0.6037
  857MPD2    H112587   0.757   0.323  12.959  0.2391  1.9050  0.8075
  857MPD2    H212588   0.942   4.705  12.797 -0.3987 -1.8747  0.5007
  857MPD2    H312589   0.796   0.195  12.777  1.0229 -0.0598 -0.8892
  857MPD2     N12590   0.849   0.286  13.217  0.0344  0.2449  0.8788
  857MPD2    H512591   0.917   0.273  13.291  1.8091  0.5206 -0.7113
  857MPD2    N112592   1.060   4.619  13.010 -0.0199  0.4941  0.6357
  857MPD2    H712593   1.104   4.585  12.925 -1.3250  0.7557 -0.1467
  858MPD2     C12594   1.756   3.746  16.528  0.1050  0.2653  0.8079
  858MPD2    C112595   1.861   3.690  16.598  0.6646  0.6371 -0.7969
  858MPD2    C212596   1.879   3.744  16.725  0.2251  0.9469 -0.5131
  858MPD2    C312597   1.804   3.854  16.777 -0.2256 -0.3970 -0.5193
  858MPD2    C412598   1.708   3.905  16.695  0.9951  0.0427 -0.0089
  858MPD2    C512599   1.680   3.848  16.574 -0.3018  0.4234 -0.2950
  858MPD2     H12600   1.943   3.687  16.792  0.0321 -0.4657 -1.5219
  858MPD2    H112601   1.649   3.991  16.724  1.5976  0.6622 -0.6151
  858MPD2    H212602   1.741   3.715  16.425  0.8290  1.2647  0.4001
  858MPD2    H312603   1.598   3.887  16.515 -0.7735  1.4309  1.0295
  858MPD2     N12604   1.825   3.916  16.901  0.3606  0.1273  0.3401
  858MPD2    H512605   1.758   3.988  16.926  0.5013  1.0136 -1.8898
  858MPD2    N112606   1.938   3.587  16.546 -0.2858  0.0100  0.1023
  858MPD2    H712607   1.923   3.572  16.447 -1.9003  1.3961  0.1322
  859MPD2     C12608   0.012   1.539  15.054 -0.4206 -0.1641 -0.4424
  859MPD2    C112609   0.131   1.476  15.088 -1.0285  0.0149  0.1399
  859MPD2    C212610   0.146   1.338  15.080 -0.2839  0.3852 -0.3842
  859MPD2    C312611   0.037   1.259  15.043  0.2148  0.5447 -0.2392
  859MPD2    C412612   4.646   1.317  15.010 -0.5055 -0.0271  0.2163
  859MPD2    C512613   4.636   1.455  15.015 -0.6256  0.4433  0.2071
  859MPD2     H12614   0.237   1.291  15.116 -0.6913 -1.6129 -1.9668
  859MPD2    H112615   4.563   1.260  14.969 -1.0849 -0.4116  1.9244
  859MPD2    H212616   4.720   1.646  15.064  0.8711  0.2682 -2.7564
  859MPD2    H312617   4.537   1.492  14.989 -1.3964 -1.1279  0.8350
  859MPD2     N12618   0.048   1.117  15.028  0.1878 -0.2011  0.1242
  859MPD2    H512619   4.687   1.067  15.003  0.6339 -0.1756 -1.4494
  859MPD2    N112620   0.234   1.567  15.114 -0.1003 -0.1379  0.4891
  859MPD2    H712621   0.211   1.665  15.100  1.1425  0.3395  1.8085
  860MPD2     C12622   2.338   1.449  11.820  0.2375  0.0701  0.1901
  860MPD2    C112623   2.306   1.548  11.913 -0.2405  0.0240 -0.5923
  860MPD2    C212624   2.221   1.522  12.017  0.9189 -0.7098 -0.2202
  860MPD2    C312625   2.178   1.394  12.047 -0.4984  1.0498  0.2648
  860MPD2    C412626   2.208   1.294  11.958 -0.3031 -0.3906  0.0548
  860MPD2    C512627   2.288   1.323  11.842 -0.1612 -0.4457  0.7601
  860MPD2     H12628   2.216   1.591  12.101 -0.4538 -0.2208 -0.7054
  860MPD2    H112629   2.171   1.194  11.973 -2.3173 -0.0024 -2.2638
  860MPD2    H212630   2.400   1.458  11.731 -1.5249  1.4411 -0.9098
  860MPD2    H312631   2.308   1.249  11.766 -0.7080 -0.5505  0.7235
  860MPD2     N12632   2.101   1.379  12.165  0.3904 -0.1562  0.1486
  860MPD2    H512633   2.066   1.461  12.214 -0.1709  1.1775 -2.5223
  860MPD2    N112634   2.360   1.677  11.917 -0.4317 -0.0142  0.8831
  860MPD2    H712635   2.320   1.745  11.981 -0.2320 -0.7168  1.7670
  861MPD2     C12636   1.606   0.069  11.120  0.3917  1.0738  0.3577
  861MPD2    C112637   1.524   0.153  11.191  0.0897 -0.2038 -0.5503
  861MPD2    C212638   1.429   0.230  11.125 -0.8942  0.0932  0.3434
  861MPD2    C312639   1.428   0.235  10.988  0.5109 -0.1793  0.6834
  861MPD2    C412640   1.509   0.149  10.915  0.2599 -0.4517  0.3546
  861MPD2    C512641   1.592   0.066  10.985  0.5747  0.6792  0.3173
  861MPD2     H12642   1.348   0.275  11.183 -1.7142  0.1907 -0.8895
  861MPD2    H112643   1.492   0.144  10.808 -1.9048 -1.9155  0.7650
  861MPD2    H212644   1.678   4.723  11.162 -0.5915 -0.7341 -0.9523
  861MPD2    H312645   1.649   4.714  10.933 -0.3913  1.4206 -1.8371
  861MPD2     N12646   1.340   0.302  10.904 -0.3993  0.2588 -0.0533
  861MPD2    H512647   1.346   0.277  10.806 -2.0191 -0.3863  0.0031
  861MPD2    N112648   1.510   0.155  11.334  0.2308 -0.1349  0.1170
  861MPD2    H712649   1.440   0.217  11.373 -0.9784 -3.9544  3.9983
  862MPD2     C12650   1.192   0.493  10.240  0.0036 -0.2218 -0.0632
  862MPD2    C112651   1.193   0.411  10.352  0.1623 -0.3274  0.0977
  862MPD2    C212652   1.175   0.272  10.338  0.1223 -1.0130  0.6249
  862MPD2    C312653   1.166   0.219  10.212 -0.5199 -0.5770 -0.2474
  862MPD2    C412654   1.175   0.298  10.097 -0.6448  0.2612  0.1278
  862MPD2    C512655   1.187   0.432  10.113  0.3063 -1.5099  0.3169
  862MPD2     H12656   1.165   0.215  10.430 -0.8177 -0.6075  0.7792
  862MPD2    H112657   1.171   0.261   9.995  1.8115  1.7406 -0.4917
  862MPD2    H212658   1.202   0.600  10.246  0.5258 -0.3148  0.7956
  862MPD2    H312659   1.194   0.491  10.022  1.1564 -1.7782  0.2115
  862MPD2     N12660   1.156   0.082  10.194 -0.0555  0.2854 -0.1871
  862MPD2    H512661   1.137   0.051  10.099 -1.2859 -0.5590  0.3359
  862MPD2    N112662   1.187   0.467  10.480  0.0193 -0.0972  0.6059
  862MPD2    H712663   1.184   0.404  10.560  0.1227  0.2909  0.9133
  863MPD2     C12664   4.553   3.207  17.058  0.2437 -0.1709  0.3141
  863MPD2    C112665   4.577   3.069  17.065 -0.0956  0.4213  0.2253
  863MPD2    C212666   4.672   3.022  17.155  0.0561  0.3237  0.4980
  863MPD2    C312667   0.024   3.116  17.235 -0.8977 -0.3323 -0.3040
  863MPD2    C412668   0.001   3.251  17.224  0.5746 -0.9097  0.8645
  863MPD2    C512669   4.629   3.296  17.134  0.3085 -0.3041  1.3183
  863MPD2     H12670   4.691   2.915  17.157 -0.8870  0.1557  0.5892
  863MPD2    H112671   0.054   3.329  17.277  0.2484  0.7198 -1.1940
  863MPD2    H212672   4.478   3.249  16.992  2.0090  0.6852 -1.1483
  863MPD2    H312673   4.618   3.403  17.116 -1.6819 -0.9754 -1.4058
  863MPD2     N12674   0.115   3.068  17.332 -0.0087  0.1250 -1.6413
  863MPD2    H512675   0.160   3.145  17.381 -0.6606 -0.5067 -0.0323
  863MPD2    N112676   4.505   2.994  16.970 -0.3586  0.4117 -0.3980
  863MPD2    H712677   4.435   3.049  16.920 -0.5671 -0.9032 -1.5541
  864MPD2     C12678   0.467   0.242  17.307  0.3594  0.2246 -0.8664
  864MPD2    C112679   0.524   0.120  17.265 -1.2002  0.6230  0.0096
  864MPD2    C212680   0.599   0.128  17.150 -0.0989 -0.3866  0.4032
  864MPD2    C312681   0.619   0.244  17.075 -0.5233  0.1709  0.3476
  864MPD2    C412682   0.562   0.360  17.125 -0.0566  0.5157 -0.0298
  864MPD2    C512683   0.485   0.359  17.236  0.5376  0.4949  0.2639
  864MPD2     H12684   0.650   0.040  17.112 -0.0855  0.6755 -2.0648
  864MPD2    H112685   0.571   0.457  17.077 -0.8861  1.2460  1.2883
  864MPD2    H212686   0.400   0.238  17.392  0.0541 -0.1073 -1.1267
  864MPD2    H312687   0.421   0.446  17.249 -0.4154 -0.0987 -0.4744
  864MPD2     N12688   0.685   0.243  16.956 -0.0835  0.0039 -0.3454
  864MPD2    H512689   0.730   0.156  16.929 -0.3767 -0.5553  0.9875
  864MPD2    N112690   0.498   0.002  17.339  0.7119 -0.9805  0.4189
  864MPD2    H712691   0.452   0.004  17.430 -0.3292 -1.5177 -0.0963
  865MPD2     C12692   0.544   4.620  16.076  0.6013  0.0856  0.9084
  865MPD2    C112693   0.516   4.565  16.202  0.2968 -0.0199  0.1497
  865MPD2    C212694   0.552   4.636  16.314 -0.2216  0.1823 -0.4067
  865MPD2    C312695   0.613   0.037  16.300  0.1815  0.2741  0.4344
  865MPD2    C412696   0.636   0.096  16.176  0.2012  0.0535  0.1020
  865MPD2    C512697   0.590   0.028  16.066 -0.1782  0.1155 -0.1498
  865MPD2     H12698   0.547   4.583  16.408  1.2849  0.5819 -0.0963
  865MPD2    H112699   0.688   0.191  16.165 -0.4309  0.3664 -0.2294
  865MPD2    H212700   0.529   4.577  15.977  0.7538 -0.0646  0.9507
  865MPD2    H312701   0.599   0.076  15.969  1.4938  0.7916  0.3393
  865MPD2     N12702   0.651   0.103  16.419 -0.1106  0.4057  0.8498
  865MPD2    H512703   0.650   0.048  16.504  2.8908  0.2938  0.8249
  865MPD2    N112704   0.472   4.431  16.210 -0.3377  0.3041  0.3550
  865MPD2    H712705   0.468   4.372  16.127  1.6360  1.1641 -0.3611
  866MPD2     C12706   1.906   0.338  11.663  0.6817 -0.1852  0.4785
  866MPD2    C112707   1.900   0.337  11.524 -0.0386  0.1022  1.2992
  866MPD2    C212708   1.831   0.441  11.458 -0.1959 -0.3389 -0.7723
  866MPD2    C312709   1.779   0.552  11.523  0.0980 -0.6405 -0.4166
  866MPD2    C412710   1.792   0.547  11.664  0.6889  0.0486 -0.6917
  866MPD2    C512711   1.862   0.453  11.730 -0.0661  0.0377  0.1865
  866MPD2     H12712   1.798   0.436  11.355 -3.7027 -3.2503  0.4942
  866MPD2    H112713   1.735   0.620  11.720  1.5226 -0.0485  0.2798
  866MPD2    H212714   1.955   0.260  11.721  3.4581 -0.0197 -1.5847
  866MPD2    H312715   1.859   0.459  11.838 -2.7757  0.9961  0.0696
  866MPD2     N12716   1.703   0.651  11.464  0.0729  0.7677 -0.3187
  866MPD2    H512717   1.661   0.719  11.526  1.6487  2.1620 -0.7894
  866MPD2    N112718   1.958   0.227  11.458  0.4879 -0.7760 -0.2309
  866MPD2    H712719   1.983   0.147  11.516  1.7132 -1.7905 -2.1592
  867MPD2     C12720   4.173   4.718  16.860  0.2276  0.7367 -0.1979
  867MPD2    C112721   4.212   4.685  16.984 -0.9188  0.5518  0.6095
  867MPD2    C212722   4.165   0.033  17.090  0.0570 -0.2534  0.0474
  867MPD2    C312723   4.090   0.150  17.072  0.1998 -0.0990 -0.2593
  867MPD2    C412724   4.058   0.187  16.945 -0.3670  0.0076  0.1565
  867MPD2    C512725   4.103   0.112  16.842  0.0099 -0.4696 -0.3268
  867MPD2     H12726   4.196   0.003  17.190 -1.0208  2.2089  1.1263
  867MPD2    H112727   4.000   0.275  16.919  1.5450  1.5131  0.9760
  867MPD2    H212728   4.196   4.653  16.776  1.5914  0.5813  0.3016
  867MPD2    H312729   4.077   0.143  16.742  1.9482  1.8852 -0.1051
  867MPD2     N12730   4.041   0.236  17.172  0.4735  0.0720  0.1536
  867MPD2    H512731   4.008   0.326  17.139  2.6374 -0.0726 -2.4059
  867MPD2    N112732   4.296   4.578  16.999  0.5932 -0.0219  0.3668
  867MPD2    H712733   4.320   4.536  16.909  0.0860 -2.0726  1.1783
  868MPD2     C12734   1.054   3.389  13.572 -0.8856 -0.1160 -0.5426
  868MPD2    C112735   1.105   3.260  13.553  0.1434 -0.9555  0.3527
  868MPD2    C212736   1.014   3.157  13.576 -0.1019 -0.1474  0.4282
  868MPD2    C312737   0.882   3.179  13.608  0.0148 -0.9140  0.6470
  868MPD2    C412738   0.839   3.310  13.638 -0.0932  0.1593 -0.3668
  868MPD2    C512739   0.928   3.411  13.616  0.6000 -0.0287 -0.3373
  868MPD2     H12740   1.044   3.058  13.543 -0.3548 -0.2841  0.6154
  868MPD2    H112741   0.738   3.336  13.667  0.4791 -0.6211  2.3676
  868MPD2    H212742   1.117   3.475  13.551 -1.9556  1.1263  1.2859
  868MPD2    H312743   0.890   3.512  13.632  0.7906  0.0804 -0.5709
  868MPD2     N12744   0.792   3.065  13.595 -0.3197 -0.3215  1.0558
  868MPD2    H512745   0.836   2.977  13.568  0.7918  0.0343  1.7052
  868MPD2    N112746   1.237   3.236  13.506  0.4944 -0.1461 -0.0119
  868MPD2    H712747   1.296   3.317  13.496  0.0807  0.0246 -1.1427
  869MPD2     C12748   2.553   0.689   1.785  1.1173  0.0916 -0.3895
  869MPD2    C112749   2.461   0.770   1.850  0.4402  0.3776  0.6883
  869MPD2    C212750   2.424   0.888   1.785  0.4978 -0.5231 -0.8118
  869MPD2    C312751   2.488   0.925   1.666 -0.1553 -0.6569 -0.4562
  869MPD2    C412752   2.561   0.832   1.593 -0.5168 -0.5524  0.7843
  869MPD2    C512753   2.599   0.713   1.660 -0.2276 -0.5209 -0.4331
  869MPD2     H12754   2.378   0.964   1.847  0.4897 -0.2559 -1.1430
  869MPD2    H112755   2.609   0.844   1.497 -1.1618 -0.5654  0.4577
  869MPD2    H212756   2.595   0.599   1.829 -0.9018 -1.4237 -1.5141
  869MPD2    H312757   2.659   0.637   1.612  2.1244 -0.2364  2.0889
  869MPD2     N12758   2.456   1.041   1.600 -0.2084  0.0652 -0.4692
  869MPD2    H512759   2.483   1.026   1.504 -0.1532 -0.4616 -0.3742
  869MPD2    N112760   2.423   0.729   1.981 -1.0049  0.0700  0.0120
  869MPD2    H712761   2.466   0.641   2.008 -1.1650 -0.5453 -1.7578
  870MPD2     C12762   1.045   0.361   1.748 -0.2927 -0.4797 -0.2865
  870MPD2    C112763   1.179   0.322   1.771 -0.0196  0.1045 -0.7689
  870MPD2    C212764   1.257   0.284   1.664 -0.0112 -0.5822  0.2286
  870MPD2    C312765   1.212   0.297   1.533  0.4877 -0.5383 -0.7676
  870MPD2    C412766   1.076   0.332   1.521 -0.0284 -0.2004  0.1516
  870MPD2    C512767   0.991   0.360   1.621 -0.5059 -0.0285 -0.1832
  870MPD2     H12768   1.363   0.267   1.680 -0.3512 -1.6365  1.3565
  870MPD2    H112769   1.024   0.333   1.426 -1.3746 -2.0250  0.8539
  870MPD2    H212770   0.972   0.386   1.824  1.5864 -1.4290  1.8362
  870MPD2    H312771   0.886   0.383   1.610 -0.6447 -0.4071  0.3479
  870MPD2     N12772   1.283   0.259   1.413  0.0862 -0.2429  0.3153
  870MPD2    H512773   1.223   0.250   1.331  0.9732  0.6304 -0.4260
  870MPD2    N112774   1.228   0.335   1.906 -0.7982 -0.1127 -0.1516
  870MPD2    H712775   1.162   0.365   1.976 -0.5695 -3.4864  1.5002
  871MPD2     C12776   3.373   4.290  16.601 -0.6815  0.5618  0.1854
  871MPD2    C112777   3.387   4.221  16.718  0.7456  0.4035  0.1124
  871MPD2    C212778   3.430   4.093  16.721 -0.5683  0.5493 -0.2455
  871MPD2    C312779   3.466   4.030  16.603 -0.7780 -0.1397  0.2461
  871MPD2    C412780   3.451   4.093  16.480 -0.2980  0.0580  0.1054
  871MPD2    C512781   3.400   4.226  16.478  0.3666  0.2652  0.2398
  871MPD2     H12782   3.446   4.040  16.814  0.6531  2.9298  0.9030
  871MPD2    H112783   3.489   4.052  16.387 -3.5367 -1.3905 -0.5909
  871MPD2    H212784   3.341   4.393  16.598  2.3918  1.3905 -3.0646
  871MPD2    H312785   3.394   4.277  16.382  0.6163 -0.4452 -0.1470
  871MPD2     N12786   3.519   3.893  16.622 -0.5271  0.1994 -0.1399
  871MPD2    H512787   3.527   3.871  16.721  1.5501 -1.9052 -0.7663
  871MPD2    N112788   3.355   4.298  16.832 -0.1681 -0.0124 -0.0565
  871MPD2    H712789   3.344   4.398  16.831  2.8645  0.2455 -5.0700
  872MPD2     C12790   4.005   1.226  14.228  0.8688 -0.4913  0.5327
  872MPD2    C112791   4.009   1.365  14.234 -0.4396 -0.4241  0.3271
  872MPD2    C212792   3.885   1.435  14.233 -1.2137 -0.7204  0.1994
  872MPD2    C312793   3.768   1.364  14.220  0.8420 -0.0098  0.1611
  872MPD2    C412794   3.766   1.225  14.215 -0.7085  0.0923  0.9365
  872MPD2    C512795   3.887   1.160  14.223 -0.6022 -0.2824 -0.3903
  872MPD2     H12796   3.896   1.542  14.223 -0.7124 -0.6681  1.4117
  872MPD2    H112797   3.674   1.173  14.192 -1.3823  1.2893  0.8833
  872MPD2    H212798   4.097   1.171  14.216  0.4225 -0.4344 -3.2137
  872MPD2    H312799   3.888   1.052  14.229 -0.0952 -0.1557  1.9422
  872MPD2     N12800   3.639   1.421  14.199 -0.1431  0.4092  0.7595
  872MPD2    H512801   3.567   1.366  14.154 -1.8831  1.6251  2.0594
  872MPD2    N112802   4.124   1.449  14.219 -1.0015  0.0126  0.5336
  872MPD2    H712803   4.107   1.549  14.210  0.4944  0.0549 -1.7257
  873MPD2     C12804   1.421   1.659   1.283 -0.7071  0.1151 -0.3955
  873MPD2    C112805   1.290   1.677   1.256  0.5062  0.0833  0.2688
  873MPD2    C212806   1.233   1.600   1.155 -0.0559 -0.1557  0.5068
  873MPD2    C312807   1.309   1.522   1.061 -0.4266  0.3122 -0.3343
  873MPD2    C412808   1.447   1.518   1.084 -0.5757 -0.0333  0.2620
  873MPD2    C512809   1.497   1.579   1.196  0.3269 -0.1730  0.0050
  873MPD2     H12810   1.127   1.596   1.131  0.3759 -2.4425 -1.0680
  873MPD2    H112811   1.510   1.458   1.019 -2.4608 -0.5263 -1.1021
  873MPD2    H212812   1.469   1.711   1.365 -3.0984  0.9862  0.4241
  873MPD2    H312813   1.603   1.577   1.220  0.4742 -1.3495 -0.7642
  873MPD2     N12814   1.254   1.460   0.951  0.1408 -0.7537 -0.5422
  873MPD2    H512815   1.315   1.409   0.887  2.4065 -0.6596  1.5726
  873MPD2    N112816   1.209   1.760   1.344 -0.6748  0.1426 -0.6098
  873MPD2    H712817   1.255   1.816   1.414  0.0064 -0.9928 -0.1480
  874MPD2     C12818   0.820   2.549  17.056  0.6871 -0.4496 -0.1381
  874MPD2    C112819   0.829   2.471  16.945 -0.7475  0.0184 -0.2913
  874MPD2    C212820   0.879   2.528  16.829 -0.0807 -0.7286 -1.0458
  874MPD2    C312821   0.935   2.652  16.819  0.0057 -0.0877  0.1512
  874MPD2    C412822   0.921   2.736  16.930  0.0926 -0.3849  0.1701
  874MPD2    C512823   0.855   2.684  17.043  0.4522  0.0030  0.0017
  874MPD2     H12824   0.886   2.481  16.732 -1.5572 -1.9283 -0.5635
  874MPD2    H112825   0.964   2.834  16.941  2.2524 -1.1120 -1.8264
  874MPD2    H212826   0.768   2.513  17.144  1.4458  1.3712  1.0631
  874MPD2    H312827   0.836   2.744  17.131  0.2133 -0.0776  0.0061
  874MPD2     N12828   1.008   2.684  16.704 -0.1682  0.1111 -0.3020
  874MPD2    H512829   1.011   2.615  16.630 -2.2102  0.4051 -0.6476
  874MPD2    N112830   0.770   2.341  16.953 -0.2616 -0.0399 -0.1462
  874MPD2    H712831   0.741   2.313  17.046  0.7215 -5.4669 -1.4989
  875MPD2     C12832   1.189   0.840  14.771 -0.0835  0.2374  0.3983
  875MPD2    C112833   1.285   0.749  14.732  0.2783  0.3224  0.0626
  875MPD2    C212834   1.377   0.694  14.819  0.4503  0.3638 -1.1143
  875MPD2    C312835   1.359   0.729  14.952 -0.4558  0.5119 -1.2179
  875MPD2    C412836   1.276   0.821  14.994 -0.0422  0.3981 -0.1119
  875MPD2    C512837   1.191   0.876  14.905  0.0014  0.2436  1.0410
  875MPD2     H12838   1.454   0.628  14.782 -0.2471 -1.6943  1.0846
  875MPD2    H112839   1.255   0.834  15.100 -0.1643 -0.7364  0.0043
  875MPD2    H212840   1.111   0.870  14.703  0.7132 -2.8770 -1.8489
  875MPD2    H312841   1.101   0.923  14.943 -0.3654  0.8856 -0.5991
  875MPD2     N12842   1.436   0.679  15.062  0.4850 -0.0699 -0.2316
  875MPD2    H512843   1.429   0.725  15.152  2.6873  1.2428 -0.7077
  875MPD2    N112844   1.285   0.715  14.597  0.4905 -0.4738  0.3830
  875MPD2    H712845   1.204   0.736  14.540  1.7419 -0.3331 -1.3473
  876MPD2     C12846   1.029   1.876  16.033 -0.2701 -0.1019 -0.5481
  876MPD2    C112847   1.040   1.801  15.915 -0.1749  0.6584 -0.1717
  876MPD2    C212848   1.050   1.668  15.931  0.1278 -0.2595  0.4758
  876MPD2    C312849   1.047   1.603  16.050 -0.2446  0.2103 -0.3055
  876MPD2    C412850   1.023   1.681  16.163 -0.1344  0.0956 -0.0275
  876MPD2    C512851   1.025   1.816  16.155  0.6589 -0.0890 -0.6572
  876MPD2     H12852   1.080   1.605  15.848 -0.6525  0.8167 -0.6186
  876MPD2    H112853   1.029   1.629  16.257 -2.4625 -3.5508 -1.9126
  876MPD2    H212854   1.024   1.984  16.038  1.4846 -0.0518  0.2645
  876MPD2    H312855   1.020   1.874  16.247  0.5901 -2.2780  0.7121
  876MPD2     N12856   1.049   1.464  16.049 -0.1463  0.3210  0.0108
  876MPD2    H512857   1.040   1.419  15.958  1.3626  0.2534 -0.0941
  876MPD2    N112858   1.075   1.867  15.796  0.6896  0.0887  0.2481
  876MPD2    H712859   1.078   1.968  15.810  3.8313  0.1494 -0.9359
  877MPD2     C12860   0.700   2.155  15.190  0.3450 -0.6248  0.7476
  877MPD2    C112861   0.831   2.125  15.148 -0.0278  0.2243 -1.0695
  877MPD2    C212862   0.852   2.100  15.017  0.3124  1.0923 -0.7221
  877MPD2    C312863   0.754   2.115  14.916  0.2598  0.0876 -0.4618
  877MPD2    C412864   0.624   2.149  14.960  0.0042  0.2302 -0.1823
  877MPD2    C512865   0.598   2.177  15.096  0.2169 -0.5809 -0.2411
  877MPD2     H12866   0.953   2.075  14.985  0.4590  0.3974  0.2818
  877MPD2    H112867   0.543   2.161  14.889 -0.0237  0.1363 -0.1675
  877MPD2    H212868   0.686   2.171  15.296 -1.7966 -1.2379  0.5740
  877MPD2    H312869   0.495   2.194  15.124  0.2405  1.9717 -1.6247
  877MPD2     N12870   0.771   2.068  14.781 -0.1085  0.0345 -0.1514
  877MPD2    H512871   0.687   2.058  14.725  0.7971  0.2618 -1.5478
  877MPD2    N112872   0.939   2.117  15.235  0.3913 -0.2411  0.1744
  877MPD2    H712873   1.031   2.090  15.201 -0.2413 -0.4502 -1.4108
  878MPD2     C12874   4.669   1.195  13.169  0.2395  0.4247 -0.7385
  878MPD2    C112875   0.057   1.216  13.094  0.0399  0.4679 -0.3313
  878MPD2    C212876   0.177   1.218  13.156  0.3107  0.2374 -0.1580
  878MPD2    C312877   0.185   1.196  13.292 -0.1642 -0.1076 -0.1077
  878MPD2    C412878   0.067   1.169  13.365 -0.4664 -0.0329  0.4574
  878MPD2    C512879   4.670   1.178  13.303 -0.5506 -0.1910  0.1292
  878MPD2     H12880   0.268   1.236  13.100  1.2300  0.3705  1.3680
  878MPD2    H112881   0.062   1.167  13.473  3.4039 -1.9501  0.5820
  878MPD2    H212882   4.572   1.208  13.123 -0.5003 -1.8373  0.1775
  878MPD2    H312883   4.579   1.164  13.361  0.1394  0.3255  1.3280
  878MPD2     N12884   0.318   1.196  13.347  0.4472  0.5536 -0.0303
  878MPD2    H512885   0.402   1.214  13.292 -0.7767  2.2417 -1.3581
  878MPD2    N112886   0.034   1.242  12.957 -0.1345 -0.0666 -0.0080
  878MPD2    H712887   4.664   1.251  12.921  0.1598  0.3825 -0.6515
  879MPD2     C12888   0.267   2.484  17.394  0.6235  0.2391  0.4792
  879MPD2    C112889   0.360   2.545  17.311 -0.1071 -0.2447 -0.3862
  879MPD2    C212890   0.373   2.496  17.176  0.2663  0.0704 -0.0314
  879MPD2    C312891   0.286   2.397  17.127 -0.5645  0.1235 -0.0466
  879MPD2    C412892   0.186   2.350  17.204  0.4844 -0.7944 -0.2368
  879MPD2    C512893   0.184   2.394  17.338 -0.1800 -0.4489 -0.0709
  879MPD2     H12894   0.452   2.538  17.115 -0.6598  2.6947  0.5305
  879MPD2    H112895   0.121   2.266  17.178 -0.2414 -0.2861 -0.0773
  879MPD2    H212896   0.246   2.504  17.499  1.1821  0.4581  0.5525
  879MPD2    H312897   0.117   2.349  17.410 -0.1029  0.3511  0.4939
  879MPD2     N12898   0.295   2.344  16.997 -0.2248 -0.4602  0.6323
  879MPD2    H512899   0.215   2.289  16.968 -2.0900  2.1784  0.8216
  879MPD2    N112900   0.464   2.622  17.370 -0.5231 -0.4882  0.2931
  879MPD2    H712901   0.466   2.614  17.472  4.8911  1.2091  0.3335
  880MPD2     C12902   2.835   4.173   0.560 -0.4885  0.5426 -0.7237
  880MPD2    C112903   2.732   4.165   0.635 -0.4760  0.2574  0.0820
  880MPD2    C212904   2.674   4.045   0.667  0.1553 -0.6265  0.2399
  880MPD2    C312905   2.723   3.924   0.619  0.3880 -0.1952 -0.3208
  880MPD2    C412906   2.843   3.932   0.547 -1.0275 -0.1879 -0.0088
  880MPD2    C512907   2.895   4.057   0.518  0.4122 -0.1259  0.3879
  880MPD2     H12908   2.577   4.041   0.715 -0.0663  1.2093 -0.0487
  880MPD2    H112909   2.900   3.845   0.517 -0.8219  0.3328 -1.1217
  880MPD2    H212910   2.875   4.268   0.525 -0.5832  1.0566  0.5724
  880MPD2    H312911   2.979   4.067   0.450  0.3406 -1.6166  0.0926
  880MPD2     N12912   2.655   3.812   0.657  0.3288 -0.4077 -0.3669
  880MPD2    H512913   2.566   3.833   0.703  0.1787  0.9353 -1.2735
  880MPD2    N112914   2.669   4.286   0.679  0.1331 -0.6659  0.1239
  880MPD2    H712915   2.700   4.370   0.631 -0.2122  0.8799  2.6220
  881MPD2     C12916   2.182   0.340   0.289 -0.5959  0.4188  0.1475
  881MPD2    C112917   2.293   0.266   0.251 -0.0976  0.2215 -0.3315
  881MPD2    C212918   2.333   0.170   0.342  0.0294 -0.4022  0.1888
  881MPD2    C312919   2.260   0.134   0.457  0.8118  0.3208 -0.1664
  881MPD2    C412920   2.139   0.208   0.482 -0.1856 -0.4621  0.3120
  881MPD2    C512921   2.100   0.307   0.393  0.2737  0.0165  0.5270
  881MPD2     H12922   2.428   0.119   0.328  0.5995 -0.0749  2.7387
  881MPD2    H112923   2.064   0.180   0.555  1.4104  0.4662  2.2911
  881MPD2    H212924   2.139   0.417   0.226  0.3526 -0.3365 -1.4245
  881MPD2    H312925   2.005   0.358   0.403 -0.0990 -0.8924  1.6762
  881MPD2     N12926   2.301   0.049   0.561  0.3920  0.3365 -0.3604
  881MPD2    H512927   2.253   0.052   0.650 -1.0595  0.7886 -1.1703
  881MPD2    N112928   2.383   0.297   0.150 -0.1212  0.8509 -0.0265
  881MPD2    H712929   2.456   0.227   0.145 -0.3009  0.5707  1.1340
  882MPD2     C12930   0.463   1.549  14.229 -0.6234  0.3997 -0.9684
  882MPD2    C112931   0.475   1.630  14.340 -0.9381  0.1501 -0.4381
  882MPD2    C212932   0.368   1.633  14.438  0.2630  0.8781  0.5337
  882MPD2    C312933   0.256   1.556  14.416 -0.0975  0.3471 -0.3440
  882MPD2    C412934   0.248   1.473  14.305  0.5501 -0.0209 -0.1013
  882MPD2    C512935   0.356   1.468  14.219 -0.2161  0.5300  0.3564
  882MPD2     H12936   0.370   1.693  14.528 -0.0058 -0.4422  1.4089
  882MPD2    H112937   0.167   1.403  14.288  1.2503  0.0195 -3.4217
  882MPD2    H212938   0.543   1.541  14.156 -2.0099  1.6470 -2.6272
  882MPD2    H312939   0.343   1.416  14.125  1.6655 -0.7209  0.7927
  882MPD2     N12940   0.143   1.546  14.502 -0.2781  0.2346 -0.9692
  882MPD2    H512941   0.059   1.506  14.460  1.5636 -1.7682 -2.7386
  882MPD2    N112942   0.590   1.709  14.353 -0.0572 -0.2834  0.6338
  882MPD2    H712943   0.668   1.699  14.288 -0.2062 -0.9111  0.5611
  883MPD2     C12944   3.323   2.688  16.438 -0.4153  0.2613 -0.0456
  883MPD2    C112945   3.331   2.561  16.386  0.3259 -0.2577 -0.8424
  883MPD2    C212946   3.355   2.455  16.471  0.2043  0.0429 -0.0437
  883MPD2    C312947   3.385   2.484  16.605 -0.4269  0.3668  0.1917
  883MPD2    C412948   3.380   2.613  16.654 -0.0566  0.0869  0.2646
  883MPD2    C512949   3.341   2.717  16.571 -0.3589 -0.4599 -0.0704
  883MPD2     H12950   3.349   2.352  16.439 -0.2018  0.2199 -0.5328
  883MPD2    H112951   3.398   2.627  16.760  3.0096  0.6319 -0.3231
  883MPD2    H212952   3.291   2.773  16.378 -1.4687 -1.4011 -1.8324
  883MPD2    H312953   3.334   2.820  16.604  1.2581 -0.4276  0.1798
  883MPD2     N12954   3.418   2.374  16.685 -0.2136 -0.4347  0.8234
  883MPD2    H512955   3.405   2.282  16.643  2.8191 -1.7876  2.8340
  883MPD2    N112956   3.292   2.540  16.254 -0.0890  0.2247  0.1576
  883MPD2    H712957   3.271   2.443  16.233 -1.6853  1.1850 -2.7275
  884MPD2     C12958   4.529   2.663  15.206 -0.3658  0.0695 -0.2006
  884MPD2    C112959   4.509   2.742  15.096  0.8696  0.0020  0.5517
  884MPD2    C212960   4.399   2.830  15.110  0.5602  0.1372  0.2298
  884MPD2    C312961   4.312   2.831  15.217  0.3343 -0.6055  0.1287
  884MPD2    C412962   4.347   2.764  15.326  0.3873 -0.7699 -0.2791
  884MPD2    C512963   4.457   2.683  15.323 -0.2751 -0.6150 -0.5205
  884MPD2     H12964   4.374   2.906  15.038 -0.2496 -1.0969 -0.7862
  884MPD2    H112965   4.288   2.762  15.417 -0.7978  0.9357 -1.0038
  884MPD2    H212966   4.610   2.591  15.213 -0.2157  0.1293 -1.3427
  884MPD2    H312967   4.466   2.623  15.414 -1.0866  0.4277  0.2477
  884MPD2     N12968   4.208   2.927  15.223 -0.5132 -0.1808 -0.2203
  884MPD2    H512969   4.204   3.001  15.154 -2.2741  2.3807  2.6224
  884MPD2    N112970   4.582   2.743  14.974  0.3909 -0.3828  0.4524
  884MPD2    H712971   4.555   2.805  14.898  0.9209 -1.0508 -0.2792
  885MPD2     C12972   2.583   2.490   0.257 -0.6590 -0.0050 -0.1503
  885MPD2    C112973   2.714   2.527   0.268 -0.1084  0.3366  0.6118
  885MPD2    C212974   2.773   2.596   0.171  0.3737  0.0253 -0.0144
  885MPD2    C312975   2.698   2.643   0.062 -0.2894 -0.8970 -0.8671
  885MPD2    C412976   2.562   2.613   0.058  0.1146  0.2730 -0.1026
  885MPD2    C512977   2.509   2.540   0.154  0.1082  0.4222  1.0482
  885MPD2     H12978   2.879   2.619   0.174  0.1520  1.5182 -2.9623
  885MPD2    H112979   2.503   2.648  17.670 -1.3722  1.1307  1.2890
  885MPD2    H212980   2.533   2.436   0.337  0.9142 -0.5572  0.4665
  885MPD2    H312981   2.402   2.520   0.151  0.1930  0.2037 -0.9312
  885MPD2     N12982   2.773   2.711  17.661 -0.1781 -0.0459 -0.0379
  885MPD2    H512983   2.869   2.734  17.684 -0.8929 -0.4095  3.2309
  885MPD2    N112984   2.778   2.480   0.385  0.5475 -0.5710  0.3465
  885MPD2    H712985   2.745   2.401   0.439 -1.3931 -0.4059 -0.6115
  886MPD2     C12986   4.191   1.124  15.009  0.0625  0.7527 -0.3126
  886MPD2    C112987   4.281   1.184  15.090 -0.5913 -0.1786 -0.4908
  886MPD2    C212988   4.275   1.325  15.109 -0.0119 -0.4864  0.3133
  886MPD2    C312989   4.166   1.388  15.049 -0.7305 -0.5101  0.3194
  886MPD2    C412990   4.075   1.319  14.966  0.5840 -0.0871 -0.0545
  886MPD2    C512991   4.098   1.192  14.936 -0.0630  0.2723 -0.2286
  886MPD2     H12992   4.355   1.373  15.165 -0.4981 -0.0434  0.6392
  886MPD2    H112993   4.000   1.376  14.913  1.2076  0.3258 -0.4974
  886MPD2    H212994   4.202   1.018  14.987  3.3307  1.5125 -2.3077
  886MPD2    H312995   4.036   1.131  14.870 -0.1846  0.3865 -0.2216
  886MPD2     N12996   4.156   1.532  15.061 -0.0618 -0.9365 -0.0482
  886MPD2    H512997   4.099   1.574  14.989  0.3065  0.1844  0.3173
  886MPD2    N112998   4.383   1.107  15.159 -0.4543  0.2041 -0.3679
  886MPD2    H712999   4.453   1.166  15.203 -1.7353  0.2777  1.5684
  887MPD2     C13000   0.305   1.207  15.465  0.2166  0.1866  0.8014
  887MPD2    C113001   0.179   1.257  15.432  0.0512  0.4515  0.3009
  887MPD2    C213002   0.156   1.394  15.440  0.4147 -0.3389  0.1558
  887MPD2    C313003   0.252   1.479  15.488 -0.6478 -0.1325  0.5069
  887MPD2    C413004   0.379   1.428  15.507 -0.2101  0.2855  0.1217
  887MPD2    C513005   0.404   1.295  15.495  0.2675 -0.4963 -0.2486
  887MPD2     H13006   0.059   1.440  15.424 -0.1648 -2.4809 -2.3882
  887MPD2    H113007   0.468   1.486  15.530  0.7072 -0.6309 -1.1583
  887MPD2    H213008   0.338   1.104  15.460 -1.0049 -0.1318 -0.4929
  887MPD2    H313009   0.503   1.257  15.516 -1.2239 -4.0981  0.1737
  887MPD2     N13010   0.220   1.610  15.517  0.1170  0.2666  0.0200
  887MPD2    H513011   0.123   1.636  15.499  0.5075  1.9268  0.2659
  887MPD2    N113012   0.068   1.173  15.414  0.6330 -0.5008  0.2501
  887MPD2    H713013   4.705   1.218  15.387  0.0571 -2.1208 -0.5828
  888MPD2     C13014   1.816   1.311  15.058 -0.0034 -0.5546 -0.9834
  888MPD2    C113015   1.790   1.376  15.172  0.6251 -0.4308 -0.6140
  888MPD2    C213016   1.836   1.500  15.192 -0.2711 -0.5427  0.9390
  888MPD2    C313017   1.912   1.572  15.100 -0.3331 -0.9176 -0.2651
  888MPD2    C413018   1.950   1.505  14.987 -0.2029 -0.3166 -0.0652
  888MPD2    C513019   1.909   1.370  14.975  0.7512 -0.7609 -0.4199
  888MPD2     H13020   1.797   1.554  15.277 -1.1599 -0.1320  0.2670
  888MPD2    H113021   2.019   1.545  14.915 -0.6231 -0.5648 -0.6096
  888MPD2    H213022   1.798   1.205  15.048 -1.3242 -0.0883 -3.2793
  888MPD2    H313023   1.937   1.311  14.888 -1.6337  0.1867 -1.8192
  888MPD2     N13024   1.943   1.710  15.119  0.0243 -0.1142  0.2273
  888MPD2    H513025   1.896   1.754  15.198 -2.0067  0.7043 -1.4149
  888MPD2    N113026   1.713   1.317  15.278 -0.2298 -0.0167  0.2176
  888MPD2    H713027   1.707   1.370  15.364 -0.0795  0.5601 -0.1225
  889MPD2     C13028   0.563   1.000  13.097  0.3072  0.4661 -0.2963
  889MPD2    C113029   0.657   0.994  13.190 -0.3162  0.5776  0.1025
  889MPD2    C213030   0.715   1.116  13.234  0.2805  0.3235  0.4357
  889MPD2    C313031   0.690   1.233  13.167 -0.2967 -0.3598  0.2478
  889MPD2    C413032   0.584   1.230  13.076 -0.5778  0.2724  0.6546
  889MPD2    C513033   0.516   1.116  13.048  0.0584 -0.8845  0.0656
  889MPD2     H13034   0.807   1.105  13.289  0.7650  1.5504 -0.1254
  889MPD2    H113035   0.554   1.316  13.018 -1.1596  0.1363  0.7479
  889MPD2    H213036   0.529   0.906  13.056  0.5607  0.5478 -0.6982
  889MPD2    H313037   0.446   1.124  12.966 -1.4561 -1.2509  1.3292
  889MPD2     N13038   0.769   1.348  13.196 -0.4102  0.4227 -0.0590
  889MPD2    H513039   0.849   1.334  13.256 -0.6875 -2.7422 -0.4269
  889MPD2    N113040   0.663   0.879  13.270 -0.3441 -0.4175  0.2236
  889MPD2    H713041   0.602   0.799  13.254 -0.7077 -0.2361  0.7093
  890MPD2     C13042   0.929   2.578  14.610  0.7349 -0.4519 -0.6245
  890MPD2    C113043   1.020   2.676  14.650 -0.7149 -0.0995  0.2239
  890MPD2    C213044   1.069   2.672  14.784 -0.3400  0.0581  0.5585
  890MPD2    C313045   1.019   2.581  14.875 -0.5260 -0.7613  0.0267
  890MPD2    C413046   0.927   2.489  14.833  0.0556 -0.5862  0.7360
  890MPD2    C513047   0.884   2.489  14.704  0.1121  0.0816 -0.5209
  890MPD2     H13048   1.142   2.748  14.811  0.7525  0.2913 -3.0661
  890MPD2    H113049   0.882   2.414  14.898 -0.9897  0.7667  1.5546
  890MPD2    H213050   0.902   2.589  14.506  0.1557 -2.6652 -0.7099
  890MPD2    H313051   0.813   2.410  14.680 -0.5688  0.8237 -0.9249
  890MPD2     N13052   1.055   2.607  15.013  0.0700  0.3542  0.4826
  890MPD2    H513053   1.133   2.666  15.038  0.3829 -0.0386  0.4348
  890MPD2    N113054   1.053   2.779  14.556  0.0721 -0.5745 -0.6230
  890MPD2    H713055   1.024   2.758  14.461 -1.5747  1.8991 -0.6455
  891MPD2     C13056   3.892   1.260  16.287  0.3044 -0.2886 -0.4790
  891MPD2    C113057   3.786   1.261  16.375 -0.2203 -0.4994  0.0150
  891MPD2    C213058   3.804   1.210  16.507 -0.6967  0.3804 -0.3712
  891MPD2    C313059   3.923   1.157  16.543  0.0774 -0.0040  0.4014
  891MPD2    C413060   4.030   1.160  16.454 -0.4014 -0.5564 -0.0080
  891MPD2    C513061   4.016   1.214  16.326  0.1915  0.3070 -0.3297
  891MPD2     H13062   3.718   1.214  16.572  0.0815 -3.2999  0.9393
  891MPD2    H113063   4.130   1.124  16.476 -0.0368  0.0659 -0.6480
  891MPD2    H213064   3.876   1.286  16.183 -0.5225 -1.4742 -0.6469
  891MPD2    H313065   4.102   1.212  16.260  0.8373 -0.5362  0.5232
  891MPD2     N13066   3.940   1.105  16.671 -0.3536  0.5455 -0.5796
  891MPD2    H513067   3.878   1.131  16.747  2.2958  0.8748  1.4756
  891MPD2    N113068   3.665   1.309  16.323  0.0216  0.9864  0.2718
  891MPD2    H713069   3.674   1.365  16.238  3.0346  0.1342  0.0219
  892MPD2     C13070   4.480   2.327  14.598  0.5842 -0.2158  0.3389
  892MPD2    C113071   4.382   2.252  14.664  0.1303 -0.7917  0.3776
  892MPD2    C213072   4.406   2.118  14.690 -0.0740  0.2260 -0.3753
  892MPD2    C313073   4.526   2.058  14.654  0.1109  0.0952 -0.0292
  892MPD2    C413074   4.625   2.130  14.594  0.2071 -0.5615  0.1112
  892MPD2    C513075   4.595   2.262  14.561  0.6494  0.3899  0.4041
  892MPD2     H13076   4.325   2.060  14.734  0.0137  0.1514 -0.3111
  892MPD2    H113077   4.721   2.090  14.566  0.9121 -0.4114  2.3391
  892MPD2    H213078   4.469   2.430  14.567  0.2198  0.2903  2.1534
  892MPD2    H313079   4.674   2.322  14.518 -0.8315  2.1853  0.1869
  892MPD2     N13080   4.552   1.920  14.685 -0.2683  0.0948  0.7656
  892MPD2    H513081   4.633   1.873  14.647  0.4829  0.6280  1.6970
  892MPD2    N113082   4.258   2.310  14.717  0.1947  0.8435 -0.4779
  892MPD2    H713083   4.192   2.262  14.776 -0.8963  1.6057 -1.0657
  893MPD2     C13084   0.766   0.727   1.634  0.5985 -0.4516 -0.2226
  893MPD2    C113085   0.867   0.769   1.714 -0.2736  0.1330  0.5676
  893MPD2    C213086   0.837   0.844   1.822  0.3375  0.5548  0.0222
  893MPD2    C313087   0.703   0.888   1.841  0.8158  0.1088 -0.4335
  893MPD2    C413088   0.606   0.841   1.756  0.6532 -0.0901 -0.2391
  893MPD2    C513089   0.640   0.763   1.651  0.1933  0.0878 -0.4796
  893MPD2     H13090   0.916   0.877   1.888 -2.1013 -1.1664  3.7757
  893MPD2    H113091   0.499   0.858   1.767  0.6669 -0.7118  0.9057
  893MPD2    H213092   0.787   0.652   1.558 -0.1277 -1.2951  0.4158
  893MPD2    H313093   0.569   0.740   1.572  1.0690 -1.3192 -0.8587
  893MPD2     N13094   0.657   0.974   1.950  0.2167  0.0945  0.4059
  893MPD2    H513095   0.563   1.011   1.951  0.2203  0.1523 -1.3784
  893MPD2    N113096   1.003   0.729   1.682 -0.0536  0.0263 -0.5219
  893MPD2    H713097   1.029   0.687   1.593  1.8864  1.1520 -0.4883
  894MPD2     C13098   4.351   3.442   0.988 -0.5253 -0.2475 -0.3554
  894MPD2    C113099   4.416   3.403   1.101 -0.0732 -0.5521 -0.0315
  894MPD2    C213100   4.507   3.496   1.144  0.5813  0.5276 -0.0466
  894MPD2    C313101   4.527   3.624   1.088 -0.1248  0.0346 -0.1988
  894MPD2    C413102   4.450   3.657   0.981  0.7794 -0.4387  0.7166
  894MPD2    C513103   4.369   3.564   0.930 -0.0493 -0.4419  0.1149
  894MPD2     H13104   4.527   3.491   1.251  1.1992  0.4627 -0.1680
  894MPD2    H113105   4.461   3.751   0.928  1.8633 -0.6421  0.5911
  894MPD2    H213106   4.278   3.381   0.935  0.6029  0.1084 -2.3232
  894MPD2    H313107   4.313   3.595   0.842  1.3152 -1.4919 -1.1237
  894MPD2     N13108   4.611   3.711   1.162 -0.4003 -0.7601  0.0391
  894MPD2    H513109   4.662   3.669   1.239 -0.1745  0.2445  0.4484
  894MPD2    N113110   4.399   3.279   1.167  0.4783 -0.3032  0.3100
  894MPD2    H713111   4.465   3.254   1.239 -1.5199 -1.0995  1.8603
  895MPD2     C13112   3.250   1.589  13.370 -0.3318  0.2096 -0.4914
  895MPD2    C113113   3.189   1.556  13.248 -0.0173  0.3039  0.3195
  895MPD2    C213114   3.239   1.452  13.177 -0.0352 -0.4425 -0.2974
  895MPD2    C313115   3.341   1.373  13.220  0.9162  0.2033  0.1603
  895MPD2    C413116   3.405   1.409  13.338 -0.0732 -0.5017  0.1661
  895MPD2    C513117   3.355   1.513  13.411  0.5667 -0.0235 -0.7526
  895MPD2     H13118   3.182   1.423  13.089 -0.1934 -1.9229  0.2963
  895MPD2    H113119   3.482   1.343  13.375  0.9842  1.7694  1.9989
  895MPD2    H213120   3.220   1.673  13.432  2.6039  3.0923 -2.9314
  895MPD2    H313121   3.408   1.539  13.501 -0.4894 -0.0965 -0.1088
  895MPD2     N13122   3.378   1.261  13.147 -0.9833  0.4782 -0.1854
  895MPD2    H513123   3.337   1.250  13.055 -0.8632 -0.0316 -0.1831
  895MPD2    N113124   3.076   1.622  13.188 -0.3212  0.1783 -0.1684
  895MPD2    H713125   3.045   1.576  13.103  0.2124  0.8223 -0.7070
  896MPD2     C13126   0.826   0.043   1.470 -0.2784 -0.2256  0.3238
  896MPD2    C113127   0.829   4.634   1.424 -0.2704  0.1871 -0.4577
  896MPD2    C213128   0.721   4.587   1.361 -0.5300  0.3728  0.0019
  896MPD2    C313129   0.618   4.672   1.328  0.1331 -0.3468 -0.2727
  896MPD2    C413130   0.623   0.084   1.364  0.1280 -0.1943  0.1347
  896MPD2    C513131   0.724   0.130   1.451  0.4130 -0.2888  0.4296
  896MPD2     H13132   0.714   4.481   1.340 -1.6617  0.6180 -0.8703
  896MPD2    H113133   0.541   0.151   1.339  1.0744  1.8533  2.6039
  896MPD2    H213134   0.902   0.076   1.541  1.0456 -1.6797 -0.4349
  896MPD2    H313135   0.726   0.230   1.493  3.9052  0.0531 -0.5325
  896MPD2     N13136   0.512   4.616   1.256 -0.9481  0.1404 -0.3283
  896MPD2    H513137   0.523   4.520   1.227  0.0622  0.1626 -0.0335
  896MPD2    N113138   0.925   4.546   1.477  0.3493  0.0406 -0.1106
  896MPD2    H713139   0.973   4.580   1.560  2.4513 -0.8106 -0.9862
  897MPD2     C13140   1.998   0.863  10.503  0.6646  0.3619  0.4600
  897MPD2    C113141   2.030   0.925  10.632 -0.0157  0.1650 -0.4276
  897MPD2    C213142   1.931   0.992  10.701 -0.1895  0.0147 -0.2521
  897MPD2    C313143   1.801   1.003  10.647  0.2031 -0.1866  0.0881
  897MPD2    C413144   1.775   0.957  10.524 -0.0614  0.7278  0.3225
  897MPD2    C513145   1.871   0.886  10.453  0.1885  0.2505 -0.2181
  897MPD2     H13146   1.947   1.020  10.804 -0.5221 -2.0610  0.3622
  897MPD2    H113147   1.678   0.975  10.480  0.9773  0.7215 -1.9888
  897MPD2    H213148   2.067   0.801  10.447  0.3194  0.6560 -0.2951
  897MPD2    H313149   1.847   0.862  10.350  0.0228 -1.9390  0.3281
  897MPD2     N13150   1.703   1.058  10.731 -0.2401  0.7788  0.1813
  897MPD2    H513151   1.733   1.082  10.825 -0.2503 -2.5853  1.0535
  897MPD2    N113152   2.159   0.902  10.683 -0.8102 -0.2965  0.1010
  897MPD2    H713153   2.221   0.852  10.620  0.3907 -0.7701  1.6346
  898MPD2     C13154   4.494   0.778   0.334 -0.7944 -0.3814  0.6580
  898MPD2    C113155   4.457   0.910   0.325  0.0104 -0.0681 -0.6315
  898MPD2    C213156   4.426   0.958   0.200  0.6275 -0.0389 -0.2883
  898MPD2    C313157   4.439   0.882   0.086 -0.6865  0.0196 -0.6171
  898MPD2    C413158   4.469   0.746   0.101 -0.1029 -0.0278 -0.2119
  898MPD2    C513159   4.502   0.699   0.227 -0.1643 -0.4110 -0.5417
  898MPD2     H13160   4.392   1.061   0.197  0.5966 -0.0254  0.6402
  898MPD2    H113161   4.462   0.682   0.014  0.7590 -1.0049  0.4374
  898MPD2    H213162   4.522   0.737   0.431 -0.6781  0.5966  1.0407
  898MPD2    H313163   4.529   0.595   0.244  2.7095  0.2541 -1.0105
  898MPD2     N13164   4.410   0.947  17.661 -0.2625  0.2526 -0.7267
  898MPD2    H513165   4.391   1.047  17.666 -2.5092 -0.2199  0.2422
  898MPD2    N113166   4.434   0.993   0.442  0.1937  0.1998  0.2093
  898MPD2    H713167   4.422   1.092   0.424  0.2402  0.1370 -0.1574
  899MPD2     C13168   4.654   2.461   0.037  0.1482 -0.1691 -0.1494
  899MPD2    C113169   0.017   2.535   0.110 -0.0375  0.4306 -0.0674
  899MPD2    C213170   0.030   2.528   0.250  0.6870  1.0580 -0.5021
  899MPD2    C313171   4.656   2.463   0.317 -0.3512  0.2593  0.4501
  899MPD2    C413172   4.572   2.379   0.252  0.4396 -0.1704 -0.1143
  899MPD2    C513173   4.572   2.380   0.116 -0.4472  0.5498  0.1195
  899MPD2     H13174   0.114   2.581   0.295  0.1625  0.5621  1.0652
  899MPD2    H113175   4.495   2.320   0.301  0.3358  0.0935  0.0374
  899MPD2    H213176   4.641   2.465  17.626  2.1361  1.4387 -0.3293
  899MPD2    H313177   4.504   2.317   0.060 -0.1644 -1.1189  1.6461
  899MPD2     N13178   4.645   2.460   0.461 -0.3762  0.1774  0.1545
  899MPD2    H513179   4.593   2.378   0.491  0.5653  0.0391  1.3621
  899MPD2    N113180   0.093   2.625   0.034  0.3701  0.1175 -0.9233
  899MPD2    H713181   0.067   2.630  17.633 -0.3423 -2.9698 -0.8735
  900MPD2     C13182   0.527   4.018  12.571 -0.2090  0.2995 -0.1460
  900MPD2    C113183   0.432   3.947  12.632 -0.4812  0.6541  0.1504
  900MPD2    C213184   0.299   3.955  12.585 -0.3295 -0.6218 -0.2231
  900MPD2    C313185   0.268   4.030  12.473 -0.6733 -0.5909 -0.4746
  900MPD2    C413186   0.370   4.103  12.414  0.3679 -0.6802  0.2796
  900MPD2    C513187   0.491   4.105  12.471  0.1584 -0.4672  0.2160
  900MPD2     H13188   0.221   3.896  12.632  0.5271 -0.2320  1.7173
  900MPD2    H113189   0.371   4.168  12.327 -0.9136 -0.3567  0.5163
  900MPD2    H213190   0.631   4.018  12.601  0.2211 -1.5038 -1.5955
  900MPD2    H313191   0.563   4.178  12.435 -2.5340  1.5942 -0.9678
  900MPD2     N13192   0.132   4.041  12.426 -0.4597  0.7884  0.0003
  900MPD2    H513193   0.065   3.973  12.461  1.1092  0.6625  2.7718
  900MPD2    N113194   0.472   3.861  12.741 -0.3960 -0.2379  0.1671
  900MPD2    H713195   0.567   3.866  12.775 -0.8658  0.6988  1.3431
  901MPD2     C13196   0.156   2.940  13.229  0.0038  0.4752  0.8508
  901MPD2    C113197   0.237   2.914  13.120 -0.2465 -0.6541  0.3063
  901MPD2    C213198   0.296   3.025  13.061  0.2030 -0.5995  0.0055
  901MPD2    C313199   0.293   3.150  13.128 -0.0070 -0.6410 -0.3420
  901MPD2    C413200   0.205   3.167  13.232 -0.3874  0.0519 -1.3622
  901MPD2    C513201   0.133   3.062  13.276  0.1485  0.3434 -0.1364
  901MPD2     H13202   0.361   3.012  12.975  1.7206  1.4204  0.8521
  901MPD2    H113203   0.182   3.258  13.287  4.2863  0.0287  0.6258
  901MPD2    H213204   0.100   2.859  13.274 -1.4796  0.8369 -0.3327
  901MPD2    H313205   0.058   3.077  13.353  0.5125  0.7575  0.1354
  901MPD2     N13206   0.369   3.255  13.074 -0.0030  0.3478 -0.3420
  901MPD2    H513207   0.434   3.237  12.999 -0.7567  0.8657 -1.1236
  901MPD2    N113208   0.229   2.788  13.056  0.1118  0.0580 -0.0396
  901MPD2    H713209   0.154   2.727  13.085  0.2152 -0.6344 -1.2406
  902MPD2     C13210   3.280   1.988  13.028 -0.0040  0.4412  0.1886
  902MPD2    C113211   3.317   2.040  12.906  0.1652  0.5551  0.8997
  902MPD2    C213212   3.391   1.962  12.814 -0.6539 -0.2296  0.2712
  902MPD2    C313213   3.419   1.829  12.840  0.0528  0.4095  0.2574
  902MPD2    C413214   3.380   1.777  12.965  0.1711 -0.1657  0.8125
  902MPD2    C513215   3.315   1.856  13.054 -0.1348  0.6725 -0.0945
  902MPD2     H13216   3.407   2.011  12.718  0.0736  0.6729  0.8488
  902MPD2    H113217   3.409   1.678  13.000  2.8093 -0.2562 -1.6089
  902MPD2    H213218   3.230   2.039  13.110 -0.8755 -1.2616  0.7193
  902MPD2    H313219   3.291   1.820  13.153  2.9238 -0.8052  0.1277
  902MPD2     N13220   3.451   1.744  12.735  0.3557  0.6224  0.4585
  902MPD2    H513221   3.434   1.645  12.746 -1.6786  0.9791  0.5755
  902MPD2    N113222   3.253   2.164  12.875 -0.1258 -0.1333 -0.2400
  902MPD2    H713223   3.197   2.205  12.949 -1.2163  0.5526 -1.4401
  903MPD2     C13224   3.317   1.985  12.002  0.0354  0.4303 -0.5254
  903MPD2    C113225   3.248   1.895  12.080  0.5746  0.3800 -0.0497
  903MPD2    C213226   3.111   1.884  12.063 -0.1868  0.3805  0.2556
  903MPD2    C313227   3.054   1.953  11.963  0.4005  0.3430  0.0250
  903MPD2    C413228   3.124   2.045  11.892 -0.4578 -0.8477  0.3461
  903MPD2    C513229   3.256   2.062  11.915 -0.3129 -0.3669 -0.6660
  903MPD2     H13230   3.052   1.819  12.127  0.9501 -0.7818  0.1258
  903MPD2    H113231   3.082   2.110  11.816  0.8697 -0.4155 -0.0238
  903MPD2    H213232   3.424   1.998  12.015 -0.1255  2.4843 -1.1294
  903MPD2    H313233   3.315   2.135  11.861 -0.4058  0.5354  0.4485
  903MPD2     N13234   2.912   1.941  11.950 -0.1919 -0.5765 -0.4541
  903MPD2    H513235   2.864   1.910  12.034  0.8996  0.6884  0.6251
  903MPD2    N113236   3.324   1.823  12.171 -1.0784  0.6029  0.2620
  903MPD2    H713237   3.425   1.833  12.172 -0.9640 -0.6070  0.7971
  904MPD2     C13238   3.293   0.354  13.886  0.0370  0.3841  0.1577
  904MPD2    C113239   3.294   0.495  13.906 -0.2171 -0.4031  0.4022
  904MPD2    C213240   3.406   0.543  13.968  0.1810  0.5750 -0.0443
  904MPD2    C313241   3.511   0.471  14.016  0.8968 -0.1538  0.6832
  904MPD2    C413242   3.508   0.330  13.990  0.8175  0.6796  0.3571
  904MPD2    C513243   3.407   0.279  13.915  1.0112  0.1937 -0.1666
  904MPD2     H13244   3.396   0.648  13.992 -3.5301  0.5221 -1.2289
  904MPD2    H113245   3.591   0.263  14.011 -0.7033 -1.6916 -1.1915
  904MPD2    H213246   3.209   0.297  13.848 -0.4353 -0.0454  1.8319
  904MPD2    H313247   3.409   0.174  13.890  0.4017  0.4248 -1.1705
  904MPD2     N13248   3.607   0.537  14.099  0.4201 -0.1853 -0.3103
  904MPD2    H513249   3.594   0.636  14.116 -0.6831 -0.8920  2.8505
  904MPD2    N113250   3.188   0.583  13.881  0.0674 -0.1396 -0.2292
  904MPD2    H713251   3.183   0.678  13.917  2.8845 -1.1707  2.8049
  905MPD2     C13252   2.730   0.928  13.303 -0.0062 -0.3375  0.7225
  905MPD2    C113253   2.845   0.866  13.341 -0.3405 -0.1489 -0.0101
  905MPD2    C213254   2.947   0.857  13.250 -0.1291  0.1528  0.4588
  905MPD2    C313255   2.942   0.919  13.127 -0.2612 -0.2032 -1.1148
  905MPD2    C413256   2.831   0.998  13.102  0.7735  0.2543  0.3632
  905MPD2    C513257   2.730   1.001  13.189 -0.6534 -0.4979  0.0001
  905MPD2     H13258   3.042   0.809  13.272 -0.2935 -0.8191 -0.9229
  905MPD2    H113259   2.823   1.065  13.016  0.5201 -1.0656 -0.6406
  905MPD2    H213260   2.637   0.940  13.358  0.1398  1.2405  0.6257
  905MPD2    H313261   2.649   1.071  13.177 -1.2021 -0.8408  1.6296
  905MPD2     N13262   3.056   0.939  13.040  0.1471  0.6342 -0.3420
  905MPD2    H513263   3.057   1.013  12.970 -0.0471  0.8294 -0.1391
  905MPD2    N113264   2.858   0.805  13.467  0.1485 -0.0592 -0.0874
  905MPD2    H713265   2.941   0.750  13.483 -0.0377 -0.5382 -0.7499
  906MPD2     C13266   0.765   1.216  11.757  0.0777 -0.3566 -0.3619
  906MPD2    C113267   0.798   1.126  11.651 -0.3562 -0.0204  0.5543
  906MPD2    C213268   0.852   1.002  11.680  0.3765  0.6567  0.0708
  906MPD2    C313269   0.860   0.962  11.810  0.1452 -0.3134  0.0618
  906MPD2    C413270   0.823   1.044  11.915 -0.4705  0.1366 -0.3693
  906MPD2    C513271   0.763   1.167  11.884  0.0598  0.5069  0.1199
  906MPD2     H13272   0.883   0.951  11.589 -2.6826 -0.4556 -0.3436
  906MPD2    H113273   0.840   1.011  12.017  0.0636  0.7820 -0.2488
  906MPD2    H213274   0.719   1.313  11.744 -0.8305 -0.7404 -0.0219
  906MPD2    H313275   0.737   1.228  11.970 -2.6544 -0.3023 -0.1468
  906MPD2     N13276   0.903   0.832  11.846  0.5293  0.3399 -0.8191
  906MPD2    H513277   0.895   0.813  11.946 -0.1074  2.2897 -0.4942
  906MPD2    N113278   0.779   1.157  11.513  0.0384 -0.0783 -0.1457
  906MPD2    H713279   0.767   1.083  11.445  1.7196 -2.1707  1.8453
  907MPD2     C13280   4.373   0.280  15.544 -0.0090  0.1593 -0.4983
  907MPD2    C113281   4.448   0.196  15.470 -0.8358  0.3037  0.7581
  907MPD2    C213282   4.583   0.182  15.489  0.7943 -0.1077 -0.5528
  907MPD2    C313283   4.644   0.256  15.585  0.4525  1.1029 -0.5114
  907MPD2    C413284   4.570   0.337  15.668 -0.1033  0.2743  0.7493
  907MPD2    C513285   4.434   0.352  15.647  0.0746  0.1751 -0.2339
  907MPD2     H13286   4.633   0.116  15.419 -0.1731 -0.9030 -0.5003
  907MPD2    H113287   4.625   0.390  15.744 -0.8383  1.4593  0.4542
  907MPD2    H213288   4.266   0.290  15.533 -0.1389  0.4828  1.1694
  907MPD2    H313289   4.369   0.404  15.716 -0.5987 -1.0206  0.0366
  907MPD2     N13290   0.059   0.268  15.605  0.0111 -0.8477 -0.2524
  907MPD2    H513291   0.097   0.335  15.671  0.7376 -1.7388  0.2386
  907MPD2    N113292   4.393   0.126  15.363 -0.1105 -0.0776  0.0259
  907MPD2    H713293   4.446   0.043  15.339  0.5318 -0.3160  2.2063
  908MPD2     C13294   2.646   0.333  10.354  0.4453  0.2056 -1.0748
  908MPD2    C113295   2.533   0.316  10.439 -0.6269 -0.5961  0.2412
  908MPD2    C213296   2.513   0.410  10.537 -0.4833 -0.3496  0.2848
  908MPD2    C313297   2.576   0.530  10.543 -0.6666 -0.4803 -0.1940
  908MPD2    C413298   2.676   0.558  10.450  0.1750  0.0028  0.3372
  908MPD2    C513299   2.713   0.456  10.361 -0.0195  0.0150  1.0593
  908MPD2     H13300   2.439   0.389  10.613 -1.4975  1.8982 -0.0670
  908MPD2    H113301   2.736   0.648  10.448 -0.3431  0.3815  1.7672
  908MPD2    H213302   2.674   0.255  10.284  0.1818  0.3304 -1.3168
  908MPD2    H313303   2.803   0.473  10.303  0.5208 -3.2525  0.9333
  908MPD2     N13304   2.540   0.610  10.651 -0.3692  0.0273 -0.4466
  908MPD2    H513305   2.458   0.581  10.703 -0.9235  0.1796 -1.2298
  908MPD2    N113306   2.458   0.198  10.427 -0.1073 -0.2517 -0.0981
  908MPD2    H713307   2.389   0.176  10.498  1.0007 -2.6851  0.2523
  909MPD2     C13308   2.507   3.379  12.177  0.2297 -0.3679  0.5157
  909MPD2    C113309   2.566   3.489  12.137 -0.1687 -0.6817 -0.1355
  909MPD2    C213310   2.508   3.608  12.167 -0.1163  0.1400 -0.5106
  909MPD2    C313311   2.405   3.629  12.250 -0.6601 -0.5565  1.1162
  909MPD2    C413312   2.352   3.510  12.307 -0.0152 -0.8345  0.6358
  909MPD2    C513313   2.401   3.390  12.264  0.0879 -0.1050 -0.0528
  909MPD2     H13314   2.548   3.700  12.124 -0.1862 -0.8864 -2.7553
  909MPD2    H113315   2.267   3.521  12.374 -0.1361 -0.6183  0.4450
  909MPD2    H213316   2.556   3.284  12.160  0.1891 -0.3999  0.5797
  909MPD2    H313317   2.354   3.302  12.307  0.6533  0.4553  1.7007
  909MPD2     N13318   2.354   3.758  12.286  0.0532 -0.1769 -0.4974
  909MPD2    H513319   2.405   3.839  12.253  1.6231 -0.8545  0.2614
  909MPD2    N113320   2.669   3.497  12.038 -0.2410  0.1715 -0.6246
  909MPD2    H713321   2.701   3.588  12.008  1.5815 -0.0546  0.6513
  910MPD2     C13322   3.987   0.417  16.202 -0.0259  0.2986  0.2188
  910MPD2    C113323   3.998   0.403  16.067 -0.8312 -0.7650  0.2167
  910MPD2    C213324   3.926   0.487  15.984 -0.0579  0.4972  0.5907
  910MPD2    C313325   3.845   0.588  16.040 -0.6206 -0.9686  1.3493
  910MPD2    C413326   3.827   0.593  16.173  0.2965  0.3384  0.5702
  910MPD2    C513327   3.906   0.511  16.251  0.1998  0.6417 -0.3958
  910MPD2     H13328   3.933   0.466  15.878  0.1139  2.1528  0.2751
  910MPD2    H113329   3.751   0.662  16.209 -0.0409  0.2857 -0.0441
  910MPD2    H213330   4.049   0.361  16.272  0.1755  2.1581  1.5092
  910MPD2    H313331   3.908   0.517  16.359 -0.2112  2.4191 -0.4851
  910MPD2     N13332   3.778   0.683  15.959 -0.5472  0.2724 -0.2701
  910MPD2    H513333   3.723   0.757  16.001 -0.1328  0.1587  0.4731
  910MPD2    N113334   4.085   0.313  16.003 -0.2455  0.4634  0.3788
  910MPD2    H713335   4.079   0.305  15.902 -2.6425 -2.2840  0.7488
  911MPD2     C13336   1.857   1.003  16.721 -0.7301 -0.9112  0.4718
  911MPD2    C113337   1.955   1.096  16.687  0.7214  0.1702  0.6188
  911MPD2    C213338   1.930   1.198  16.603  0.8054  0.0695 -0.4250
  911MPD2    C313339   1.791   1.229  16.573  0.6784  0.3719 -0.0400
  911MPD2    C413340   1.698   1.138  16.607 -0.2153 -0.1632 -0.2698
  911MPD2    C513341   1.728   1.026  16.685  0.2454  0.5878  0.1805
  911MPD2     H13342   2.006   1.269  16.571 -0.4117  2.2065  1.4541
  911MPD2    H113343   1.596   1.156  16.575 -0.4959  0.6171  1.0780
  911MPD2    H213344   1.881   0.914  16.777  0.6459  0.0563  1.4215
  911MPD2    H313345   1.656   0.949  16.710  0.8251  0.3036  0.9659
  911MPD2     N13346   1.749   1.344  16.504 -0.4405 -0.6041 -0.2625
  911MPD2    H513347   1.654   1.339  16.467 -0.0990  2.2616 -1.5030
  911MPD2    N113348   2.086   1.054  16.727  0.3301  0.0324  0.1940
  911MPD2    H713349   2.093   0.967  16.779  0.4610 -1.0322 -1.5883
  912MPD2     C13350   1.356   1.292  15.872 -0.2966  0.1238 -0.4856
  912MPD2    C113351   1.381   1.272  16.005 -0.3913  0.0408 -0.2178
  912MPD2    C213352   1.359   1.150  16.063 -0.9711 -0.3093  0.7411
  912MPD2    C313353   1.305   1.044  15.997 -0.7665 -0.1065 -0.0858
  912MPD2    C413354   1.281   1.069  15.863 -0.0859  0.0442  0.1609
  912MPD2    C513355   1.303   1.188  15.803 -0.1323 -0.0660 -0.3152
  912MPD2     H13356   1.396   1.128  16.162  1.7325  0.6386 -0.0576
  912MPD2    H113357   1.230   0.992  15.807  0.6104 -1.2469  1.2857
  912MPD2    H213358   1.371   1.387  15.821 -0.9741  0.4306 -0.1048
  912MPD2    H313359   1.272   1.204  15.701 -0.2362  0.2672 -0.2314
  912MPD2     N13360   1.279   0.924  16.071 -0.4635  0.0026 -0.7873
  912MPD2    H513361   1.317   0.937  16.164  2.2529 -3.8110 -1.3657
  912MPD2    N113362   1.440   1.388  16.072  0.0254  0.2705  0.2280
  912MPD2    H713363   1.448   1.472  16.015 -0.1867  0.8089  0.9979
  913MPD2     C13364   1.793   1.969  10.946 -0.4842 -0.3575 -0.7631
  913MPD2    C113365   1.821   2.099  10.995  0.9143 -0.8750 -0.2755
  913MPD2    C213366   1.732   2.200  10.960 -0.2278 -0.6173 -1.3514
  913MPD2    C313367   1.618   2.173  10.890  0.6105  0.8018 -0.5112
  913MPD2    C413368   1.597   2.043  10.849  0.2677  0.4917  0.3339
  913MPD2    C513369   1.678   1.946  10.878 -0.0284 -0.4578 -0.3954
  913MPD2     H13370   1.750   2.299  11.001 -0.4130 -0.7778 -0.8811
  913MPD2    H113371   1.507   2.021  10.793  0.3882 -0.4296  0.5066
  913MPD2    H213372   1.857   1.882  10.961 -0.2999 -0.3168 -1.2804
  913MPD2    H313373   1.653   1.846  10.844  2.0513 -1.3584  0.7184
  913MPD2     N13374   1.514   2.266  10.858 -0.0509  0.3696  0.4030
  913MPD2    H513375   1.432   2.219  10.819  2.2439 -0.8524 -2.9679
  913MPD2    N113376   1.944   2.124  11.070  0.5166  0.1377 -0.4928
  913MPD2    H713377   1.991   2.050  11.122 -1.1078 -0.9071 -0.5063
  914MPD2     C13378   4.214   2.702  12.642  0.0518  0.7580 -0.1280
  914MPD2    C113379   4.271   2.782  12.737  0.1314 -0.2222  0.6626
  914MPD2    C213380   4.386   2.730  12.799 -1.2627 -0.3178  0.6670
  914MPD2    C313381   4.444   2.612  12.759  0.2922  0.0269 -0.7295
  914MPD2    C413382   4.378   2.540  12.664 -0.2960  0.0587 -0.0506
  914MPD2    C513383   4.263   2.584  12.603  1.1750  0.0102 -0.1007
  914MPD2     H13384   4.433   2.777  12.885  0.9646 -1.2127 -0.0459
  914MPD2    H113385   4.416   2.442  12.636 -2.7835 -1.3336  1.4371
  914MPD2    H213386   4.125   2.733  12.587 -0.3833  1.4699  0.9856
  914MPD2    H313387   4.201   2.517  12.545  3.4180 -1.9558 -0.1808
  914MPD2     N13388   4.575   2.584  12.815  0.1653  0.2360  0.0606
  914MPD2    H513389   4.616   2.658  12.871 -0.0270  0.1385  0.3306
  914MPD2    N113390   4.220   2.915  12.758  0.3473  0.2104  0.3532
  914MPD2    H713391   4.151   2.941  12.688  1.8398  0.1651 -1.1359
  915MPD2     C13392   3.163   3.006  16.019 -0.8873 -0.3354  0.1897
  915MPD2    C113393   3.060   3.062  15.948 -0.3813  0.2161  0.3104
  915MPD2    C213394   2.973   3.156  16.001  0.1922  0.1150  0.5703
  915MPD2    C313395   2.975   3.172  16.140 -0.3082  0.1676 -0.5271
  915MPD2    C413396   3.077   3.110  16.208  0.9074  0.8687 -0.0477
  915MPD2    C513397   3.161   3.024  16.152 -0.0458  0.3925  0.2520
  915MPD2     H13398   2.888   3.204  15.955 -0.1823 -0.3047  0.8154
  915MPD2    H113399   3.106   3.137  16.309  1.9417  0.8431 -0.3311
  915MPD2    H213400   3.229   2.930  15.977  0.8546 -0.5129  3.3048
  915MPD2    H313401   3.244   2.988  16.212  0.8572  0.4907 -0.9371
  915MPD2     N13402   2.880   3.250  16.209  0.9890  0.2258 -0.1568
  915MPD2    H513403   2.827   3.312  16.148 -2.0899 -1.6553  0.6586
  915MPD2    N113404   3.058   3.041  15.809 -0.2345 -0.0932 -0.5092
  915MPD2    H713405   3.093   2.954  15.773  1.9218 -0.5715  2.7802
  916MPD2     C13406   1.084   1.112  15.519  0.6502 -0.1741 -0.9508
  916MPD2    C113407   1.024   1.032  15.609  0.9093 -0.3722  0.4302
  916MPD2    C213408   0.989   0.903  15.573 -0.3433 -1.1298  0.1168
  916MPD2    C313409   1.012   0.849  15.448 -0.4188 -0.3037  0.2936
  916MPD2    C413410   1.076   0.935  15.360 -0.7798  0.2165 -0.1924
  916MPD2    C513411   1.108   1.063  15.391  0.1592 -0.2672  0.2980
  916MPD2     H13412   0.958   0.832  15.650  0.9628 -0.9212  0.8281
  916MPD2    H113413   1.094   0.912  15.256 -1.4072  0.0555 -0.2675
  916MPD2    H213414   1.101   1.218  15.535 -0.3874 -0.5674  2.7963
  916MPD2    H313415   1.136   1.132  15.312  0.4879 -0.7968 -0.0508
  916MPD2     N13416   0.988   0.711  15.422  0.3246 -0.1488 -0.0358
  916MPD2    H513417   0.928   0.658  15.485 -1.0975 -0.5618 -1.7025
  916MPD2    N113418   0.998   1.091  15.731 -0.1713  0.0898 -0.0933
  916MPD2    H713419   1.030   1.187  15.743  0.9092 -0.1735 -0.9730
  917MPD2     C13420   0.433   3.655  11.325 -0.1737  0.2677  0.4090
  917MPD2    C113421   0.523   3.662  11.429  0.2000  0.6261  0.8889
  917MPD2    C213422   0.620   3.761  11.424  0.2048 -0.3442 -0.4627
  917MPD2    C313423   0.629   3.846  11.312 -0.7050  0.8522  0.1165
  917MPD2    C413424   0.536   3.840  11.214  0.3129  0.1922 -0.3400
  917MPD2    C513425   0.431   3.752  11.218  0.1028  0.3478 -0.1033
  917MPD2     H13426   0.701   3.760  11.496  0.6519 -0.0299 -0.9620
  917MPD2    H113427   0.534   3.917  11.137  0.8565 -1.3194 -1.8805
  917MPD2    H213428   0.355   3.580  11.317 -0.9222  1.2073 -1.0440
  917MPD2    H313429   0.352   3.756  11.143  0.4898 -0.0751 -0.5363
  917MPD2     N13430   0.732   3.944  11.303 -0.6277 -0.3309  0.2327
  917MPD2    H513431   0.751   3.989  11.214 -0.3481 -1.9863 -0.5415
  917MPD2    N113432   0.516   3.556  11.527  0.2336  0.3546 -0.0082
  917MPD2    H713433   0.458   3.477  11.504  1.5547 -0.1377 -1.6602
  918MPD2     C13434   0.983   3.510  12.428  0.2896 -0.2719 -0.9306
  918MPD2    C113435   1.063   3.501  12.315  1.0159 -0.0952 -0.3286
  918MPD2    C213436   1.008   3.447  12.197 -0.3952 -0.3683  0.2899
  918MPD2    C313437   0.865   3.431  12.193  0.6245  0.3000  0.0171
  918MPD2    C413438   0.791   3.461  12.308 -0.6536 -0.9025 -0.5233
  918MPD2    C513439   0.849   3.498  12.425  0.3542  0.1968  0.1405
  918MPD2     H13440   1.062   3.417  12.108 -1.1118 -0.4214 -0.1269
  918MPD2    H113441   0.683   3.456  12.310 -0.6965  0.2971  0.1916
  918MPD2    H213442   1.031   3.538  12.522  0.1517 -2.5900 -0.1789
  918MPD2    H313443   0.791   3.545  12.503 -0.7989  0.1467 -0.6950
  918MPD2     N13444   0.804   3.392  12.071 -0.1708 -0.5788  0.0020
  918MPD2    H513445   0.857   3.401  11.985 -0.6160  1.9157 -0.0314
  918MPD2    N113446   1.201   3.519  12.321 -0.4147 -0.3323 -0.3987
  918MPD2    H713447   1.262   3.496  12.243  1.4809  2.9982  0.0797
  919MPD2     C13448   1.642   2.397  12.122  0.7207  0.5879 -0.7095
  919MPD2    C113449   1.592   2.276  12.077  0.0266  0.0568  0.1168
  919MPD2    C213450   1.570   2.264  11.942  0.8595 -0.2147  0.6516
  919MPD2    C313451   1.602   2.368  11.856  0.0971 -0.3164  0.7203
  919MPD2    C413452   1.642   2.489  11.907  0.8412  0.1127 -0.5155
  919MPD2    C513453   1.662   2.505  12.042  0.3621 -0.0104  0.3367
  919MPD2     H13454   1.515   2.176  11.910 -1.9671  1.6498  0.4336
  919MPD2    H113455   1.661   2.574  11.842  0.0600  0.4490 -0.3088
  919MPD2    H213456   1.665   2.412  12.227  0.8042  0.6262 -0.7330
  919MPD2    H313457   1.716   2.591  12.079  1.9682 -0.4662 -0.9342
  919MPD2     N13458   1.598   2.354  11.715  0.2313  0.3869 -0.5970
  919MPD2    H513459   1.607   2.428  11.647  0.8458 -0.6906 -1.6714
  919MPD2    N113460   1.568   2.162  12.162  0.4501  0.0456 -0.0698
  919MPD2    H713461   1.533   2.081  12.110  0.7334  0.1158 -0.3699
  920MPD2     C13462   0.992   2.555  10.984  0.3418  0.0066  0.3112
  920MPD2    C113463   1.030   2.427  10.953  0.1810 -1.0600 -0.4684
  920MPD2    C213464   1.146   2.381  11.019  0.4120 -0.1392 -0.2230
  920MPD2    C313465   1.212   2.455  11.115  0.5757  0.1365 -0.1529
  920MPD2    C413466   1.163   2.573  11.155 -0.0481 -0.0564  0.4243
  920MPD2    C513467   1.056   2.618  11.090 -0.6096  0.0257 -0.2190
  920MPD2     H13468   1.195   2.290  10.986 -1.6567 -0.9624 -1.0056
  920MPD2    H113469   1.193   2.629  11.243 -0.0321 -1.8267  1.5317
  920MPD2    H213470   0.908   2.607  10.940 -0.0142 -0.3940  0.5171
  920MPD2    H313471   1.013   2.714  11.113  1.2071  0.5596  1.0402
  920MPD2     N13472   1.323   2.391  11.172  0.2673  0.6264  0.4554
  920MPD2    H513473   1.334   2.291  11.159 -0.5873  0.8110 -1.6605
  920MPD2    N113474   0.963   2.337  10.861  0.0319 -0.6936 -0.6712
  920MPD2    H713475   0.996   2.241  10.864 -0.0962 -0.8011 -2.5148
  921MPD2     C13476   2.743   1.488  16.268  0.1848 -0.5880 -0.6414
  921MPD2    C113477   2.835   1.402  16.328 -0.3283  0.1039 -0.3028
  921MPD2    C213478   2.782   1.298  16.406 -0.0452 -0.0197 -0.2455
  921MPD2    C313479   2.643   1.291  16.424 -0.3145 -0.4928 -0.0099
  921MPD2    C413480   2.559   1.379  16.354  0.1140 -0.0405 -0.2128
  921MPD2    C513481   2.608   1.474  16.280  0.1822  0.2342  0.5518
  921MPD2     H13482   2.849   1.239  16.467  1.6968 -0.8803 -3.0131
  921MPD2    H113483   2.452   1.362  16.356  0.5273 -2.5583  0.6661
  921MPD2    H213484   2.779   1.580  16.222 -0.8235  0.0936 -0.0834
  921MPD2    H313485   2.537   1.536  16.228 -0.4237  0.5825  1.8209
  921MPD2     N13486   2.578   1.206  16.512  0.4805 -0.0311  0.5554
  921MPD2    H513487   2.479   1.227  16.527  0.4536  0.3885 -0.2065
  921MPD2    N113488   2.970   1.427  16.299  0.2077  0.1414  0.5941
  921MPD2    H713489   2.985   1.509  16.241 -3.2491 -0.1417 -0.6592
  922MPD2     C13490   3.987   3.515  17.490  0.2175  0.3310  0.9435
  922MPD2    C113491   3.913   3.625  17.537 -0.2185  0.7112  0.6075
  922MPD2    C213492   3.801   3.598  17.614  0.4823 -0.0063  0.4470
  922MPD2    C313493   3.751   3.469  17.630 -0.7528 -0.8403 -0.2722
  922MPD2    C413494   3.821   3.362  17.574  0.2213  0.1842  0.6543
  922MPD2    C513495   3.939   3.386  17.510  0.0410 -0.2514 -0.1526
  922MPD2     H13496   3.744   3.681  17.654 -0.1270 -0.4057  0.4158
  922MPD2    H113497   3.784   3.261  17.584 -1.5912  0.9362  1.4377
  922MPD2    H213498   4.082   3.527  17.438 -0.7146  1.1590 -0.5601
  922MPD2    H313499   3.995   3.299  17.475 -0.7756 -1.7690  2.3475
  922MPD2     N13500   3.620   3.440  17.678  0.3098 -1.0049  0.2469
  922MPD2    H513501   3.600   3.341  17.674 -0.7568 -0.8774  2.6540
  922MPD2    N113502   3.962   3.759  17.524 -0.2270 -0.3803  0.4544
  922MPD2    H713503   3.914   3.832  17.576  0.3648  0.8879 -0.7891
  923MPD2     C13504   4.673   0.644   9.775 -0.6663 -0.2845  0.6384
  923MPD2    C113505   4.686   0.781   9.768  0.0476  0.7318 -0.3638
  923MPD2    C213506   0.073   0.845   9.831  0.6035 -0.0200 -0.8503
  923MPD2    C313507   0.163   0.776   9.905 -0.8409  0.5023 -0.1943
  923MPD2    C413508   0.137   0.639   9.920  0.0516  0.3182 -0.1985
  923MPD2    C513509   0.031   0.580   9.859  0.0740 -0.7489  0.0541
  923MPD2     H13510   0.089   0.951   9.817 -2.8177  0.4193 -1.3900
  923MPD2    H113511   0.197   0.581   9.989 -0.2295 -1.0131 -1.0753
  923MPD2    H213512   4.591   0.594   9.723 -2.3463  1.9300  1.1616
  923MPD2    H313513   0.016   0.474   9.874 -0.4060 -0.8185 -0.9451
  923MPD2     N13514   0.283   0.825   9.966  0.1981 -0.2791 -0.2831
  923MPD2    H513515   0.339   0.762  10.023 -0.2246 -1.4150 -1.1197
  923MPD2    N113516   4.590   0.854   9.687 -0.3020 -0.5150 -0.9288
  923MPD2    H713517   4.514   0.808   9.638  0.5414  0.2481 -2.9470
  924MPD2     C13518   0.400   4.260  15.230 -0.7689 -0.0781 -0.2515
  924MPD2    C113519   0.374   4.246  15.362 -0.5146 -0.1880 -0.0645
  924MPD2    C213520   0.385   4.364  15.432 -0.3286  0.4059  0.1689
  924MPD2    C313521   0.439   4.480  15.377 -0.4589 -0.1907  0.0034
  924MPD2    C413522   0.470   4.490  15.241 -0.1987 -0.0259 -0.6136
  924MPD2    C513523   0.445   4.372  15.169  0.3644 -0.3599  0.4721
  924MPD2     H13524   0.365   4.361  15.539 -0.3591 -2.6468  0.1011
  924MPD2    H113525   0.512   4.573  15.186  2.3364 -1.0047 -0.1994
  924MPD2    H213526   0.389   4.181  15.157  0.8197 -0.3005 -0.2649
  924MPD2    H313527   0.471   4.372  15.063  1.9005  1.0609  0.8478
  924MPD2     N13528   0.445   4.594  15.466  0.0412 -0.6797  0.4914
  924MPD2    H513529   0.429   4.572  15.564  0.7615  1.3821  1.0794
  924MPD2    N113530   0.327   4.123  15.414  1.4521 -0.1143  0.5950
  924MPD2    H713531   0.321   4.047  15.348  1.2926  0.5356 -0.1424
  925MPD2     C13532   3.128   1.916  14.670  0.0685  0.6694 -0.4638
  925MPD2    C113533   3.245   1.845  14.665  0.5068  0.7584  0.7028
  925MPD2    C213534   3.322   1.816  14.776 -0.5502 -0.4836 -0.2358
  925MPD2    C313535   3.280   1.853  14.900 -0.4543 -0.4720  0.4244
  925MPD2    C413536   3.160   1.920  14.906 -0.6210 -0.4940 -0.1696
  925MPD2    C513537   3.079   1.943  14.796  0.2016  0.0398 -0.4639
  925MPD2     H13538   3.410   1.757  14.752 -0.6239 -0.6320 -0.1402
  925MPD2    H113539   3.132   1.956  15.005  2.2989 -2.9891  1.5622
  925MPD2    H213540   3.063   1.938  14.587 -2.2158  0.5050  1.2825
  925MPD2    H313541   2.975   1.968  14.816  0.1164  0.5440 -1.5422
  925MPD2     N13542   3.340   1.818  15.018  0.3797 -0.2993 -0.2479
  925MPD2    H513543   3.290   1.851  15.099  1.8431  0.7139  0.2352
  925MPD2    N113544   3.310   1.809  14.543  0.0207  0.1290 -0.5027
  925MPD2    H713545   3.403   1.768  14.547 -0.0304 -0.0845 -1.4825
  926MPD2     C13546   2.089   4.645  13.283 -0.2228 -0.4094 -0.6372
  926MPD2    C113547   2.057   0.053  13.279 -0.4539  0.3737  0.1326
  926MPD2    C213548   2.108   0.127  13.176  0.6181  0.6627  0.5556
  926MPD2    C313549   2.186   0.078  13.076 -0.6147  0.4198  0.2680
  926MPD2    C413550   2.206   4.665  13.076  0.4827 -0.9732 -0.3462
  926MPD2    C513551   2.162   4.592  13.185  0.2170 -0.4307 -0.1927
  926MPD2     H13552   2.104   0.235  13.185  2.3386  0.7138  0.7770
  926MPD2    H113553   2.272   4.627  12.999 -1.0201 -1.2714 -1.4739
  926MPD2    H213554   2.069   4.583  13.370  0.5442 -1.5059 -1.2449
  926MPD2    H313555   2.197   4.489  13.184  0.2669 -0.4184  0.3420
  926MPD2     N13556   2.230   0.165  12.970  0.2874  0.2356 -0.4534
  926MPD2    H513557   2.273   0.113  12.894 -2.6639 -0.1086 -1.8835
  926MPD2    N113558   1.991   0.126  13.382  0.3231  0.1719  0.1457
  926MPD2    H713559   1.986   0.228  13.376 -2.1035  0.0660  0.5417
  927MPD2     C13560   2.008   2.507   0.561 -0.3278  0.2080 -0.7227
  927MPD2    C113561   1.991   2.634   0.517 -0.2354 -0.7576 -0.5050
  927MPD2    C213562   2.032   2.671   0.390  0.2340 -0.5017 -0.3982
  927MPD2    C313563   2.086   2.581   0.301  0.0397 -0.7162  0.5408
  927MPD2    C413564   2.108   2.453   0.347  0.3344 -0.4523  0.1020
  927MPD2    C513565   2.066   2.416   0.473 -0.8188  0.4333 -0.6451
  927MPD2     H13566   2.021   2.771   0.349  0.3007  0.3533  1.6589
  927MPD2    H113567   2.141   2.379   0.274  2.9098  0.0555  0.7571
  927MPD2    H213568   1.990   2.472   0.662 -0.5693  2.2593 -0.0589
  927MPD2    H313569   2.086   2.318   0.514  2.3498  2.3357  2.3558
  927MPD2     N13570   2.112   2.625   0.162 -0.4551 -0.3281  0.4286
  927MPD2    H513571   2.085   2.719   0.138  0.1594 -0.2289  0.1220
  927MPD2    N113572   1.953   2.730   0.620  0.1953  0.1431  0.3262
  927MPD2    H713573   1.924   2.705   0.714 -1.0843  0.4396  0.0131
  928MPD2     C13574   0.656   0.829   1.208  0.3173  0.2954 -0.0497
  928MPD2    C113575   0.623   0.950   1.270 -0.1191  0.0648  0.1247
  928MPD2    C213576   0.515   1.026   1.222  0.2698 -0.1352 -0.2079
  928MPD2    C313577   0.442   0.990   1.112  0.3454 -0.3268 -0.0455
  928MPD2    C413578   0.474   0.869   1.061  0.3259  0.4414 -0.1108
  928MPD2    C513579   0.581   0.791   1.103 -0.4970 -0.5423 -0.3983
  928MPD2     H13580   0.498   1.122   1.268  0.3461  0.4568 -1.4261
  928MPD2    H113581   0.421   0.845   0.970  1.0061 -1.1610 -0.0774
  928MPD2    H213582   0.749   0.774   1.221  0.3635  0.5262  0.5746
  928MPD2    H313583   0.610   0.699   1.054 -0.4020  0.3366 -1.9917
  928MPD2     N13584   0.356   1.067   1.034 -0.0962 -0.1323 -0.4507
  928MPD2    H513585   0.307   1.023   0.957  0.9419 -0.3584 -0.9827
  928MPD2    N113586   0.708   0.998   1.370 -0.0923 -0.1655  0.4261
  928MPD2    H713587   0.801   0.957   1.372 -0.5124 -1.1965 -1.4213
  929MPD2     C13588   0.309   1.151  10.532  0.0263  0.1568  0.9445
  929MPD2    C113589   0.271   1.026  10.576  0.8783  0.3113 -0.5379
  929MPD2    C213590   0.190   0.950  10.492  0.5469  0.0279 -0.4538
  929MPD2    C313591   0.160   1.003  10.364  0.8590 -0.2138  0.8808
  929MPD2    C413592   0.228   1.113  10.320 -0.1001 -0.5983 -0.2485
  929MPD2    C513593   0.294   1.195  10.403  0.0310 -0.1207  0.0775
  929MPD2     H13594   0.146   0.859  10.532  2.6499 -1.1247 -0.7245
  929MPD2    H113595   0.217   1.140  10.216  2.5960  0.4661 -0.2392
  929MPD2    H213596   0.352   1.225  10.599  1.6641 -0.2323  0.3240
  929MPD2    H313597   0.327   1.292  10.369 -1.7255 -0.1420 -1.6894
  929MPD2     N13598   0.066   0.942  10.274 -0.3152  0.4281 -0.5413
  929MPD2    H513599   0.027   1.009  10.208 -0.2410  1.2317  0.2331
  929MPD2    N113600   0.295   0.991  10.710 -0.1775  0.3355  0.0618
  929MPD2    H713601   0.340   1.056  10.774  1.2326  0.0257 -0.6126
  930MPD2     C13602   2.302   3.343  14.746 -0.2039  0.7003  0.0767
  930MPD2    C113603   2.235   3.456  14.698  0.0165  0.3662 -0.4035
  930MPD2    C213604   2.125   3.434  14.619 -0.4244 -0.2789 -1.1094
  930MPD2    C313605   2.073   3.301  14.593 -0.4937 -0.0723  0.2443
  930MPD2    C413606   2.137   3.195  14.641 -0.2932  0.2063  0.3703
  930MPD2    C513607   2.244   3.219  14.725  0.2178 -1.0252 -0.2877
  930MPD2     H13608   2.068   3.519  14.584  0.8608  0.9585 -0.1492
  930MPD2    H113609   2.102   3.094  14.626 -2.3437  0.9165  0.3811
  930MPD2    H213610   2.391   3.354  14.807  0.2355  1.3576 -0.6762
  930MPD2    H313611   2.285   3.130  14.772 -0.8026 -1.6109 -0.5140
  930MPD2     N13612   1.959   3.277  14.511  0.2828  0.3379  0.1754
  930MPD2    H513613   1.928   3.181  14.496 -1.0911  1.0455 -1.4789
  930MPD2    N113614   2.282   3.585  14.727 -0.4629  0.0967 -0.7397
  930MPD2    H713615   2.368   3.594  14.779 -1.2961  0.8476  0.5199
  931MPD2     C13616   1.877   3.062   1.392 -0.5290 -0.1867 -0.0641
  931MPD2    C113617   1.913   2.959   1.309  0.5175  0.9274 -0.4763
  931MPD2    C213618   1.939   2.829   1.361  0.2531 -0.0815  0.9149
  931MPD2    C313619   1.937   2.816   1.503 -0.1661  0.2843  0.0561
  931MPD2    C413620   1.892   2.925   1.582 -0.8113  0.3200 -0.0196
  931MPD2    C513621   1.866   3.047   1.526 -0.8400 -0.1526  0.1526
  931MPD2     H13622   1.960   2.743   1.299  1.0166  0.9779 -0.2986
  931MPD2    H113623   1.892   2.918   1.691 -1.0261  0.3589 -0.0170
  931MPD2    H213624   1.858   3.158   1.344  1.1862  0.2967  0.2248
  931MPD2    H313625   1.839   3.130   1.591 -1.0780 -1.6968  1.9841
  931MPD2     N13626   1.951   2.694   1.569 -0.0687 -0.4967  0.0047
  931MPD2    H513627   1.921   2.690   1.666 -0.9734  1.2296 -0.2081
  931MPD2    N113628   1.919   2.992   1.174  0.5278  0.0781 -0.7153
  931MPD2    H713629   1.887   3.087   1.158 -3.0405 -0.5969  2.3542
  932MPD2     C13630   3.048   1.156  11.208  0.0849  0.5200 -0.0362
  932MPD2    C113631   3.093   1.220  11.319  0.5313  0.4514 -0.0587
  932MPD2    C213632   3.073   1.157  11.442  0.1901  0.1373 -0.3401
  932MPD2    C313633   3.011   1.036  11.447  0.4246  0.2697 -0.3620
  932MPD2    C413634   2.976   0.968  11.333 -0.5940 -0.8601 -0.1043
  932MPD2    C513635   2.997   1.030  11.212 -0.2023  0.3072 -0.4880
  932MPD2     H13636   3.128   1.206  11.521  1.6925 -1.2854 -0.4994
  932MPD2    H113637   2.930   0.870  11.338 -1.5845 -0.4122 -0.3622
  932MPD2    H213638   3.047   1.187  11.104  1.4403  0.0913 -0.1720
  932MPD2    H313639   2.974   0.968  11.127  0.7626  1.8045 -1.8359
  932MPD2     N13640   2.996   0.976  11.573  0.3802 -0.3228  0.6879
  932MPD2    H513641   2.977   0.876  11.566  1.7362 -0.6443  1.5262
  932MPD2    N113642   3.172   1.340  11.320 -0.5940 -0.0723  0.2158
  932MPD2    H713643   3.188   1.390  11.407 -0.2952  0.7291 -0.2982
  933MPD2     C13644   1.045   1.390   2.142 -0.6654 -0.2317 -0.3067
  933MPD2    C113645   0.940   1.415   2.059 -0.6804  0.9485 -0.5162
  933MPD2    C213646   0.843   1.514   2.080  0.2164  0.0333 -0.3752
  933MPD2    C313647   0.859   1.601   2.184 -0.7851 -0.2862  0.7898
  933MPD2    C413648   0.966   1.577   2.272 -0.3187 -0.5069 -0.6117
  933MPD2    C513649   1.059   1.475   2.248  0.3177  0.7177  0.0563
  933MPD2     H13650   0.752   1.529   2.022 -0.4004 -0.4256  0.4647
  933MPD2    H113651   0.982   1.627   2.367 -1.1008  0.4308 -0.9758
  933MPD2    H213652   1.118   1.315   2.116 -0.9862 -1.1146  1.3628
  933MPD2    H313653   1.135   1.459   2.324  0.3364 -0.0863 -0.1310
  933MPD2     N13654   0.777   1.717   2.200 -0.7163 -0.3958 -0.2748
  933MPD2    H513655   0.709   1.719   2.125 -0.5129  0.3774 -0.4314
  933MPD2    N113656   0.932   1.330   1.947  0.0978 -0.0991 -0.2806
  933MPD2    H713657   1.009   1.264   1.941  0.6404  0.4416  0.8105
  934MPD2     C13658   1.077   3.469   2.479 -0.1701  0.5598  0.2818
  934MPD2    C113659   1.051   3.577   2.388  0.1728 -0.2012  0.1970
  934MPD2    C213660   1.007   3.546   2.258 -0.6604  0.6192  0.4751
  934MPD2    C313661   0.982   3.414   2.223 -0.6166  0.1986  0.1646
  934MPD2    C413662   1.002   3.313   2.313 -0.5889  0.0583 -0.4675
  934MPD2    C513663   1.052   3.341   2.441 -0.4829  0.2705 -0.2952
  934MPD2     H13664   0.971   3.621   2.188  0.6803  1.1844  0.3909
  934MPD2    H113665   0.999   3.212   2.274  3.5657  0.0919 -0.9748
  934MPD2    H213666   1.096   3.487   2.584  0.2191 -1.1099  0.4942
  934MPD2    H313667   1.053   3.264   2.516  3.3091  1.8047  1.2246
  934MPD2     N13668   0.937   3.383   2.087  0.5108 -0.0835  0.2733
  934MPD2    H513669   0.897   3.289   2.079 -0.9984  0.6690 -1.2539
  934MPD2    N113670   1.078   3.712   2.419 -0.4533  0.0360 -0.3608
  934MPD2    H713671   1.065   3.784   2.348 -0.0181  0.5244  0.0527
  935MPD2     C13672   0.931   2.624   1.740 -0.0261  0.1765 -0.6972
  935MPD2    C113673   0.884   2.699   1.635 -0.1532 -0.1039  0.7543
  935MPD2    C213674   0.829   2.819   1.655 -0.0170  0.2444 -0.0449
  935MPD2    C313675   0.821   2.874   1.781  0.1482  0.0170  0.2396
  935MPD2    C413676   0.879   2.804   1.885 -0.3254  0.0030 -0.0870
  935MPD2    C513677   0.924   2.674   1.865 -0.5510  0.3651  0.1195
  935MPD2     H13678   0.791   2.871   1.568  1.6232  3.1293  0.9603
  935MPD2    H113679   0.880   2.837   1.988 -0.5278 -2.3216  0.6493
  935MPD2    H213680   0.982   2.529   1.729 -1.3740 -0.4335 -1.7400
  935MPD2    H313681   0.967   2.620   1.948  1.0347  0.3685 -0.7061
  935MPD2     N13682   0.777   3.011   1.803  0.1754 -0.0993  0.2962
  935MPD2    H513683   0.784   3.056   1.894 -2.6174 -0.2614  0.5711
  935MPD2    N113684   0.885   2.651   1.499  0.2151  0.2712  0.4728
  935MPD2    H713685   0.847   2.717   1.432 -1.1421 -0.4718  0.5148
  936MPD2     C13686   3.662   0.423  12.109  0.3232 -0.1108 -1.1964
  936MPD2    C113687   3.766   0.427  12.200  0.8062  0.4637 -0.5684
  936MPD2    C213688   3.852   0.536  12.200 -0.1350 -0.2579 -0.1859
  936MPD2    C313689   3.825   0.651  12.132 -0.0069 -0.1337  0.2554
  936MPD2    C413690   3.715   0.651  12.047  0.1218 -0.9760 -0.2558
  936MPD2    C513691   3.634   0.537  12.033 -0.2654  0.4863 -0.2082
  936MPD2     H13692   3.919   0.534  12.286  2.9579  0.8579 -2.5928
  936MPD2    H113693   3.688   0.739  11.990 -1.4682  0.0726  2.1188
  936MPD2    H213694   3.579   0.353  12.112  0.8250 -0.6891 -0.8885
  936MPD2    H313695   3.548   0.532  11.967 -0.2386 -1.1324 -0.1178
  936MPD2     N13696   3.892   0.769  12.156  0.2539 -0.3930 -0.3909
  936MPD2    H513697   3.839   0.855  12.146  1.9081  0.8979  2.0095
  936MPD2    N113698   3.799   0.328  12.294 -0.3176  0.0316  0.4712
  936MPD2    H713699   3.879   0.340  12.355  0.7443 -1.2272 -0.6753
  937MPD2     C13700   1.694   1.459  12.083  0.1934  0.3921 -0.6107
  937MPD2    C113701   1.725   1.594  12.073 -0.7067  0.2529  0.7707
  937MPD2    C213702   1.821   1.624  11.975  1.2557 -0.4281  0.2583
  937MPD2    C313703   1.874   1.532  11.885 -0.0326  0.0188 -0.9648
  937MPD2    C413704   1.838   1.402  11.899 -0.0849  0.6211 -0.0730
  937MPD2    C513705   1.750   1.368  12.002 -0.0921 -0.3976  0.2306
  937MPD2     H13706   1.852   1.726  11.958 -0.3333  0.2644  1.5158
  937MPD2    H113707   1.885   1.329  11.833 -0.9156 -1.1123  1.2422
  937MPD2    H213708   1.625   1.421  12.158  0.0303 -2.2097 -2.0853
  937MPD2    H313709   1.725   1.264  12.017  2.2889 -1.1977 -1.3968
  937MPD2     N13710   1.964   1.562  11.780 -0.6552 -0.4042 -0.8461
  937MPD2    H513711   1.980   1.484  11.717 -1.3665 -0.2337 -1.2359
  937MPD2    N113712   1.686   1.691  12.165 -0.1379 -0.2051 -0.4481
  937MPD2    H713713   1.739   1.778  12.168 -0.5008  0.1133 -2.8744
  938MPD2     C13714   4.723   3.041   0.947 -0.0601 -0.3806  0.3356
  938MPD2    C113715   4.696   3.165   0.995 -0.1123 -0.2902  0.3407
  938MPD2    C213716   4.707   3.187   1.135 -0.6006  0.4303 -0.3359
  938MPD2    C313717   0.010   3.076   1.223 -0.2486 -0.1979 -0.1268
  938MPD2    C413718   0.045   2.958   1.160  0.4112  0.1749  0.4095
  938MPD2    C513719   0.041   2.940   1.030 -0.0319 -0.2657 -0.1943
  938MPD2     H13720   4.679   3.284   1.176 -0.6909 -0.5344  1.8576
  938MPD2    H113721   0.079   2.877   1.223 -0.3712  0.1625  0.8068
  938MPD2    H213722   4.715   3.018   0.841  0.6353 -0.6070  0.3333
  938MPD2    H313723   0.068   2.842   0.993  0.6398  0.3171 -1.2377
  938MPD2     N13724   0.002   3.081   1.364  0.0946 -0.1100 -0.2119
  938MPD2    H513725   0.047   3.008   1.419  2.1632  1.7057  0.4812
  938MPD2    N113726   4.649   3.267   0.918  0.7396 -0.5227  0.2818
  938MPD2    H713727   4.663   3.361   0.954  1.2093  0.9724 -3.7381
  939MPD2     C13728   1.417   4.467   1.196 -0.3647 -0.4759  0.1030
  939MPD2    C113729   1.323   4.460   1.099  0.4150 -0.6286 -0.8800
  939MPD2    C213730   1.353   4.404   0.973  0.3221 -0.8098  0.2588
  939MPD2    C313731   1.474   4.347   0.957  0.4036 -0.0302  0.2203
  939MPD2    C413732   1.560   4.342   1.059 -0.3621 -0.4995  0.0872
  939MPD2    C513733   1.534   4.403   1.179 -0.1149  0.1508 -0.2593
  939MPD2     H13734   1.280   4.398   0.894 -0.7415 -3.7597  1.4367
  939MPD2    H113735   1.650   4.281   1.067  2.1943  2.9113 -2.7661
  939MPD2    H213736   1.386   4.519   1.285  0.1591  3.1129 -1.8074
  939MPD2    H313737   1.600   4.400   1.265  1.4259  1.1687 -1.4036
  939MPD2     N13738   1.500   4.291   0.827  0.1332 -0.2298  0.0125
  939MPD2    H513739   1.429   4.298   0.755  0.8341  2.0694 -0.4699
  939MPD2    N113740   1.203   4.531   1.113 -0.5859 -0.7259 -0.3116
  939MPD2    H713741   1.196   4.588   1.197 -0.2733  0.4057 -1.0587
  940MPD2     C13742   4.425   0.080  13.011 -0.3205 -0.1198  0.1242
  940MPD2    C113743   4.522   0.168  13.048 -0.2051  0.0373 -0.5330
  940MPD2    C213744   4.548   0.270  12.960 -0.3619  0.3178  0.0494
  940MPD2    C313745   4.489   0.281  12.834 -0.2525 -0.2501  0.3389
  940MPD2    C413746   4.393   0.189  12.804 -0.0041 -0.1970  0.0227
  940MPD2    C513747   4.362   0.089  12.889 -1.3057  0.3240 -0.2006
  940MPD2     H13748   4.626   0.339  12.990  2.1361 -1.7903 -1.6368
  940MPD2    H113749   4.343   0.195  12.708 -1.4953 -0.5367  0.7823
  940MPD2    H213750   4.386   0.007  13.081  1.1875 -0.3476  0.7333
  940MPD2    H313751   4.286   0.015  12.869 -0.6782 -0.4745  0.3388
  940MPD2     N13752   4.508   0.391  12.747  0.1520  0.2613 -0.0781
  940MPD2    H513753   4.449   0.399  12.665 -0.4120  1.7807  0.4712
  940MPD2    N113754   4.583   0.175  13.173  0.0527 -0.2609 -0.3785
  940MPD2    H713755   4.662   0.239  13.182  0.1373 -0.5049  0.5951
  941MPD2     C13756   3.436   3.527   9.506  0.3497  0.6514 -0.5234
  941MPD2    C113757   3.460   3.536   9.641 -0.6819 -0.0389  0.0229
  941MPD2    C213758   3.417   3.435   9.726 -0.1967 -0.1249 -0.7162
  941MPD2    C313759   3.346   3.331   9.676  0.0929  0.3237  0.4778
  941MPD2    C413760   3.311   3.331   9.544  0.2303 -0.1593  0.1073
  941MPD2    C513761   3.354   3.433   9.462  0.3599 -0.0721  1.2073
  941MPD2     H13762   3.445   3.446   9.831  0.3700 -0.9830 -0.7809
  941MPD2    H113763   3.267   3.241   9.502  1.1582 -0.9893  0.8982
  941MPD2    H213764   3.484   3.590   9.431 -0.0933 -1.4030 -2.5186
  941MPD2    H313765   3.326   3.428   9.357  0.9977  1.7895  0.9483
  941MPD2     N13766   3.308   3.225   9.764 -0.2677 -0.5389 -0.5015
  941MPD2    H513767   3.252   3.151   9.725  0.9292 -1.5025 -0.4109
  941MPD2    N113768   3.524   3.643   9.705 -0.2270  0.2068 -0.3903
  941MPD2    H713769   3.537   3.648   9.806 -2.5573  1.1229 -0.1322
  942MPD2     C13770   3.337   0.016   8.962 -0.9380 -0.5888  0.4590
  942MPD2    C113771   3.290   0.080   8.852 -0.1635  0.8306  0.0816
  942MPD2    C213772   3.380   0.163   8.795  0.4204  0.0360  0.0585
  942MPD2    C313773   3.500   0.203   8.855 -0.5806 -0.9182  0.0103
  942MPD2    C413774   3.542   0.139   8.970 -0.5173  0.2026  0.2020
  942MPD2    C513775   3.459   0.044   9.024 -0.1652 -0.0987  0.5047
  942MPD2     H13776   3.350   0.212   8.703  0.5139 -0.9379 -0.4844
  942MPD2    H113777   3.631   0.174   9.021  0.2728 -1.3102 -0.1329
  942MPD2    H213778   3.283   4.659   9.010  2.0458 -2.2187  1.1237
  942MPD2    H313779   3.479   4.724   9.121 -1.2628  0.4178  0.9678
  942MPD2     N13780   3.573   0.316   8.818  0.1200  0.1785 -0.0568
  942MPD2    H513781   3.649   0.330   8.884 -0.5913  0.6505  0.6520
  942MPD2    N113782   3.174   0.034   8.786 -0.2283 -0.0841  0.5314
  942MPD2    H713783   3.153   0.073   8.695  0.8551 -1.9910 -0.5224
  943MPD2     C13784   2.034   3.877  10.084  0.7506  0.4186 -0.4638
  943MPD2    C113785   2.021   3.789  10.188 -0.6304  0.1826  0.5381
  943MPD2    C213786   2.128   3.776  10.273 -0.3121 -0.5412  0.3044
  943MPD2    C313787   2.245   3.855  10.256 -0.8074 -0.4566  0.6179
  943MPD2    C413788   2.258   3.933  10.146  0.3060  0.1264 -0.7751
  943MPD2    C513789   2.147   3.945  10.063 -0.3770  0.0402  0.0708
  943MPD2     H13790   2.119   3.705  10.355  0.3470  1.3575  2.0269
  943MPD2    H113791   2.347   3.991  10.123 -0.9732  2.3150 -0.2369
  943MPD2    H213792   1.952   3.890  10.014 -0.5242  0.9811  1.1163
  943MPD2    H313793   2.144   4.008   9.975  1.4433  1.4239  1.0128
  943MPD2     N13794   2.347   3.845  10.355  0.2945  0.3389  0.2119
  943MPD2    H513795   2.330   3.775  10.427 -1.8782  1.4083  0.7167
  943MPD2    N113796   1.903   3.707  10.187  0.1190  0.1574  0.6551
  943MPD2    H713797   1.838   3.713  10.110  1.2553  0.6298 -0.2813
  944MPD2     C13798   1.761   2.578  11.173  0.6323 -0.9159  0.2819
  944MPD2    C113799   1.828   2.669  11.095 -0.5849  0.1855 -0.9564
  944MPD2    C213800   1.880   2.774  11.161 -0.1921 -0.2472  0.7739
  944MPD2    C313801   1.883   2.777  11.292 -0.4234 -0.0440  0.0050
  944MPD2    C413802   1.817   2.688  11.378 -0.4480  0.7956  0.5732
  944MPD2    C513803   1.757   2.586  11.309 -0.7542  0.3590  0.1228
  944MPD2     H13804   1.926   2.857  11.107 -1.8774  0.2771  0.1539
  944MPD2    H113805   1.820   2.686  11.486 -0.6300  1.3682  0.5884
  944MPD2    H213806   1.709   2.495  11.126  1.8169 -2.1438  1.1395
  944MPD2    H313807   1.707   2.515  11.374 -1.1081  0.3711 -0.1336
  944MPD2     N13808   1.938   2.895  11.344  0.0092  0.4218 -0.0947
  944MPD2    H513809   1.970   2.963  11.276  0.5469 -2.1843 -2.4423
  944MPD2    N113810   1.837   2.658  10.950 -0.2585 -0.0060 -0.9692
  944MPD2    H713811   1.765   2.594  10.917 -1.6770  0.8880  0.4094
    1TCq1    O113812   0.809   3.523  14.214 -0.2695  0.4543 -0.0380
    1TCq1    C113813   0.686   3.529  14.184  0.0190  0.4744 -0.1891
    1TCq1    O213814   0.614   3.437  14.149  0.3704 -0.1583 -0.1060
    1TCq1    C213815   0.634   3.669  14.192 -0.0106  0.2932 -0.1225
    1TCq1    C313816   0.515   3.697  14.133 -0.3410  0.1866 -0.0134
    1TCq1    C413817   0.452   3.820  14.151 -0.5200  0.2737  0.1730
    1TCq1    C513818   0.500   3.910  14.236  0.0101  0.4190 -0.0369
    1TCq1    C613819   0.622   3.876  14.289  0.0691 -0.2298 -0.3396
    1TCq1    C713820   0.687   3.757  14.275 -0.4307 -0.0644 -0.0954
    1TCq1    C813821   0.677   3.966  14.393  0.6026 -0.3305 -0.4126
    1TCq1    O413822   0.763   3.926  14.470 -0.1155  0.3313 -0.2904
    1TCq1    C913823   0.320   3.844  14.102  0.1174  0.1199 -0.7269
    1TCq1    O513824   0.268   3.959  14.111  0.4143 -0.0600  0.0381
    1TCq1    O613825   0.288   3.759  14.016 -0.4943  0.2109 -0.7974
    1TCq1    H113826   0.860   3.605  14.233  0.4471 -0.6365  2.5713
    1TCq1    H213827   0.470   3.611  14.083 -0.3657  0.2360 -0.0764
    1TCq1    H313828   0.443   4.002  14.244  0.2575  0.5938 -0.2800
    1TCq1    H413829   0.769   3.724  14.339  0.8125 -0.8729 -2.1035
    2MPD2     C13830   0.725   4.433  14.599  0.4084 -0.1491  0.0024
    2MPD2    C113831   0.621   4.439  14.505  0.8102 -0.1051  0.1969
    2MPD2    C213832   0.584   4.313  14.446  0.4244 -0.1186 -0.2034
    2MPD2    C313833   0.639   4.194  14.480  0.0513  0.3591  0.1312
    2MPD2    C413834   0.732   4.195  14.583 -0.0728  0.4420 -0.1989
    2MPD2    C513835   0.771   4.308  14.640 -0.1599  0.4632  0.2700
    2MPD2     H13836   0.504   4.321  14.374  0.1489 -0.9761  0.0050
    2MPD2    H113837   0.777   4.105  14.625 -0.2748  0.4220 -0.0314
    2MPD2    H213838   0.769   4.524  14.639  1.3993 -1.3282  1.5703
    2MPD2    H313839   0.855   4.305  14.708  0.1719 -1.3201 -0.2185
    2MPD2     N13840   0.612   4.085  14.392 -0.1759 -0.1511  0.3323
    2MPD2    H513841   0.542   4.096  14.320  1.0878 -0.0978 -0.8942
    2MPD2    N113842   0.558   4.563  14.462 -0.5212 -0.5933  0.9504
    2MPD2    H713843   0.589   4.653  14.498 -0.2953  0.0297 -0.8331
    3TMC2    C113844   0.393   4.713  14.385 -0.2973  0.3977 -0.5816
    3TMC2    C213845   0.265   0.017  14.365 -0.3320  0.0966 -0.3000
    3TMC2    C313846   0.222   0.141  14.337  0.0830  0.1408  0.0407
    3TMC2    C413847   0.490   0.083  14.355 -0.1119  0.3378 -0.1482
    3TMC2    C513848   0.445   0.209  14.309 -0.1050 -0.1104 -0.0203
    3TMC2    C613849   0.311   0.240  14.309 -0.1608 -0.4884 -0.1002
    3TMC2     C13850   0.446   4.577  14.381 -0.2996  0.5761 -0.2811
    3TMC2     O13851   0.370   4.491  14.344  0.0036 -0.5464 -0.0135
    3TMC2     H13852   0.199   4.656  14.380 -0.8101  0.3556 -0.9770
    3TMC2    H113853   0.595   0.064  14.372 -0.0219 -0.7186 -1.9749
    3TMC2    H213854   0.285   0.344  14.289  1.3066  0.1209  1.1641
    3TMC2    C713855   0.548   0.281  14.241 -0.0830  0.7626 -0.5215
    3TMC2    C813856   0.087   0.166  14.305  0.0086 -0.0006  0.4190
    3TMC2    O113857   0.656   0.292  14.298 -0.5576  0.6664  0.3327
    3TMC2    O213858   0.004   0.099  14.363 -0.2294 -0.0809 -0.6607
    3TMC2    O513859   0.094   0.167  14.168  0.4917 -0.1920  0.3292
    3TMC2    H513860   0.149   0.238  14.129 -0.4945 -1.2367 -2.9941
    4MPD2     C13861   4.201   0.907  13.512 -0.0915 -1.1615  0.0499
    4MPD2    C113862   4.265   0.943  13.396 -0.1567 -0.3344 -0.5291
    4MPD2    C213863   4.405   0.938  13.392 -0.2531  0.0771 -0.2853
    4MPD2    C313864   4.472   0.910  13.515  0.3671 -0.1323 -0.0646
    4MPD2    C413865   4.403   0.884  13.626  0.3490  1.2568 -0.2808
    4MPD2    C513866   4.265   0.872  13.620  0.0962  0.2085  0.2439
    4MPD2     H13867   4.465   0.956  13.304  0.7976  3.1614  1.0770
    4MPD2    H113868   4.451   0.851  13.718  0.4003  1.9600 -0.0526
    4MPD2    H213869   4.097   0.925  13.537 -1.2303 -2.3991 -3.6927
    4MPD2    H313870   4.226   0.838  13.715  0.1129  0.8295  0.4679
    4MPD2     N13871   4.613   0.902  13.500 -0.3977 -0.2011  0.2245
    4MPD2    H513872   4.647   0.894  13.405 -1.0665  0.6170 -0.0846
    4MPD2    N113873   4.190   0.975  13.287 -0.0954  0.4783 -0.1342
    4MPD2    H713874   4.091   0.977  13.306  0.1406  1.3274  1.0006
    5TCq2    C113875   4.702   0.882  13.597 -0.4887 -0.2483  0.1340
    5TCq2    O213876   4.679   0.878  13.714  0.0295  0.1155  0.3892
    5TCq2    C213877   0.101   0.831  13.569  0.2767  0.4622  0.6123
    5TCq2    C313878   0.155   0.823  13.441  0.0407 -0.9249 -0.3778
    5TCq2    C413879   0.280   0.774  13.419 -0.2880 -0.6462  0.0383
    5TCq2    C513880   0.357   0.723  13.525 -0.2639  0.4999 -0.9604
    5TCq2    C613881   0.300   0.729  13.648  0.1657  0.4266  0.3180
    5TCq2    C713882   0.176   0.787  13.677 -0.0210  0.1692 -0.7299
    5TCq2    C813883   0.346   0.632  13.748  0.0499 -0.4503 -0.5891
    5TCq2    O413884   0.261   0.595  13.829  0.1914  0.1857  0.4052
    5TCq2    C913885   0.328   0.771  13.282  0.3934 -0.0151  0.0919
    5TCq2    O513886   0.247   0.772  13.187 -0.4852  0.6210 -0.5578
    5TCq2    O613887   0.437   0.707  13.273  0.1260  0.4177  0.4919
    5TCq2    H213888   0.089   0.837  13.356 -1.0171  1.1748  0.7972
    5TCq2    H313889   0.457   0.683  13.514  0.0740  0.4924  2.0159
    5TCq2    H413890   0.144   0.799  13.780 -0.1275 -0.2418 -0.7153
    6MPD1     C13891   3.265   2.527  13.457  0.4747  0.4877 -0.3162
    6MPD1    C113892   3.326   2.526  13.331  0.2784  0.2429  0.1504
    6MPD1    C213893   3.382   2.414  13.284  0.2838 -0.0943  0.0528
    6MPD1    C313894   3.364   2.296  13.354  0.1156 -0.2723  0.1929
    6MPD1    C413895   3.283   2.294  13.468  0.1147  0.5133  0.2119
    6MPD1    C513896   3.234   2.409  13.521 -0.5248  0.3545 -0.7115
    6MPD1     H13897   3.447   2.425  13.197  0.7331 -0.2895  0.3649
    6MPD1    H113898   3.255   2.200  13.515 -0.3083  0.5030 -0.0676
    6MPD1    H213899   3.228   2.618  13.503 -0.9552 -0.2281 -0.0655
    6MPD1    H313900   3.171   2.407  13.609 -0.0778  0.1790 -0.3958
    6MPD1     N13901   3.427   2.178  13.309  0.7456 -0.0586 -0.3172
    6MPD1    H513902   3.392   2.095  13.355  1.2042  0.2344  0.5565
    6MPD1    N113903   3.341   2.647  13.264 -0.7483 -0.0126 -0.2325
    6MPD1    H613904   3.259   2.708  13.265 -0.2638  0.6273  1.1184
    6MPD1    H713905   3.360   2.636  13.165  3.3347  0.0145  0.5258
    7MPD2     C13906   3.723   1.464  13.494 -0.4436  0.1037  0.2384
    7MPD2    C113907   3.732   1.489  13.357 -0.2807  0.2202 -0.1397
    7MPD2    C213908   3.762   1.382  13.270  0.2910 -0.1477 -0.7228
    7MPD2    C313909   3.780   1.253  13.319  0.0231 -0.1218 -0.4205
    7MPD2    C413910   3.774   1.230  13.456 -0.1080 -0.4597 -0.4252
    7MPD2    C513911   3.750   1.334  13.542  0.4469  0.3476 -0.3186
    7MPD2     H13912   3.765   1.404  13.164  0.0675  2.9995 -0.0926
    7MPD2    H113913   3.795   1.135  13.505 -3.2961 -0.7399  0.3713
    7MPD2    H213914   3.690   1.538  13.567 -1.6774 -1.0954  0.9106
    7MPD2    H313915   3.766   1.314  13.647 -0.8599 -1.6344 -0.4948
    7MPD2     N13916   3.820   1.137  13.234 -0.0439 -0.2433 -0.0951
    7MPD2    H513917   3.840   1.050  13.282 -3.5520 -1.6108 -1.0882
    7MPD2    N113918   3.701   1.609  13.288 -0.3387  0.4192  0.8331
    7MPD2    H713919   3.692   1.603  13.187 -1.1475 -0.9446  0.9770
    8TMC3    C113920   3.902   1.049  13.030  0.4468  0.4402  1.1550
    8TMC3    C213921   4.005   0.996  13.107 -0.2181 -0.3385  0.3427
    8TMC3    C313922   4.130   1.037  13.072  0.3508 -0.7225 -0.2729
    8TMC3    C413923   3.938   1.118  12.910  0.0110 -0.4118 -0.2190
    8TMC3    C513924   4.064   1.151  12.881 -0.0234 -0.1339 -0.2918
    8TMC3    C613925   4.168   1.120  12.963 -0.3094  0.1581  0.2222
    8TMC3     C13926   3.828   1.152  13.097 -0.1900  0.1490 -0.1552
    8TMC3     O13927   3.787   1.241  13.020  0.3075 -0.2889 -0.0749
    8TMC3     H13928   3.982   0.943  13.199 -1.8284 -0.1954  0.0361
    8TMC3    H113929   3.855   1.122  12.840 -0.1459 -0.1797 -0.0166
    8TMC3    H213930   4.271   1.146  12.945 -0.9664  1.9143 -1.0300
    8TMC3    C713931   4.075   1.251  12.782 -0.8532 -0.6793  0.0194
    8TMC3    C813932   4.240   1.016  13.166 -0.0233 -0.2064  0.3185
    8TMC3    O113933   4.181   1.270  12.724  0.3499 -0.3190  0.4329
    8TMC3    O213934   4.351   1.065  13.137  0.0941  0.5943  0.7030
    9TMC3    C113935   3.577   2.038  13.178 -0.2945  0.5481  0.6192
    9TMC3    C213936   3.639   2.025  13.057 -0.1196  0.1210 -0.1551
    9TMC3    C313937   3.717   1.914  13.036 -0.2499  0.8171  0.3718
    9TMC3    C413938   3.601   1.950  13.279  1.0135 -0.5562 -0.1326
    9TMC3    C513939   3.674   1.837  13.252  0.5090 -0.2557 -0.0599
    9TMC3    C613940   3.736   1.813  13.128 -1.1374  0.5935 -0.3151
    9TMC3     C13941   3.527   2.168  13.216 -0.2284 -0.1488  0.2321
    9TMC3     O13942   3.582   2.258  13.158  0.1211  0.4531 -0.5196
    9TMC3     H13943   3.629   2.094  12.974 -1.1321 -0.6165 -0.6529
    9TMC3    H113944   3.550   1.964  13.373 -0.5558 -0.5698 -0.9815
    9TMC3    H213945   3.826   1.752  13.124 -2.5823 -1.7051  2.0049
    9TMC3    C713946   3.659   1.728  13.344 -0.0784 -0.1161  0.0403
    9TMC3    C813947   3.758   1.888  12.898  0.4221  0.2388 -0.1361
    9TMC3    O113948   3.620   1.742  13.455  0.5586  0.7348 -0.7298
    9TMC3    O213949   3.789   1.979  12.824 -0.6293 -0.3677  0.3144
   10MPD2     C13950   4.034   1.534  12.655  0.3618 -0.1589  0.4580
   10MPD2    C113951   3.955   1.469  12.744 -0.4201 -0.9874 -0.3076
   10MPD2    C213952   3.861   1.536  12.813 -0.2744 -0.0313  0.0068
   10MPD2    C313953   3.854   1.677  12.804 -0.7555  0.1216  0.0306
   10MPD2    C413954   3.926   1.746  12.706  0.4248 -0.1981 -0.2277
   10MPD2    C513955   4.015   1.664  12.631 -0.2472 -0.0527 -0.3905
   10MPD2     H13956   3.814   1.491  12.899 -0.2263 -2.2865 -1.1559
   10MPD2    H113957   3.922   1.849  12.674  0.5715 -0.2492 -0.4115
   10MPD2    H213958   4.117   1.488  12.601  1.8029  1.2644  1.4527
   10MPD2    H313959   4.072   1.711  12.552  1.1121 -1.3330 -0.1896
   10MPD2     N13960   3.758   1.747  12.885  0.2392 -0.0931  0.3659
   10MPD2    H513961   3.696   1.689  12.940 -1.2302  1.0161 -0.1116
   10MPD2    N113962   3.975   1.340  12.801 -0.5854 -0.2865  0.6190
   10MPD2    H713963   3.910   1.315  12.876  0.0224 -0.8197  0.9627
   11MPD2     C13964   0.708   0.421  14.029 -0.1205  0.7724 -0.0977
   11MPD2    C113965   0.571   0.411  14.040 -0.1187 -0.2457  0.0144
   11MPD2    C213966   0.499   0.476  13.941 -0.3714 -0.7127  0.3608
   11MPD2    C313967   0.556   0.541  13.833 -0.3998 -0.7475  0.2480
   11MPD2    C413968   0.688   0.554  13.831 -0.4687 -0.5735 -0.2425
   11MPD2    C513969   0.769   0.498  13.933  0.1445 -0.5220 -0.6689
   11MPD2     H13970   0.392   0.468  13.958 -0.2486 -0.4056  1.2690
   11MPD2    H113971   0.747   0.625  13.774  0.7332 -1.3918 -0.0075
   11MPD2    H213972   0.772   0.385  14.109 -1.5949  1.9363  1.6163
   11MPD2    H313973   0.877   0.499  13.930  0.1130  1.1520 -1.0355
   11MPD2     N13974   0.483   0.622  13.748  0.1086 -0.0635  0.3227
   11MPD2    H513975   0.531   0.682  13.682  0.3244  0.9256  1.3873
   11MPD2    N113976   0.501   0.330  14.125  0.1474  0.6416  0.1633
   11MPD2    H713977   0.402   0.314  14.110 -0.0244  2.0583 -0.1404
    1MPD1     C13978   2.423   2.541  16.376  0.3006  0.0858 -0.0719
    1MPD1    C113979   2.418   2.421  16.444  0.2467 -0.4127  0.3191
    1MPD1    C213980   2.523   2.331  16.425 -0.5911  0.3529  0.6449
    1MPD1    C313981   2.627   2.361  16.332 -0.3737  0.6567 -0.2592
    1MPD1    C413982   2.628   2.482  16.264 -0.1729  0.8673  0.9866
    1MPD1    C513983   2.522   2.568  16.290  0.6931 -1.4384 -0.9555
    1MPD1     H13984   2.518   2.235  16.474 -1.4801 -0.9710 -2.0573
    1MPD1    H113985   2.715   2.511  16.207 -1.4654  1.1863 -0.8174
    1MPD1    H213986   2.346   2.614  16.395 -1.4910 -1.9765  0.6648
    1MPD1    H313987   2.526   2.662  16.235  2.0668 -1.4776 -0.9278
    1MPD1     N13988   2.748   2.285  16.324  0.2751  0.0530  0.4422
    1MPD1    H513989   2.818   2.318  16.258 -0.3969 -1.8068 -1.1887
    1MPD1    N113990   2.332   2.406  16.553 -0.1411 -0.3642 -0.0944
    1MPD1    H613991   2.297   2.311  16.564 -1.0865 -0.5693 -4.7674
    1MPD1    H713992   2.256   2.473  16.551 -0.6418 -0.9616 -1.4720
    2MPD1     C13993   2.905   1.387  16.725  0.2352 -0.6607  0.0611
    2MPD1    C113994   2.797   1.467  16.721  0.3264  0.1533 -0.2824
    2MPD1    C213995   2.809   1.584  16.658 -0.7909 -0.1808 -0.2170
    2MPD1    C313996   2.927   1.619  16.605  1.0975  0.1545  0.2124
    2MPD1    C413997   3.041   1.541  16.615 -0.1350 -0.2786  0.0512
    2MPD1    C513998   3.028   1.426  16.677  0.4960  0.0507 -0.8276
    2MPD1     H13999   2.724   1.650  16.647 -0.4124  0.6264  1.6505
    2MPD1    H114000   3.140   1.573  16.583  0.1589 -1.5096 -0.2713
    2MPD1    H214001   2.906   1.297  16.785  2.8440  0.5037  1.7993
    2MPD1    H314002   3.122   1.375  16.692  0.0769 -1.0627 -2.0024
    2MPD1     N14003   2.930   1.734  16.519  0.0336  0.7571  0.1423
    2MPD1    H514004   2.855   1.800  16.536 -0.7017  0.0338 -0.3279
    2MPD1    N114005   2.678   1.442  16.792 -0.1174 -0.0442  0.1235
    2MPD1    H614006   2.597   1.475  16.740  0.0855  0.5237  0.1676
    2MPD1    H714007   2.656   1.344  16.814 -0.0599  0.5101  2.7012
    3TMC3    C114008   2.996   1.892  16.359  0.1093  1.0591 -0.3550
    3TMC3    C214009   3.102   1.949  16.290  0.3487  0.7156  0.2029
    3TMC3    C314010   3.098   2.085  16.274  0.0998  0.1150  0.0173
    3TMC3    C414011   2.886   1.967  16.388 -0.1436 -0.7795 -0.0895
    3TMC3    C514012   2.886   2.098  16.360 -0.8242  0.1924 -0.9319
    3TMC3    C614013   2.996   2.164  16.311  0.1989  0.3583 -0.4423
    3TMC3     C14014   3.022   1.763  16.428  0.5749 -0.1927  0.0342
    3TMC3     O14015   3.122   1.700  16.393 -0.1782 -0.0602  0.5645
    3TMC3     H14016   3.180   1.884  16.252  1.3731  2.2416 -0.2776
    3TMC3    H114017   2.795   1.920  16.423 -0.3655 -0.7998 -0.7013
    3TMC3    H214018   2.983   2.270  16.293  1.4637  0.5658 -0.1040
    3TMC3    C714019   2.768   2.168  16.400 -0.1949  0.0767 -0.1778
    3TMC3    C814020   3.222   2.152  16.237  0.7536 -0.6665 -0.1316
    3TMC3    O114021   2.704   2.126  16.497 -0.1668  0.4074 -0.2732
    3TMC3    O214022   3.217   2.273  16.215  0.1440 -0.0012  0.4984
    4MPD1     C14023   3.718   2.192  16.073 -0.1589  0.5442 -0.1793
    4MPD1    C114024   3.679   2.060  16.057 -0.3556 -0.6111 -0.1840
    4MPD1    C214025   3.553   2.020  16.110  0.0255  0.3627  0.0644
    4MPD1    C314026   3.462   2.104  16.172 -0.3124 -0.7350 -0.8143
    4MPD1    C414027   3.513   2.229  16.190 -0.0443  0.4086 -0.6269
    4MPD1    C514028   3.632   2.272  16.142  0.1173 -0.1387 -0.8461
    4MPD1     H14029   3.537   1.915  16.087  0.2017  0.1808  0.7844
    4MPD1    H114030   3.441   2.303  16.225 -1.3914 -0.3331 -1.8038
    4MPD1    H214031   3.813   2.236  16.044 -1.1663  1.7437 -1.6592
    4MPD1    H314032   3.659   2.377  16.146 -1.0120  0.0528  1.8620
    4MPD1     N14033   3.325   2.069  16.198  0.3261 -0.4419 -0.5444
    4MPD1    H514034   3.308   1.969  16.193  0.9876 -0.6185  0.8471
    4MPD1    N114035   3.765   1.978  15.974  0.3417 -0.5679  0.2979
    4MPD1    H614036   3.807   2.022  15.892  0.6736 -0.9442  0.2717
    4MPD1    H714037   3.742   1.879  15.967  0.6948 -0.6806  0.7672
    1TCq1    O114038   3.429   0.650  11.451  0.4248  0.0558  0.1005
    1TCq1    C114039   3.549   0.624  11.394 -0.7762  0.2653 -0.0949
    1TCq1    O214040   3.563   0.561  11.291  0.4304  0.2252 -0.0036
    1TCq1    C214041   3.654   0.683  11.480 -0.4623  0.0949 -1.1685
    1TCq1    C314042   3.630   0.776  11.580  0.1541 -0.0708  0.0485
    1TCq1    C414043   3.740   0.828  11.645  0.7074  0.3391 -0.2275
    1TCq1    C514044   3.866   0.808  11.594  0.3786  0.5069 -1.6962
    1TCq1    C614045   3.891   0.706  11.507  0.7482 -0.1584 -0.7172
    1TCq1    C714046   3.783   0.649  11.442  0.2645 -0.6529 -0.0295
    1TCq1    C814047   4.023   0.669  11.456  0.0814 -0.3280  0.2856
    1TCq1    O414048   4.032   0.583  11.363 -0.2041  0.6157  0.5011
    1TCq1    C914049   3.731   0.941  11.731 -0.7906  0.8699 -0.6541
    1TCq1    O514050   3.840   0.974  11.790 -0.4332 -0.2289  0.1154
    1TCq1    O614051   3.623   0.998  11.763  0.1950  0.5651 -0.2356
    1TCq1    H114052   3.430   0.689  11.541 -3.8574 -0.1960  0.2456
    1TCq1    H214053   3.531   0.819  11.589 -0.0824 -0.3869 -1.0960
    1TCq1    H314054   3.944   0.874  11.630  0.7967 -1.1220  0.3839
    1TCq1    H414055   3.802   0.573  11.367  1.8837  0.5433 -0.8522
    2MPD1     C14056   4.523   0.648  11.537  0.1909  0.8842  0.2342
    2MPD1    C114057   4.460   0.690  11.653  0.2270  0.1813  0.4092
    2MPD1    C214058   4.326   0.709  11.647 -0.1885  0.3003 -0.2395
    2MPD1    C314059   4.254   0.679  11.537  0.2413 -0.0335  0.4055
    2MPD1    C414060   4.316   0.637  11.424  1.0700  0.5951  0.1139
    2MPD1    C514061   4.451   0.605  11.431  0.0283 -0.1138 -0.0064
    2MPD1     H14062   4.280   0.741  11.740  0.4702  0.9256 -0.1261
    2MPD1    H114063   4.258   0.615  11.335 -0.7746 -0.2240  1.4912
    2MPD1    H214064   4.631   0.642  11.532  0.0292 -2.2073  0.9704
    2MPD1    H314065   4.494   0.566  11.340 -3.3012 -0.5930 -1.3987
    2MPD1     N14066   4.117   0.711  11.539  0.4840 -0.4778  1.1495
    2MPD1    H514067   4.090   0.757  11.625 -3.7501  1.0059 -0.9772
    2MPD1    N114068   4.534   0.754  11.758  0.2012  0.3321 -0.1119
    2MPD1    H614069   4.475   0.761  11.840  2.1254 -0.7406  1.3689
    2MPD1    H714070   4.626   0.721  11.785  1.1558  3.0949  0.0045
    1TCq1    O114071   4.449   4.354   9.651 -0.4223  0.5255  0.0112
    1TCq1    C114072   4.483   4.385   9.527 -0.1309 -0.2860 -0.9959
    1TCq1    O214073   4.544   4.483   9.490  0.0172  0.0655 -0.2053
    1TCq1    C214074   4.412   4.301   9.431  0.0057  0.4475 -0.2701
    1TCq1    C314075   4.418   4.353   9.303 -0.1492  0.2625 -0.0131
    1TCq1    C414076   4.337   4.299   9.207 -0.1662  0.3399  0.8596
    1TCq1    C514077   4.271   4.179   9.228 -0.0407 -0.5749  0.1059
    1TCq1    C614078   4.263   4.131   9.361 -0.5364  0.5649 -0.3146
    1TCq1    C714079   4.335   4.193   9.460 -0.1090  0.2454 -0.3080
    1TCq1    C814080   4.163   4.033   9.394 -0.0840 -0.4301  0.1920
    1TCq1    O414081   4.153   3.998   9.511 -0.5238  0.2171  0.1473
    1TCq1    C914082   4.375   4.329   9.069  1.2839 -0.0101  0.2982
    1TCq1    O514083   4.466   4.412   9.052  0.1324 -0.3092 -0.4424
    1TCq1    O614084   4.296   4.285   8.976 -0.6666 -0.0764  0.5541
    1TCq1    H114085   4.373   4.292   9.655 -0.5755  0.6682 -0.6921
    1TCq1    H214086   4.466   4.447   9.278 -1.4029  0.2845 -2.3890
    1TCq1    H314087   4.238   4.126   9.140 -0.5054 -0.3164  0.1248
    1TCq1    H414088   4.340   4.141   9.555  1.1681  3.0745  1.1686
    2MPD1     C14089   3.835   3.659   9.251  0.2916  0.2834  0.1899
    2MPD1    C114090   3.919   3.684   9.150  0.4152  0.3200 -0.1813
    2MPD1    C214091   4.004   3.794   9.163 -0.6965  0.4364 -0.0397
    2MPD1    C314092   4.015   3.860   9.284  0.5271 -0.5637 -0.3523
    2MPD1    C414093   3.942   3.819   9.396 -0.4204 -0.0187 -0.9855
    2MPD1    C514094   3.851   3.718   9.377  0.0953 -0.7111  0.1192
    2MPD1     H14095   4.073   3.818   9.083  0.6925  0.0716  1.0586
    2MPD1    H114096   3.946   3.861   9.496 -2.5812 -0.7251 -0.6047
    2MPD1    H214097   3.762   3.580   9.239  1.7900 -1.3827  2.0003
    2MPD1    H314098   3.789   3.686   9.460 -2.0775 -0.4300 -1.3878
    2MPD1     N14099   4.115   3.969   9.285  0.5776  0.4803  0.3811
    2MPD1    H514100   4.147   3.994   9.193 -2.0594  0.0767 -0.6519
    2MPD1    N114101   3.894   3.626   9.026 -0.2183  0.2096  0.0079
    2MPD1    H614102   3.862   3.530   9.033  1.1793 -0.2775 -0.2478
    2MPD1    H714103   3.978   3.618   8.968  0.7033 -1.7358  1.6256
    1MPD1     C14104   0.834   1.293  12.335  0.7127  0.6661  0.2758
    1MPD1    C114105   0.764   1.388  12.401 -0.3732 -0.7570 -0.0932
    1MPD1    C214106   0.814   1.513  12.386  0.7324  0.7012 -0.3854
    1MPD1    C314107   0.909   1.550  12.301 -0.7419  0.2956 -0.2202
    1MPD1    C414108   0.965   1.453  12.219  0.7301 -0.1525 -0.7825
    1MPD1    C514109   0.933   1.319  12.244 -0.3939 -0.6659 -0.4388
    1MPD1     H14110   0.773   1.588  12.454 -0.0122 -1.9249  2.0516
    1MPD1    H114111   1.043   1.481  12.149  1.2682  0.0722 -0.0965
    1MPD1    H214112   0.812   1.189  12.354  1.1365  0.1686 -1.9699
    1MPD1    H314113   0.991   1.239  12.199 -2.4073 -2.0965 -0.4962
    1MPD1     N14114   0.942   1.688  12.305  0.3347 -0.4969  0.8862
    1MPD1    H514115   0.894   1.745  12.374 -1.4316 -0.8049 -0.0851
    1MPD1    N114116   0.681   1.351  12.511  0.2521  0.0683  0.1747
    1MPD1    H614117   0.633   1.262  12.498 -0.5854  0.4527  0.6625
    1MPD1    H714118   0.605   1.416  12.530 -1.3757 -1.9414  0.5612
    2MPD1     C14119   0.005   2.042  11.775  0.4994 -0.5832 -0.1201
    2MPD1    C114120   0.014   1.911  11.743  0.0273 -0.1532  0.2064
    2MPD1    C214121   0.027   1.880  11.611 -0.0222  0.0614 -0.5046
    2MPD1    C314122   0.053   1.980  11.516  0.0126  0.1814  0.9399
    2MPD1    C414123   0.036   2.113  11.551 -0.9613 -0.4180 -0.4989
    2MPD1    C514124   0.019   2.140  11.676 -0.4638 -0.0449 -0.2521
    2MPD1     H14125   0.044   1.779  11.577 -2.0995 -0.2836 -0.5239
    2MPD1    H114126   0.061   2.189  11.478  0.2187  0.0096  0.3648
    2MPD1    H214127   0.007   2.064  11.882 -2.0260 -0.0501 -0.1809
    2MPD1    H314128   0.038   2.237  11.719 -0.7810  0.0975 -0.4341
    2MPD1     N14129   0.085   1.959  11.376  0.1522 -0.4042  0.2789
    2MPD1    H514130   0.083   2.042  11.318  1.3284 -0.1081  0.6774
    2MPD1    N114131   0.002   1.811  11.837  0.5596  0.6322 -0.1644
    2MPD1    H614132   0.060   1.732  11.812  1.6221  0.5548  2.5440
    2MPD1    H714133   0.047   1.832  11.926  1.8078  1.8437 -1.0733
    3MPD1     C14134   0.023   1.139  10.817 -0.1152  0.1915  0.2993
    3MPD1    C114135   0.037   1.160  10.951  0.1560  0.0736 -0.1260
    3MPD1    C214136   0.099   1.276  10.997 -0.1609 -0.6597 -0.1482
    3MPD1    C314137   0.134   1.376  10.903  0.2388 -0.4881  0.2382
    3MPD1    C414138   0.123   1.355  10.764  0.4938  0.8366 -0.3738
    3MPD1    C514139   0.064   1.238  10.729  0.3431  0.3277 -0.8870
    3MPD1     H14140   0.109   1.302  11.101  1.3579 -0.0668 -0.4442
    3MPD1    H114141   0.144   1.424  10.683 -0.7460  0.2278 -1.2171
    3MPD1    H214142   4.713   1.049  10.767  2.2695 -0.8931  0.6475
    3MPD1    H314143   0.040   1.222  10.624 -0.5190 -1.6665 -0.3901
    3MPD1     N14144   0.161   1.508  10.958  0.1888 -0.7920 -0.1814
    3MPD1    H514145   0.183   1.518  11.057  1.6330 -3.7521 -0.2242
    3MPD1    N114146   0.009   1.055  11.036 -0.1102  0.5518  0.4239
    3MPD1    H614147   4.697   1.092  11.124  0.5462  1.3063  0.3780
    3MPD1    H714148   4.665   0.987  11.002  0.3392 -0.7330  2.1274
    4MPD2     C14149   0.613   2.236  12.031  0.2421  0.4861 -0.1897
    4MPD2    C114150   0.747   2.252  12.009 -0.0422 -0.4439 -0.6956
    4MPD2    C214151   0.798   2.307  11.896 -0.7429 -0.2834 -0.1549
    4MPD2    C314152   0.714   2.348  11.796 -0.2360 -0.2065 -0.0381
    4MPD2    C414153   0.579   2.325  11.811 -0.0693 -0.9621  0.0875
    4MPD2    C514154   0.532   2.272  11.926  0.6377  0.8962  0.0519
    4MPD2     H14155   0.906   2.315  11.892 -0.8304  0.4492 -0.9060
    4MPD2    H114156   0.506   2.343  11.733 -1.3713  0.7246  1.6982
    4MPD2    H214157   0.559   2.201  12.118  1.4502 -1.5969 -0.2702
    4MPD2    H314158   0.426   2.273  11.949  1.0151  2.5194  1.6969
    4MPD2     N14159   0.773   2.405  11.680  0.2858  0.0516 -0.9116
    4MPD2    H514160   0.870   2.376  11.676 -0.0889 -1.2325 -0.8056
    4MPD2    N114161   0.849   2.214  12.104  0.5221  0.3783  0.5196
    4MPD2    H714162   0.946   2.236  12.085 -0.3246  2.3466 -1.5316
    5TMC3    C114163   0.942   2.095  12.278  0.8243  0.1084  0.9421
    5TMC3    C214164   0.935   1.960  12.290 -0.2152 -0.6316 -0.1626
    5TMC3    C314165   1.043   1.888  12.241 -0.3854  0.7171  0.1261
    5TMC3    C414166   1.051   2.160  12.227  0.3483 -0.3640  0.2865
    5TMC3    C514167   1.149   2.088  12.157 -0.4877  0.1556 -0.4763
    5TMC3    C614168   1.146   1.955  12.172 -0.2939 -0.6454  0.2576
    5TMC3     C14169   0.821   2.148  12.217 -0.2873  0.2068 -0.8590
    5TMC3     O14170   0.726   2.087  12.256 -0.3634 -0.1212 -0.0394
    5TMC3     H14171   0.850   1.917  12.340 -0.0682  0.3023  0.8773
    5TMC3    H114172   1.044   2.268  12.229 -0.1481 -0.3590 -2.7556
    5TMC3    H214173   1.219   1.899  12.114 -0.0604  0.8834 -0.9437
    5TMC3    C714174   1.174   2.136  12.020 -0.1336  0.8120 -0.1860
    5TMC3    C814175   1.042   1.748  12.228  0.4981  0.0011 -0.4660
    5TMC3    O114176   1.111   2.232  11.990 -0.1527  0.0270  0.2444
    5TMC3    O214177   1.132   1.695  12.164 -0.0228 -0.3764 -0.3186
    6TMC3    C114178   0.143   1.847  11.174 -0.1163 -0.1578  0.2198
    6TMC3    C214179   0.133   1.735  11.100 -0.3945  0.1438 -0.6584
    6TMC3    C314180   0.174   1.735  10.970 -0.6449  0.4495 -0.3175
    6TMC3    C414181   0.191   1.963  11.125  0.2265 -0.2095  0.1195
    6TMC3    C514182   0.240   1.956  10.998 -0.2917 -0.3325  0.2276
    6TMC3    C614183   0.217   1.847  10.916 -0.3193  0.7948  0.5435
    6TMC3     C14184   0.119   1.840  11.323 -0.4248  0.1407  0.2455
    6TMC3     O14185   0.109   1.727  11.369 -0.0117  0.2798  0.2673
    6TMC3     H14186   0.074   1.654  11.142  0.6708 -2.0794 -3.4021
    6TMC3    H114187   0.208   2.049  11.188  0.5208 -0.5642  0.5228
    6TMC3    H214188   0.246   1.860  10.813  2.3619  0.0708  1.2114
    6TMC3    C714189   0.366   2.029  10.985  0.2571  0.7042  0.5353
    6TMC3    C814190   0.169   1.621  10.885 -0.1651  0.1889  0.3162
    6TMC3    O114191   0.372   2.132  11.047  0.0151  0.2270 -0.5236
    6TMC3    O214192   0.158   1.637  10.765 -0.2289 -0.7914  0.6299
    7MPD2     C14193   1.262   2.031  11.520 -0.0335 -0.1228 -0.4064
    7MPD2    C114194   1.210   2.147  11.576 -0.0247  1.0937  0.4622
    7MPD2    C214195   1.199   2.164  11.718  0.1280 -1.0426 -0.5516
    7MPD2    C314196   1.257   2.062  11.794  0.0979 -0.0763 -0.3376
    7MPD2    C414197   1.315   1.951  11.736 -0.2339  0.9290 -0.0898
    7MPD2    C514198   1.310   1.930  11.601 -0.2766  0.2713 -0.5768
    7MPD2     H14199   1.160   2.254  11.763  2.7298 -0.6397  0.9209
    7MPD2    H114200   1.361   1.875  11.798 -1.9829  1.3148  1.6461
    7MPD2    H214201   1.280   2.030  11.413 -2.2365  0.1124 -0.7725
    7MPD2    H314202   1.367   1.845  11.564 -1.0515 -0.3774 -0.2698
    7MPD2     N14203   1.251   2.057  11.938 -0.2679  0.2713 -0.0683
    7MPD2    H514204   1.311   1.982  11.972 -0.4815  1.5603  3.1233
    7MPD2    N114205   1.157   2.245  11.491  0.4800  0.1732 -0.0885
    7MPD2    H714206   1.139   2.201  11.401 -0.0870  0.4879 -0.1310
    8TMC3    C114207   1.007   2.427  11.429  0.4460  0.0335 -0.2628
    8TMC3    C214208   0.963   2.358  11.319 -0.4227  0.3947 -0.5135
    8TMC3    C314209   0.833   2.374  11.284  0.2628  0.9720  0.0052
    8TMC3    C414210   0.918   2.507  11.502 -0.4576 -0.5717 -0.6114
    8TMC3    C514211   0.787   2.492  11.472  0.1239  0.0518 -0.7746
    8TMC3    C614212   0.743   2.443  11.357  0.8153  0.4514 -0.2386
    8TMC3     C14213   1.114   2.373  11.515 -0.3886  0.1470 -0.3483
    8TMC3     O14214   1.147   2.438  11.610  0.4153 -0.0805 -0.1106
    8TMC3     H14215   1.034   2.309  11.254 -0.1557  1.8559 -1.3394
    8TMC3    H114216   0.944   2.555  11.595 -0.3868  1.0931 -1.4849
    8TMC3    H214217   0.639   2.426  11.334  0.4169  1.2716  0.9799
    8TMC3    C714218   0.707   2.460  11.576  0.9008  1.0551 -0.1283
    8TMC3    C814219   0.771   2.298  11.173 -0.0627 -0.2500  0.1006
    8TMC3    O114220   0.589   2.467  11.560 -0.3955 -0.0644  0.1106
    8TMC3    O214221   0.673   2.353  11.123  0.0902 -0.3614 -0.7500
    9MPD2     C14222   0.880   1.990  11.013 -0.0807  0.3309  0.3409
    9MPD2    C114223   0.788   2.082  11.056  0.0707 -0.4331 -0.1630
    9MPD2    C214224   0.654   2.077  11.027  0.5342  1.3123 -0.3844
    9MPD2    C314225   0.607   1.966  10.965 -1.0200 -0.2350 -0.1373
    9MPD2    C414226   0.694   1.874  10.915  0.3189  0.3765 -0.0884
    9MPD2    C514227   0.829   1.885  10.936 -0.4781  0.0083  0.5292
    9MPD2     H14228   0.590   2.160  11.055 -0.3212  0.6416 -0.3616
    9MPD2    H114229   0.665   1.782  10.865 -1.5554  1.6177 -1.2917
    9MPD2    H214230   0.988   1.993  11.025  0.1054  0.3278 -1.2859
    9MPD2    H314231   0.888   1.803  10.897 -1.5523 -0.8740  0.7671
    9MPD2     N14232   0.466   1.949  10.942 -0.4242  0.4177  0.2491
    9MPD2    H514233   0.433   1.865  10.896  1.2474  0.7583 -1.6016
    9MPD2    N114234   0.836   2.182  11.146 -0.9135  0.5309  0.3529
    9MPD2    H714235   0.923   2.163  11.194 -1.8537 -1.8852  1.0924
    1MPD1     C14236   2.926   3.771  17.283  0.5246  0.0230 -0.5467
    1MPD1    C114237   2.882   3.870  17.369 -0.2350 -0.2512  0.5245
    1MPD1    C214238   2.822   3.985  17.322 -0.7149  0.4451  0.8268
    1MPD1    C314239   2.796   4.005  17.186  0.2740 -0.3708 -0.4722
    1MPD1    C414240   2.852   3.907  17.107  0.4628  1.0861 -0.0707
    1MPD1    C514241   2.916   3.798  17.150  0.0013 -0.4276 -0.1720
    1MPD1     H14242   2.803   4.064  17.394 -0.1753  0.4256  0.9930
    1MPD1    H114243   2.832   3.916  17.001  1.6331 -0.8052 -0.4601
    1MPD1    H214244   2.977   3.680  17.312  2.5349  1.3180 -0.0487
    1MPD1    H314245   2.951   3.725  17.077  1.2377  1.7679 -1.7986
    1MPD1     N14246   2.741   4.123  17.131  0.3704  0.2974  0.5867
    1MPD1    H514247   2.761   4.133  17.032 -0.2568  1.4026  0.5697
    1MPD1    N114248   2.893   3.852  17.506 -0.2481  0.0044  0.6206
    1MPD1    H614249   2.900   3.943  17.552 -0.2577  0.0799  0.4708
    1MPD1    H714250   2.977   3.798  17.528 -0.0977  0.3087  0.7905
    2MPD1     C14251   2.208   0.215  17.483 -0.1660 -0.1203  0.0529
    2MPD1    C114252   2.259   0.103  17.547 -0.2669  0.0531 -0.2588
    2MPD1    C214253   2.323   0.007  17.471 -0.1719 -0.8920  0.4181
    2MPD1    C314254   2.358   0.028  17.339 -0.3311 -1.1600  0.5062
    2MPD1    C414255   2.315   0.145  17.280 -0.9551  0.5056 -0.5106
    2MPD1    C514256   2.242   0.236  17.352  0.5072  0.0194  0.0188
    2MPD1     H14257   2.358   4.641  17.520 -0.7606 -0.6486  1.2719
    2MPD1    H114258   2.341   0.173  17.178  1.9705 -2.0141 -0.4459
    2MPD1    H214259   2.148   0.291  17.532 -0.9320  0.0610 -1.1646
    2MPD1    H314260   2.210   0.325  17.300  1.1614  1.3802  1.9242
    2MPD1     N14261   2.430   4.650  17.267 -0.0414  0.0508 -0.2018
    2MPD1    H514262   2.436   4.558  17.309  1.0851 -0.1431 -0.8196
    2MPD1    N114263   2.220   0.069  17.682  0.5615 -0.6045 -0.0533
    2MPD1    H614264   2.198   0.151   0.042 -1.4848 -1.6070  0.5648
    2MPD1    H714265   2.275   0.005   0.042  0.4223 -1.9781 -1.4735
    3TCq2    C114266   2.483   4.664  17.138 -0.1051 -0.2815  0.2382
    3TCq2    O214267   2.489   0.040  17.065  0.7543  0.5895 -0.2256
    3TCq2    C214268   2.552   4.545  17.081  0.0108 -0.0394  0.0239
    3TCq2    C314269   2.549   4.520  16.944  0.2201 -0.6287  0.7399
    3TCq2    C414270   2.582   4.395  16.893  0.3044 -0.1357 -0.3594
    3TCq2    C514271   2.604   4.292  16.977  0.0311 -0.5700  0.0474
    3TCq2    C614272   2.608   4.316  17.111 -0.2569 -0.4517 -0.1175
    3TCq2    C714273   2.578   4.435  17.164  0.0999 -0.4722 -0.1335
    3TCq2    C814274   2.666   4.219  17.203  0.7871  0.5045  0.1834
    3TCq2    O414275   2.647   4.238  17.324 -0.2653  0.1025 -0.1393
    3TCq2    C914276   2.587   4.366  16.750  0.6037 -0.1849 -0.1445
    3TCq2    O514277   2.599   4.243  16.714 -0.1860 -0.6789 -0.1538
    3TCq2    O614278   2.534   4.455  16.675 -0.0579  0.5062 -0.1774
    3TCq2    H214279   2.511   4.603  16.886  0.0169 -0.1686  1.5229
    3TCq2    H314280   2.599   4.188  16.944  0.5054 -0.7487  0.5377
    3TCq2    H414281   2.597   4.460  17.268 -0.4965  0.6741 -0.2957
    1TCq1    O114282   3.723   4.235  12.760  0.3812 -0.0085  0.3891
    1TCq1    C114283   3.718   4.111  12.801 -0.4755  0.9977 -0.8302
    1TCq1    O214284   3.619   4.068  12.857  0.1550  0.5473 -0.2223
    1TCq1    C214285   3.851   4.067  12.826  1.0938 -0.1169  0.2253
    1TCq1    C314286   3.854   3.954  12.897  0.1154  0.1232 -0.3515
    1TCq1    C414287   3.956   3.938  12.985  0.3610  0.0140  0.4001
    1TCq1    C514288   4.061   4.020  12.990  0.3873 -0.1118  0.6146
    1TCq1    C614289   4.060   4.137  12.916 -0.7093 -0.0903 -0.1471
    1TCq1    C714290   3.954   4.154  12.838 -0.5254  0.0589 -0.5358
    1TCq1    C814291   4.155   4.245  12.928 -0.1102 -0.0420  0.6459
    1TCq1    O414292   4.143   4.348  12.866 -0.5018 -0.5394 -0.4651
    1TCq1    C914293   3.948   3.831  13.079 -0.4879 -0.3307 -0.8836
    1TCq1    O514294   3.834   3.792  13.102 -0.3180 -0.2562 -0.2925
    1TCq1    O614295   4.052   3.801  13.139  0.0751  0.4266 -0.5118
    1TCq1    H114296   3.788   4.248  12.688  0.7354  1.5544  0.9768
    1TCq1    H214297   3.769   3.890  12.875  1.3722 -1.2611 -1.2322
    1TCq1    H314298   4.139   4.022  13.066 -0.7604 -0.9383  1.8305
    1TCq1    H414299   3.963   4.244  12.779 -2.9574  0.6089 -0.0529
    2MPD2     C14300   4.402   4.408  13.010 -0.0404 -0.2697  1.1828
    2MPD2    C114301   4.383   4.279  13.043  0.1914 -0.2826  0.0493
    2MPD2    C214302   4.475   4.209  13.127 -0.7200  0.7591  0.0209
    2MPD2    C314303   4.581   4.282  13.178  0.3923  0.7418 -0.3395
    2MPD2    C414304   4.596   4.408  13.142  0.1444 -0.1557 -0.0088
    2MPD2    C514305   4.509   4.475  13.064  0.4777 -0.0281  0.0161
    2MPD2     H14306   4.472   4.102  13.147  2.4631  0.3965 -1.3806
    2MPD2    H114307   4.673   4.471  13.185 -0.3041  1.7388 -1.9698
    2MPD2    H214308   4.338   4.458  12.938  0.8880  1.7155  1.7523
    2MPD2    H314309   4.525   4.577  13.030 -1.3012 -0.3931 -1.9211
    2MPD2     N14310   4.673   4.214  13.261 -0.0376  0.3708  0.0272
    2MPD2    H514311   4.655   4.119  13.291  0.4905  0.2927  0.0910
    2MPD2    N114312   4.275   4.203  12.995  0.1421 -0.3044  0.4130
    2MPD2    H714313   4.282   4.102  13.008  0.5116 -0.3795 -0.3887
    3TCq1    O114314   0.325   4.376  13.727 -0.4468  0.3212  0.2514
    3TCq1    C114315   0.280   4.258  13.743  0.0901  0.5454 -0.2411
    3TCq1    O214316   0.251   4.206  13.848 -0.3597  0.7235  0.8475
    3TCq1    C214317   0.232   4.195  13.618  0.6375  0.6810 -0.3323
    3TCq1    C314318   0.217   4.058  13.621 -0.4824 -0.0618 -0.9596
    3TCq1    C414319   0.150   3.986  13.525  0.1447 -0.4842  0.2025
    3TCq1    C514320   0.103   4.055  13.419 -0.5595  0.5612 -0.9863
    3TCq1    C614321   0.130   4.189  13.409 -0.4849  0.1435  0.1196
    3TCq1    C714322   0.200   4.261  13.505 -0.2522 -0.2079  0.9048
    3TCq1    C814323   0.071   4.255  13.297 -0.2026  0.5104  0.6753
    3TCq1    O414324   0.129   4.356  13.267  0.6821  0.3672 -0.1393
    3TCq1    C914325   0.131   3.847  13.537  0.0366  0.0566 -0.3057
    3TCq1    O514326   0.190   3.786  13.633  0.8991  0.7895  0.3855
    3TCq1    O614327   0.046   3.804  13.457  0.4310  0.0492 -0.2553
    3TCq1    H114328   0.347   4.395  13.634  2.0245  0.1962  0.8117
    3TCq1    H214329   0.267   4.004  13.700 -0.0513  2.2754  0.3327
    3TCq1    H314330   0.054   3.997  13.342 -2.3179  0.8184 -0.0578
    3TCq1    H414331   0.235   4.362  13.487  0.3826 -0.7028 -0.6649
    1MPD2     C14332   3.181   0.602  15.147  0.2994 -0.4251 -0.3187
    1MPD2    C114333   3.122   0.487  15.104 -0.2201  0.3106 -0.0369
    1MPD2    C214334   3.172   0.420  14.998  0.0959  0.1633  0.3062
    1MPD2    C314335   3.280   0.457  14.925 -0.5807  0.0540  0.6507
    1MPD2    C414336   3.350   0.571  14.967  0.7790 -0.7347  0.2952
    1MPD2    C514337   3.295   0.646  15.078  0.1744 -0.7371  0.3107
    1MPD2     H14338   3.122   0.334  14.955 -0.2831  0.6493 -0.2326
    1MPD2    H114339   3.434   0.609  14.911  1.7727 -1.0358  1.6116
    1MPD2    H214340   3.140   0.658  15.230  1.0792  1.6842 -1.3654
    1MPD2    H314341   3.343   0.737  15.114  1.5617 -0.7074 -1.6121
    1MPD2     N14342   3.337   0.385  14.816 -0.1419 -0.2259 -0.0152
    1MPD2    H514343   3.431   0.417  14.799 -0.5770 -0.9693 -3.7593
    1MPD2    N114344   3.000   0.457  15.166  0.0759 -0.4504  0.1258
    1MPD2    H714345   2.965   0.531  15.226  2.3089  1.9246 -1.5072
    2TMC3    C114346   2.804   0.326  15.216  0.3722  0.4219 -0.2634
    2TMC3    C214347   2.758   0.196  15.215 -0.3824  0.1770 -0.2013
    2TMC3    C314348   2.637   0.180  15.157  0.0925 -0.0942 -0.1975
    2TMC3    C414349   2.723   0.433  15.201 -0.5623  0.3807  0.7332
    2TMC3    C514350   2.595   0.412  15.164 -0.0196  0.0200 -0.3197
    2TMC3    C614351   2.551   0.287  15.135 -0.4719  0.6213  0.2074
    2TMC3     C14352   2.926   0.336  15.139  0.1725 -0.1617  0.0620
    2TMC3     O14353   2.968   0.229  15.097 -0.2587 -0.0010 -0.5695
    2TMC3     H14354   2.817   0.115  15.256 -2.3392 -1.8728 -1.4149
    2TMC3    H114355   2.759   0.530  15.168  1.0792 -0.3350  0.4122
    2TMC3    H214356   2.458   0.278  15.080  0.8811  0.4470 -2.0379
    2TMC3    C714357   2.498   0.512  15.191 -0.2776  0.1621  0.2031
    2TMC3    C814358   2.635   0.076  15.044 -0.5239  0.1362 -0.3574
    2TMC3    O114359   2.381   0.485  15.164  0.0519  0.2810 -0.3602
    2TMC3    O214360   2.528   0.036  15.015  0.2873  0.0847 -0.1928
    3TCq1    O114361   2.676   1.586  15.881 -0.4907  0.5082 -0.2179
    3TCq1    C114362   2.600   1.474  15.898  0.1545  0.4360  0.2334
    3TCq1    O214363   2.500   1.460  15.965 -0.4626 -0.0459  0.0857
    3TCq1    C214364   2.655   1.380  15.804 -0.3398 -0.1592  0.2120
    3TCq1    C314365   2.794   1.364  15.783 -0.0602  0.0403 -0.2889
    3TCq1    C414366   2.837   1.262  15.699 -0.5832 -0.3144  0.4928
    3TCq1    C514367   2.755   1.205  15.609  0.9189 -0.0150  0.5237
    3TCq1    C614368   2.622   1.230  15.633 -0.1550 -1.2960 -0.4307
    3TCq1    C714369   2.568   1.300  15.732  0.3116 -0.0540 -0.0390
    3TCq1    C814370   2.518   1.160  15.555  0.0884  0.2470  0.8471
    3TCq1    O414371   2.404   1.202  15.550 -0.0919  0.0928 -0.3524
    3TCq1    C914372   2.977   1.252  15.687  0.5793 -0.2928  0.6726
    3TCq1    O514373   3.026   1.212  15.580 -0.8826  0.0986 -0.5826
    3TCq1    O614374   3.059   1.280  15.782  0.4676 -0.0371  0.0987
    3TCq1    H114375   2.739   1.571  15.807  1.1407 -1.8794  1.6496
    3TCq1    H214376   2.865   1.412  15.850 -0.4956 -1.1720  1.0315
    3TCq1    H314377   2.793   1.145  15.527 -1.8055  1.5958 -1.9191
    3TCq1    H414378   2.461   1.304  15.753  0.1389  1.1003 -1.1118
    4MPD2     C14379   2.358   0.973  15.378 -0.3302 -1.0507  0.2512
    4MPD2    C114380   2.492   0.956  15.408  0.3812  0.6219 -0.3978
    4MPD2    C214381   2.548   0.832  15.373  0.3176  0.5177 -0.1436
    4MPD2    C314382   2.482   0.738  15.294  0.3416 -0.2716 -0.2126
    4MPD2    C414383   2.352   0.765  15.253  0.1558 -0.4832 -0.3237
    4MPD2    C514384   2.298   0.886  15.291 -0.2376 -0.8704 -0.5288
    4MPD2     H14385   2.653   0.815  15.393  0.0066  0.8211  1.7860
    4MPD2    H114386   2.309   0.704  15.174 -3.0634 -0.4203  1.3975
    4MPD2    H214387   2.294   1.052  15.416  0.7137  1.3856 -3.0481
    4MPD2    H314388   2.204   0.915  15.245 -0.4424  0.1663  0.5416
    4MPD2     N14389   2.548   0.615  15.264  0.3443  0.4721  0.2205
    4MPD2    H514390   2.643   0.601  15.298  1.1730 -1.6546 -2.8984
    4MPD2    N114391   2.571   1.048  15.484  0.3299  0.4730 -0.1117
    4MPD2    H714392   2.663   1.017  15.512  0.1443  1.2568  1.4038
    5TMC2    C114393   3.289   4.714  14.597  0.3823 -0.0327  0.0155
    5TMC2    C214394   3.395   4.657  14.671  0.2260  0.1712  0.1453
    5TMC2    C314395   3.478   0.019  14.737 -0.5248 -0.2364 -0.5762
    5TMC2    C414396   3.276   0.121  14.581  0.4238  0.1481  0.6749
    5TMC2    C514397   3.347   0.206  14.665 -0.1941  0.5109 -0.1905
    5TMC2    C614398   3.458   0.157  14.735  0.1066 -0.4803 -0.6266
    5TMC2     C14399   3.166   4.678  14.672  0.1138  0.1783 -0.2258
    5TMC2     O14400   3.184   4.646  14.791 -0.2757 -0.5320  0.1611
    5TMC2     H14401   3.412   4.550  14.680 -1.2981 -0.0855  0.0028
    5TMC2    H114402   3.186   0.157  14.532 -1.2295 -1.2758  2.6565
    5TMC2    H214403   3.525   0.204  14.807  0.4820 -3.0814  0.7056
    5TMC2    C714404   3.265   0.299  14.735 -0.3175  0.3450  0.0781
    5TMC2    C814405   3.524   4.698  14.862 -0.1883 -0.3603 -0.3803
    5TMC2    O114406   3.145   0.280  14.717 -0.2492  0.6384 -0.1100
    5TMC2    O214407   3.623   0.016  14.923 -0.1679 -0.2999 -0.1569
    5TMC2    O514408   3.408   4.674  14.932 -0.7995  0.7242  0.1687
    5TMC2    H514409   3.334   4.657  14.870 -0.3626  0.4949 -0.2931
    6MPD2     C14410   2.678   4.646  14.790 -0.4062  0.2855 -0.8501
    6MPD2    C114411   2.782   4.711  14.859  0.1434  0.5048 -0.0791
    6MPD2    C214412   2.900   4.716  14.798  0.4169 -0.5170  0.9260
    6MPD2    C314413   2.921   4.661  14.671 -0.6312  0.1329 -0.6203
    6MPD2    C414414   2.820   4.599  14.601  0.3987  0.5564  0.2018
    6MPD2    C514415   2.700   4.593  14.669  0.6299 -0.3903 -0.4222
    6MPD2     H14416   2.978   0.041  14.855 -0.1549  0.7672  0.6175
    6MPD2    H114417   2.828   4.558  14.501  2.7817 -1.8063  1.3497
    6MPD2    H214418   2.581   4.627  14.834  0.6816  1.5277  2.1225
    6MPD2    H314419   2.614   4.564  14.610 -0.0338 -0.5593  0.6064
    6MPD2     N14420   3.043   4.667  14.606 -0.5606  0.1277  0.4226
    6MPD2    H514421   3.037   4.644  14.508  0.4525  2.0356 -0.0725
    6MPD2    N114422   2.760   0.054  14.981 -0.3576  0.2987  0.4510
    6MPD2    H714423   2.835   0.109  15.020 -0.3807  0.1050  0.7708
  945NH3     N114424   0.567   3.067  10.685  0.0548  0.8541 -0.2449
  945NH3     H214425   0.610   2.996  10.742 -0.6353  2.5100  2.3321
  945NH3     H314426   0.597   3.059  10.588  0.9773  0.3069  0.0876
  945NH3     H414427   0.476   3.021  10.682  1.1480 -1.4172  1.8684
  946SOD     NA14428   2.339   3.597  15.202 -0.0303  0.1192  0.1478
  947SOD     NA14429   3.232   1.304  15.642  0.3984  0.3827  0.0912
  948SOD     NA14430   3.904   2.734   7.311  0.5834  0.5258 -0.3856
  949SOD     NA14431   3.477   1.185   0.825 -0.0834 -0.0752  0.0985
  950SOD     NA14432   2.457   2.432  10.641  0.0921 -0.0481 -0.0673
  951SOD     NA14433   0.204   4.154  14.060 -0.2839 -0.6487 -0.1216
  952SOD     NA14434   1.196   1.421   8.118  0.2454 -0.0140 -0.3492
  953SOD     NA14435   4.327   4.266   8.758 -0.5976  0.4188  0.5091
  954SOD     NA14436   3.819   2.309  13.210  0.1921  0.1434 -0.4125
  955SOD     NA14437   3.637   3.724  13.127  0.0938  0.1285  0.3381
  956SOD     NA14438   3.068   3.916  10.344 -0.4002 -0.2820  0.4150
  957SOD     NA14439   3.501   0.411   1.449 -0.1509 -0.2874  0.2368
  958SOD     NA14440   3.758   3.786   0.930 -0.5013  0.1937  0.4198
  959SOD     NA14441   4.245   3.757  13.075  0.1358 -0.1807  0.3876
  960SOD     NA14442   0.618   2.603  10.737  0.1715  0.2242  0.1478
  961SOD     NA14443   4.086   4.368  12.147 -0.1028  0.3675 -0.1434
  962SOD     NA14444   0.428   0.545  11.488  0.2260  0.2499  0.5899
  963SOD     NA14445   2.208   3.834   2.304  0.0272  0.3459 -0.2499
  964SOD     NA14446   3.674   4.197  10.233  0.3254 -0.3498  0.3709
  965SOD     NA14447   1.248   0.483  12.902  0.4286  0.0170 -0.1310
  966SOD     NA14448   3.418   0.205  15.348  0.0194 -0.3068  0.5066
  967SOD     NA14449   3.208   4.068   4.126  0.2216  0.4310  0.0776
  968SOD     NA14450   0.379   3.684  13.606  0.0375 -0.0039  0.1848
  969SOD     NA14451   2.367   4.657  10.819  0.3319  0.4282  0.0035
  970SOD     NA14452   0.439   0.545  12.837 -0.2068 -0.4332 -0.1110
  971SOD     NA14453   4.467   0.428  14.809  0.0336 -0.1781 -0.0635
  972SOD     NA14454   3.081   0.469  11.612  0.6952  0.4985 -0.0173
  973SOD     NA14455   4.012   4.683   1.155 -0.2623 -0.1948  0.6176
  974SOD     NA14456   2.967   4.533   9.448  0.0431  0.4722  0.4526
  975SOD     NA14457   1.683   3.736  13.378 -0.0803  0.0656  0.5282
  976SOD     NA14458   0.759   0.407   8.386 -0.3451 -0.1036 -0.0179
  977SOD     NA14459   0.234   4.697  11.661 -0.6315  0.0325 -0.3714
  978SOD     NA14460   3.332   3.923  17.086  0.4245 -0.3966 -0.3443
  979SOD     NA14461   2.011   3.849  14.252 -0.7973 -0.0724 -0.1235
  980SOD     NA14462   4.314   1.588  17.032 -0.3124  0.5161 -0.3059
  981SOD     NA14463   1.680   2.326   2.676  0.4672 -0.0467 -0.3051
  982SOD     NA14464   3.136   1.093  10.037 -0.2733 -0.3232 -0.4637
  983SOD     NA14465   1.084   2.129   2.900  0.2921  0.0961  0.1275
  984SOD     NA14466   0.924   2.228   0.001 -0.2847 -0.0229 -0.1793
  985SOD     NA14467   1.112   3.014   9.011 -0.1975  0.3726  0.0083
  986SOD     NA14468   0.617   0.027  14.941 -0.4410 -0.4437 -0.5293
  987SOD     NA14469   4.689   1.420  16.469  0.0457 -0.3034 -0.3677
  988SOD     NA14470   1.307   4.560   0.359  0.1409  0.0215 -0.1184
  989SOD     NA14471   2.736   2.951   5.015  0.3656  0.1140  0.0230
  990SOD     NA14472   1.676   2.965  12.192 -0.1964  0.0205 -0.4625
  991SOD     NA14473   4.323   4.594  12.123 -0.3129 -0.3969  0.4410
  992SOD     NA14474   3.191   1.143  15.912 -0.4110 -0.2411  0.1363
  993SOD     NA14475   4.335   2.672   2.847 -0.2733 -0.2552 -0.1905
  994SOD     NA14476   0.093   3.625  13.338 -0.1245  0.0216 -0.1393
  995SOD     NA14477   0.054   0.552  13.961  0.0087 -0.1001 -0.5282
  996SOD     NA14478   0.046   4.533  11.386 -0.8896  0.1140 -0.0725
  997SOD     NA14479   0.991   4.093  10.794  0.0731 -0.1631  0.3644
  998SOD     NA14480   2.383   2.504  10.086  0.1719  0.0449 -0.4133
  999SOD     NA14481   3.121   0.101   9.356  0.4198  0.3009  0.0986
 1000SOD     NA14482   2.763   3.333  10.474  0.2970 -0.0251 -0.0472
 1001SOD     NA14483   2.002   0.405   6.350  0.0472  0.2671  0.0757
 1002SOD     NA14484   4.330   0.742  14.950  0.2822  0.2612 -0.1353
 1003SOD     NA14485   1.876   1.034  17.548  0.4340 -0.7851 -0.4149
 1004SOD     NA14486   2.952   3.568  11.158 -0.3100  0.4901  0.1149
 1005SOD     NA14487   1.158   0.099  15.849  0.1365  0.1425 -0.3176
 1006SOD     NA14488   0.386   1.911   0.266  0.3578 -0.8907 -0.0040
 1007SOD     NA14489   1.880   4.627   0.837 -0.2234  0.4081 -0.1262
 1008SOD     NA14490   1.000   0.323  14.589  0.5193 -0.2576  0.3314
 1009SOD     NA14491   0.445   3.322  13.671 -0.0928  0.1526 -0.1100
 1010SOD     NA14492   3.298   3.405  10.411  0.1705  0.1566  0.1636
 1011SOD     NA14493   1.012   4.190  11.981  1.0000 -0.1325  0.5690
 1012SOL     OW14494   0.783   4.218   5.279  0.0605 -0.7613  0.3143
 1012SOL    HW114495   0.853   4.217   5.214  0.6955  1.3944  0.9576
 1012SOL    HW214496   0.835   4.219   5.360  0.6048  1.7389 -0.0713
 1013SOL     OW14497   4.523   0.985  12.935 -0.0286  0.1417  0.1056
 1013SOL    HW114498   4.595   0.942  12.981  1.1187  0.6154 -1.2671
 1013SOL    HW214499   4.476   1.026  13.009 -1.8481 -2.1198  0.2063
 1014SOL     OW14500   2.061   1.880  16.513  0.2626 -0.1168  0.4811
 1014SOL    HW114501   2.073   1.825  16.436 -0.9600 -1.2551  1.1017
 1014SOL    HW214502   2.001   1.834  16.572 -2.0408 -0.2797 -2.0070
 1015SOL     OW14503   2.715   3.024   5.738 -0.3301  0.5837 -0.1689
 1015SOL    HW114504   2.718   3.101   5.795  0.7046 -0.7269  1.5621
 1015SOL    HW214505   2.646   2.971   5.779  0.3388  2.5325  3.4933
 1016SOL     OW14506   3.015   0.735   6.202 -0.6208  0.7207  0.2169
 1016SOL    HW114507   2.997   0.808   6.144  1.4027  0.3609 -0.8942
 1016SOL    HW214508   2.978   0.757   6.288 -0.9615  2.8311 -0.4855
 1017SOL     OW14509   4.113   0.906   0.592 -0.1584 -0.3694  0.0469
 1017SOL    HW114510   4.071   0.986   0.624  0.6342  0.8882 -2.0278
 1017SOL    HW214511   4.150   0.866   0.671  0.0977 -1.2859 -0.5377
 1018SOL     OW14512   3.328   1.918  11.609  0.6076  0.4298  0.2798
 1018SOL    HW114513   3.388   1.880  11.545  2.1881  0.0171  1.9949
 1018SOL    HW214514   3.267   1.845  11.621 -1.6619  1.9812 -1.7295
 1019SOL     OW14515   2.115   3.218   0.567  0.1391 -0.4995  0.3707
 1019SOL    HW114516   2.033   3.240   0.611  1.2161  1.1325  1.5959
 1019SOL    HW214517   2.167   3.296   0.549  0.4224 -1.2634 -2.0338
 1020SOL     OW14518   1.727   0.417   3.019 -0.0407 -0.2364  0.1406
 1020SOL    HW114519   1.749   0.406   2.927 -1.6381 -1.4115 -0.1147
 1020SOL    HW214520   1.788   0.485   3.045  0.2611 -0.4138 -0.1060
 1021SOL     OW14521   0.012   0.457   2.112  0.5424  0.3946 -0.3206
 1021SOL    HW114522   0.081   0.517   2.143  1.4857  0.2122 -2.0831
 1021SOL    HW214523   4.666   0.522   2.108  0.8534  0.8868  2.2214
 1022SOL     OW14524   2.121   2.834   8.156 -0.0120 -0.2811 -0.1613
 1022SOL    HW114525   2.048   2.812   8.214 -1.9298  0.4006 -2.3108
 1022SOL    HW214526   2.097   2.922   8.127 -0.7234 -0.8772 -1.4073
 1023SOL     OW14527   3.118   2.758   4.006  0.4939  0.5884  0.6531
 1023SOL    HW114528   3.071   2.832   4.047  1.0828  0.7300  1.0687
 1023SOL    HW214529   3.206   2.793   3.995  1.7147 -2.0414  2.2660
 1024SOL     OW14530   4.482   2.116   7.609 -0.6188  0.3069 -0.2760
 1024SOL    HW114531   4.460   2.034   7.653  3.1812 -2.1339 -2.9613
 1024SOL    HW214532   4.399   2.150   7.577 -1.6000  1.0392  2.9805
 1025SOL     OW14533   2.443   3.942   9.207  0.1420  0.0322  0.3116
 1025SOL    HW114534   2.498   4.011   9.244 -0.3551  1.4795 -1.6636
 1025SOL    HW214535   2.478   3.925   9.119  0.3297  1.4099  0.1119
 1026SOL     OW14536   3.533   1.108   6.751 -0.1432  0.0646  0.1356
 1026SOL    HW114537   3.502   1.151   6.831  1.5124 -1.3340  1.5296
 1026SOL    HW214538   3.471   1.035   6.746  0.8223 -0.7250 -0.1997
 1027SOL     OW14539   0.910   4.356   0.745  0.1562  0.1333 -0.2378
 1027SOL    HW114540   0.973   4.400   0.802  1.1112  0.0105 -1.2063
 1027SOL    HW214541   0.966   4.319   0.677 -1.7044 -1.1782 -1.0661
 1028SOL     OW14542   0.315   0.887   8.368 -0.0163 -0.9645 -0.3829
 1028SOL    HW114543   0.330   0.809   8.421  3.2703 -0.2571 -0.3008
 1028SOL    HW214544   0.351   0.862   8.282 -0.8228 -0.3949 -0.8899
 1029SOL     OW14545   0.247   1.727   4.848 -0.9941  0.0594 -0.1870
 1029SOL    HW114546   0.293   1.732   4.932  0.8407  3.0401 -1.3553
 1029SOL    HW214547   0.232   1.818   4.823 -3.3556  0.1494  1.5535
 1030SOL     OW14548   3.618   1.275   8.753 -0.2201 -0.2769 -0.5034
 1030SOL    HW114549   3.596   1.248   8.842 -0.8458  2.3219  0.1347
 1030SOL    HW214550   3.535   1.315   8.727 -0.7829 -0.9088  0.3440
 1031SOL     OW14551   1.429   4.621   6.932 -0.0386  0.6068 -0.5538
 1031SOL    HW114552   1.507   4.639   6.880 -0.2701 -0.0527 -1.1264
 1031SOL    HW214553   1.355   4.650   6.879  0.1321  2.3707  0.1859
 1032SOL     OW14554   3.970   3.600   5.387  0.3700 -0.1736  0.3583
 1032SOL    HW114555   3.959   3.545   5.464 -1.8770 -1.8905 -1.2109
 1032SOL    HW214556   3.952   3.540   5.315 -0.6462 -0.0649  0.5271
 1033SOL     OW14557   3.095   2.044   3.365  0.1153  0.0383  0.0712
 1033SOL    HW114558   3.173   2.097   3.385 -1.4433  2.4944 -0.3290
 1033SOL    HW214559   3.122   2.006   3.282  1.8875  0.7030  0.3377
 1034SOL     OW14560   0.486   1.932   8.653 -0.6500 -0.3308  0.2508
 1034SOL    HW114561   0.454   1.925   8.743  4.0319  4.1766  2.2527
 1034SOL    HW214562   0.412   1.978   8.613 -1.1457 -2.1109 -0.8924
 1035SOL     OW14563   2.195   1.239   9.847  0.8328 -0.1354  0.2837
 1035SOL    HW114564   2.213   1.307   9.912 -0.9646  2.0737 -1.5407
 1035SOL    HW214565   2.102   1.246   9.830  0.5163  1.6235  2.6221
 1036SOL     OW14566   0.944   0.211   2.837 -0.1114  0.2929 -0.2482
 1036SOL    HW114567   1.014   0.179   2.780  0.2703 -1.3766  1.1535
 1036SOL    HW214568   0.979   0.175   2.918 -0.2026  0.4937 -0.1212
 1037SOL     OW14569   3.858   4.646   8.890 -0.2000  0.2758 -0.2376
 1037SOL    HW114570   3.765   4.662   8.873  0.0073 -0.2573 -1.8181
 1037SOL    HW214571   3.890   4.651   8.800  0.9105 -0.1442  0.1400
 1038SOL     OW14572   4.595   2.881  13.065 -0.0017 -0.5295  0.1303
 1038SOL    HW114573   4.560   2.806  13.111  2.1997 -0.3722  2.0359
 1038SOL    HW214574   4.592   2.947  13.134  0.0883 -0.9279  0.5137
 1039SOL     OW14575   1.760   2.240  10.632 -0.1899 -0.0391 -0.0839
 1039SOL    HW114576   1.812   2.205  10.559  1.1134  0.4309  0.6170
 1039SOL    HW214577   1.676   2.270  10.598  0.3702 -0.4370 -1.8218
 1040SOL     OW14578   4.121   3.393   5.852  0.0862 -0.6737 -0.0136
 1040SOL    HW114579   4.131   3.407   5.946 -0.5614  0.2536 -0.0855
 1040SOL    HW214580   4.213   3.394   5.829  0.3702 -2.1576  1.0271
 1041SOL     OW14581   1.733   2.146  15.190 -0.0368  0.4016  0.0385
 1041SOL    HW114582   1.763   2.236  15.175  0.3644 -0.0654 -1.9050
 1041SOL    HW214583   1.695   2.138  15.103  0.9676  0.5503 -0.4133
 1042SOL     OW14584   2.233   0.680  16.024 -0.5032  0.6071 -0.1298
 1042SOL    HW114585   2.188   0.707  15.943 -0.1865  1.7292  0.0796
 1042SOL    HW214586   2.210   0.587  16.023  0.4825  0.3763 -0.7655
 1043SOL     OW14587   0.149   3.370   5.434 -0.7099  0.5117  0.0593
 1043SOL    HW114588   0.075   3.423   5.463 -0.8012  0.6840 -0.4770
 1043SOL    HW214589   0.204   3.433   5.388 -0.3587  1.0540  1.2209
 1044SOL     OW14590   0.808   2.544   2.651  0.4518  0.3855  0.1883
 1044SOL    HW114591   0.781   2.453   2.639  1.0640  0.0999  0.9622
 1044SOL    HW214592   0.888   2.547   2.598  0.5744  1.7858  0.4569
 1045SOL     OW14593   3.803   1.373   3.597  0.2476 -0.1614 -0.4844
 1045SOL    HW114594   3.721   1.385   3.645  1.7564 -0.9264  2.2876
 1045SOL    HW214595   3.835   1.288   3.627 -1.5080  0.1165  2.1915
 1046SOL     OW14596   0.637   3.675   7.199 -0.2133 -0.2843 -0.1780
 1046SOL    HW114597   0.599   3.652   7.284 -0.2918 -0.8623 -0.3659
 1046SOL    HW214598   0.730   3.683   7.224 -1.0277  1.0704  2.4052
 1047SOL     OW14599   3.575   1.003   4.611 -0.2424 -0.3323 -0.3521
 1047SOL    HW114600   3.544   1.092   4.629  1.8164  0.3153 -0.0558
 1047SOL    HW214601   3.669   1.017   4.605 -0.2515 -0.0454  0.2354
 1048SOL     OW14602   2.379   4.612   4.493 -0.0497  0.0094 -0.0338
 1048SOL    HW114603   2.317   4.570   4.434 -0.3633  0.7169 -0.2082
 1048SOL    HW214604   2.418   4.686   4.446 -0.9959  0.5101 -0.0451
 1049SOL     OW14605   2.916   2.215   5.363  0.0276 -0.1166  0.3732
 1049SOL    HW114606   2.866   2.253   5.291 -0.1814 -1.4663 -0.1807
 1049SOL    HW214607   2.883   2.269   5.436  0.9504  0.2348  0.5328
 1050SOL     OW14608   3.539   4.406   3.248 -0.4687  0.3022 -0.0954
 1050SOL    HW114609   3.510   4.492   3.279 -2.4362 -0.4393  0.0896
 1050SOL    HW214610   3.526   4.421   3.154 -0.5998  0.7321 -0.0114
 1051SOL     OW14611   0.565   1.857   5.131  0.1432  0.1124 -0.0778
 1051SOL    HW114612   0.555   1.907   5.050 -0.1858  0.1022 -0.0405
 1051SOL    HW214613   0.626   1.915   5.176  1.9936 -1.1772 -0.8723
 1052SOL     OW14614   2.521   1.045  11.457  0.2529  0.2772  0.1201
 1052SOL    HW114615   2.574   1.117  11.489 -1.2728  2.2457 -1.7962
 1052SOL    HW214616   2.434   1.074  11.486 -0.3093 -0.6082 -0.6548
 1053SOL     OW14617   3.066   1.279   4.174 -0.1948 -0.3001 -0.4963
 1053SOL    HW114618   3.089   1.330   4.252  1.2498 -0.3499 -0.8814
 1053SOL    HW214619   3.069   1.346   4.105 -1.3060  1.5403  1.2386
 1054SOL     OW14620   2.152   2.304   7.217  0.1151 -0.1244  0.1917
 1054SOL    HW114621   2.195   2.234   7.266 -2.0641 -0.8612  1.0317
 1054SOL    HW214622   2.167   2.270   7.128  0.4534 -1.3685  0.7237
 1055SOL     OW14623   4.398   0.911   5.333 -0.1205 -0.3122  0.2354
 1055SOL    HW114624   4.369   0.929   5.244  1.5349 -2.2425 -0.6918
 1055SOL    HW214625   4.494   0.912   5.324 -0.2009  0.0736 -0.5372
 1056SOL     OW14626   1.787   2.206   9.596  0.0848  0.3764 -0.3620
 1056SOL    HW114627   1.697   2.179   9.577  0.7319 -0.5011 -2.2037
 1056SOL    HW214628   1.824   2.201   9.508  0.1490  0.3496 -0.3336
 1057SOL     OW14629   2.809   2.288   1.928 -0.3767 -0.0670 -0.2802
 1057SOL    HW114630   2.727   2.295   1.977 -0.5722  2.6244 -1.0429
 1057SOL    HW214631   2.793   2.214   1.869 -1.6049  0.2453 -0.3352
 1058SOL     OW14632   2.200   2.490   4.849  0.5504  0.5577 -0.2974
 1058SOL    HW114633   2.254   2.495   4.927  1.4589 -2.2533 -0.7460
 1058SOL    HW214634   2.160   2.577   4.848  4.0678  2.1481 -1.2599
 1059SOL     OW14635   3.217   4.485  11.703  0.0068  0.5178 -1.0093
 1059SOL    HW114636   3.194   4.393  11.691 -2.8508  0.8975  1.4911
 1059SOL    HW214637   3.216   4.495  11.798  0.2933 -0.3346 -0.9114
 1060SOL     OW14638   4.578   4.221  10.305 -0.2340  0.9870  0.6607
 1060SOL    HW114639   4.493   4.260  10.322 -0.8307  0.2813 -0.6953
 1060SOL    HW214640   4.631   4.278  10.361 -1.0830  0.7398  1.6943
 1061SOL     OW14641   3.090   3.400   4.372  0.2126 -0.2046 -0.1121
 1061SOL    HW114642   3.034   3.323   4.361  2.3132 -1.4959 -2.0399
 1061SOL    HW214643   3.052   3.448   4.299 -1.7026  1.5397  2.0401
 1062SOL     OW14644   1.954   0.837   2.599 -0.6389 -0.0356  0.1056
 1062SOL    HW114645   1.962   0.897   2.525 -3.2917  0.4106  0.1764
 1062SOL    HW214646   1.995   0.758   2.566 -0.8793 -1.3007  2.8016
 1063SOL     OW14647   3.430   3.545   5.773 -0.0017 -0.0250 -0.4726
 1063SOL    HW114648   3.423   3.633   5.737 -1.8177 -0.1808 -0.4916
 1063SOL    HW214649   3.373   3.498   5.712  0.8828 -0.4558 -0.9749
 1064SOL     OW14650   2.805   2.840   9.555  0.0571  0.1826 -0.7668
 1064SOL    HW114651   2.808   2.752   9.517  0.2182 -0.0833 -0.1396
 1064SOL    HW214652   2.883   2.833   9.609 -0.7465 -1.3063  0.2102
 1065SOL     OW14653   3.592   3.899   9.275  0.1148 -0.0163  0.0343
 1065SOL    HW114654   3.585   3.822   9.219 -0.0143  0.3959 -0.5150
 1065SOL    HW214655   3.566   3.875   9.364  0.9394 -2.8810 -0.5180
 1066SOL     OW14656   1.755   1.020  14.840  0.0253 -0.0923 -0.0187
 1066SOL    HW114657   1.838   1.031  14.792 -0.1426 -1.0156 -0.5314
 1066SOL    HW214658   1.725   1.110  14.848 -1.1342 -0.4354 -0.4332
 1067SOL     OW14659   0.994   1.824   0.976 -0.1137  0.7137 -0.0327
 1067SOL    HW114660   1.014   1.746   1.028 -3.0911  0.8963  1.4074
 1067SOL    HW214661   1.070   1.877   1.000 -0.3485  0.7441  0.6451
 1068SOL     OW14662   4.696   2.910   8.857 -0.0757 -0.0461  0.0382
 1068SOL    HW114663   4.611   2.918   8.902  1.2542  2.1926  2.1573
 1068SOL    HW214664   4.702   2.819   8.829 -0.3380  0.0715 -0.4088
 1069SOL     OW14665   1.894   2.487   5.361  1.0555  0.2554 -0.7628
 1069SOL    HW114666   1.869   2.418   5.423 -1.6609  1.1718 -0.8439
 1069SOL    HW214667   1.984   2.500   5.390  0.7330  0.6642  0.0503
 1070SOL     OW14668   0.343   4.510   4.164 -0.4012  0.0607 -0.3197
 1070SOL    HW114669   0.369   4.548   4.081 -0.5153  2.3822  0.7224
 1070SOL    HW214670   0.425   4.481   4.204 -0.9465  0.7032  1.2838
 1071SOL     OW14671   1.451   3.905   7.373 -0.9223  0.6973  0.3193
 1071SOL    HW114672   1.447   4.000   7.359 -1.5806  0.6266  0.0370
 1071SOL    HW214673   1.436   3.897   7.467  1.5321  0.3886  0.6739
 1072SOL     OW14674   1.692   2.329   0.996 -0.5955 -0.1229  0.4335
 1072SOL    HW114675   1.677   2.403   1.055 -0.1451  0.0375  0.3515
 1072SOL    HW214676   1.644   2.266   1.050 -0.7553 -0.9402 -0.6610
 1073SOL     OW14677   2.512   3.493  17.394 -0.1467 -0.4164  0.0528
 1073SOL    HW114678   2.452   3.567  17.407  2.6941  1.5831  1.5876
 1073SOL    HW214679   2.457   3.414  17.392 -1.4325  0.4625  1.3527
 1074SOL     OW14680   2.173   0.745   3.814 -0.0198  0.1526  0.3229
 1074SOL    HW114681   2.092   0.792   3.796 -0.3175 -0.6070 -0.3079
 1074SOL    HW214682   2.234   0.804   3.769 -0.6610  1.2373  0.9101
 1075SOL     OW14683   2.641   4.593   4.619 -0.6552 -0.4328  0.4681
 1075SOL    HW114684   2.557   4.563   4.654  0.0423 -0.5037  2.0613
 1075SOL    HW214685   2.621   4.647   4.542 -0.2939  1.8747  2.0017
 1076SOL     OW14686   1.646   4.169   4.740  0.7081 -0.0928  0.4417
 1076SOL    HW114687   1.571   4.223   4.766  0.7948 -0.7802  2.1122
 1076SOL    HW214688   1.721   4.227   4.752  0.5983  0.7389 -3.0956
 1077SOL     OW14689   4.095   0.070   7.862  0.1164 -0.2272  0.1301
 1077SOL    HW114690   4.158   0.005   7.892 -0.5922 -1.4344 -0.9789
 1077SOL    HW214691   4.156   0.142   7.847  0.8887 -1.2162 -1.6216
 1078SOL     OW14692   2.510   3.137   7.976 -0.1602 -0.0588 -0.4212
 1078SOL    HW114693   2.517   3.118   7.883 -2.3382  0.5607 -0.7332
 1078SOL    HW214694   2.417   3.160   7.981 -0.6369 -2.1464  0.4121
 1079SOL     OW14695   1.135   2.201   5.073  0.4519 -0.1380  0.3288
 1079SOL    HW114696   1.153   2.108   5.057  1.2445 -0.1661  1.3689
 1079SOL    HW214697   1.211   2.222   5.127 -1.0550  0.9741  2.0579
 1080SOL     OW14698   1.464   1.998   0.760 -0.2815  0.3899 -0.2917
 1080SOL    HW114699   1.417   2.001   0.677 -0.2068 -0.7749 -0.3765
 1080SOL    HW214700   1.420   2.073   0.800 -0.4731  0.5759 -0.8530
 1081SOL     OW14701   2.872   3.763   9.276  0.1379  0.3313 -0.0595
 1081SOL    HW114702   2.802   3.724   9.328  0.9433 -1.2776 -0.1985
 1081SOL    HW214703   2.937   3.804   9.334  0.8455 -2.9919  1.5011
 1082SOL     OW14704   4.493   4.104   1.799  0.2279  0.2416 -0.0509
 1082SOL    HW114705   4.571   4.063   1.838 -1.0771 -0.5249  1.7554
 1082SOL    HW214706   4.429   4.069   1.861 -1.0064  0.7547 -1.0421
 1083SOL     OW14707   1.768   2.344  14.238  0.2008  0.2366  0.6826
 1083SOL    HW114708   1.675   2.324  14.230  0.7794 -1.5155 -1.5907
 1083SOL    HW214709   1.803   2.263  14.274 -0.1455 -0.1222  0.2031
 1084SOL     OW14710   2.727   3.009  11.620 -0.3865 -0.7015  0.7343
 1084SOL    HW114711   2.685   3.075  11.566 -0.9738  0.1650  2.2396
 1084SOL    HW214712   2.821   3.031  11.617 -0.8113  0.6673 -2.1339
 1085SOL     OW14713   3.356   3.117   1.045 -0.2426 -0.2250 -0.1717
 1085SOL    HW114714   3.422   3.058   1.008 -2.2906 -3.0042  0.5787
 1085SOL    HW214715   3.285   3.056   1.067 -0.3186 -0.4621 -1.0705
 1086SOL     OW14716   1.021   2.318   7.775 -0.3200 -0.4127  0.0991
 1086SOL    HW114717   1.073   2.397   7.760 -0.1872 -0.7962 -1.3952
 1086SOL    HW214718   1.005   2.283   7.688 -0.8149  0.4258 -0.1505
 1087SOL     OW14719   3.110   2.106   9.426 -0.3627 -0.1191 -0.2731
 1087SOL    HW114720   3.136   2.152   9.506 -0.5766 -0.1401 -0.1910
 1087SOL    HW214721   3.162   2.164   9.371 -0.9256 -1.9678 -2.7492
 1088SOL     OW14722   4.533   1.607   4.591 -1.0613 -0.0266 -0.2880
 1088SOL    HW114723   4.555   1.514   4.586  1.5734  0.4760  1.7690
 1088SOL    HW214724   4.618   1.650   4.583 -2.1670  2.6441  1.9801
 1089SOL     OW14725   2.277   3.854   8.436  0.4207 -0.3649 -0.0317
 1089SOL    HW114726   2.292   3.888   8.524 -2.1594  1.6328 -0.3724
 1089SOL    HW214727   2.187   3.881   8.422  1.2082  1.8712 -0.7214
 1090SOL     OW14728   0.129   2.818   1.507  0.8480 -0.1136 -0.0952
 1090SOL    HW114729   0.105   2.746   1.449  2.8908  0.5552 -1.7835
 1090SOL    HW214730   0.200   2.864   1.461  1.1676  1.0520  1.5628
 1091SOL     OW14731   2.738   4.307   8.493  0.2032  0.8276  0.1364
 1091SOL    HW114732   2.759   4.247   8.564 -1.6948  0.0772  0.0599
 1091SOL    HW214733   2.748   4.253   8.414 -0.4327  1.5351 -0.4241
 1092SOL     OW14734   2.267   4.278   1.867  0.4219  0.3875 -0.4929
 1092SOL    HW114735   2.296   4.363   1.899  0.5457 -0.1218  0.7655
 1092SOL    HW214736   2.305   4.221   1.934  0.9908 -1.2801 -2.2141
 1093SOL     OW14737   3.115   4.031  16.651  0.0175 -0.3405  0.0272
 1093SOL    HW114738   3.168   4.100  16.610  0.7860  2.1352  5.2590
 1093SOL    HW214739   3.083   4.067  16.733  0.3789 -0.5289  0.2540
 1094SOL     OW14740   1.302   3.111   4.442  0.0766  0.4055 -0.0770
 1094SOL    HW114741   1.285   3.062   4.523 -1.8460 -0.3862 -0.9769
 1094SOL    HW214742   1.245   3.069   4.378 -0.6946 -1.1152  1.6223
 1095SOL     OW14743   4.402   3.468   8.784  0.3730  0.8059  0.0333
 1095SOL    HW114744   4.369   3.548   8.825  2.8574  1.4635  0.7156
 1095SOL    HW214745   4.334   3.404   8.805  1.2885  0.5242  2.1720
 1096SOL     OW14746   3.133   2.075   2.604  0.4733 -0.1546  0.4982
 1096SOL    HW114747   3.113   2.156   2.557  1.0162  0.8710  2.0473
 1096SOL    HW214748   3.221   2.059   2.570  2.1508  0.2520  4.6772
 1097SOL     OW14749   0.320   3.620   4.183 -0.0998  0.0687  0.3523
 1097SOL    HW114750   0.379   3.550   4.210  2.3051  1.8939 -0.1998
 1097SOL    HW214751   0.348   3.696   4.235 -0.4360  0.0107  0.6212
 1098SOL     OW14752   4.117   3.774   0.891  0.0836 -0.1883 -0.3145
 1098SOL    HW114753   4.176   3.801   0.821 -0.1697 -0.8825 -0.7941
 1098SOL    HW214754   4.062   3.709   0.846  2.3773 -1.6651 -0.9422
 1099SOL     OW14755   2.916   3.862  13.112 -0.3594  0.3301 -0.3169
 1099SOL    HW114756   2.889   3.954  13.108 -1.2853  0.1131  1.2417
 1099SOL    HW214757   3.010   3.882  13.111 -0.7845  2.3129 -0.2723
 1100SOL     OW14758   2.608   3.322  14.592  0.0318  0.1980 -0.1617
 1100SOL    HW114759   2.691   3.366  14.573 -1.2881  2.8534  0.3073
 1100SOL    HW214760   2.544   3.387  14.563 -3.0906 -1.8178  2.2959
 1101SOL     OW14761   2.445   2.916  14.151  0.3993 -0.2787 -0.2043
 1101SOL    HW114762   2.390   2.841  14.127  0.8975 -0.4475 -0.7979
 1101SOL    HW214763   2.447   2.905  14.246  0.9195  0.0597 -0.1784
 1102SOL     OW14764   0.245   1.242  16.125  0.0894  0.1170  0.2778
 1102SOL    HW114765   0.251   1.259  16.031 -1.1660  0.1143  0.1963
 1102SOL    HW214766   0.164   1.289  16.142 -0.5269 -0.4249 -1.1661
 1103SOL     OW14767   0.536   4.332   6.318 -0.4094  0.2263 -0.3026
 1103SOL    HW114768   0.451   4.307   6.353  0.7512 -1.6270  1.1680
 1103SOL    HW214769   0.528   4.305   6.227 -1.1171 -0.4200 -0.0432
 1104SOL     OW14770   3.613   2.428   9.696  0.7063  0.3294 -0.1024
 1104SOL    HW114771   3.651   2.463   9.615 -0.3211  3.7310  0.9189
 1104SOL    HW214772   3.691   2.434   9.751  1.4108 -2.1969 -0.8183
 1105SOL     OW14773   3.609   0.482   2.512  0.3150 -0.3372  0.3735
 1105SOL    HW114774   3.552   0.417   2.472  1.1160 -1.0068  0.3202
 1105SOL    HW214775   3.658   0.506   2.433 -0.3925  0.4985  0.1804
 1106SOL     OW14776   0.448   2.222   7.463 -0.0689  0.0328 -0.1945
 1106SOL    HW114777   0.525   2.241   7.409 -0.1341  0.8356  0.0078
 1106SOL    HW214778   0.407   2.149   7.415  0.4229 -0.6688  0.4484
 1107SOL     OW14779   2.862   2.932   7.229 -0.4494  0.0378  0.0803
 1107SOL    HW114780   2.814   2.956   7.150 -1.5062 -0.2013  0.6484
 1107SOL    HW214781   2.791   2.881   7.268  0.4791 -0.0617  1.6463
 1108SOL     OW14782   0.165   3.893   5.211  0.4461  0.2208  0.4336
 1108SOL    HW114783   0.150   3.803   5.183 -1.4836  0.3118  1.1649
 1108SOL    HW214784   0.075   3.913   5.238  0.8732  0.1659  1.9098
 1109SOL     OW14785   1.912   0.047   7.961 -0.5843 -0.0794 -0.7597
 1109SOL    HW114786   1.995   0.016   7.926 -1.1077 -1.7320 -0.5453
 1109SOL    HW214787   1.946   0.097   8.035  1.7022 -4.4907  1.1696
 1110SOL     OW14788   1.925   4.433   6.178 -0.4217  0.5451  0.2182
 1110SOL    HW114789   1.915   4.388   6.094  3.7271  0.9820 -0.5261
 1110SOL    HW214790   1.880   4.365   6.228 -2.6748  2.2578  0.5299
 1111SOL     OW14791   3.931   2.124  16.314  0.0247  0.1556 -0.0262
 1111SOL    HW114792   3.991   2.179  16.364 -0.6666 -0.6026  1.6438
 1111SOL    HW214793   3.856   2.137  16.371 -1.1374  1.9177 -1.9579
 1112SOL     OW14794   0.089   2.979  15.481  0.1389 -0.4173  0.0788
 1112SOL    HW114795   0.085   2.892  15.440 -2.5620 -0.3035  0.0957
 1112SOL    HW214796   0.134   3.033  15.417 -0.1201 -0.4232 -0.1094
 1113SOL     OW14797   2.006   3.096   8.112  0.1397  0.2228 -0.3353
 1113SOL    HW114798   1.958   3.120   8.191  0.0567 -1.5706  0.1685
 1113SOL    HW214799   1.983   3.178   8.068 -1.9970  0.8545  1.9833
 1114SOL     OW14800   1.473   2.758  11.851 -0.7276  0.0220  0.1121
 1114SOL    HW114801   1.417   2.686  11.820 -0.2848  0.0029 -0.6546
 1114SOL    HW214802   1.524   2.784  11.774 -0.8551  2.4868  0.8685
 1115SOL     OW14803   0.558   0.479  15.380  0.0597 -0.0112  0.1152
 1115SOL    HW114804   0.551   0.427  15.301 -0.5125  1.1451 -0.5946
 1115SOL    HW214805   0.582   0.567  15.349 -0.2731  0.4513  1.1482
 1116SOL     OW14806   4.717   1.948   4.349  0.7493  0.4556 -0.2427
 1116SOL    HW114807   4.684   2.035   4.369  0.2690 -0.2073  1.8168
 1116SOL    HW214808   0.025   1.967   4.260  0.7278  0.8074 -0.1748
 1117SOL     OW14809   2.324   0.489   3.482 -0.6656 -0.2439  0.2594
 1117SOL    HW114810   2.418   0.481   3.469 -0.7324 -0.5812 -0.0276
 1117SOL    HW214811   2.302   0.420   3.545 -0.1893  0.3712  1.1121
 1118SOL     OW14812   0.313   4.718   4.439  0.1313 -0.3966  0.3151
 1118SOL    HW114813   0.358   0.078   4.424  0.5311 -0.9174 -1.3446
 1118SOL    HW214814   0.384   4.656   4.454  0.9894  0.0329 -2.0134
 1119SOL     OW14815   3.933   4.408   6.918 -0.3383 -0.1683 -0.4137
 1119SOL    HW114816   3.949   4.318   6.891 -0.2405 -1.1179  2.8064
 1119SOL    HW214817   3.844   4.407   6.953  0.2511 -2.2276  0.9750
 1120SOL     OW14818   3.393   3.026  15.596  0.9485 -0.4337 -0.1820
 1120SOL    HW114819   3.412   2.932  15.591 -2.5277 -1.0152 -2.3480
 1120SOL    HW214820   3.450   3.046  15.670 -0.0465 -0.9618  0.7275
 1121SOL     OW14821   1.248   3.683   6.301  0.7107  0.0783  0.6066
 1121SOL    HW114822   1.280   3.653   6.216  0.7327  0.1310  0.5966
 1121SOL    HW214823   1.262   3.600   6.347 -0.2179 -0.3289  0.1691
 1122SOL     OW14824   2.829   0.502   7.561  0.0029  0.0200  0.3001
 1122SOL    HW114825   2.748   0.474   7.603 -1.0833  0.5649 -1.4203
 1122SOL    HW214826   2.828   0.446   7.483 -0.7692  0.7798 -0.2361
 1123SOL     OW14827   2.250   1.861   5.409  0.2752  0.1642 -0.2484
 1123SOL    HW114828   2.286   1.774   5.424 -0.6587 -0.2098 -0.1538
 1123SOL    HW214829   2.158   1.834   5.411 -0.1262  1.5332 -0.5232
 1124SOL     OW14830   0.776   1.013   7.149 -0.2575 -0.7532 -0.2364
 1124SOL    HW114831   0.831   1.061   7.086  0.4243 -1.4291 -0.1492
 1124SOL    HW214832   0.787   1.072   7.224 -1.5785 -0.0939 -0.5692
 1125SOL     OW14833   1.949   4.424   7.705 -0.0280 -0.1569  0.1728
 1125SOL    HW114834   1.902   4.378   7.635  0.0688  0.2395 -0.1557
 1125SOL    HW214835   1.878   4.472   7.748  1.3493  1.5265  0.5978
 1126SOL     OW14836   1.683   3.590   7.245 -0.4554 -0.2026  0.7478
 1126SOL    HW114837   1.655   3.530   7.314 -1.2808 -1.3992 -0.6017
 1126SOL    HW214838   1.671   3.531   7.170 -0.4755 -0.3211  0.8442
 1127SOL     OW14839   4.164   2.744   7.656 -0.4312 -0.0183  0.3216
 1127SOL    HW114840   4.111   2.736   7.576  0.5471 -0.9470 -0.2406
 1127SOL    HW214841   4.145   2.837   7.669  1.3670  0.2667  0.9079
 1128SOL     OW14842   1.050   3.823   3.856 -0.2176  0.1048 -0.9894
 1128SOL    HW114843   1.025   3.731   3.860 -0.0651 -0.0055 -2.6857
 1128SOL    HW214844   0.967   3.860   3.825 -0.8055 -0.2871  0.1215
 1129SOL     OW14845   1.672   3.453   6.586  0.3798  0.6094 -0.0481
 1129SOL    HW114846   1.619   3.450   6.506  1.8150 -4.0702 -0.7873
 1129SOL    HW214847   1.639   3.367   6.611  1.3248 -0.2960 -1.8649
 1130SOL     OW14848   3.948   0.986  13.732 -0.0386  0.1005 -0.0172
 1130SOL    HW114849   3.874   1.026  13.778 -0.9440  0.6217 -1.9093
 1130SOL    HW214850   4.021   1.035  13.768  1.9132 -1.2743 -2.1206
 1131SOL     OW14851   0.454   2.997   5.571 -0.3821  0.2838 -0.2194
 1131SOL    HW114852   0.439   2.945   5.649  2.6064 -1.6983 -0.9503
 1131SOL    HW214853   0.543   3.026   5.590 -1.7159  4.5111 -0.5205
 1132SOL     OW14854   3.473   1.164   8.428 -0.1221  0.5523 -0.2234
 1132SOL    HW114855   3.405   1.096   8.421  1.5298 -1.2214  1.0539
 1132SOL    HW214856   3.430   1.224   8.489 -1.2073  1.3371 -1.7498
 1133SOL     OW14857   2.199   4.189   7.310 -0.8908  0.2156  0.4155
 1133SOL    HW114858   2.105   4.171   7.306 -0.3768 -1.9667 -1.3944
 1133SOL    HW214859   2.239   4.138   7.240  1.9398 -0.4369  2.4775
 1134SOL     OW14860   3.392   0.227   4.836 -0.9551  0.2389  0.1243
 1134SOL    HW114861   3.465   0.240   4.777 -2.2257 -3.9113 -2.3744
 1134SOL    HW214862   3.443   0.167   4.891 -1.0112  2.5559  2.6711
 1135SOL     OW14863   4.279   4.082   9.977  0.4933 -0.0083 -0.4650
 1135SOL    HW114864   4.325   4.035  10.046 -0.9052 -0.7972 -0.0763
 1135SOL    HW214865   4.246   4.014   9.918  1.2808  0.3656 -1.3422
 1136SOL     OW14866   1.764   3.012   3.240 -0.3859 -0.1445  0.2138
 1136SOL    HW114867   1.794   3.102   3.232 -0.4822 -0.1405 -0.1004
 1136SOL    HW214868   1.669   3.014   3.250 -0.5023 -0.0245 -0.9225
 1137SOL     OW14869   2.858   1.023  10.337  0.0505 -0.1003  0.5874
 1137SOL    HW114870   2.812   0.979  10.266  0.7168 -0.8503  0.6172
 1137SOL    HW214871   2.794   1.029  10.409  1.5104  1.6082  1.7532
 1138SOL     OW14872   3.725   4.450   6.069 -0.1677  0.0726 -0.0968
 1138SOL    HW114873   3.746   4.519   6.133 -0.7364 -1.0516  1.3035
 1138SOL    HW214874   3.804   4.395   6.069  0.0327  0.3572 -0.0057
 1139SOL     OW14875   0.307   0.925   5.330  0.2192 -0.3872 -1.0819
 1139SOL    HW114876   0.256   0.971   5.263  1.4261  0.3693 -1.4697
 1139SOL    HW214877   0.281   0.837   5.301 -0.8185  0.3548 -2.4216
 1140SOL     OW14878   0.724   4.721   9.545 -0.2179  0.3210  0.9412
 1140SOL    HW114879   0.776   0.073   9.516 -1.8647  0.3627 -1.9012
 1140SOL    HW214880   0.788   4.650   9.543 -1.1304 -0.5063  0.9199
 1141SOL     OW14881   2.954   2.662   6.606  0.5800 -0.1583 -0.6159
 1141SOL    HW114882   3.041   2.626   6.590  0.0649 -1.8961  0.6339
 1141SOL    HW214883   2.889   2.593   6.595  0.7853 -0.7800  2.0595
 1142SOL     OW14884   3.219   1.431   1.606  0.0085 -0.0846  0.2557
 1142SOL    HW114885   3.180   1.430   1.694 -0.3157  0.8451  0.1186
 1142SOL    HW214886   3.291   1.490   1.631  0.5115 -0.3117 -0.6592
 1143SOL     OW14887   2.521   2.921   5.901  0.3264 -0.0112  0.0791
 1143SOL    HW114888   2.472   2.840   5.912  0.7811 -0.1912  0.7662
 1143SOL    HW214889   2.559   2.939   5.987 -1.3856  2.5848  0.3052
 1144SOL     OW14890   3.727   4.593   1.984 -0.2687  0.2363 -0.3911
 1144SOL    HW114891   3.637   4.610   1.955  0.1213 -0.9181 -2.3154
 1144SOL    HW214892   3.760   4.571   1.897 -1.4653 -0.5405 -0.6502
 1145SOL     OW14893   1.976   0.846   7.955 -0.0936  0.0684  0.3506
 1145SOL    HW114894   1.991   0.936   7.985  2.4991 -0.2800  0.0472
 1145SOL    HW214895   2.019   0.853   7.870 -0.7619 -0.2046 -0.0155
 1146SOL     OW14896   0.494   1.965   4.452 -0.5416  0.9156  0.0719
 1146SOL    HW114897   0.467   2.046   4.409  0.3504  1.9849  1.5144
 1146SOL    HW214898   0.492   1.985   4.545 -0.3191  5.4948 -0.9265
 1147SOL     OW14899   3.595   0.462  14.706  0.0837  0.8081  0.1667
 1147SOL    HW114900   3.574   0.479  14.615 -1.5482 -0.3932  0.3061
 1147SOL    HW214901   3.690   0.463  14.699  0.1365 -2.5834  0.0961
 1148SOL     OW14902   4.393   4.434   6.401 -0.2771  0.4719 -0.5038
 1148SOL    HW114903   4.427   4.386   6.325 -0.8512 -2.2498  0.9774
 1148SOL    HW214904   4.467   4.458   6.455 -0.3911 -1.6939  0.6117
 1149SOL     OW14905   1.489   4.432   7.510  0.0798 -0.5231  0.5543
 1149SOL    HW114906   1.513   4.470   7.594 -2.2696  1.4410  0.3498
 1149SOL    HW214907   1.512   4.504   7.451  0.6515 -0.5528  0.7482
 1150SOL     OW14908   1.455   2.163   8.753  0.0516  0.7367 -0.1349
 1150SOL    HW114909   1.489   2.227   8.690 -1.1346  3.0082  1.5712
 1150SOL    HW214910   1.383   2.219   8.781 -1.7300 -0.7574 -1.7281
 1151SOL     OW14911   4.046   4.695   8.274  0.4218  0.3354  0.0689
 1151SOL    HW114912   4.134   4.658   8.276  0.2055 -0.2612 -1.1630
 1151SOL    HW214913   4.000   4.647   8.205 -0.5261  0.7414  0.4261
 1152SOL     OW14914   0.178   2.433   4.932 -0.0467  0.4603  0.4898
 1152SOL    HW114915   0.148   2.506   4.986  2.9721  1.5070  0.7843
 1152SOL    HW214916   0.108   2.378   4.965 -0.2112 -0.9870 -2.3492
 1153SOL     OW14917   3.850   1.529   5.958  0.0048 -1.1146  0.2192
 1153SOL    HW114918   3.819   1.513   6.046 -0.4573  2.3339  0.6828
 1153SOL    HW214919   3.896   1.445   5.949  2.2688  0.1905 -0.4114
 1154SOL     OW14920   3.894   0.940   1.708  0.6240  0.1642  0.2454
 1154SOL    HW114921   3.963   0.913   1.768 -0.1629  2.2690  2.1056
 1154SOL    HW214922   3.953   0.969   1.638 -0.4760  0.9511 -0.3591
 1155SOL     OW14923   2.558   1.421  12.036  0.4372  0.6821 -0.6100
 1155SOL    HW114924   2.555   1.377  12.121 -0.7002  1.3266 -0.3156
 1155SOL    HW214925   2.466   1.422  12.012 -0.1421  0.4985  1.6118
 1156SOL     OW14926   1.246   0.402   2.609  0.5848  0.1089 -0.1463
 1156SOL    HW114927   1.189   0.443   2.673 -0.1976  0.6893 -1.2129
 1156SOL    HW214928   1.200   0.435   2.532 -2.1072 -1.6842  0.7154
 1157SOL     OW14929   3.990   2.716  11.864  0.0684 -0.1562  0.3606
 1157SOL    HW114930   3.994   2.621  11.872  2.2520 -0.1153 -0.0875
 1157SOL    HW214931   4.085   2.731  11.858  0.5004 -2.2989  2.0603
 1158SOL     OW14932   2.247   2.750   6.500 -0.2032 -0.2406  0.0023
 1158SOL    HW114933   2.177   2.684   6.500 -0.6697  0.2538 -0.1702
 1158SOL    HW214934   2.214   2.828   6.455 -0.1521  0.1812  0.6830
 1159SOL     OW14935   1.189   4.280   7.590 -0.0817  0.2608 -0.1830
 1159SOL    HW114936   1.266   4.311   7.542  1.0455 -0.1667  1.3540
 1159SOL    HW214937   1.192   4.329   7.672 -0.8781  0.0859 -0.0532
 1160SOL     OW14938   0.050   3.898   8.588 -0.3447 -0.0355 -0.3363
 1160SOL    HW114939   0.121   3.846   8.626 -2.0986 -2.4406 -0.3724
 1160SOL    HW214940   0.070   3.982   8.629 -1.5317  0.8730 -1.6172
 1161SOL     OW14941   4.718   3.580   1.426  0.1770  0.2414  0.5485
 1161SOL    HW114942   0.026   3.493   1.399  1.9670  0.7029  1.1476
 1161SOL    HW214943   0.069   3.601   1.483  0.5475 -0.2090  0.2339
 1162SOL     OW14944   4.075   1.702   5.887 -0.1908 -0.1809  0.0878
 1162SOL    HW114945   3.993   1.691   5.839  0.5798 -1.2811 -0.9939
 1162SOL    HW214946   4.049   1.689   5.978  1.9136  1.0868  0.8706
 1163SOL     OW14947   3.903   0.435  13.467 -0.0348  0.0054  0.2140
 1163SOL    HW114948   3.847   0.375  13.418  1.4932 -1.8416  0.7430
 1163SOL    HW214949   3.866   0.398  13.547 -1.6947 -0.4100 -0.7343
 1164SOL     OW14950   1.367   2.383  10.311 -0.8396  0.3934  0.2302
 1164SOL    HW114951   1.376   2.313  10.247 -0.8377  1.5393 -1.0082
 1164SOL    HW214952   1.280   2.356  10.340 -0.9387  0.7914  0.3067
 1165SOL     OW14953   0.242   0.243   8.815  0.4264 -0.3940  0.3547
 1165SOL    HW114954   0.330   0.254   8.852  1.7087  2.1722 -3.4658
 1165SOL    HW214955   0.191   0.282   8.886  0.2638  0.7607 -0.3988
 1166SOL     OW14956   3.939   1.887   8.339 -0.6222 -0.2472  0.5690
 1166SOL    HW114957   4.023   1.847   8.361 -0.4348 -0.1794 -0.0234
 1166SOL    HW214958   3.884   1.843   8.403 -1.6638 -0.2482 -0.3220
 1167SOL     OW14959   4.510   0.245   1.286  0.1545 -0.0390 -0.6664
 1167SOL    HW114960   4.593   0.276   1.249  0.5096 -0.1442  0.0355
 1167SOL    HW214961   4.447   0.287   1.229 -0.6539  0.0849  0.3225
 1168SOL     OW14962   1.006   2.848   4.717 -0.2380 -0.7772  0.2610
 1168SOL    HW114963   0.966   2.772   4.758 -2.6626 -0.9320 -2.3627
 1168SOL    HW214964   1.099   2.833   4.728 -0.1109 -1.2257 -1.4067
 1169SOL     OW14965   3.650   1.436   4.699 -0.4759 -0.4112 -0.1114
 1169SOL    HW114966   3.612   1.357   4.736 -0.3759 -0.5826 -0.3794
 1169SOL    HW214967   3.589   1.500   4.737  1.2597  0.7604  0.7045
 1170SOL     OW14968   1.815   4.042  13.871 -1.0870  0.1232 -0.2254
 1170SOL    HW114969   1.754   3.980  13.911  1.6678 -1.3033  1.8095
 1170SOL    HW214970   1.809   4.123  13.922  0.2643  0.9582 -1.4118
 1171SOL     OW14971   4.006   2.709   5.370 -0.3926  0.0011 -0.5028
 1171SOL    HW114972   4.041   2.622   5.388 -0.1713  0.4053  1.0643
 1171SOL    HW214973   4.078   2.754   5.325 -0.0786 -0.1544 -0.1612
 1172SOL     OW14974   3.251   0.928   9.878  0.4142 -0.1197  0.6788
 1172SOL    HW114975   3.174   0.943   9.824  2.6478  1.2103 -2.1109
 1172SOL    HW214976   3.313   0.898   9.812  1.9365  0.0407  2.0207
 1173SOL     OW14977   0.034   0.341   9.005  0.4999 -0.2925 -0.3951
 1173SOL    HW114978   0.073   0.379   9.084 -0.5588 -1.9163  0.9193
 1173SOL    HW214979   0.004   0.424   8.969  1.5608  0.6197  0.8314
 1174SOL     OW14980   2.641   2.996  10.000  0.3605 -0.2547  0.2177
 1174SOL    HW114981   2.713   2.974  10.060  0.1839  0.1501  0.5834
 1174SOL    HW214982   2.566   2.996  10.060 -0.0929 -0.7810 -0.3563
 1175SOL     OW14983   2.729   2.611  13.629  0.0736  0.2988  0.0259
 1175SOL    HW114984   2.641   2.631  13.597  0.8334  2.9254 -0.4806
 1175SOL    HW214985   2.725   2.622  13.724  1.4184  0.1337  0.1063
 1176SOL     OW14986   3.389   3.103  17.024  0.2950 -0.7543 -0.3258
 1176SOL    HW114987   3.294   3.097  17.013 -0.0194  2.1104  0.8998
 1176SOL    HW214988   3.404   3.197  17.011  0.8076 -0.8628 -0.4894
 1177SOL     OW14989   2.341   1.955   2.500  0.1765  0.4991  0.3068
 1177SOL    HW114990   2.289   2.026   2.537  0.9767  0.9768  0.5026
 1177SOL    HW214991   2.273   1.893   2.473 -0.4150  1.5876 -0.6949
 1178SOL     OW14992   4.121   2.590   2.798 -0.4514  0.3764 -0.5495
 1178SOL    HW114993   4.112   2.495   2.806  0.4302  0.4488  1.4215
 1178SOL    HW214994   4.042   2.619   2.843  1.2273 -0.8587  3.2749
 1179SOL     OW14995   0.019   3.429   6.266 -0.1645 -0.2514 -0.3243
 1179SOL    HW114996   0.106   3.449   6.301 -0.9223  0.7051  1.0201
 1179SOL    HW214997   0.036   3.392   6.179  0.5743  0.9512 -0.6958
 1180SOL     OW14998   4.319   0.525  15.042  0.1125 -0.7599  0.0675
 1180SOL    HW114999   4.402   0.568  15.062 -0.4241  0.2905  0.0888
 1180SOL    HW215000   4.299   0.514  15.135  1.5965 -2.1646  0.2222
 1181SOL     OW15001   1.655   3.023   7.764  0.0430 -0.7816 -0.1488
 1181SOL    HW115002   1.670   2.995   7.674 -0.6203 -0.2178 -0.4366
 1181SOL    HW215003   1.647   3.118   7.750  0.1655 -0.4126  2.2692
 1182SOL     OW15004   3.041   2.933   8.838  0.3093 -0.1808  0.1949
 1182SOL    HW115005   3.019   2.865   8.775  0.4558  0.2321 -0.3054
 1182SOL    HW215006   3.067   3.003   8.778 -1.6641  0.7431  0.3896
 1183SOL     OW15007   4.588   2.279  14.951  0.5538  0.2920 -0.4238
 1183SOL    HW115008   4.607   2.229  15.031 -1.3837  2.0693  1.1632
 1183SOL    HW215009   4.647   2.354  14.956 -0.8881  1.3807  0.5723
 1184SOL     OW15010   2.970   1.541   9.101  0.0283 -1.2395 -0.7930
 1184SOL    HW115011   2.898   1.600   9.124  0.3259 -0.0587 -2.8820
 1184SOL    HW215012   2.928   1.461   9.131 -2.0336 -0.3181 -1.2022
 1185SOL     OW15013   0.424   0.659   5.896  0.6551 -0.3538  0.4501
 1185SOL    HW115014   0.481   0.722   5.939 -0.3016 -0.4548  1.8674
 1185SOL    HW215015   0.337   0.694   5.915 -0.6431 -0.8591 -4.4885
 1186SOL     OW15016   0.054   3.375   4.092 -0.1647  0.1178 -0.1340
 1186SOL    HW115017   4.704   3.315   4.101 -1.0744  1.4427  1.2845
 1186SOL    HW215018   0.121   3.328   4.043  0.4960  0.7969  0.1212
 1187SOL     OW15019   1.124   4.051  10.076 -0.0105  0.1238  0.1267
 1187SOL    HW115020   1.090   4.006   9.999  2.4403 -2.3308  0.4614
 1187SOL    HW215021   1.056   4.118  10.083  0.7467  1.0911 -1.9318
 1188SOL     OW15022   1.678   1.153   8.187 -0.3478 -0.2266 -0.5232
 1188SOL    HW115023   1.614   1.121   8.250 -2.4858  0.4748 -2.3390
 1188SOL    HW215024   1.717   1.069   8.162  1.3296  0.1414  0.8194
 1189SOL     OW15025   2.295   0.966   4.828  0.0631 -0.3105 -0.2735
 1189SOL    HW115026   2.324   0.875   4.833  3.2048  0.6070 -2.2587
 1189SOL    HW215027   2.231   0.961   4.758  0.5418 -1.3858 -0.6293
 1190SOL     OW15028   0.975   2.267   2.343  0.5674  0.1551  0.0149
 1190SOL    HW115029   1.021   2.206   2.402 -1.7405 -1.7631 -0.1957
 1190SOL    HW215030   1.021   2.250   2.261 -2.3718 -0.4322 -1.4907
 1191SOL     OW15031   3.103   2.664   5.653  0.4832 -0.0628  0.4789
 1191SOL    HW115032   3.068   2.598   5.713  0.1793 -0.8021 -0.5048
 1191SOL    HW215033   3.197   2.656   5.668  0.8357 -0.1622 -1.8829
 1192SOL     OW15034   3.749   2.905   8.042 -0.1833  0.6993 -0.0943
 1192SOL    HW115035   3.679   2.920   8.106 -1.4030 -1.4352 -0.8974
 1192SOL    HW215036   3.818   2.965   8.069 -1.3188  1.9669 -0.0259
 1193SOL     OW15037   2.959   2.420   6.178  0.0390  0.5513  0.0488
 1193SOL    HW115038   2.947   2.515   6.176 -0.7871  0.4796  1.6606
 1193SOL    HW215039   3.052   2.420   6.154  0.2669 -0.7549  0.9262
 1194SOL     OW15040   1.825   4.258   7.022 -0.3594  0.4967 -0.4933
 1194SOL    HW115041   1.888   4.235   6.953 -0.6573  0.3536 -0.7161
 1194SOL    HW215042   1.813   4.348   6.991  2.7575  0.7870 -0.9010
 1195SOL     OW15043   0.295   1.756   5.110 -0.3814  0.1607 -0.2778
 1195SOL    HW115044   0.387   1.770   5.135 -0.4897  1.2813 -0.5167
 1195SOL    HW215045   0.272   1.666   5.130  2.2242 -0.4201  0.0761
 1196SOL     OW15046   4.151   4.600   4.686 -0.5654  0.3345 -1.0927
 1196SOL    HW115047   4.180   4.549   4.610 -1.5192  1.0363 -1.9360
 1196SOL    HW215048   4.084   4.539   4.717  0.9379 -1.9520 -2.3591
 1197SOL     OW15049   2.636   4.028   7.407  0.5280  0.1219 -0.3562
 1197SOL    HW115050   2.730   4.011   7.399  0.7479  0.7949  0.7540
 1197SOL    HW215051   2.603   4.000   7.321  2.8674 -1.5112 -0.7354
 1198SOL     OW15052   3.991   3.146   8.544  0.0560  0.1092 -0.2402
 1198SOL    HW115053   3.975   3.092   8.466 -1.4742 -0.3499  0.3857
 1198SOL    HW215054   4.081   3.175   8.532 -0.3218  1.6088  0.5895
 1199SOL     OW15055   0.833   1.254   6.182 -0.1050 -1.2329  0.3339
 1199SOL    HW115056   0.851   1.243   6.275  3.0537  0.0617 -0.1006
 1199SOL    HW215057   0.902   1.315   6.154 -0.6496 -0.7128  0.1211
 1200SOL     OW15058   4.699   1.504   5.761 -0.1397 -0.4456  0.3460
 1200SOL    HW115059   4.698   1.483   5.854  0.4470  0.5470  0.5723
 1200SOL    HW215060   0.003   1.418   5.729  1.1611 -0.1815  0.7733
 1201SOL     OW15061   0.927   1.732   3.192  0.4726 -0.0519 -0.8616
 1201SOL    HW115062   0.904   1.717   3.283  2.9984  0.5607 -0.1186
 1201SOL    HW215063   0.992   1.665   3.171  1.5053  0.4716  0.7171
 1202SOL     OW15064   1.462   3.275   6.038 -0.4056 -1.1238 -0.0799
 1202SOL    HW115065   1.474   3.242   5.949  0.9270  1.9999 -1.0557
 1202SOL    HW215066   1.389   3.217   6.060 -0.5984 -0.7002  0.4001
 1203SOL     OW15067   1.713   3.913   4.600 -0.0919  0.2897  0.7309
 1203SOL    HW115068   1.700   3.998   4.643 -2.9489  0.4273 -0.4231
 1203SOL    HW215069   1.703   3.943   4.510 -2.5073 -0.5552  0.7127
 1204SOL     OW15070   3.683   3.697   3.430  0.1968  0.3979  0.5806
 1204SOL    HW115071   3.723   3.784   3.422  1.3657 -0.2549 -0.6177
 1204SOL    HW215072   3.681   3.685   3.525 -0.5448 -0.3049  0.4773
 1205SOL     OW15073   4.592   1.918   8.735  0.2028  0.2680 -0.4424
 1205SOL    HW115074   4.555   1.830   8.736 -2.0296  1.1418 -4.4611
 1205SOL    HW215075   4.671   1.904   8.787 -0.5688  0.2756  0.7424
 1206SOL     OW15076   2.916   3.770   2.935  0.2441  0.0120  0.0695
 1206SOL    HW115077   2.954   3.845   2.981  1.2110 -0.5834  0.2280
 1206SOL    HW215078   2.824   3.796   2.937  0.4526  1.0326 -3.2063
 1207SOL     OW15079   1.944   1.122   5.608  0.0138  0.2988 -0.4015
 1207SOL    HW115080   2.036   1.145   5.597 -0.2300  1.5256  0.1625
 1207SOL    HW215081   1.920   1.138   5.517 -0.3754  2.4649  0.1052
 1208SOL     OW15082   4.560   3.498   3.794 -0.1531  0.2700  0.7451
 1208SOL    HW115083   4.469   3.499   3.765 -0.8265  1.1686  2.8827
 1208SOL    HW215084   4.566   3.497   3.890 -1.2033 -0.8307  0.8000
 1209SOL     OW15085   1.558   3.299   4.716 -0.0251  0.3448  0.7376
 1209SOL    HW115086   1.557   3.377   4.771  1.2406  1.3616 -0.7002
 1209SOL    HW215087   1.624   3.333   4.655 -1.1417  0.3687 -0.4438
 1210SOL     OW15088   0.167   1.572   0.559 -0.1132 -0.0071 -0.0023
 1210SOL    HW115089   0.260   1.592   0.570 -0.4551  0.9226  1.1677
 1210SOL    HW215090   0.121   1.637   0.612 -1.2684 -0.2599 -0.6955
 1211SOL     OW15091   4.430   2.533   3.835 -0.4782 -0.0565 -0.2800
 1211SOL    HW115092   4.394   2.468   3.895 -1.8494  1.1870  0.2387
 1211SOL    HW215093   4.357   2.555   3.777 -1.6328  0.6543  1.4703
 1212SOL     OW15094   3.176   0.087   4.079 -0.2689 -0.1256  0.0050
 1212SOL    HW115095   3.135   0.088   3.993 -1.3707 -0.6317  0.5240
 1212SOL    HW215096   3.147   0.172   4.113 -2.7155 -1.0089  0.1164
 1213SOL     OW15097   0.261   4.116  14.940  0.0787  0.6427  0.7980
 1213SOL    HW115098   0.254   4.123  14.844 -2.8205 -1.8202  0.7913
 1213SOL    HW215099   0.197   4.182  14.967 -0.7723 -0.2974  1.0770
 1214SOL     OW15100   2.722   4.007   3.669  0.8706 -0.1824  0.4150
 1214SOL    HW115101   2.697   4.074   3.606  0.6456  0.9125  1.6772
 1214SOL    HW215102   2.816   4.017   3.684  1.1436  2.1920 -2.9585
 1215SOL     OW15103   3.950   3.829   4.814 -0.8277  0.5710 -0.1402
 1215SOL    HW115104   3.908   3.843   4.899 -2.2101 -0.0087 -0.7243
 1215SOL    HW215105   4.028   3.883   4.830 -0.1617 -0.1880 -0.8482
 1216SOL     OW15106   4.546   4.294   5.118  0.3332 -0.4258  0.0571
 1216SOL    HW115107   4.568   4.251   5.201  0.2498 -0.3564  0.1157
 1216SOL    HW215108   4.532   4.387   5.139  0.3179 -0.2030 -0.9462
 1217SOL     OW15109   0.604   1.927   7.415  0.4467  0.1461  0.4296
 1217SOL    HW115110   0.510   1.914   7.403  0.8069 -2.2288  0.1335
 1217SOL    HW215111   0.634   1.848   7.459  0.1227  0.1461  0.6452
 1218SOL     OW15112   1.328   4.018  12.529 -0.6899  0.1478  0.1401
 1218SOL    HW115113   1.323   3.996  12.436 -1.2171  1.1441 -0.0725
 1218SOL    HW215114   1.397   3.963  12.566 -1.5170  0.6574  2.4710
 1219SOL     OW15115   2.965   0.277   9.329  0.2744  0.0444 -0.5424
 1219SOL    HW115116   3.013   0.333   9.390  0.2638  0.2978 -0.7643
 1219SOL    HW215117   2.957   0.322   9.244  0.0084 -0.9943 -1.0593
 1220SOL     OW15118   0.714   0.386   9.512  0.4452  0.5213  0.5207
 1220SOL    HW115119   0.788   0.361   9.568 -0.4132 -1.3538  0.7983
 1220SOL    HW215120   0.640   0.353   9.562  0.3967 -0.1151  0.0253
 1221SOL     OW15121   3.849   0.949   6.236  1.1787 -0.1477  0.4179
 1221SOL    HW115122   3.932   0.979   6.274  0.2640  2.0971  0.6559
 1221SOL    HW215123   3.795   0.957   6.315 -1.0464  3.8811 -1.5077
 1222SOL     OW15124   3.682   2.927   9.276 -0.7305 -0.0802  0.6286
 1222SOL    HW115125   3.636   3.011   9.274  0.4467  0.5447 -0.2965
 1222SOL    HW215126   3.705   2.926   9.183  0.5538  3.1964  0.8972
 1223SOL     OW15127   1.994   4.402   6.533 -0.5811  0.3831 -0.2073
 1223SOL    HW115128   2.024   4.341   6.465  1.2684  1.1110 -0.0461
 1223SOL    HW215129   2.080   4.403   6.576 -1.3105 -0.2426  1.2535
 1224SOL     OW15130   0.457   0.583   2.437 -0.0688 -0.3080  0.4803
 1224SOL    HW115131   0.539   0.550   2.475 -0.4571 -0.7218  0.9616
 1224SOL    HW215132   0.484   0.674   2.429 -0.1974 -0.4657 -1.6718
 1225SOL     OW15133   0.177   0.093   2.706 -0.3734 -0.5176 -0.0900
 1225SOL    HW115134   0.188   0.064   2.616 -1.9910  0.7936 -0.7122
 1225SOL    HW215135   0.241   0.046   2.760 -0.3526 -0.7255 -0.2976
 1226SOL     OW15136   0.798   1.712   8.212  0.6647 -0.0674 -0.0987
 1226SOL    HW115137   0.878   1.764   8.199  0.8327 -0.2416  0.2575
 1226SOL    HW215138   0.795   1.645   8.144  2.8694 -0.8741  0.5919
 1227SOL     OW15139   2.901   0.807   6.447 -0.2619  0.3046  0.1176
 1227SOL    HW115140   2.806   0.799   6.439 -0.0046 -0.7127 -1.9795
 1227SOL    HW215141   2.920   0.779   6.536  1.0689  0.6281 -0.0625
 1228SOL     OW15142   1.167   2.682   8.106 -0.2423 -0.0583  0.0408
 1228SOL    HW115143   1.213   2.738   8.043 -1.1518 -1.0490 -1.4866
 1228SOL    HW215144   1.238   2.633   8.147  0.9345  0.0920 -1.8248
 1229SOL     OW15145   2.873   4.596   4.419  0.0715 -0.0545 -0.2986
 1229SOL    HW115146   2.954   4.593   4.471 -0.5308  0.2149  0.6641
 1229SOL    HW215147   2.803   4.573   4.481  1.4373 -1.7906  0.5976
 1230SOL     OW15148   1.555   4.208  15.192  0.4199 -0.2206 -0.3056
 1230SOL    HW115149   1.603   4.126  15.180  0.5609 -0.8009  4.0048
 1230SOL    HW215150   1.528   4.211  15.100 -2.2792 -3.5616  0.3752
 1231SOL     OW15151   2.669   0.968   8.939 -0.4127 -0.4028 -0.2098
 1231SOL    HW115152   2.646   1.048   8.985  1.2674  0.2638 -0.5387
 1231SOL    HW215153   2.675   0.902   9.008  0.6795 -0.1782 -0.0909
 1232SOL     OW15154   4.570   3.427   4.476  0.3639  0.6203 -0.5270
 1232SOL    HW115155   4.568   3.358   4.542 -1.7952 -1.3085 -2.6522
 1232SOL    HW215156   4.656   3.400   4.442 -0.6707  1.0143 -3.3892
 1233SOL     OW15157   2.843   3.375   7.596 -0.1059 -0.2918  0.0016
 1233SOL    HW115158   2.872   3.387   7.686  1.8872 -0.2998 -0.6453
 1233SOL    HW215159   2.847   3.466   7.564 -2.0200  0.0685  0.7977
 1234SOL     OW15160   1.815   0.285  15.737 -0.5566 -1.0165 -0.4919
 1234SOL    HW115161   1.848   0.209  15.785 -0.3493 -0.4637  0.2490
 1234SOL    HW215162   1.765   0.257  15.660 -0.4800 -1.3607 -0.4145
 1235SOL     OW15163   1.023   2.495  13.535 -0.5875 -0.2182  0.8800
 1235SOL    HW115164   1.094   2.481  13.472 -0.4631 -1.8248  1.3641
 1235SOL    HW215165   0.945   2.492  13.480  0.3016  1.1567 -0.4511
 1236SOL     OW15166   2.709   0.709  16.183 -0.3564 -0.1452 -0.0574
 1236SOL    HW115167   2.628   0.735  16.141 -1.0809 -2.3904 -0.0460
 1236SOL    HW215168   2.718   0.788  16.238 -0.0771  1.1651 -1.9958
 1237SOL     OW15169   1.687   2.171   6.883  1.1033  0.2113 -0.9647
 1237SOL    HW115170   1.719   2.086   6.910 -1.9435 -1.1940 -1.7871
 1237SOL    HW215171   1.711   2.227   6.957  0.6228 -0.2462 -0.4691
 1238SOL     OW15172   3.746   2.232   3.283 -0.2114 -0.1983  0.0431
 1238SOL    HW115173   3.791   2.317   3.281 -0.5634  0.0131  0.7860
 1238SOL    HW215174   3.667   2.258   3.330 -1.0726  1.4293 -2.3324
 1239SOL     OW15175   3.336   3.543  15.278 -0.1036  0.5224 -0.0679
 1239SOL    HW115176   3.417   3.579  15.313 -0.0284 -0.2489  0.5624
 1239SOL    HW215177   3.265   3.572  15.336 -0.2469 -2.2475  1.1312
 1240SOL     OW15178   2.781   1.269   6.566  0.0782 -0.2590  0.3239
 1240SOL    HW115179   2.749   1.357   6.548  0.8576  0.2527  1.4084
 1240SOL    HW215180   2.857   1.259   6.508 -1.1994 -0.8262 -1.2284
 1241SOL     OW15181   2.552   1.950   9.625  0.1120 -0.2280  0.5021
 1241SOL    HW115182   2.597   2.034   9.639 -2.0669  1.0736 -0.2009
 1241SOL    HW215183   2.593   1.894   9.690  0.2836 -0.2472  0.3764
 1242SOL     OW15184   1.380   0.145  15.908  0.7723  0.1950  0.0520
 1242SOL    HW115185   1.439   0.077  15.940  1.4169  0.0552 -1.4184
 1242SOL    HW215186   1.384   0.218  15.970  1.4159 -0.1685  0.4269
 1243SOL     OW15187   0.191   1.265   6.408 -0.0327 -0.1868  0.5478
 1243SOL    HW115188   0.258   1.315   6.455  0.2131  0.5995 -0.6395
 1243SOL    HW215189   0.109   1.262   6.458 -0.2796 -1.2212  0.0727
 1244SOL     OW15190   2.400   3.507  14.077  0.2250 -0.2247  0.5182
 1244SOL    HW115191   2.419   3.601  14.069  0.9474 -0.2651  1.9064
 1244SOL    HW215192   2.485   3.463  14.075 -1.5336 -3.5532 -0.9161
 1245SOL     OW15193   3.845   1.832  15.067 -0.1581 -0.3207 -0.6727
 1245SOL    HW115194   3.828   1.760  15.006  1.6851  0.5322 -2.1870
 1245SOL    HW215195   3.807   1.904  15.016  0.0024 -1.8079 -2.9168
 1246SOL     OW15196   1.123   0.084  16.334 -0.1180 -0.4055  0.3587
 1246SOL    HW115197   1.131   0.154  16.399 -0.0287 -1.4970  1.5366
 1246SOL    HW215198   1.214   0.077  16.306 -0.7959  1.1262 -2.2047
 1247SOL     OW15199   2.009   0.516   1.524  0.3175 -0.2193 -0.3510
 1247SOL    HW115200   2.099   0.482   1.520  0.1528 -0.8490  1.1422
 1247SOL    HW215201   2.003   0.541   1.617 -1.2366 -0.0129 -0.5089
 1248SOL     OW15202   2.791   0.533   6.219 -0.3342 -0.3570  0.5171
 1248SOL    HW115203   2.878   0.573   6.218 -0.1122 -0.7935  1.6412
 1248SOL    HW215204   2.767   0.536   6.127  1.2069  0.9289  0.1497
 1249SOL     OW15205   0.799   2.720   4.024 -0.3718 -0.2887 -0.0422
 1249SOL    HW115206   0.833   2.693   4.109  0.9518 -1.6047 -0.9818
 1249SOL    HW215207   0.833   2.809   4.014 -2.3424  0.3127 -1.4744
 1250SOL     OW15208   3.939   2.477   3.719 -0.1799 -0.1150 -0.2769
 1250SOL    HW115209   4.005   2.411   3.735 -0.7574 -1.0560 -1.8461
 1250SOL    HW215210   3.991   2.545   3.764 -0.6946  0.7331 -0.9550
 1251SOL     OW15211   2.519   0.059  10.731 -0.2976 -0.7980 -0.1839
 1251SOL    HW115212   2.485   0.149  10.727 -0.9156 -0.9903  0.6482
 1251SOL    HW215213   2.612   0.077  10.740 -0.4031 -0.6003  0.5626
 1252SOL     OW15214   0.423   1.326  11.819  0.3091 -0.1820 -0.2815
 1252SOL    HW115215   0.477   1.259  11.778 -1.6200 -2.9948  1.8043
 1252SOL    HW215216   0.471   1.403  11.788  0.4936  0.6514  2.0907
 1253SOL     OW15217   2.176   1.239   6.872  0.5070  0.4484 -0.0968
 1253SOL    HW115218   2.267   1.221   6.894  1.1514  0.7264 -2.5194
 1253SOL    HW215219   2.146   1.283   6.951  0.1278 -0.9036  0.5131
 1254SOL     OW15220   0.433   1.658   0.539 -0.3193 -0.0708 -0.0205
 1254SOL    HW115221   0.472   1.725   0.483 -0.0299 -0.3231 -0.1223
 1254SOL    HW215222   0.506   1.645   0.599 -1.0862 -0.9712  0.7207
 1255SOL     OW15223   2.556   1.592   2.981  0.1052 -0.2880 -0.2471
 1255SOL    HW115224   2.538   1.675   3.025  1.4447 -1.4293  2.5146
 1255SOL    HW215225   2.644   1.589   2.943 -0.0383 -0.4115 -0.5699
 1256SOL     OW15226   1.800   2.898   4.805  0.0839  0.3107  0.1770
 1256SOL    HW115227   1.801   2.812   4.848  1.5574  1.4984  2.4776
 1256SOL    HW215228   1.835   2.957   4.871 -1.5912 -1.5385  2.7465
 1257SOL     OW15229   4.336   3.231  11.994  0.0357  0.1579 -0.5896
 1257SOL    HW115230   4.335   3.314  12.041  1.7043  0.8810 -1.8319
 1257SOL    HW215231   4.248   3.194  12.005  1.5417 -2.8548  1.1044
 1258SOL     OW15232   2.900   2.888  10.429 -0.1787  0.1976 -0.7019
 1258SOL    HW115233   2.868   2.858  10.344  0.8052 -1.9528 -0.3137
 1258SOL    HW215234   2.970   2.950  10.407  1.2096 -0.5675  1.5564
 1259SOL     OW15235   0.880   4.190   8.267  0.2220  0.0202  0.1096
 1259SOL    HW115236   0.943   4.249   8.309  0.3556 -2.0037  2.7628
 1259SOL    HW215237   0.819   4.192   8.340  1.8520 -0.2086  1.4763
 1260SOL     OW15238   0.722   2.336   8.321  0.3192  0.2391 -0.0428
 1260SOL    HW115239   0.729   2.306   8.230 -0.8188  0.3863 -0.1760
 1260SOL    HW215240   0.671   2.266   8.360  1.2825 -0.5633 -0.2109
 1261SOL     OW15241   2.664   1.893   7.516 -0.3505 -0.2307  0.3219
 1261SOL    HW115242   2.654   1.803   7.485  1.0020 -0.6645  1.1577
 1261SOL    HW215243   2.619   1.878   7.600 -0.8950  1.1317  0.2777
 1262SOL     OW15244   0.637   3.119   7.496 -0.2141 -0.4960  0.2193
 1262SOL    HW115245   0.670   3.040   7.452  1.8329  0.7685 -0.5016
 1262SOL    HW215246   0.617   3.184   7.430  1.0305 -1.4804 -1.1163
 1263SOL     OW15247   3.815   2.084   9.900 -0.4479  0.4842 -0.6316
 1263SOL    HW115248   3.801   2.030   9.978  2.0873 -0.3991 -0.7872
 1263SOL    HW215249   3.820   2.028   9.823  0.4694 -1.4992  0.8627
 1264SOL     OW15250   1.748   0.063   1.718 -0.0378  0.0419 -0.0066
 1264SOL    HW115251   1.666   0.058   1.768 -0.5730 -3.5801 -1.2240
 1264SOL    HW215252   1.794   0.129   1.770  3.0681 -0.5923 -1.9524
 1265SOL     OW15253   0.632   0.159   3.651  0.2751  0.0741  0.2701
 1265SOL    HW115254   0.587   0.162   3.567  0.4534 -1.9978  0.0956
 1265SOL    HW215255   0.575   0.202   3.715  0.9566 -1.7110  2.1033
 1266SOL     OW15256   1.609   1.321   1.854 -0.2415  0.2494  0.1627
 1266SOL    HW115257   1.555   1.322   1.775 -0.7438  3.0223  0.5728
 1266SOL    HW215258   1.554   1.275   1.918 -0.4194 -1.5377 -1.2492
 1267SOL     OW15259   0.262   1.204   6.852  0.5662 -0.0478 -0.6314
 1267SOL    HW115260   0.317   1.128   6.869 -0.4000 -0.3585  1.1450
 1267SOL    HW215261   0.219   1.173   6.772  0.2694 -0.2618 -0.3911
 1268SOL     OW15262   4.464   2.636   2.424  0.1570 -0.2626 -0.1570
 1268SOL    HW115263   4.510   2.614   2.344 -2.7853 -0.5006 -1.7809
 1268SOL    HW215264   4.506   2.722   2.430 -1.3493  0.2602  2.9366
 1269SOL     OW15265   2.102   2.923   4.125  0.3332 -0.0894  0.0791
 1269SOL    HW115266   2.180   2.909   4.071 -1.2236  1.3496 -2.5531
 1269SOL    HW215267   2.062   2.837   4.138 -0.2223  0.2586  0.6361
 1270SOL     OW15268   4.072   0.879  16.152  0.0369 -0.3001 -0.3445
 1270SOL    HW115269   4.043   0.836  16.232 -0.7379  1.2149  0.1830
 1270SOL    HW215270   3.993   0.927  16.128  1.2410  1.2236 -1.2602
 1271SOL     OW15271   1.788   0.031   0.222 -0.2406 -0.2815  0.5881
 1271SOL    HW115272   1.862   4.694   0.231 -0.4007 -0.6007 -0.2988
 1271SOL    HW215273   1.733   4.696   0.170 -0.5255 -0.4581  1.0881
 1272SOL     OW15274   1.358   1.790   1.707  0.1353  0.6793 -0.1513
 1272SOL    HW115275   1.350   1.754   1.795  0.7641  1.4724  0.2285
 1272SOL    HW215276   1.410   1.870   1.716 -1.4934  1.5986  1.1254
 1273SOL     OW15277   4.490   2.660   6.525 -0.1158 -0.1201  0.0496
 1273SOL    HW115278   4.520   2.722   6.592 -0.3379  0.0565 -0.0148
 1273SOL    HW215279   4.428   2.705   6.468 -2.4383  3.5918  5.4958
 1274SOL     OW15280   1.945   3.814  14.464  0.1717 -0.1500  0.5775
 1274SOL    HW115281   2.010   3.774  14.520  0.9129 -0.0646 -0.2190
 1274SOL    HW215282   1.901   3.867  14.530  2.2763 -0.2252  2.0285
 1275SOL     OW15283   4.278   0.340   7.857 -1.0082 -0.0738  0.4340
 1275SOL    HW115284   4.350   0.333   7.919 -0.6823 -0.9830 -0.0552
 1275SOL    HW215285   4.323   0.366   7.777 -0.3578 -1.0607  0.4736
 1276SOL     OW15286   1.086   3.637   8.586  0.3183 -0.1119 -0.3623
 1276SOL    HW115287   1.038   3.669   8.663  1.3231 -2.3911  1.2296
 1276SOL    HW215288   1.104   3.550   8.624  4.7577 -0.0554 -2.2815
 1277SOL     OW15289   1.172   3.931   6.695  0.3783 -0.2476 -0.2554
 1277SOL    HW115290   1.177   3.994   6.767 -0.3414 -2.7177  1.9379
 1277SOL    HW215291   1.192   3.986   6.619  0.2007  1.6218  1.0565
 1278SOL     OW15292   2.318   2.647   9.680 -0.0081 -0.2365 -0.1907
 1278SOL    HW115293   2.240   2.591   9.690 -1.3528  1.9333  1.6396
 1278SOL    HW215294   2.278   2.732   9.661 -0.1696  0.0388  1.3833
 1279SOL     OW15295   1.053   0.849   2.460 -0.1173  0.7425 -0.1356
 1279SOL    HW115296   0.992   0.908   2.504  0.4676  1.3104 -0.0883
 1279SOL    HW215297   1.117   0.841   2.531  0.7791  0.6740 -0.9453
 1280SOL     OW15298   0.012   3.122   8.708 -0.2361 -0.1989 -0.0815
 1280SOL    HW115299   0.003   3.041   8.758  3.0896  0.1175  1.0770
 1280SOL    HW215300   4.668   3.174   8.750 -0.0708 -0.1572  0.1330
 1281SOL     OW15301   4.110   3.535   2.671 -0.3609  0.8780 -0.8775
 1281SOL    HW115302   4.016   3.550   2.686 -0.1207  0.3895  1.1470
 1281SOL    HW215303   4.115   3.502   2.582 -1.6409 -0.5668 -0.4223
 1282SOL     OW15304   1.199   3.230   9.374  0.0829  0.1995  0.1575
 1282SOL    HW115305   1.225   3.168   9.442  0.7347  1.2507  0.8660
 1282SOL    HW215306   1.236   3.315   9.399  0.2442  0.3068 -0.4494
 1283SOL     OW15307   0.808   1.240   7.848  0.0283 -0.3069 -0.1097
 1283SOL    HW115308   0.739   1.301   7.874  0.1036  0.5720 -1.9835
 1283SOL    HW215309   0.879   1.299   7.821  0.8402 -1.4281 -0.4233
 1284SOL     OW15310   0.291   1.549   5.537 -0.0074 -0.5837 -0.4746
 1284SOL    HW115311   0.332   1.476   5.583  0.2883 -0.2278 -0.1678
 1284SOL    HW215312   0.357   1.613   5.512  1.0703 -1.4683  0.1227
 1285SOL     OW15313   3.218   1.745   5.905  0.5842 -0.7217  0.3928
 1285SOL    HW115314   3.246   1.836   5.893 -2.1247  0.0445 -0.0376
 1285SOL    HW215315   3.131   1.737   5.867  0.2649  1.6634  0.5800
 1286SOL     OW15316   4.623   1.603   2.220  0.3879 -0.3087 -0.7521
 1286SOL    HW115317   4.577   1.622   2.138  0.3457  2.3643 -0.1155
 1286SOL    HW215318   4.715   1.624   2.203  0.4954  1.0182  1.5267
 1287SOL     OW15319   4.484   0.963   8.276 -0.6078  0.1251  0.4931
 1287SOL    HW115320   4.563   0.910   8.282 -0.5156  0.4393  1.9075
 1287SOL    HW215321   4.422   0.895   8.305 -2.4478  1.3521 -0.5642
 1288SOL     OW15322   0.081   0.699   9.496  0.4360  0.0579 -0.1158
 1288SOL    HW115323   0.166   0.656   9.485 -0.2598 -1.5381  0.8603
 1288SOL    HW215324   0.094   0.741   9.581 -2.4678  1.1030 -0.1864
 1289SOL     OW15325   2.800   2.417   8.322 -0.5127  0.0230 -0.1906
 1289SOL    HW115326   2.781   2.459   8.238  0.8267  3.1609  1.0587
 1289SOL    HW215327   2.717   2.395   8.363  0.5449  0.6967  2.3335
 1290SOL     OW15328   4.120   1.228   7.530  0.5259  0.1360 -0.3960
 1290SOL    HW115329   4.081   1.227   7.617 -0.1822 -1.6226 -0.7279
 1290SOL    HW215330   4.174   1.150   7.544 -0.3770 -0.7563 -1.7947
 1291SOL     OW15331   3.530   3.987   7.969 -0.2603 -0.0291  0.1094
 1291SOL    HW115332   3.458   4.039   8.004  0.1686  0.7276 -0.1422
 1291SOL    HW215333   3.488   3.945   7.894  0.5760  0.0408 -0.4026
 1292SOL     OW15334   3.701   1.172   7.587 -0.2297  0.1284 -0.1599
 1292SOL    HW115335   3.652   1.248   7.618 -1.5639 -0.8385  0.1047
 1292SOL    HW215336   3.638   1.117   7.541 -2.1571  0.9046  1.5827
 1293SOL     OW15337   0.811   0.101  14.802 -0.5665 -0.1326  1.1233
 1293SOL    HW115338   0.820   0.179  14.857  0.6368 -0.0104  0.7623
 1293SOL    HW215339   0.903   0.090  14.776 -1.2901 -2.5521 -0.4661
 1294SOL     OW15340   4.298   0.446   5.512 -0.4846  0.1166  0.6649
 1294SOL    HW115341   4.251   0.493   5.581  1.4120  1.2617  1.1447
 1294SOL    HW215342   4.350   0.515   5.470  0.1497 -0.3341  0.7150
 1295SOL     OW15343   3.428   0.016   2.781 -0.0949  0.2349 -0.2253
 1295SOL    HW115344   3.335   0.015   2.805  0.0316 -0.6375  0.2353
 1295SOL    HW215345   3.427   4.655   2.736  1.6973  0.7368 -1.1715
 1296SOL     OW15346   1.555   2.659  17.055 -0.0691  0.3566  0.4145
 1296SOL    HW115347   1.521   2.731  17.001 -1.2139 -2.5334 -2.7301
 1296SOL    HW215348   1.650   2.673  17.058  0.1710 -1.7669  2.4770
 1297SOL     OW15349   2.944   0.730  14.371  0.8386  0.3737  0.1571
 1297SOL    HW115350   2.993   0.808  14.398 -0.9287  0.9835  1.5918
 1297SOL    HW215351   2.985   0.653  14.409 -0.9564  0.3197  2.0034
 1298SOL     OW15352   2.462   4.030  16.734 -0.2137  0.0742  0.1413
 1298SOL    HW115353   2.525   4.102  16.725 -0.2818  0.0239 -0.6866
 1298SOL    HW215354   2.383   4.081  16.717 -0.1631 -0.6222 -2.1353
 1299SOL     OW15355   2.534   3.698   4.010 -0.0092  0.6021 -0.2326
 1299SOL    HW115356   2.470   3.754   3.966  1.1235  2.0947 -0.0086
 1299SOL    HW215357   2.535   3.731   4.100  0.5148 -1.6397  0.5746
 1300SOL     OW15358   1.098   3.837   7.006 -0.2781  0.3247 -0.0224
 1300SOL    HW115359   1.040   3.910   7.030 -1.0926  0.4066 -2.1796
 1300SOL    HW215360   1.182   3.883   7.010 -0.8486  1.5506 -1.7400
 1301SOL     OW15361   3.868   2.154  15.126 -0.3533 -0.6001  0.3062
 1301SOL    HW115362   3.920   2.139  15.046  1.3891  3.2371  0.7246
 1301SOL    HW215363   3.905   2.085  15.182  0.0043 -0.2315  0.5239
 1302SOL     OW15364   0.405   2.736   3.281 -0.5306  0.0178  0.3487
 1302SOL    HW115365   0.377   2.649   3.253  1.7879 -0.8692  0.8240
 1302SOL    HW215366   0.446   2.729   3.367 -1.9245 -0.5714  0.9732
 1303SOL     OW15367   1.990   4.636   4.092  0.4584  0.0124  0.7980
 1303SOL    HW115368   1.985   0.007   4.098  1.4179  0.0748  0.5709
 1303SOL    HW215369   1.903   4.618   4.055  0.8047  1.9191 -0.9383
 1304SOL     OW15370   0.775   0.207  10.398 -0.0860 -1.1229 -0.5900
 1304SOL    HW115371   0.773   0.259  10.318 -1.1508 -0.7776 -0.3441
 1304SOL    HW215372   0.761   0.119  10.362  0.8136 -0.8203 -1.6543
 1305SOL     OW15373   1.600   2.656   8.062  0.4205 -0.8750 -0.0510
 1305SOL    HW115374   1.660   2.589   8.094  2.1975  0.1030 -1.3467
 1305SOL    HW215375   1.660   2.705   8.005 -3.6410  1.1988 -2.5335
 1306SOL     OW15376   0.166   0.673   5.922  0.0054  1.2196 -0.1174
 1306SOL    HW115377   0.086   0.685   5.872 -1.0713 -0.1253  1.3167
 1306SOL    HW215378   0.133   0.687   6.011  0.8519 -1.0232  0.5590
 1307SOL     OW15379   2.708   2.419   8.698  0.1485  0.8041  0.6345
 1307SOL    HW115380   2.786   2.364   8.695  1.2684  2.5788 -2.7297
 1307SOL    HW215381   2.635   2.362   8.672  0.8826 -0.4260  1.2952
 1308SOL     OW15382   3.852   3.580   0.391 -0.2481  0.1401 -0.2169
 1308SOL    HW115383   3.801   3.499   0.380  0.6759 -0.5285  0.4436
 1308SOL    HW215384   3.939   3.552   0.362  0.1725 -0.6799  1.8201
 1309SOL     OW15385   0.372   2.081   4.037  0.4167 -0.1990  0.2220
 1309SOL    HW115386   0.313   2.032   3.980 -2.4081  2.1132  1.1655
 1309SOL    HW215387   0.396   2.150   3.976 -0.2859  1.3393  1.7047
 1310SOL     OW15388   3.655   1.100  12.629 -0.3718  0.3331 -0.1474
 1310SOL    HW115389   3.693   1.015  12.652 -0.7602 -0.4580 -2.4035
 1310SOL    HW215390   3.599   1.063  12.560  1.3194 -1.5593 -0.5259
 1311SOL     OW15391   2.149   3.251   6.843  0.6219  0.1765  0.7224
 1311SOL    HW115392   2.215   3.249   6.912  0.0295 -0.0258  1.2901
 1311SOL    HW215393   2.082   3.309   6.880 -0.8731 -0.4802 -0.8996
 1312SOL     OW15394   3.324   1.701   2.809 -0.7458 -0.1952  0.1965
 1312SOL    HW115395   3.380   1.758   2.862 -0.8726 -1.0816  1.2876
 1312SOL    HW215396   3.389   1.658   2.753  0.4078  1.3600  0.3359
 1313SOL     OW15397   1.820   0.451   2.684  0.1317  0.0580  0.0384
 1313SOL    HW115398   1.839   0.541   2.659  1.4828 -0.5291 -1.0140
 1313SOL    HW215399   1.764   0.432   2.609  0.6264 -0.4733 -0.1996
 1314SOL     OW15400   3.447   3.163   1.903  0.1276 -0.0041 -0.1879
 1314SOL    HW115401   3.482   3.184   1.816 -3.0780 -0.7359 -1.6454
 1314SOL    HW215402   3.523   3.120   1.941  1.0586  0.8584 -1.0483
 1315SOL     OW15403   4.457   4.392   4.694 -0.1205  0.5461 -0.3067
 1315SOL    HW115404   4.527   4.383   4.630  2.4423 -0.9574  2.7415
 1315SOL    HW215405   4.482   4.482   4.713  1.2074 -0.1275  1.0929
 1316SOL     OW15406   3.453   1.197   7.009  0.1560 -0.3532  0.4708
 1316SOL    HW115407   3.461   1.208   7.104 -1.3325 -0.6902  0.6460
 1316SOL    HW215408   3.456   1.101   7.005 -0.4898 -0.1954 -3.2194
 1317SOL     OW15409   2.330   1.073   4.104  0.4396 -0.6918  0.4669
 1317SOL    HW115410   2.358   1.120   4.183 -0.1939  0.3457  0.0736
 1317SOL    HW215411   2.406   1.074   4.046  1.0578  0.6816  1.2986
 1318SOL     OW15412   3.916   2.230  12.755  0.0607  0.0727  0.2356
 1318SOL    HW115413   3.988   2.192  12.804  1.1854 -0.7916 -2.1126
 1318SOL    HW215414   3.843   2.170  12.767 -2.6281  2.4871 -3.9069
 1319SOL     OW15415   0.777   2.253   8.896  0.0932 -0.2927 -0.0186
 1319SOL    HW115416   0.855   2.222   8.850 -0.8958 -0.5368 -1.5399
 1319SOL    HW215417   0.754   2.333   8.850  0.0084 -0.9056 -1.0403
 1320SOL     OW15418   3.343   0.367   2.626 -0.3582 -0.0434  0.6784
 1320SOL    HW115419   3.325   0.461   2.627  0.3397  0.0841  1.0207
 1320SOL    HW215420   3.278   0.333   2.688 -1.1928 -0.8626 -0.6404
 1321SOL     OW15421   0.266   1.644   9.047 -0.5787 -0.2382 -0.4141
 1321SOL    HW115422   0.293   1.557   9.018  0.8613 -0.0914  0.5007
 1321SOL    HW215423   0.172   1.641   9.027 -0.4331 -2.5418 -0.7995
 1322SOL     OW15424   4.429   3.543  17.344 -0.3037 -0.1489 -0.2658
 1322SOL    HW115425   4.383   3.621  17.373 -3.2045 -0.9576 -2.6449
 1322SOL    HW215426   4.510   3.584  17.314 -0.7723  0.3249 -0.8808
 1323SOL     OW15427   0.928   1.976  11.362  0.7427  0.4041  0.4780
 1323SOL    HW115428   0.862   1.941  11.302 -3.7883  4.0167  3.3030
 1323SOL    HW215429   0.879   2.004  11.440  3.7378  0.4435  2.3322
 1324SOL     OW15430   4.710   0.808   4.293 -0.2151 -0.1542  0.1825
 1324SOL    HW115431   0.015   0.897   4.270  1.7066 -0.0943  2.8145
 1324SOL    HW215432   4.636   0.828   4.350  1.2708 -1.6888  2.6535
 1325SOL     OW15433   4.386   3.340  14.974 -0.0736 -0.0086 -0.0534
 1325SOL    HW115434   4.408   3.393  15.051  1.8222  2.1259 -2.0565
 1325SOL    HW215435   4.458   3.278  14.967 -0.5603 -0.4246 -1.2758
 1326SOL     OW15436   3.446   2.473   5.878 -0.9035  0.4709 -0.1434
 1326SOL    HW115437   3.444   2.473   5.783 -2.1965 -0.5493 -0.1149
 1326SOL    HW215438   3.520   2.527   5.907 -0.4803 -0.7344  1.0607
 1327SOL     OW15439   1.525   1.617   6.913  0.0079 -0.1624  0.1608
 1327SOL    HW115440   1.544   1.529   6.945  1.8707 -0.2014 -1.0508
 1327SOL    HW215441   1.446   1.639   6.963 -1.4509  2.0615 -3.1114
 1328SOL     OW15442   0.386   1.348   3.365 -0.1039  0.1543 -0.1628
 1328SOL    HW115443   0.368   1.438   3.340  0.9238  0.8156  1.5421
 1328SOL    HW215444   0.411   1.310   3.280 -0.9166 -0.4003 -0.1579
 1329SOL     OW15445   2.805   4.405   4.718  0.2289 -0.2728 -0.1477
 1329SOL    HW115446   2.809   4.464   4.793 -0.0209 -0.4421  0.0007
 1329SOL    HW215447   2.768   4.465   4.653  2.8935 -0.2701 -1.6434
 1330SOL     OW15448   0.383   3.015   3.183  0.4823 -0.1521  0.5835
 1330SOL    HW115449   0.316   2.958   3.221  0.6483 -1.4763 -1.1195
 1330SOL    HW215450   0.357   3.002   3.091  0.9139  1.1098  0.2868
 1331SOL     OW15451   0.749   4.160   1.628 -0.1134 -0.4203 -0.3679
 1331SOL    HW115452   0.769   4.139   1.537  2.8327  1.6439 -0.1993
 1331SOL    HW215453   0.671   4.109   1.648 -0.4982 -0.0172 -0.8295
 1332SOL     OW15454   2.708   2.105   5.998 -0.3534  0.0546  0.2807
 1332SOL    HW115455   2.753   2.062   6.071 -1.8056 -1.2218  0.4249
 1332SOL    HW215456   2.668   2.028   5.958  2.8457 -0.3573 -2.1531
 1333SOL     OW15457   0.596   0.223   7.714 -0.3446  0.6444 -0.3279
 1333SOL    HW115458   0.570   0.139   7.677  1.0299 -0.4693  1.2532
 1333SOL    HW215459   0.590   0.274   7.633  0.2839 -2.7226 -2.4654
 1334SOL     OW15460   1.697   3.781   5.196 -0.1708  0.4342 -0.0111
 1334SOL    HW115461   1.728   3.823   5.276  1.2495  0.9544 -0.8245
 1334SOL    HW215462   1.687   3.863   5.147  0.3313  1.6987  2.0077
 1335SOL     OW15463   3.295   3.660  16.377  0.6050 -0.2744  0.4231
 1335SOL    HW115464   3.253   3.746  16.368 -3.3168 -2.3483 -1.2413
 1335SOL    HW215465   3.380   3.672  16.335  1.2251 -0.5151  1.6104
 1336SOL     OW15466   3.769   2.486   9.452 -0.1582  0.3918  0.1302
 1336SOL    HW115467   3.711   2.478   9.377  2.3952 -0.2464 -1.7903
 1336SOL    HW215468   3.834   2.420   9.429  1.1559  2.5831 -2.3873
 1337SOL     OW15469   4.132   0.794  10.243  0.3772 -0.2312 -0.1428
 1337SOL    HW115470   4.169   0.818  10.158 -0.5408 -0.0943 -0.5082
 1337SOL    HW215471   4.070   0.864  10.262 -1.8540 -1.9695 -0.9895
 1338SOL     OW15472   2.101   2.070   5.833 -0.2867 -0.2632  0.1461
 1338SOL    HW115473   2.190   2.036   5.833 -0.3767 -0.4989 -0.7087
 1338SOL    HW215474   2.101   2.066   5.929  0.5036 -0.1103  0.1519
 1339SOL     OW15475   3.188   1.029   4.146 -0.6125 -0.3312  0.0362
 1339SOL    HW115476   3.185   1.114   4.102  1.4082 -0.6739 -0.7419
 1339SOL    HW215477   3.096   1.005   4.157 -1.0729  0.9666 -0.9815
 1340SOL     OW15478   4.246   4.381  13.873  0.2065  0.0654  0.2085
 1340SOL    HW115479   4.325   4.389  13.926 -0.8532  2.4823  1.4456
 1340SOL    HW215480   4.236   4.286  13.868  1.9555 -0.0056 -1.8797
 1341SOL     OW15481   3.057   1.928   6.490 -0.2927 -0.0659  0.1548
 1341SOL    HW115482   2.971   1.889   6.474 -0.2816  1.2946 -3.2078
 1341SOL    HW215483   3.040   2.019   6.468 -0.7825 -0.2147 -0.0795
 1342SOL     OW15484   0.480   0.621   7.541 -0.1965 -0.1518  0.0528
 1342SOL    HW115485   0.456   0.652   7.453  0.6613  0.0389 -0.1134
 1342SOL    HW215486   0.439   0.685   7.599  0.1498  0.0041  0.1251
 1343SOL     OW15487   1.158   0.782   6.781  0.1332  0.0056  0.0249
 1343SOL    HW115488   1.080   0.782   6.725 -0.5924 -0.2190  1.0321
 1343SOL    HW215489   1.170   0.877   6.782 -1.2588  0.1993 -0.9254
 1344SOL     OW15490   2.861   3.785  12.848 -0.0391 -0.0458  0.0295
 1344SOL    HW115491   2.850   3.868  12.801 -0.1415 -0.2469 -0.3067
 1344SOL    HW215492   2.905   3.825  12.923  0.0092 -1.4191  0.7317
 1345SOL     OW15493   2.465   4.004   8.638 -0.4430  0.1391 -0.3055
 1345SOL    HW115494   2.477   4.082   8.692  2.4031 -0.8213  0.4211
 1345SOL    HW215495   2.431   4.038   8.555 -1.5066 -2.1276 -0.8092
 1346SOL     OW15496   0.851   0.872  15.033 -0.7422  0.1739  0.2381
 1346SOL    HW115497   0.797   0.920  15.095  0.2584  1.7845 -0.1344
 1346SOL    HW215498   0.918   0.825  15.084 -0.4724  0.2225 -0.0652
 1347SOL     OW15499   0.022   0.716   5.599 -0.0045 -0.4398  0.1877
 1347SOL    HW115500   0.020   0.626   5.568  1.2004 -1.1391  2.1641
 1347SOL    HW215501   0.106   0.714   5.644  0.3000  0.4699 -0.3324
 1348SOL     OW15502   3.260   2.109   4.929 -0.5701  0.4792 -0.8669
 1348SOL    HW115503   3.225   2.187   4.886  2.5674  1.3737 -1.8652
 1348SOL    HW215504   3.353   2.131   4.917  0.1984 -3.5477 -2.5019
 1349SOL     OW15505   0.694   4.095  11.697 -0.1658  0.2607 -0.3254
 1349SOL    HW115506   0.746   4.034  11.646 -1.9135  0.4762 -2.3907
 1349SOL    HW215507   0.640   4.026  11.735 -0.6476  0.6335 -0.3305
 1350SOL     OW15508   2.272   3.602   8.269 -0.1594  0.0822  0.2724
 1350SOL    HW115509   2.268   3.697   8.283  1.7637 -0.0473  1.8411
 1350SOL    HW215510   2.368   3.602   8.265 -0.1652 -1.8756  0.1972
 1351SOL     OW15511   1.784   1.156   0.032 -0.2794  0.1923 -0.4250
 1351SOL    HW115512   1.719   1.224   0.015 -0.9564 -0.8027 -1.7516
 1351SOL    HW215513   1.834   1.194   0.105  0.5907 -0.0801 -0.8748
 1352SOL     OW15514   4.640   3.570   2.526 -0.0713  0.8573 -0.2325
 1352SOL    HW115515   4.695   3.530   2.593 -3.8369 -0.4436  2.1186
 1352SOL    HW215516   4.697   3.546   2.454  1.6378 -1.7167  1.9679
 1353SOL     OW15517   2.375   2.172   4.408  0.3645 -0.6036 -0.6585
 1353SOL    HW115518   2.448   2.213   4.361 -0.6799  0.2176 -1.5473
 1353SOL    HW215519   2.348   2.240   4.469  0.9773 -1.4755  0.5836
 1354SOL     OW15520   2.746   1.962   1.755 -0.5551  0.1945 -0.9179
 1354SOL    HW115521   2.663   1.928   1.786 -0.1254 -0.9624 -1.0157
 1354SOL    HW215522   2.753   1.911   1.674 -0.7714 -1.0981 -0.1142
 1355SOL     OW15523   1.387   3.509   3.427  0.3062  0.0770 -0.3165
 1355SOL    HW115524   1.378   3.493   3.333 -1.6883  1.4865 -0.3698
 1355SOL    HW215525   1.408   3.420   3.455  0.1701  0.6601  1.6468
 1356SOL     OW15526   0.862   0.571   9.084 -0.7144 -0.3391  0.3151
 1356SOL    HW115527   0.847   0.662   9.108  0.0432 -0.6247  1.8473
 1356SOL    HW215528   0.801   0.515   9.134 -0.2457 -0.9861  0.1567
 1357SOL     OW15529   4.669   4.615  12.316 -0.2842 -0.2866  0.1461
 1357SOL    HW115530   0.007   4.560  12.267 -0.5198 -0.7695  0.3889
 1357SOL    HW215531   4.590   4.576  12.278 -1.2796  0.0251  1.9204
 1358SOL     OW15532   1.932   4.444   8.948  0.1155 -0.0043 -0.0103
 1358SOL    HW115533   2.016   4.429   8.903  1.9132  0.2552  3.2519
 1358SOL    HW215534   1.928   4.539   8.957 -2.6290  0.0370 -1.7156
 1359SOL     OW15535   2.919   3.777  16.683 -0.0690 -0.3533  0.3435
 1359SOL    HW115536   2.824   3.785  16.681  0.1001  1.2950 -1.0449
 1359SOL    HW215537   2.948   3.866  16.666 -0.7991 -0.2968 -0.5856
 1360SOL     OW15538   2.540   3.243   3.818 -0.0325 -0.0657  0.3610
 1360SOL    HW115539   2.541   3.248   3.913  0.4047 -0.6010  0.3846
 1360SOL    HW215540   2.615   3.189   3.792 -0.8106 -0.5778 -0.8286
 1361SOL     OW15541   1.945   2.241   0.782 -0.3576  0.0655 -0.1139
 1361SOL    HW115542   2.023   2.275   0.827  0.1440  2.4121 -2.8005
 1361SOL    HW215543   1.876   2.269   0.842  0.2647 -2.6331  1.8473
 1362SOL     OW15544   2.473   0.512  13.625  0.5224  0.1264 -0.4696
 1362SOL    HW115545   2.484   0.592  13.677 -0.1779  0.3236 -0.6353
 1362SOL    HW215546   2.547   0.456  13.651  0.6761 -0.5863 -2.4395
 1363SOL     OW15547   2.970   3.646   8.367  0.1816  0.0586  0.2684
 1363SOL    HW115548   3.055   3.688   8.379  0.9292 -0.3576 -3.5654
 1363SOL    HW215549   2.970   3.582   8.438 -0.4666  0.4249  0.6042
 1364SOL     OW15550   1.693   4.008   4.985  1.2438  0.2901 -0.1033
 1364SOL    HW115551   1.657   4.070   4.921  2.1804 -1.1609 -2.0622
 1364SOL    HW215552   1.788   4.018   4.989  1.0432  2.3922 -0.4825
 1365SOL     OW15553   4.411   3.507  12.914  1.2375 -0.0289 -0.6116
 1365SOL    HW115554   4.421   3.514  13.009  0.0022  1.1164 -0.5679
 1365SOL    HW215555   4.329   3.556  12.906  2.4543  2.1852  0.4724
 1366SOL     OW15556   0.228   3.562   3.286 -0.4571  0.0660  0.5170
 1366SOL    HW115557   0.187   3.601   3.209  1.4178  2.0320  0.5095
 1366SOL    HW215558   0.272   3.638   3.325  1.1907  1.0324 -3.1827
 1367SOL     OW15559   0.531   3.055   6.531  0.1317 -0.0531 -0.8563
 1367SOL    HW115560   0.523   3.006   6.613  1.3334  1.1048 -0.0410
 1367SOL    HW215561   0.578   3.135   6.553 -0.5202  0.3012 -0.7566
 1368SOL     OW15562   1.933   4.675   6.488  0.8160 -0.6775  0.7402
 1368SOL    HW115563   2.013   4.714   6.522 -0.3508  1.2246  1.2681
 1368SOL    HW215564   1.955   4.585   6.514  1.1848 -1.3375 -1.8339
 1369SOL     OW15565   2.174   3.364  14.245  0.1206 -0.0916 -0.6956
 1369SOL    HW115566   2.263   3.387  14.271 -0.5624  3.7082 -1.6430
 1369SOL    HW215567   2.163   3.276  14.282 -1.7164  0.7727  0.8019
 1370SOL     OW15568   0.685   4.148   2.215  0.6005  0.2122 -0.1035
 1370SOL    HW115569   0.697   4.172   2.306 -0.7440  0.8496 -0.1026
 1370SOL    HW215570   0.772   4.129   2.178 -0.0956 -0.0065 -1.6191
 1371SOL     OW15571   3.457   1.866   7.566 -0.2871 -0.8805  0.2725
 1371SOL    HW115572   3.421   1.791   7.518 -0.3133  0.1338 -1.3007
 1371SOL    HW215573   3.378   1.919   7.576  1.2867  1.1915  1.6744
 1372SOL     OW15574   0.180   3.126   7.971 -0.0347 -0.0378  0.0823
 1372SOL    HW115575   0.140   3.169   8.046 -1.0440 -0.3911 -0.2643
 1372SOL    HW215576   0.239   3.060   8.007 -1.2227 -0.4750  1.2065
 1373SOL     OW15577   4.507   1.081  12.053 -0.2404  0.0313  0.3138
 1373SOL    HW115578   4.468   1.164  12.027  2.8674  1.9021  1.5125
 1373SOL    HW215579   4.486   1.069  12.146 -0.4740 -0.5697  0.1805
 1374SOL     OW15580   1.789   0.030   3.405  0.8777 -0.1828  0.2033
 1374SOL    HW115581   1.702   4.712   3.405  0.5151  0.5706  0.0638
 1374SOL    HW215582   1.806   0.046   3.313  0.8426 -0.7922  0.0901
 1375SOL     OW15583   4.118   2.852   7.356 -0.0214  0.4760 -0.2545
 1375SOL    HW115584   4.214   2.854   7.364 -0.1833 -0.0271  1.8517
 1375SOL    HW215585   4.099   2.941   7.387 -2.4367 -1.0096  2.5346
 1376SOL     OW15586   0.577   1.254  17.465  0.3776  0.1451 -0.3655
 1376SOL    HW115587   0.507   1.312  17.436  1.2057  1.2029 -0.2303
 1376SOL    HW215588   0.558   1.240  17.558  0.3855 -1.0273 -0.5324
 1377SOL     OW15589   3.097   4.175   8.678  0.0932 -0.0728 -0.2220
 1377SOL    HW115590   3.136   4.090   8.696  0.1134 -0.2863 -1.2973
 1377SOL    HW215591   3.099   4.181   8.583  0.1825  1.2813 -0.1405
 1378SOL     OW15592   2.208   2.404   9.907  0.3771 -0.3921  0.0728
 1378SOL    HW115593   2.148   2.462   9.860 -0.7663 -1.0323  0.7534
 1378SOL    HW215594   2.146   2.337   9.935 -1.8231  0.9458 -1.5994
 1379SOL     OW15595   2.481   2.168   8.266 -0.2507 -0.0344  0.3413
 1379SOL    HW115596   2.392   2.152   8.299  0.0382 -1.0674  0.5967
 1379SOL    HW215597   2.510   2.246   8.312  0.9882 -0.3766  0.1279
 1380SOL     OW15598   0.272   4.308   8.583 -0.1700 -0.3424  0.4122
 1380SOL    HW115599   0.293   4.361   8.506 -1.5651  2.0055  1.6483
 1380SOL    HW215600   0.235   4.240   8.527 -2.3795  0.8498  0.4260
 1381SOL     OW15601   3.044   3.694   0.668 -0.3709 -0.3447 -0.3508
 1381SOL    HW115602   3.133   3.704   0.635  0.1300 -0.4001  0.9667
 1381SOL    HW215603   2.990   3.709   0.591 -1.3395 -0.2879  0.3388
 1382SOL     OW15604   0.812   1.142   8.119 -0.7378 -0.2554  0.4236
 1382SOL    HW115605   0.721   1.114   8.116 -0.7385 -0.3614  1.4548
 1382SOL    HW215606   0.815   1.184   8.033  0.4869 -1.0703  0.0620
 1383SOL     OW15607   1.279   1.757   2.766 -0.1161  0.0897  0.0957
 1383SOL    HW115608   1.342   1.814   2.722  0.2358 -1.1148 -0.9752
 1383SOL    HW215609   1.216   1.749   2.695 -1.3765  0.7360  1.1369
 1384SOL     OW15610   3.756   0.404  10.094 -0.3667  0.4462 -0.3288
 1384SOL    HW115611   3.745   0.376  10.004 -1.9013 -0.0183  0.0051
 1384SOL    HW215612   3.840   0.450  10.105  0.1785 -0.2507 -1.6317
 1385SOL     OW15613   3.873   3.707   0.753 -0.1119 -0.5146 -0.1045
 1385SOL    HW115614   3.943   3.663   0.705  0.4630  1.1696 -0.8273
 1385SOL    HW215615   3.812   3.711   0.679 -0.1484  2.7092  0.0653
 1386SOL     OW15616   0.105   4.416   2.292 -0.3708 -0.1364  0.1801
 1386SOL    HW115617   0.195   4.383   2.303 -0.9010 -2.0366 -1.1951
 1386SOL    HW215618   0.067   4.413   2.379  0.6642  1.5106  0.6951
 1387SOL     OW15619   0.235   2.574  10.869 -0.2805 -0.4204 -0.1397
 1387SOL    HW115620   0.179   2.572  10.946 -0.3483 -0.7146 -0.1974
 1387SOL    HW215621   0.174   2.561  10.797 -0.1912 -3.1505  0.2856
 1388SOL     OW15622   3.524   4.546   4.453 -0.2786 -0.0607 -0.0291
 1388SOL    HW115623   3.518   4.451   4.463  3.4168 -0.5437 -2.4431
 1388SOL    HW215624   3.577   4.557   4.374  0.4081 -1.0336  0.2869
 1389SOL     OW15625   1.155   0.141   4.380  0.2056  0.3822  0.8649
 1389SOL    HW115626   1.198   0.143   4.294 -0.9964  1.4275  0.2946
 1389SOL    HW215627   1.064   0.156   4.355  0.2547  2.1560  1.7539
 1390SOL     OW15628   1.874   2.798   1.896 -0.3904 -0.2474  0.4253
 1390SOL    HW115629   1.846   2.889   1.907  0.0542 -0.3797  2.7040
 1390SOL    HW215630   1.801   2.760   1.848  0.4795 -0.2175 -0.9011
 1391SOL     OW15631   2.414   3.974   0.854  0.0966  0.0132  0.4723
 1391SOL    HW115632   2.457   4.054   0.885  0.8120 -0.8563  1.7420
 1391SOL    HW215633   2.332   4.008   0.817  0.8469 -0.9927 -2.1045
 1392SOL     OW15634   2.941   4.006   3.091  0.3881 -0.3028  0.4123
 1392SOL    HW115635   2.907   4.085   3.133  1.4468 -0.1676  1.0203
 1392SOL    HW215636   3.003   4.043   3.028  2.9795  1.1343  3.8028
 1393SOL     OW15637   2.201   2.205  13.508  0.3661  0.4258  0.1167
 1393SOL    HW115638   2.200   2.265  13.433 -0.2567  4.3836  3.2543
 1393SOL    HW215639   2.119   2.233  13.549  1.2475  2.2678  0.6341
 1394SOL     OW15640   3.979   0.106   5.100 -0.3640 -0.1295 -0.5954
 1394SOL    HW115641   3.962   0.070   5.012 -1.2964 -0.8908 -0.1069
 1394SOL    HW215642   3.916   0.175   5.119 -1.9142 -1.4891 -0.7272
 1395SOL     OW15643   4.614   2.891   9.172  0.5347 -0.0175  0.1122
 1395SOL    HW115644   4.694   2.838   9.167  1.3601  1.0848  1.6360
 1395SOL    HW215645   4.550   2.825   9.198 -2.2542  2.9239  0.7256
 1396SOL     OW15646   2.823   0.625   5.302 -0.0016  0.3117  0.2051
 1396SOL    HW115647   2.867   0.623   5.218  2.7480 -0.1184  1.6481
 1396SOL    HW215648   2.897   0.599   5.357  0.1504  1.0944  0.3592
 1397SOL     OW15649   3.053   2.763   9.114  0.3378  0.3635 -0.2598
 1397SOL    HW115650   2.980   2.802   9.067 -1.0064 -0.9982  0.7292
 1397SOL    HW215651   3.114   2.746   9.042  1.6443  0.3623  0.8488
 1398SOL     OW15652   4.218   1.923   6.055 -0.2071 -0.1265 -0.5438
 1398SOL    HW115653   4.282   1.856   6.030 -0.9415 -1.6377  1.6132
 1398SOL    HW215654   4.169   1.929   5.972 -0.5704 -4.3238 -0.6241
 1399SOL     OW15655   2.084   3.031   7.450  0.2759 -0.3495  0.3184
 1399SOL    HW115656   2.051   3.069   7.531 -1.4017 -0.2804 -0.4024
 1399SOL    HW215657   2.067   2.938   7.462 -0.0339 -0.4219 -0.6599
 1400SOL     OW15658   1.578   1.669   6.519 -0.6769  0.3900  0.2459
 1400SOL    HW115659   1.581   1.659   6.424  1.0285  1.6849  0.1718
 1400SOL    HW215660   1.649   1.610   6.547  0.2239  1.5390  0.3893
 1401SOL     OW15661   4.654   0.242   2.449 -0.3097 -0.2036 -0.8717
 1401SOL    HW115662   4.621   0.330   2.433 -0.5586 -0.3440 -1.1326
 1401SOL    HW215663   0.003   0.233   2.388 -0.5062  0.7331 -1.2432
 1402SOL     OW15664   1.732   3.010  15.021 -0.8660  0.3109 -0.2261
 1402SOL    HW115665   1.716   3.065  15.098 -1.6436 -1.3595  0.7905
 1402SOL    HW215666   1.799   2.948  15.049 -0.1462  0.6023 -1.2858
 1403SOL     OW15667   0.876   0.355   6.032 -0.3855 -0.2360 -0.0945
 1403SOL    HW115668   0.927   0.336   5.954 -1.0949 -1.1780 -0.3245
 1403SOL    HW215669   0.946   0.341   6.095  0.7457  1.0912 -1.0503
 1404SOL     OW15670   2.027   2.815   9.995 -0.3437 -0.1870 -0.6102
 1404SOL    HW115671   2.069   2.880  10.052  0.7115 -0.4457 -1.0940
 1404SOL    HW215672   1.947   2.799  10.045 -0.6109 -3.7078 -2.2225
 1405SOL     OW15673   0.777   4.691   4.306 -0.2327 -0.3384  0.2954
 1405SOL    HW115674   0.808   0.055   4.286  0.3161 -0.8277 -0.9834
 1405SOL    HW215675   0.741   4.709   4.393 -0.2520 -0.9440  0.4126
 1406SOL     OW15676   2.442   2.796   7.311  0.3553 -1.1317  0.2844
 1406SOL    HW115677   2.503   2.868   7.327 -0.7506 -0.4599  1.4910
 1406SOL    HW215678   2.472   2.731   7.376  0.9351 -1.6261 -0.4790
 1407SOL     OW15679   0.596   2.366   0.149  0.0217 -0.4039  0.6026
 1407SOL    HW115680   0.513   2.386   0.193  0.2332  1.3488  0.2032
 1407SOL    HW215681   0.644   2.323   0.220  1.6178 -0.5564 -0.5785
 1408SOL     OW15682   2.238   2.966   5.620  0.1492  0.3330 -0.6576
 1408SOL    HW115683   2.201   2.929   5.540 -1.1536 -2.4473  1.2218
 1408SOL    HW215684   2.214   2.901   5.686  1.4031  1.0000  0.4553
 1409SOL     OW15685   4.506   2.162   4.931  0.2352  0.6836  0.6511
 1409SOL    HW115686   4.459   2.241   4.906  2.6694  1.9992  0.1997
 1409SOL    HW215687   4.570   2.137   4.864 -3.2025 -1.8067 -1.7099
 1410SOL     OW15688   4.719   3.211   3.621  0.4941  0.0945  0.0651
 1410SOL    HW115689   0.043   3.223   3.540  0.9082 -0.1558  0.2743
 1410SOL    HW215690   0.063   3.175   3.678 -1.4297  0.4194  2.5727
 1411SOL     OW15691   0.831   0.810   0.803 -0.4207 -0.4556  0.5996
 1411SOL    HW115692   0.846   0.722   0.838  1.4926 -0.8374 -1.1983
 1411SOL    HW215693   0.895   0.859   0.855  0.7437 -1.4677  0.1390
 1412SOL     OW15694   4.203   3.816   1.981  0.2468 -0.2538  0.4709
 1412SOL    HW115695   4.272   3.762   1.942 -1.2617 -0.9280 -1.2299
 1412SOL    HW215696   4.120   3.786   1.944  0.3477 -0.7851  0.6747
 1413SOL     OW15697   2.733   2.172   4.677 -0.3669  0.3468 -0.3607
 1413SOL    HW115698   2.754   2.098   4.620  1.3371  1.7080 -1.5186
 1413SOL    HW215699   2.655   2.201   4.630  0.4767  3.6418  0.2333
 1414SOL     OW15700   3.701   4.034   9.081 -0.2813  0.2166 -0.1497
 1414SOL    HW115701   3.655   3.994   9.154  0.3886 -1.5516 -0.7028
 1414SOL    HW215702   3.788   4.025   9.121  0.2763 -2.1127 -1.8666
 1415SOL     OW15703   3.364   4.674   9.584  0.2317  0.0764 -0.2857
 1415SOL    HW115704   3.322   4.656   9.500  0.6320  3.2606 -1.1785
 1415SOL    HW215705   3.289   4.682   9.643  1.5715  2.7633  1.0250
 1416SOL     OW15706   2.350   4.365   0.251 -0.7440  0.4133 -0.6835
 1416SOL    HW115707   2.274   4.307   0.258  0.8655 -1.4458  1.5436
 1416SOL    HW215708   2.411   4.318   0.309 -0.7077  0.2683 -0.8395
 1417SOL     OW15709   3.021   1.391   6.785  0.3454 -0.6308  0.5317
 1417SOL    HW115710   3.009   1.469   6.839  0.4477 -1.6061  1.9645
 1417SOL    HW215711   3.028   1.328   6.857 -1.3978 -1.4298  0.0048
 1418SOL     OW15712   3.337   1.663   1.751 -0.3106 -0.1496 -0.1353
 1418SOL    HW115713   3.373   1.704   1.673 -1.8081 -0.2917 -0.9029
 1418SOL    HW215714   3.264   1.722   1.768  0.0227 -0.3742  2.0931
 1419SOL     OW15715   1.245   2.714   0.785 -0.3797  0.4966 -0.3071
 1419SOL    HW115716   1.260   2.622   0.806 -2.8145 -0.6378 -3.4223
 1419SOL    HW215717   1.179   2.732   0.852  0.2952  0.5359  0.3513
 1420SOL     OW15718   2.096   3.826   3.000  0.5330  0.3890 -0.1148
 1420SOL    HW115719   2.048   3.836   3.082  1.2682 -2.9111  0.6998
 1420SOL    HW215720   2.150   3.749   3.014  1.5571  1.2748  0.8098
 1421SOL     OW15721   0.739   2.512   6.277 -0.6803 -0.0161 -0.2260
 1421SOL    HW115722   0.733   2.538   6.368 -1.4893 -1.1351  0.0344
 1421SOL    HW215723   0.743   2.596   6.232  0.4974 -0.5931 -1.2082
 1422SOL     OW15724   0.090   1.035  12.318  0.3309 -0.4749 -0.2639
 1422SOL    HW115725   0.158   0.974  12.345 -0.5379 -0.8460  1.0729
 1422SOL    HW215726   0.036   1.032  12.397  0.4184  2.6153 -0.0510
 1423SOL     OW15727   1.832   2.657  14.472  0.2206 -0.1331  0.4170
 1423SOL    HW115728   1.787   2.639  14.389 -2.1166 -0.6909  1.8124
 1423SOL    HW215729   1.914   2.696  14.442 -1.3675  3.9449  1.3366
 1424SOL     OW15730   3.601   4.452   8.987  0.1209 -0.0474  0.1510
 1424SOL    HW115731   3.523   4.504   9.009  0.7447  0.2416  1.6667
 1424SOL    HW215732   3.635   4.426   9.072 -0.0577  1.4655  0.6953
 1425SOL     OW15733   2.704   1.378   3.705  0.4137  0.1433  0.3709
 1425SOL    HW115734   2.705   1.285   3.682  0.3491  0.5047 -1.0899
 1425SOL    HW215735   2.692   1.424   3.622  0.2997  0.1001  0.3630
 1426SOL     OW15736   3.586   0.884   8.147  0.6246  0.2337 -0.4583
 1426SOL    HW115737   3.599   0.866   8.240  1.5057 -0.0660 -0.6449
 1426SOL    HW215738   3.666   0.848   8.110 -0.2853  0.1798 -2.3874
 1427SOL     OW15739   3.452   3.565  13.892  0.1767  0.3951 -0.0561
 1427SOL    HW115740   3.427   3.585  13.983  0.9389  1.7074 -0.1367
 1427SOL    HW215741   3.376   3.579  13.836  0.4779 -0.9268 -0.7899
 1428SOL     OW15742   1.994   3.385  10.079 -0.2625 -0.1990  0.2551
 1428SOL    HW115743   2.047   3.464  10.095  0.0863 -0.6802  1.4529
 1428SOL    HW215744   1.999   3.380   9.984 -3.0720  1.8882 -0.0223
 1429SOL     OW15745   1.234   4.541  16.877  0.5691 -0.1255 -0.3304
 1429SOL    HW115746   1.228   4.607  16.809  0.3581 -0.5130 -0.6846
 1429SOL    HW215747   1.257   4.469  16.818 -1.6091  0.5903 -2.0598
 1430SOL     OW15748   2.984   1.406  10.418 -0.7281  0.5487 -0.6394
 1430SOL    HW115749   2.902   1.389  10.466 -0.6677  1.2246 -0.2982
 1430SOL    HW215750   3.044   1.359  10.475 -2.8472  1.8406  2.6323
 1431SOL     OW15751   1.080   1.266  13.220  0.2355  0.3528  0.3523
 1431SOL    HW115752   1.132   1.331  13.267 -1.3985  1.5027  0.5823
 1431SOL    HW215753   1.143   1.196  13.234  0.2435  0.7720  2.4194
 1432SOL     OW15754   2.904   3.883   8.152  0.6822 -0.5310  1.0059
 1432SOL    HW115755   2.963   3.898   8.078 -1.5419  1.9915 -0.2657
 1432SOL    HW215756   2.965   3.902   8.223  1.6305  1.0743 -0.2338
 1433SOL     OW15757   2.629   3.478   2.703  0.2640 -0.5465 -0.3739
 1433SOL    HW115758   2.608   3.384   2.708  0.0856 -0.4080  1.4178
 1433SOL    HW215759   2.627   3.476   2.607  1.1499  1.6809 -0.4236
 1434SOL     OW15760   2.021   1.068   4.400  1.0555 -0.2859 -0.7066
 1434SOL    HW115761   2.016   0.985   4.354  0.6090 -0.3142 -0.6065
 1434SOL    HW215762   1.954   1.114   4.350  2.9769  0.2472 -2.7987
 1435SOL     OW15763   3.622   1.760   4.312  0.5652 -0.2343 -0.9132
 1435SOL    HW115764   3.639   1.771   4.406 -0.9991  0.6210 -0.7209
 1435SOL    HW215765   3.572   1.679   4.313  4.4218 -2.6137 -1.7420
 1436SOL     OW15766   1.357   2.448   8.968  0.2138 -0.1797  0.3063
 1436SOL    HW115767   1.279   2.449   9.024  1.7938  1.6587  2.5148
 1436SOL    HW215768   1.326   2.396   8.894 -0.1983 -0.0375  0.3801
 1437SOL     OW15769   2.312   0.964   7.944  0.2573 -0.4355 -0.3928
 1437SOL    HW115770   2.226   0.991   7.912  0.5489 -0.0963 -0.8854
 1437SOL    HW215771   2.301   0.952   8.039 -2.2193 -2.5714 -0.9567
 1438SOL     OW15772   0.081   0.288   6.505  0.1491  0.5189 -0.0896
 1438SOL    HW115773   0.046   0.294   6.416 -0.7479 -0.9711  0.1445
 1438SOL    HW215774   0.078   0.192   6.509  0.1561  0.6355  3.4181
 1439SOL     OW15775   4.345   3.156   7.205 -0.1615 -0.0440  0.1622
 1439SOL    HW115776   4.377   3.172   7.294 -0.7604  0.8570  0.2202
 1439SOL    HW215777   4.267   3.212   7.213 -1.3842 -1.5878 -1.0078
 1440SOL     OW15778   0.579   4.190  14.864  0.5514  1.0825 -0.0169
 1440SOL    HW115779   0.598   4.098  14.846 -2.0385  0.7509 -1.0728
 1440SOL    HW215780   0.517   4.212  14.795  0.7969  0.0194 -0.5696
 1441SOL     OW15781   0.380   3.201  15.552  0.3106 -0.0614 -0.3438
 1441SOL    HW115782   0.321   3.274  15.571  2.4778  1.4084  0.7561
 1441SOL    HW215783   0.334   3.156  15.481 -1.3112 -0.8051  1.1758
 1442SOL     OW15784   3.425   0.001  10.747 -0.4942  0.9634  0.5355
 1442SOL    HW115785   3.333   4.699  10.753  0.0404 -1.1228 -0.5692
 1442SOL    HW215786   3.435   0.068  10.816 -1.5593  0.0525  1.5886
 1443SOL     OW15787   4.631   3.785  15.250  0.4639  0.3216 -0.4824
 1443SOL    HW115788   4.683   3.849  15.203  1.3030 -0.2213 -0.3010
 1443SOL    HW215789   4.572   3.844  15.296  0.6299 -0.5505  0.8596
 1444SOL     OW15790   4.339   3.381   4.340 -0.5104 -0.0354 -0.4907
 1444SOL    HW115791   4.411   3.411   4.395 -3.1143  0.7378  2.5178
 1444SOL    HW215792   4.277   3.344   4.403 -0.4430  2.2269  0.8992
 1445SOL     OW15793   0.699   1.353   5.397  0.0096 -0.4247 -0.4819
 1445SOL    HW115794   0.745   1.437   5.389 -0.8830 -0.2577 -3.8853
 1445SOL    HW215795   0.613   1.373   5.361 -0.5739  0.6407  1.5285
 1446SOL     OW15796   3.630   4.360   1.056 -0.4127  0.2473  0.0023
 1446SOL    HW115797   3.555   4.304   1.038  0.2613 -0.5750 -0.2701
 1446SOL    HW215798   3.695   4.303   1.096  0.1979  0.9433  0.0067
 1447SOL     OW15799   2.331   1.615   5.276  0.1276 -0.4081  0.5083
 1447SOL    HW115800   2.320   1.571   5.360 -2.8332 -0.3701  0.1560
 1447SOL    HW215801   2.342   1.546   5.210 -1.2337 -0.7567  0.6476
 1448SOL     OW15802   2.868   1.802   2.387  0.1672  0.3789 -0.7345
 1448SOL    HW115803   2.886   1.867   2.319 -0.0142 -0.5233 -1.6306
 1448SOL    HW215804   2.791   1.840   2.431  1.0363 -0.0315  1.1394
 1449SOL     OW15805   4.670   2.199   9.532  0.0717 -0.2168 -0.2501
 1449SOL    HW115806   4.713   2.177   9.449 -1.1148 -2.3485 -0.3027
 1449SOL    HW215807   4.724   2.267   9.572 -0.3055  1.4294 -2.5181
 1450SOL     OW15808   3.979   4.547   0.979 -0.0221  0.5320 -0.3919
 1450SOL    HW115809   3.917   4.505   0.919 -2.2939  1.4927  1.2874
 1450SOL    HW215810   4.030   4.477   1.020 -0.6463  0.5960  0.4942
 1451SOL     OW15811   1.710   0.140   7.633  0.6040 -0.8559  0.1590
 1451SOL    HW115812   1.746   0.212   7.581  0.4287 -0.0324  1.1594
 1451SOL    HW215813   1.620   0.142   7.602  0.6534 -0.0862  0.0619
 1452SOL     OW15814   1.161   3.218   4.138  0.1112 -0.6120  0.4918
 1452SOL    HW115815   1.130   3.206   4.049  0.4323 -1.8975  0.5508
 1452SOL    HW215816   1.201   3.132   4.152  0.5961 -0.7047 -1.5849
 1453SOL     OW15817   0.366   1.086   8.559 -0.7254 -0.1362  0.4073
 1453SOL    HW115818   0.458   1.062   8.565 -0.3127  1.2229 -0.6044
 1453SOL    HW215819   0.340   1.046   8.476 -1.2656 -2.5792  1.7501
 1454SOL     OW15820   2.915   3.348  11.166  0.2077  0.3902 -0.3658
 1454SOL    HW115821   3.000   3.313  11.191 -0.6121 -1.5688 -0.3221
 1454SOL    HW215822   2.885   3.272  11.116  0.0856 -0.7497  1.4442
 1455SOL     OW15823   3.700   2.519   6.124 -0.1649  0.2391 -0.8720
 1455SOL    HW115824   3.625   2.550   6.176 -1.0561 -0.2892 -1.8419
 1455SOL    HW215825   3.705   2.589   6.060  0.4303  0.3109 -0.7479
 1456SOL     OW15826   2.357   1.801   0.430 -0.0439 -0.3573 -0.1017
 1456SOL    HW115827   2.404   1.739   0.374 -3.4234 -2.3816 -0.6458
 1456SOL    HW215828   2.327   1.749   0.505  1.0188  0.1079  0.6489
 1457SOL     OW15829   2.632   3.572  15.228 -0.6153 -0.2962  0.4761
 1457SOL    HW115830   2.703   3.634  15.244 -1.6397  0.8534  0.5986
 1457SOL    HW215831   2.595   3.622  15.155  0.5538  0.6590  0.5339
 1458SOL     OW15832   2.941   1.681   6.991 -0.3790  0.5242 -0.0867
 1458SOL    HW115833   2.867   1.656   7.046 -0.1045 -1.1884 -0.4860
 1458SOL    HW215834   3.004   1.665   7.061  1.4124 -0.8315 -1.9864
 1459SOL     OW15835   0.637   2.762   2.452 -0.4301 -0.3924 -0.2633
 1459SOL    HW115836   0.717   2.717   2.425 -0.0124 -0.1011  0.5051
 1459SOL    HW215837   0.581   2.743   2.376 -1.4310 -0.1891  0.4263
 1460SOL     OW15838   1.079   2.783   3.207  0.1966 -0.2153  0.3006
 1460SOL    HW115839   1.155   2.808   3.260 -0.9941  1.2551  1.3089
 1460SOL    HW215840   1.063   2.700   3.252 -1.3879 -0.6783 -1.0787
 1461SOL     OW15841   0.439   4.274   7.518 -0.6562  0.4728  0.3449
 1461SOL    HW115842   0.440   4.350   7.460 -0.9934 -1.2181 -1.8754
 1461SOL    HW215843   0.532   4.284   7.540 -0.4118  0.5068 -0.7314
 1462SOL     OW15844   3.121   0.959  10.729  0.2454 -0.4334 -0.2117
 1462SOL    HW115845   3.092   0.923  10.645 -0.9553 -1.2353  0.5522
 1462SOL    HW215846   3.040   1.002  10.753 -0.6035 -1.9398 -0.3773
 1463SOL     OW15847   4.437   0.336  16.324 -0.2669  0.1814 -0.4080
 1463SOL    HW115848   4.442   0.265  16.388  0.9365 -0.3173 -1.0527
 1463SOL    HW215849   4.348   0.320  16.294 -0.9824  1.0747  1.2350
 1464SOL     OW15850   2.597   2.821   3.351  0.1978 -0.3040 -0.0774
 1464SOL    HW115851   2.551   2.892   3.306  1.1834  0.0962 -0.4575
 1464SOL    HW215852   2.611   2.866   3.435  1.7709  0.3262 -0.6758
 1465SOL     OW15853   3.989   0.402   7.891  0.1788  0.3036  0.1149
 1465SOL    HW115854   4.083   0.387   7.885 -0.2992 -2.6567 -0.2070
 1465SOL    HW215855   3.981   0.492   7.860 -0.0322 -0.1515 -1.1225
 1466SOL     OW15856   2.217   4.642   8.600  0.3201 -0.6677  0.1723
 1466SOL    HW115857   2.162   4.622   8.525  0.4668  0.5661 -0.2663
 1466SOL    HW215858   2.164   4.712   8.638 -1.3977 -0.4990 -2.5276
 1467SOL     OW15859   2.921   2.836  14.353  0.0264 -0.1928 -0.0792
 1467SOL    HW115860   2.963   2.850  14.268  1.0182  0.7003  0.5470
 1467SOL    HW215861   2.883   2.920  14.380  1.3538  1.4861 -3.3754
 1468SOL     OW15862   3.819   0.899   4.037 -0.2192 -0.1797  0.2654
 1468SOL    HW115863   3.841   0.859   4.121  2.8033  0.2562 -0.3179
 1468SOL    HW215864   3.727   0.871   4.037  0.5724 -2.7763 -0.0026
 1469SOL     OW15865   2.679   2.106   7.314 -0.1563  0.2451  0.2193
 1469SOL    HW115866   2.597   2.102   7.265  0.2376 -1.1861 -0.3195
 1469SOL    HW215867   2.648   2.064   7.394 -0.3233 -0.3258 -0.1459
 1470SOL     OW15868   0.744   3.391  15.013 -0.3890  0.5199  0.0631
 1470SOL    HW115869   0.691   3.368  14.936 -0.3702 -0.3654  0.3187
 1470SOL    HW215870   0.830   3.392  14.970 -0.7530 -1.4920 -0.6974
 1471SOL     OW15871   0.585   2.787   8.012 -0.3352  0.4143 -0.5928
 1471SOL    HW115872   0.610   2.815   8.100 -0.4539  0.6732 -0.6411
 1471SOL    HW215873   0.663   2.800   7.958 -0.5768  1.3988 -0.7074
 1472SOL     OW15874   4.407   0.910   7.654  0.1360  0.2381  0.4519
 1472SOL    HW115875   4.391   0.885   7.746 -0.5707  1.5808  0.6876
 1472SOL    HW215876   4.316   0.899   7.629  0.6714 -0.5922 -1.1091
 1473SOL     OW15877   2.221   3.868   4.359  0.4908 -0.0545  0.0946
 1473SOL    HW115878   2.159   3.866   4.431  0.0626 -0.9190 -0.2987
 1473SOL    HW215879   2.272   3.789   4.379  0.8339  0.0708 -0.2801
 1474SOL     OW15880   1.410   2.722   2.739  0.5588  0.2010  0.2996
 1474SOL    HW115881   1.344   2.654   2.754  1.5775 -0.6671  0.8703
 1474SOL    HW215882   1.419   2.719   2.644  1.8282 -1.0068  0.4612
 1475SOL     OW15883   3.792   0.165   3.759  0.0208 -0.1684  0.3881
 1475SOL    HW115884   3.803   0.254   3.728  0.8649 -0.2235  0.5254
 1475SOL    HW215885   3.853   0.115   3.705  1.1171 -0.6261  2.0295
 1476SOL     OW15886   0.984   1.446  17.181 -0.4547  0.5875  0.3332
 1476SOL    HW115887   1.025   1.492  17.107 -1.0175  1.0428  0.3055
 1476SOL    HW215888   0.991   1.521  17.240  0.1698  2.3133 -1.9211
 1477SOL     OW15889   2.135   3.510   5.633 -0.0398 -0.6939  0.7058
 1477SOL    HW115890   2.201   3.556   5.581  0.4900 -1.9438  0.2815
 1477SOL    HW215891   2.194   3.485   5.704  2.2268  1.8758 -0.2404
 1478SOL     OW15892   1.254   4.299  17.257 -0.1968 -0.1636 -0.1058
 1478SOL    HW115893   1.188   4.367  17.242  0.3936  0.2109 -0.9912
 1478SOL    HW215894   1.209   4.220  17.229 -0.8971 -0.4591  1.8301
 1479SOL     OW15895   2.448   1.566   6.623  0.2139 -0.1695  0.3377
 1479SOL    HW115896   2.448   1.531   6.534  0.8691  0.5736  0.0473
 1479SOL    HW215897   2.360   1.548   6.656 -0.5829 -0.1328 -1.7526
 1480SOL     OW15898   1.935   2.332  13.100  0.4456  0.0446  0.7499
 1480SOL    HW115899   1.889   2.416  13.112  0.1453 -0.2243  1.4817
 1480SOL    HW215900   1.868   2.272  13.133 -1.3144  1.5857  0.0255
 1481SOL     OW15901   1.147   2.272   3.121  0.0196  0.0558 -0.5928
 1481SOL    HW115902   1.186   2.200   3.169 -0.0307  1.0645  0.9761
 1481SOL    HW215903   1.067   2.284   3.173  1.4287  1.1010  1.3543
 1482SOL     OW15904   1.077   4.435  16.064  0.3958 -0.4421  0.2711
 1482SOL    HW115905   1.029   4.365  16.019 -2.1422  1.7682 -0.4760
 1482SOL    HW215906   1.015   4.452  16.134 -1.9709 -0.2780 -1.8765
 1483SOL     OW15907   4.136   1.974   1.556 -0.2841 -0.2056 -0.5974
 1483SOL    HW115908   4.086   1.966   1.637 -1.2763  2.1169 -0.9935
 1483SOL    HW215909   4.152   1.882   1.532 -1.3858 -0.1376 -1.6117
 1484SOL     OW15910   0.615   0.253   0.446 -0.1289 -0.1845 -0.3638
 1484SOL    HW115911   0.652   0.267   0.533 -0.3313 -0.0852 -0.2931
 1484SOL    HW215912   0.544   0.198   0.479  0.4430 -1.9749 -2.1442
 1485SOL     OW15913   4.369   2.675   0.285  0.3514  0.3341  0.6270
 1485SOL    HW115914   4.397   2.645   0.198  0.7483  1.6600  0.2995
 1485SOL    HW215915   4.357   2.768   0.267  1.6659  0.9207  2.8174
 1486SOL     OW15916   4.102   0.958   1.538 -0.8779  0.1619  0.3969
 1486SOL    HW115917   4.133   0.886   1.482 -1.1916  0.8905 -0.7209
 1486SOL    HW215918   4.183   0.997   1.569 -1.7926  2.3628  0.0107
 1487SOL     OW15919   3.459   3.324   7.835 -0.1199  0.5322 -0.1581
 1487SOL    HW115920   3.546   3.359   7.820  0.4655 -0.0982  1.7818
 1487SOL    HW215921   3.456   3.318   7.931 -1.3115 -1.7035 -0.3272
 1488SOL     OW15922   1.052   3.526   5.888 -0.0128 -0.1684  0.0824
 1488SOL    HW115923   0.998   3.510   5.965 -0.8469  0.5890 -0.3362
 1488SOL    HW215924   1.028   3.452   5.832 -0.4842 -0.0097  0.0733
 1489SOL     OW15925   2.650   0.578   8.310 -0.1714  0.1452 -0.2202
 1489SOL    HW115926   2.704   0.572   8.389 -1.3523  0.9219  0.6447
 1489SOL    HW215927   2.704   0.624   8.246 -0.3243  0.9444  0.2242
 1490SOL     OW15928   2.234   0.740   6.166 -0.0090  0.5474  0.0816
 1490SOL    HW115929   2.163   0.779   6.114 -2.0425 -1.0776  1.6486
 1490SOL    HW215930   2.300   0.745   6.097 -1.9070 -2.0536 -1.8908
 1491SOL     OW15931   2.582   2.497   3.458 -0.4206 -0.0946  0.6905
 1491SOL    HW115932   2.530   2.568   3.496 -1.0457  0.8573 -1.9605
 1491SOL    HW215933   2.666   2.543   3.461 -0.5950  0.3387 -0.9191
 1492SOL     OW15934   0.143   4.017   7.195  0.3160  0.5033 -0.5047
 1492SOL    HW115935   0.180   3.988   7.278 -0.2548  0.1155 -0.3888
 1492SOL    HW215936   0.165   4.109   7.212 -2.7392  0.5414  3.1561
 1493SOL     OW15937   3.011   2.264   2.441  0.3416 -0.1258  0.1011
 1493SOL    HW115938   3.035   2.342   2.490  2.8458  0.1611 -1.6172
 1493SOL    HW215939   2.989   2.299   2.355  0.1067 -2.2178 -0.6849
 1494SOL     OW15940   2.098   2.818   6.907  0.0730 -0.1259  0.3320
 1494SOL    HW115941   2.135   2.819   6.995 -0.1421 -0.1257  0.4234
 1494SOL    HW215942   2.007   2.811   6.935 -0.1531  3.1447  0.3963
 1495SOL     OW15943   2.513   3.970   7.023 -0.7102 -0.2017 -0.0506
 1495SOL    HW115944   2.508   3.928   6.937  1.0313  1.0487 -0.7476
 1495SOL    HW215945   2.527   3.896   7.082 -0.9832  0.6449  1.0643
 1496SOL     OW15946   4.478   2.831   8.586 -0.4012  0.2731  0.0019
 1496SOL    HW115947   4.536   2.755   8.579 -2.3432 -1.2842  0.4325
 1496SOL    HW215948   4.459   2.834   8.680 -1.3605 -0.3108 -0.1682
 1497SOL     OW15949   0.317   3.645   3.890 -0.3373  0.1866  0.4522
 1497SOL    HW115950   0.364   3.573   3.847  0.5527  2.6728 -2.6988
 1497SOL    HW215951   0.323   3.635   3.985 -1.5797 -0.5812  0.4602
 1498SOL     OW15952   0.962   2.380   4.914 -0.3286 -0.0684  0.0504
 1498SOL    HW115953   1.007   2.311   4.964 -0.0474 -0.4465 -0.7280
 1498SOL    HW215954   0.898   2.331   4.862  0.2018  1.3578 -1.9287
 1499SOL     OW15955   3.036   2.516   9.271 -0.2370 -0.6373 -0.1179
 1499SOL    HW115956   3.008   2.603   9.241  2.0218  0.3588  0.6915
 1499SOL    HW215957   3.011   2.520   9.363 -2.0384 -1.0043 -0.5810
 1500SOL     OW15958   4.601   4.219   4.322 -0.1145  0.1220  0.2577
 1500SOL    HW115959   4.680   4.169   4.302 -0.4819 -0.7142  0.9094
 1500SOL    HW215960   4.551   4.149   4.364  2.7215 -1.8011  0.3967
 1501SOL     OW15961   1.247   4.649   3.050  0.6871  0.9434 -0.2839
 1501SOL    HW115962   1.173   4.709   3.039  0.9732  1.1815 -0.9521
 1501SOL    HW215963   1.291   4.668   2.966  0.7422 -0.5908 -0.5964
 1502SOL     OW15964   1.020   0.699  11.405  0.4597 -0.1445  0.4244
 1502SOL    HW115965   0.953   0.695  11.474 -1.0972  0.1063 -1.0778
 1502SOL    HW215966   1.078   0.747  11.464  2.7087  1.7080 -3.3287
 1503SOL     OW15967   0.579   3.042   4.139 -0.0930 -0.1715  0.1670
 1503SOL    HW115968   0.661   3.029   4.092 -0.7677  1.8841 -1.5767
 1503SOL    HW215969   0.612   3.074   4.222  0.7830 -0.7984  0.0612
 1504SOL     OW15970   0.695   0.607   8.853  0.3206  0.3733  0.7898
 1504SOL    HW115971   0.732   0.586   8.939  1.4386  3.0640  0.9747
 1504SOL    HW215972   0.772   0.653   8.820 -0.2321 -0.1777 -1.2571
 1505SOL     OW15973   0.521   1.223   3.168  0.7987 -0.4755  0.0304
 1505SOL    HW115974   0.502   1.156   3.102  0.3526  0.3574 -0.6874
 1505SOL    HW215975   0.596   1.256   3.119 -0.3769  3.8220  1.1799
 1506SOL     OW15976   1.804   0.025  12.274 -0.0868  0.0453 -0.2372
 1506SOL    HW115977   1.850   0.102  12.307 -1.0686  0.9673 -1.0329
 1506SOL    HW215978   1.873   4.714  12.217 -1.1300  0.1581 -1.5778
 1507SOL     OW15979   1.368   4.624   5.009 -0.3675 -0.8781 -0.0519
 1507SOL    HW115980   1.448   4.636   5.059 -0.1103 -2.9673  0.0264
 1507SOL    HW215981   1.392   4.614   4.916 -1.7974 -0.3895 -0.4787
 1508SOL     OW15982   1.485   0.281   7.139 -0.1410  0.1861 -0.2397
 1508SOL    HW115983   1.408   0.227   7.120 -1.2536  1.8117 -0.2785
 1508SOL    HW215984   1.452   0.332   7.212 -1.6143 -0.4907 -0.4261
 1509SOL     OW15985   1.965   3.329  13.414 -0.7669 -0.1375  0.7432
 1509SOL    HW115986   1.991   3.400  13.355 -0.0798  0.0549  1.2804
 1509SOL    HW215987   1.963   3.380  13.494 -2.6950  0.1451  0.5036
 1510SOL     OW15988   0.389   3.419  12.261 -0.1270 -0.4076 -0.3017
 1510SOL    HW115989   0.405   3.454  12.348  1.0155 -1.4658 -0.0840
 1510SOL    HW215990   0.475   3.379  12.252  0.3106  0.4154  0.3004
 1511SOL     OW15991   3.860   3.645   2.692  0.2606  0.5372  0.1988
 1511SOL    HW115992   3.890   3.735   2.686  0.3718  0.5167  0.4673
 1511SOL    HW215993   3.767   3.657   2.670  0.1738 -0.4603 -0.0064
 1512SOL     OW15994   4.571   4.604  16.541 -0.4005  0.1115  0.7597
 1512SOL    HW115995   4.503   4.574  16.601  0.1377 -1.1693  0.7342
 1512SOL    HW215996   4.573   4.524  16.488  0.9732 -0.1741  1.2324
 1513SOL     OW15997   3.783   3.546  16.983 -0.1191  0.1232 -0.0070
 1513SOL    HW115998   3.743   3.478  17.038  1.7194 -2.1493 -1.4974
 1513SOL    HW215999   3.853   3.580  17.038 -0.9330 -0.7672  1.5757
 1514SOL     OW16000   4.363   0.079  12.207 -0.5907 -0.8708 -0.5873
 1514SOL    HW116001   4.435   0.137  12.232  0.2171 -2.6920  1.3391
 1514SOL    HW216002   4.324   0.090  12.294 -0.7772  0.0735 -0.7893
 1515SOL     OW16003   0.947   2.552   3.813  0.1067  0.1780 -0.2114
 1515SOL    HW116004   0.900   2.595   3.884 -1.7504 -1.3830 -0.4781
 1515SOL    HW216005   0.909   2.465   3.821 -3.9058  1.7138 -2.3806
 1516SOL     OW16006   4.658   1.420  16.875 -0.1074 -0.5051  0.9190
 1516SOL    HW116007   4.567   1.428  16.906 -0.4433 -4.8899  1.1548
 1516SOL    HW216008   4.642   1.429  16.781 -1.8393  0.2499  1.2891
 1517SOL     OW16009   3.245   3.760  17.240 -0.5822 -0.0319  0.4104
 1517SOL    HW116010   3.217   3.751  17.331  1.7692  0.5496  1.1936
 1517SOL    HW216011   3.242   3.668  17.214  0.1566  0.7915 -2.6157
 1518SOL     OW16012   4.434   1.028  16.504  0.0884 -0.1282 -0.2947
 1518SOL    HW116013   4.381   0.999  16.430 -0.7760  1.0081 -0.1221
 1518SOL    HW216014   4.377   1.090  16.549 -0.2145 -0.5651 -0.0761
 1519SOL     OW16015   1.600   3.688   3.557  0.2819  0.0415  0.0082
 1519SOL    HW116016   1.569   3.738   3.481 -0.9640  0.5118  0.8268
 1519SOL    HW216017   1.581   3.600   3.526 -0.1744 -0.0297  0.4816
 1520SOL     OW16018   0.674   3.003   2.848 -0.5517  0.2170 -0.3969
 1520SOL    HW116019   0.675   2.922   2.899 -0.6138  0.0573 -0.6510
 1520SOL    HW216020   0.630   3.059   2.912  0.0765 -0.3861  0.5670
 1521SOL     OW16021   1.927   3.777  16.121 -0.2471  0.4717  0.4740
 1521SOL    HW116022   1.983   3.842  16.078  0.8272  1.4070  3.2630
 1521SOL    HW216023   1.839   3.805  16.098  0.4177  1.7443 -0.5144
 1522SOL     OW16024   1.747   2.819   7.909  0.0158 -0.4416 -0.4204
 1522SOL    HW116025   1.839   2.818   7.882  0.0052 -1.2461 -0.4266
 1522SOL    HW216026   1.715   2.884   7.847 -0.2209 -0.3209 -0.1680
 1523SOL     OW16027   1.667   0.926   4.392 -0.5292  0.2389  0.1317
 1523SOL    HW116028   1.702   0.931   4.481  0.1361 -0.1312 -0.1151
 1523SOL    HW216029   1.728   0.869   4.345 -0.1827  1.0165 -0.3524
 1524SOL     OW16030   4.487   3.682  11.512  0.3859  0.2935 -0.3165
 1524SOL    HW116031   4.473   3.773  11.488  0.5231  0.0148 -1.4696
 1524SOL    HW216032   4.464   3.684  11.605  0.6724  2.0096 -0.2856
 1525SOL     OW16033   1.181   0.689   0.939  0.2666  0.2960  0.3442
 1525SOL    HW116034   1.192   0.641   1.021 -1.2580 -0.2796  0.1957
 1525SOL    HW216035   1.106   0.651   0.895 -0.8120  0.0041  2.4541
 1526SOL     OW16036   0.268   3.306   8.720  0.1330  0.1384 -0.2896
 1526SOL    HW116037   0.173   3.315   8.712  0.1615  1.1024  0.4977
 1526SOL    HW216038   0.289   3.219   8.686 -1.0616  0.1091 -0.9562
 1527SOL     OW16039   0.870   0.257  11.115  0.5019  0.9096  0.0167
 1527SOL    HW116040   0.883   0.349  11.137 -1.5839  1.2855 -0.2593
 1527SOL    HW216041   0.890   0.245  11.023  1.5955  0.8609  0.2698
 1528SOL     OW16042   1.253   2.727   7.250 -0.1004  0.6456 -0.4741
 1528SOL    HW116043   1.163   2.737   7.279 -0.0537 -3.3718  1.0985
 1528SOL    HW216044   1.305   2.762   7.323 -0.8103  1.0963 -0.1942
 1529SOL     OW16045   1.659   1.157   3.469  0.0774  0.1737 -0.1257
 1529SOL    HW116046   1.737   1.111   3.439 -1.3532 -3.0950  1.2674
 1529SOL    HW216047   1.591   1.140   3.405 -0.6566 -2.0431  1.2510
 1530SOL     OW16048   1.684   3.565   2.776  0.3483  0.0208  0.4363
 1530SOL    HW116049   1.603   3.567   2.827  0.6124  2.2848  0.7712
 1530SOL    HW216050   1.710   3.473   2.770  0.3535  0.0887 -0.5581
 1531SOL     OW16051   3.892   2.876  11.141  0.0783  0.2404 -0.2741
 1531SOL    HW116052   3.886   2.795  11.190  3.1799  0.8914  1.1228
 1531SOL    HW216053   3.916   2.947  11.200  1.2228 -0.7088  0.3782
 1532SOL     OW16054   2.011   0.137   8.222  0.8368  0.6710  0.5536
 1532SOL    HW116055   1.940   0.129   8.285 -2.1560 -0.4799 -2.9781
 1532SOL    HW216056   2.082   0.087   8.263  1.2038  1.0330  0.3655
 1533SOL     OW16057   1.521   1.865   6.247 -0.5670  0.1135 -0.5001
 1533SOL    HW116058   1.470   1.784   6.253  0.0694 -0.2866 -0.4727
 1533SOL    HW216059   1.462   1.910   6.186 -0.1597  1.7109  0.2904
 1534SOL     OW16060   0.609   0.943   7.462 -0.4974  0.3822 -0.2220
 1534SOL    HW116061   0.530   0.930   7.514  0.3405  1.6645  1.3819
 1534SOL    HW216062   0.661   0.975   7.536 -4.4407  2.5477  1.5768
 1535SOL     OW16063   4.470   1.123   6.820 -0.2305  0.2069 -0.2010
 1535SOL    HW116064   4.514   1.044   6.788 -0.9895 -1.2032  2.2284
 1535SOL    HW216065   4.393   1.096   6.871 -0.2796 -0.0621 -0.4141
 1536SOL     OW16066   2.064   4.575   6.818 -0.3409  0.2027 -0.2118
 1536SOL    HW116067   2.140   4.526   6.787  0.4041  0.1195  1.7571
 1536SOL    HW216068   2.068   4.572   6.913 -2.0533 -1.3509 -0.1824
 1537SOL     OW16069   3.288   2.542   8.564 -0.6961  0.0144 -0.7462
 1537SOL    HW116070   3.338   2.482   8.509  0.5961 -1.9199  2.6213
 1537SOL    HW216071   3.202   2.523   8.526 -0.7461 -1.7047  0.2465
 1538SOL     OW16072   3.072   1.835  11.354  0.2579 -0.0345  0.1178
 1538SOL    HW116073   3.050   1.901  11.419  0.2978 -0.5312  0.6307
 1538SOL    HW216074   3.158   1.864  11.324 -0.4375  0.4978 -1.3769
 1539SOL     OW16075   4.396   1.648   8.145  0.2279  0.3048 -0.8381
 1539SOL    HW116076   4.300   1.640   8.141  0.4673 -2.6575 -0.3693
 1539SOL    HW216077   4.415   1.740   8.127  2.1029 -0.4986 -2.9099
 1540SOL     OW16078   4.318   3.031   0.257 -0.4624  0.6837 -0.0214
 1540SOL    HW116079   4.356   3.119   0.254 -0.0115  0.4711 -0.6434
 1540SOL    HW216080   4.344   2.999   0.343  0.5030  1.7136  0.0766
 1541SOL     OW16081   2.087   2.784  17.055  0.6801 -1.0425  0.2511
 1541SOL    HW116082   2.055   2.805  17.143  2.2739 -3.7331  1.4504
 1541SOL    HW216083   2.156   2.725  17.085  1.9270  1.5964  2.6512
 1542SOL     OW16084   4.076   2.232   5.242  0.0930  0.0559  0.3612
 1542SOL    HW116085   4.170   2.247   5.241  0.2040 -0.8222 -1.1589
 1542SOL    HW216086   4.083   2.176   5.165  2.2382  0.6261  0.1495
 1543SOL     OW16087   4.463   3.035  14.809 -0.6468  0.3032 -0.0873
 1543SOL    HW116088   4.481   3.103  14.744  1.5600 -0.7292 -0.5567
 1543SOL    HW216089   4.434   2.967  14.748  1.5720 -1.8000  1.2211
 1544SOL     OW16090   0.492   2.016   5.433 -0.4347 -0.2261 -0.0021
 1544SOL    HW116091   0.525   2.100   5.402 -2.1209  0.0548 -1.0154
 1544SOL    HW216092   0.398   2.028   5.450  0.1560  1.2625  2.1942
 1545SOL     OW16093   3.057   2.532   8.816  0.1560  0.1777 -0.0167
 1545SOL    HW116094   3.067   2.614   8.767  0.3552 -0.3587 -0.8706
 1545SOL    HW216095   3.151   2.523   8.827  0.3190  1.2950 -0.5750
 1546SOL     OW16096   0.978   1.031   8.345  0.4589 -0.4108 -0.1789
 1546SOL    HW116097   0.918   1.084   8.292 -0.8052  0.0879  1.7298
 1546SOL    HW216098   1.060   1.032   8.295 -0.0825  4.1565 -0.9819
 1547SOL     OW16099   0.787   0.823   9.255 -0.3535  0.0824 -0.0917
 1547SOL    HW116100   0.723   0.892   9.240  1.0672  1.1328 -1.3751
 1547SOL    HW216101   0.722   0.766   9.296  1.5167 -2.6146 -0.8830
 1548SOL     OW16102   2.464   3.808   8.250  0.4931 -0.1779  0.4985
 1548SOL    HW116103   2.552   3.800   8.286  1.0909  0.8212 -0.7612
 1548SOL    HW216104   2.415   3.833   8.328 -0.0932 -1.4226  0.5381
 1549SOL     OW16105   3.680   3.821   7.488  0.2918 -0.2656 -0.0066
 1549SOL    HW116106   3.687   3.916   7.494  1.3182 -0.2219 -1.9458
 1549SOL    HW216107   3.742   3.795   7.557  0.4471  0.3867  0.1000
 1550SOL     OW16108   0.043   1.504   4.915 -0.1826  0.0203 -0.0377
 1550SOL    HW116109   0.061   1.595   4.891 -1.1409  0.6824  1.6992
 1550SOL    HW216110   0.124   1.484   4.963  0.2515  1.1926 -0.2764
 1551SOL     OW16111   1.197   2.271  12.461  0.1892 -0.1505  0.1343
 1551SOL    HW116112   1.200   2.183  12.498  1.1796 -0.7366 -1.3346
 1551SOL    HW216113   1.130   2.308  12.519 -0.7088  0.1033 -1.0701
 1552SOL     OW16114   0.073   2.432   3.484 -0.0405 -0.3473 -0.0652
 1552SOL    HW116115   4.720   2.385   3.450 -1.9621  1.1837  2.2050
 1552SOL    HW216116   0.045   2.517   3.451  1.7670 -0.2523 -1.3496
 1553SOL     OW16117   4.553   1.416   3.438  0.1357 -0.1346  0.4386
 1553SOL    HW116118   4.463   1.443   3.417  0.1390 -0.4597  0.0033
 1553SOL    HW216119   4.559   1.347   3.372  2.4811  0.4509  0.0306
 1554SOL     OW16120   3.041   1.109   8.313 -0.0254 -0.6279  0.2953
 1554SOL    HW116121   3.126   1.066   8.310  0.6555  0.8724 -1.5386
 1554SOL    HW216122   3.042   1.143   8.403 -0.3011  1.1928 -0.3989
 1555SOL     OW16123   2.046   1.512   1.702  0.4043 -0.5982 -0.2872
 1555SOL    HW116124   2.009   1.599   1.715 -2.2357 -1.8563  0.5691
 1555SOL    HW216125   2.139   1.533   1.711 -0.4419  2.5003  1.3188
 1556SOL     OW16126   0.375   2.910   0.355 -0.6886 -0.4256 -0.5934
 1556SOL    HW116127   0.454   2.863   0.383 -0.8856  0.4590  1.4356
 1556SOL    HW216128   0.331   2.839   0.307  0.0156 -1.5190  0.3814
 1557SOL     OW16129   0.600   2.632   4.857  0.3392 -0.0977  0.1481
 1557SOL    HW116130   0.637   2.720   4.858 -2.8551  1.2730 -1.1834
 1557SOL    HW216131   0.660   2.592   4.919 -0.8302  0.6990  1.7931
 1558SOL     OW16132   1.461   3.445  13.797  0.2465 -0.1330  0.0748
 1558SOL    HW116133   1.541   3.394  13.786  1.1787  1.3754 -0.1801
 1558SOL    HW216134   1.458   3.456  13.892 -1.5553  2.0224 -0.2136
 1559SOL     OW16135   0.635   0.482   2.951 -0.3298 -0.2604  0.2203
 1559SOL    HW116136   0.680   0.461   2.870 -0.6516  0.6924 -0.2087
 1559SOL    HW216137   0.694   0.448   3.018 -2.3094 -1.4299  1.3815
 1560SOL     OW16138   0.552   0.430   1.470  0.0035 -0.0954  0.2275
 1560SOL    HW116139   0.630   0.475   1.437 -1.0896  0.5330 -1.5026
 1560SOL    HW216140   0.518   0.383   1.394 -0.1057  1.1380 -0.4836
 1561SOL     OW16141   2.812   0.995   8.381  0.2039  0.5237 -0.1506
 1561SOL    HW116142   2.891   1.039   8.352  0.9258 -1.0905 -0.6487
 1561SOL    HW216143   2.824   0.988   8.476  1.7126 -2.3650 -0.5456
 1562SOL     OW16144   4.213   4.225   9.753 -0.3147 -0.5690  0.5202
 1562SOL    HW116145   4.122   4.218   9.723  0.1532  1.4363 -1.3520
 1562SOL    HW216146   4.208   4.187   9.841 -0.4066  2.9166  1.9806
 1563SOL     OW16147   1.045   0.170   8.118  0.0419 -0.1911 -0.3977
 1563SOL    HW116148   1.043   0.142   8.209  0.5721  0.1105 -0.2972
 1563SOL    HW216149   1.122   0.225   8.102 -0.8705  1.7749  2.0446
 1564SOL     OW16150   3.760   1.916  10.091  0.0231  0.3531 -0.0512
 1564SOL    HW116151   3.786   1.913  10.183  0.9369 -0.4992 -0.3386
 1564SOL    HW216152   3.744   1.824  10.071 -1.0912  0.0678  2.1863
 1565SOL     OW16153   3.073   4.181  12.761  0.1326  0.6667 -0.3551
 1565SOL    HW116154   3.001   4.237  12.791  0.4980  0.2183  1.3488
 1565SOL    HW216155   3.017   4.104  12.748  0.4012  0.3186  0.5980
 1566SOL     OW16156   3.732   2.427   5.742 -0.1463  0.7758  0.1384
 1566SOL    HW116157   3.680   2.347   5.746 -0.0073  0.6553 -0.4861
 1566SOL    HW216158   3.763   2.431   5.833 -0.2610 -1.1946  0.2657
 1567SOL     OW16159   0.583   2.009  15.909 -0.6818  0.0722 -0.5983
 1567SOL    HW116160   0.659   2.065  15.897 -0.9668  0.4763 -0.5179
 1567SOL    HW216161   0.611   1.924  15.875 -0.4298 -0.1767  0.2439
 1568SOL     OW16162   3.858   2.922  17.144  0.3667  0.6111  0.0085
 1568SOL    HW116163   3.764   2.938  17.138 -0.0597 -1.8051  0.4296
 1568SOL    HW216164   3.854   2.900  17.237  0.3725 -0.4266 -0.2356
 1569SOL     OW16165   0.138   3.077   2.194 -0.0588 -0.4210 -0.0143
 1569SOL    HW116166   0.061   3.083   2.137  0.7435  1.2518 -0.9156
 1569SOL    HW216167   0.187   3.155   2.169  0.7466 -0.3386  1.8979
 1570SOL     OW16168   0.031   1.706   4.491 -0.1394 -0.1380  0.6748
 1570SOL    HW116169   0.126   1.714   4.495 -0.3819  3.2722 -0.4182
 1570SOL    HW216170   0.011   1.797   4.469  2.3432  0.3817  0.5599
 1571SOL     OW16171   2.559   2.577   4.619  0.4003 -0.4657 -0.0199
 1571SOL    HW116172   2.560   2.614   4.530  0.1193  1.1607  0.6604
 1571SOL    HW216173   2.649   2.546   4.623  0.7866  0.5138 -0.9554
 1572SOL     OW16174   2.454   3.664   9.952  0.3312 -0.2985 -0.2730
 1572SOL    HW116175   2.394   3.732   9.922 -1.9434 -0.7167  3.2751
 1572SOL    HW216176   2.507   3.715  10.014 -0.5360  0.9746 -0.5849
 1573SOL     OW16177   0.959   3.910   0.519  0.1859 -0.2565  0.2282
 1573SOL    HW116178   0.901   3.916   0.595 -1.2270 -1.7470 -0.7258
 1573SOL    HW216179   0.904   3.887   0.445  0.7268 -0.1714 -0.1962
 1574SOL     OW16180   0.592   2.034   5.761  0.5081 -0.4132 -0.0032
 1574SOL    HW116181   0.515   1.978   5.749 -0.5438  1.0430 -0.0981
 1574SOL    HW216182   0.624   2.039   5.671 -1.9767 -2.5397 -1.0272
 1575SOL     OW16183   3.614   1.696   3.154 -0.2009 -0.5603  0.2360
 1575SOL    HW116184   3.527   1.670   3.183 -0.5701 -1.4112 -1.5949
 1575SOL    HW216185   3.661   1.688   3.237 -0.0140  1.9296  0.3724
 1576SOL     OW16186   1.961   1.487   7.740 -0.2281  0.5312 -0.2635
 1576SOL    HW116187   1.999   1.438   7.812 -0.7576 -1.0638 -1.0775
 1576SOL    HW216188   1.966   1.421   7.671  2.4729  0.5101 -0.0404
 1577SOL     OW16189   2.911   3.434   9.131  0.5575 -0.0079 -0.1807
 1577SOL    HW116190   2.882   3.516   9.092 -1.9864 -0.5196  0.6217
 1577SOL    HW216191   2.858   3.368   9.087 -0.7068  0.1318  1.1364
 1578SOL     OW16192   0.028   0.294   6.760  0.1434 -0.5117  0.9130
 1578SOL    HW116193   0.027   0.287   6.664 -0.2376  2.3831  0.7020
 1578SOL    HW216194   4.661   0.303   6.789 -0.4957  1.7396 -1.7539
 1579SOL     OW16195   0.534   3.304   3.392  0.1729  0.1162  0.3276
 1579SOL    HW116196   0.442   3.303   3.365  0.5173  1.2376 -0.8715
 1579SOL    HW216197   0.573   3.352   3.319  0.2701 -1.1847 -0.4703
 1580SOL     OW16198   2.797   2.980  12.846  0.3142  0.4235  0.0375
 1580SOL    HW116199   2.837   2.896  12.870 -1.0340 -0.5051 -0.9205
 1580SOL    HW216200   2.875   3.026  12.817  0.5384 -1.1785 -1.9603
 1581SOL     OW16201   2.210   1.473   5.026  0.1702  0.1955  0.3173
 1581SOL    HW116202   2.191   1.514   4.941 -0.5230 -0.3327  0.2103
 1581SOL    HW216203   2.152   1.520   5.085  0.9092  0.7792  0.5637
 1582SOL     OW16204   2.340   1.452   7.588  0.6301  0.4069 -0.7202
 1582SOL    HW116205   2.343   1.446   7.683  3.0549 -0.5076 -0.8695
 1582SOL    HW216206   2.433   1.470   7.573  0.1577  2.7736 -0.9034
 1583SOL     OW16207   0.858   4.464  16.239 -0.4622  0.2404 -0.1315
 1583SOL    HW116208   0.852   4.385  16.293  2.6682 -0.4926 -0.8594
 1583SOL    HW216209   0.787   4.453  16.176 -0.3725 -1.9965  0.1627
 1584SOL     OW16210   1.043   4.004  14.201 -0.2365 -0.4481  0.0360
 1584SOL    HW116211   1.038   4.018  14.107 -0.4330 -3.4178 -0.4121
 1584SOL    HW216212   1.021   4.092  14.232  1.4113  0.1145 -0.4172
 1585SOL     OW16213   1.266   0.756   0.014 -0.2948 -0.3089 -0.1047
 1585SOL    HW116214   1.307   0.841   0.031 -1.0181  0.3987 -1.8557
 1585SOL    HW216215   1.179   0.788  17.684  0.6368  0.0043 -2.8443
 1586SOL     OW16216   2.203   3.315   4.822  0.6548 -0.0553 -0.2922
 1586SOL    HW116217   2.119   3.280   4.852  0.3771 -0.6753 -1.7537
 1586SOL    HW216218   2.173   3.406   4.813 -2.4853 -1.0565  0.1669
 1587SOL     OW16219   1.953   1.974   6.430 -0.1474  0.3555  0.2101
 1587SOL    HW116220   1.858   1.964   6.438 -0.1223  0.7968  1.1408
 1587SOL    HW216221   1.958   2.028   6.351 -2.2472 -1.0840 -0.9134
 1588SOL     OW16222   0.689   3.819   9.664 -0.2660  0.0659 -0.6881
 1588SOL    HW116223   0.655   3.752   9.605  0.9953  0.1403 -1.4970
 1588SOL    HW216224   0.610   3.860   9.700 -0.8012 -1.1757 -0.4380
 1589SOL     OW16225   4.311   4.044   1.239 -0.1672  0.1934  0.7609
 1589SOL    HW116226   4.359   4.086   1.167 -0.0317  0.0912  0.7918
 1589SOL    HW216227   4.370   3.972   1.261  0.0658  0.2509  0.3357
 1590SOL     OW16228   3.745   3.397   5.260  1.2110 -0.6008  0.0720
 1590SOL    HW116229   3.700   3.428   5.339  0.8186  0.5845 -0.6197
 1590SOL    HW216230   3.737   3.302   5.252  1.3454 -0.7145  1.2609
 1591SOL     OW16231   0.968   2.128   0.395 -0.5399  0.1263 -0.1943
 1591SOL    HW116232   0.929   2.208   0.361  2.5813  0.5917 -2.5942
 1591SOL    HW216233   0.931   2.122   0.483  2.2550  2.0712  1.1139
 1592SOL     OW16234   3.161   3.851   7.796  0.1836  0.0986  0.7791
 1592SOL    HW116235   3.112   3.777   7.832  0.4191 -0.3064  0.2830
 1592SOL    HW216236   3.194   3.888   7.877 -1.6313 -0.2175  1.6494
 1593SOL     OW16237   3.217   3.504   9.091  0.2794  0.9670 -0.1585
 1593SOL    HW116238   3.168   3.423   9.076  1.0875  0.7847 -1.8591
 1593SOL    HW216239   3.153   3.574   9.080  0.1296  0.8722  0.1160
 1594SOL     OW16240   4.325   1.415   7.565  0.4242 -0.1117  0.5751
 1594SOL    HW116241   4.391   1.368   7.514  0.5473 -0.4318  1.0234
 1594SOL    HW216242   4.259   1.346   7.565  0.9023 -0.5759  2.3607
 1595SOL     OW16243   1.243   0.881   7.195  0.7675  0.8572  0.5499
 1595SOL    HW116244   1.257   0.812   7.129  3.1783  0.9679  0.9655
 1595SOL    HW216245   1.152   0.854   7.212 -0.0683  0.9773 -3.5554
 1596SOL     OW16246   3.153   0.114   4.759  0.1467 -0.5730  0.0543
 1596SOL    HW116247   3.233   0.144   4.802 -1.4739 -2.1470  4.1565
 1596SOL    HW216248   3.120   0.066   4.835  1.2101  1.8805  2.0415
 1597SOL     OW16249   3.316   2.045   4.400  0.1593 -0.0049 -0.0416
 1597SOL    HW116250   3.392   1.999   4.435 -0.6468  0.3929  2.2404
 1597SOL    HW216251   3.286   1.970   4.348 -0.0918  0.7450 -1.0023
 1598SOL     OW16252   3.821   1.620   2.968 -0.1145  0.2244 -0.6174
 1598SOL    HW116253   3.742   1.660   3.005  0.3848  3.1673 -2.7431
 1598SOL    HW216254   3.876   1.697   2.985  0.7998 -0.2997 -1.1968
 1599SOL     OW16255   1.003   0.370   0.075  0.1788  0.6876 -0.2887
 1599SOL    HW116256   0.917   0.328   0.079  0.8846 -0.6284  1.0191
 1599SOL    HW216257   0.987   0.459   0.106  0.1761  1.2537 -1.9278
 1600SOL     OW16258   1.554   1.054  13.244  0.0700  0.4327 -0.1105
 1600SOL    HW116259   1.608   1.096  13.310 -0.4804  0.2433  0.4522
 1600SOL    HW216260   1.583   0.970  13.280 -0.3787 -0.2233 -1.2755
 1601SOL     OW16261   2.827   1.395   2.258  0.0199 -0.2019 -0.3483
 1601SOL    HW116262   2.916   1.428   2.272 -1.4217  2.7932  1.7664
 1601SOL    HW216263   2.776   1.442   2.325  2.3345  1.5502  0.1887
 1602SOL     OW16264   1.739   1.027  10.197  0.0382 -0.8136 -0.0998
 1602SOL    HW116265   1.763   1.094  10.261 -1.4773  0.1393 -0.5458
 1602SOL    HW216266   1.665   1.078  10.165  2.2380  1.2682 -1.9253
 1603SOL     OW16267   0.767   2.534   5.050  0.2259 -0.5595 -0.0884
 1603SOL    HW116268   0.843   2.504   4.999 -0.1540  0.8594 -1.4702
 1603SOL    HW216269   0.796   2.508   5.137  1.5305 -3.1607 -1.2798
 1604SOL     OW16270   4.347   3.409   5.633  0.3525  0.1008 -0.5073
 1604SOL    HW116271   4.325   3.502   5.634  0.6694  0.1793 -0.8877
 1604SOL    HW216272   4.405   3.392   5.708  0.5737  1.8280 -0.2638
 1605SOL     OW16273   2.778   0.356   0.141  0.0233  0.2089  0.5081
 1605SOL    HW116274   2.843   0.409   0.188  2.8777 -1.2600 -1.7752
 1605SOL    HW216275   2.727   0.426   0.100  0.3038 -0.2177 -0.5699
 1606SOL     OW16276   0.918   3.521  14.606  0.6402  0.3383 -0.3410
 1606SOL    HW116277   0.973   3.463  14.659 -0.0569 -0.4725 -0.4997
 1606SOL    HW216278   0.873   3.455  14.553  1.5507  1.8974 -2.9989
 1607SOL     OW16279   2.399   2.503   6.333  0.9469 -0.2674 -0.0929
 1607SOL    HW116280   2.483   2.534   6.300  1.3191 -0.1940  0.9107
 1607SOL    HW216281   2.433   2.478   6.420 -0.0763  0.9159  0.6495
 1608SOL     OW16282   0.423   1.881  11.533  0.0067  0.8921  0.5531
 1608SOL    HW116283   0.409   1.820  11.605 -1.0347  0.4297 -0.0486
 1608SOL    HW216284   0.409   1.965  11.578 -0.0861  1.6768 -0.9402
 1609SOL     OW16285   2.070   0.260   4.712  0.2339 -0.3233  0.0861
 1609SOL    HW116286   2.025   0.332   4.755 -2.0316 -0.8260 -1.4287
 1609SOL    HW216287   2.130   0.300   4.648  0.9474 -1.1870  0.2036
 1610SOL     OW16288   0.855   4.654   3.361 -0.0313 -0.2113 -0.1786
 1610SOL    HW116289   0.902   0.011   3.340 -0.6328 -0.4937 -2.6246
 1610SOL    HW216290   0.890   4.598   3.292 -1.2285  1.5294 -2.2061
 1611SOL     OW16291   1.551   2.355  16.764 -0.5341 -0.1818  0.1874
 1611SOL    HW116292   1.636   2.399  16.759  0.3331 -1.9512 -0.3816
 1611SOL    HW216293   1.553   2.330  16.672  1.9320 -2.7560  0.9649
 1612SOL     OW16294   4.372   4.394   2.649 -0.6930 -0.8172 -0.5009
 1612SOL    HW116295   4.397   4.319   2.705 -2.3912 -1.5847 -0.7603
 1612SOL    HW216296   4.458   4.418   2.615  0.0721 -1.6582  0.8192
 1613SOL     OW16297   3.425   0.427   3.463 -0.3763 -0.0502 -0.0528
 1613SOL    HW116298   3.402   0.506   3.415 -0.7573 -1.1396 -1.6746
 1613SOL    HW216299   3.412   0.366   3.390 -4.3288 -0.4584  0.9821
 1614SOL     OW16300   1.419   0.856   8.642  0.1930 -0.3147 -0.0616
 1614SOL    HW116301   1.427   0.800   8.719 -1.6132 -1.5777 -0.7704
 1614SOL    HW216302   1.450   0.940   8.675  0.2684 -1.3852  2.6228
 1615SOL     OW16303   1.015   1.415   6.620 -0.3932  0.0881  0.1760
 1615SOL    HW116304   0.971   1.474   6.682 -0.8619 -0.7541  0.6503
 1615SOL    HW216305   1.092   1.391   6.672 -0.5362  1.0910  0.8399
 1616SOL     OW16306   4.498   4.015   4.442  0.5465 -0.3897 -0.2778
 1616SOL    HW116307   4.436   4.007   4.514 -2.4864  2.7877 -2.5548
 1616SOL    HW216308   4.534   3.926   4.439  1.4501 -0.1564  3.6161
 1617SOL     OW16309   0.098   1.776   3.580  0.4048  0.1411 -0.0066
 1617SOL    HW116310   0.112   1.700   3.523 -1.8153  1.8401 -2.7740
 1617SOL    HW216311   0.014   1.757   3.621  0.1296  1.4477  0.0133
 1618SOL     OW16312   4.084   1.567   3.310 -0.2948 -0.4152 -0.7029
 1618SOL    HW116313   4.034   1.589   3.388  0.8157 -2.9820  0.7371
 1618SOL    HW216314   4.131   1.492   3.347 -1.3760 -1.1739 -0.8550
 1619SOL     OW16315   0.072   1.533   3.455  0.3026 -0.6383  0.0853
 1619SOL    HW116316   0.092   1.549   3.363 -0.2312  0.9144  0.2417
 1619SOL    HW216317   4.705   1.504   3.446  0.9613 -1.9179 -2.5806
 1620SOL     OW16318   4.288   3.147  16.859 -0.2685 -0.3082  0.4812
 1620SOL    HW116319   4.273   3.152  16.765 -2.2760  1.0040  0.8681
 1620SOL    HW216320   4.215   3.200  16.891 -0.2720 -1.5996  2.6856
 1621SOL     OW16321   2.641   4.667   1.202  0.6208  0.6535  0.2714
 1621SOL    HW116322   2.687   4.658   1.286 -0.7663  1.1430  1.0859
 1621SOL    HW216323   2.553   4.689   1.232  0.8683 -2.6921  3.3677
 1622SOL     OW16324   0.863   0.004  15.223 -0.5776  0.5664  0.1265
 1622SOL    HW116325   0.835   0.068  15.158 -2.6595 -2.4725 -1.9910
 1622SOL    HW216326   0.817   4.645  15.209  0.6812  0.1472 -1.4604
 1623SOL     OW16327   3.252   0.781  11.223 -0.7278 -0.4869 -0.4048
 1623SOL    HW116328   3.235   0.687  11.215  2.5287 -1.0163 -1.0345
 1623SOL    HW216329   3.256   0.814  11.133 -2.4251  0.3084 -0.1889
 1624SOL     OW16330   4.652   4.366   4.111 -1.0168  0.1768 -0.4245
 1624SOL    HW116331   4.629   4.457   4.129  0.0087 -0.1985  2.8801
 1624SOL    HW216332   4.643   4.327   4.198  1.7456  1.6355  0.5010
 1625SOL     OW16333   1.316   1.643   2.435  0.1588 -0.2289 -0.1337
 1625SOL    HW116334   1.393   1.631   2.490 -0.0888 -0.4034  0.1759
 1625SOL    HW216335   1.245   1.671   2.493 -0.1859 -0.1350 -0.5955
 1626SOL     OW16336   4.363   4.607  14.434  0.1459  0.1217  0.4173
 1626SOL    HW116337   4.268   4.606  14.424  0.1134  1.2874  0.5435
 1626SOL    HW216338   4.390   4.532  14.381  1.8249  2.5300 -2.1676
 1627SOL     OW16339   0.100   0.096   5.840 -0.0408  0.4761 -0.2368
 1627SOL    HW116340   0.007   0.112   5.822 -0.6361 -0.4123  2.0601
 1627SOL    HW216341   0.139   0.151   5.773  0.1534 -0.7544 -1.1281
 1628SOL     OW16342   3.935   4.011   2.206 -0.1922  0.1459 -0.8042
 1628SOL    HW116343   3.856   3.993   2.154  0.0848  1.0944 -1.5685
 1628SOL    HW216344   3.979   4.084   2.162 -1.8701  1.3814 -0.4444
 1629SOL     OW16345   1.387   3.723   6.680 -0.3930  0.2927  0.4952
 1629SOL    HW116346   1.338   3.801   6.708  0.9701  0.9640  0.9725
 1629SOL    HW216347   1.416   3.750   6.593 -1.3400 -2.5906 -0.7242
 1630SOL     OW16348   0.897   3.875   4.300 -0.7471  0.1551 -0.6665
 1630SOL    HW116349   0.913   3.873   4.394  0.0139  2.9344 -0.7590
 1630SOL    HW216350   0.971   3.930   4.275 -1.1686  0.6392 -0.8476
 1631SOL     OW16351   4.646   0.309  10.677  0.4200 -0.5122 -0.1292
 1631SOL    HW116352   0.016   0.292  10.669  0.5061  0.3312 -0.8581
 1631SOL    HW216353   4.641   0.399  10.646 -0.4046 -1.7234 -3.4619
 1632SOL     OW16354   3.994   3.583   3.714 -0.1560  0.7849 -0.2386
 1632SOL    HW116355   3.923   3.519   3.720  2.1336 -1.8099 -0.9155
 1632SOL    HW216356   4.048   3.555   3.788 -1.0999  1.0711  0.5560
 1633SOL     OW16357   0.566   2.607   5.538 -0.1278  0.2705  0.0983
 1633SOL    HW116358   0.597   2.696   5.519  0.9606 -0.3850 -1.2197
 1633SOL    HW216359   0.507   2.616   5.612  0.5454 -0.8349  0.7624
 1634SOL     OW16360   0.850   1.188  10.481 -0.1738  0.1095  0.1801
 1634SOL    HW116361   0.844   1.258  10.546 -2.7622  2.1853 -2.2966
 1634SOL    HW216362   0.812   1.221  10.400 -0.7957  1.1992  0.9112
 1635SOL     OW16363   4.141   2.537  15.310 -0.6758  0.2222  0.2241
 1635SOL    HW116364   4.087   2.528  15.231  0.6837  0.1294 -0.6802
 1635SOL    HW216365   4.149   2.632  15.299  0.1373  0.2157  0.8325
 1636SOL     OW16366   1.088   1.281   3.523  0.1865  0.0559 -0.0806
 1636SOL    HW116367   1.099   1.194   3.486 -2.4334 -0.8407  1.2976
 1636SOL    HW216368   1.164   1.276   3.581  0.5272  0.8670 -0.4557
 1637SOL     OW16369   2.821   4.497  14.033  0.5729 -0.4165  0.4017
 1637SOL    HW116370   2.905   4.525  14.070 -0.5359  0.7809  1.9777
 1637SOL    HW216371   2.848   4.435  13.965 -1.7277 -1.6870  0.6521
 1638SOL     OW16372   2.118   1.542   8.936 -0.1739 -0.1309 -0.0727
 1638SOL    HW116373   2.109   1.634   8.910  2.1338  0.0422 -0.2666
 1638SOL    HW216374   2.111   1.490   8.856 -1.0428  0.6320 -0.4875
 1639SOL     OW16375   3.160   2.630   1.671 -0.1707 -0.5052 -0.1664
 1639SOL    HW116376   3.232   2.607   1.730 -1.6199 -2.3361  0.8854
 1639SOL    HW216377   3.088   2.587   1.717  0.0053 -1.1710 -0.5007
 1640SOL     OW16378   3.553   4.695   4.668  0.1552 -0.4147 -0.5832
 1640SOL    HW116379   3.494   4.645   4.724 -0.4830 -0.6075 -1.4273
 1640SOL    HW216380   3.541   4.651   4.584 -0.6956  1.1112 -1.2711
 1641SOL     OW16381   1.648   4.650   8.238 -0.0686  0.5662 -0.0327
 1641SOL    HW116382   1.559   4.616   8.227  0.5575 -0.2011 -2.6622
 1641SOL    HW216383   1.695   4.583   8.287 -0.0146  0.0237 -0.8291
 1642SOL     OW16384   1.645   3.520   4.871 -0.5325 -0.4500  0.7668
 1642SOL    HW116385   1.670   3.523   4.963 -4.1062 -1.9355  1.7809
 1642SOL    HW216386   1.663   3.613   4.856 -0.4177 -0.4437  0.9532
 1643SOL     OW16387   0.416   4.299   3.005 -0.2114  0.0236 -0.3551
 1643SOL    HW116388   0.468   4.236   3.055 -0.2299 -0.2557 -0.6867
 1643SOL    HW216389   0.328   4.264   2.992 -0.1091 -0.6058  0.7267
 1644SOL     OW16390   3.657   4.556   4.174  0.1513  0.3419  0.1840
 1644SOL    HW116391   3.687   4.600   4.094 -0.6772 -0.4593 -0.5646
 1644SOL    HW216392   3.565   4.578   4.159 -0.2855 -1.5774 -0.0504
 1645SOL     OW16393   3.906   4.475  11.675 -0.1619  0.3804  0.0987
 1645SOL    HW116394   3.881   4.404  11.615 -1.0354  0.3141  0.5477
 1645SOL    HW216395   3.994   4.442  11.694  0.4899  2.2021  0.1848
 1646SOL     OW16396   3.642   1.641   8.680  0.5172 -0.2246  0.3661
 1646SOL    HW116397   3.651   1.729   8.644 -0.0554 -0.3905 -0.1809
 1646SOL    HW216398   3.573   1.652   8.745 -0.2395 -1.3925 -0.2312
 1647SOL     OW16399   2.387   0.609   8.289  0.1817 -0.0240 -0.1905
 1647SOL    HW116400   2.477   0.578   8.294 -0.6806 -2.5132  0.0450
 1647SOL    HW216401   2.405   0.669   8.217  2.0131 -1.9662 -1.3573
 1648SOL     OW16402   1.236   1.430   6.853  0.5309 -0.2838 -0.5567
 1648SOL    HW116403   1.287   1.499   6.810  0.3347 -0.7489 -1.5527
 1648SOL    HW216404   1.189   1.494   6.907  3.1584  3.5604 -2.8247
 1649SOL     OW16405   0.530   2.282   5.806 -0.4371 -0.2540  0.0088
 1649SOL    HW116406   0.497   2.271   5.895  0.5533  3.2054  0.8221
 1649SOL    HW216407   0.569   2.195   5.790  1.0315  0.5944 -1.0812
 1650SOL     OW16408   2.759   0.573   8.925  0.8941  0.1416 -0.1151
 1650SOL    HW116409   2.679   0.554   8.876  0.1942  0.1094  1.0558
 1650SOL    HW216410   2.776   0.666   8.913 -0.8684  0.4639 -0.0020
 1651SOL     OW16411   4.187   1.516   8.853 -0.3921 -0.1389 -0.3544
 1651SOL    HW116412   4.169   1.573   8.927 -1.6147 -1.8421  0.6620
 1651SOL    HW216413   4.153   1.431   8.881  1.6693 -1.3463 -1.5119
 1652SOL     OW16414   3.205   4.519   6.057  0.2082  0.1550 -0.2683
 1652SOL    HW116415   3.231   4.456   5.990  2.9526  1.0288  0.0019
 1652SOL    HW216416   3.168   4.591   6.006 -3.1301 -0.7789  0.8288
 1653SOL     OW16417   1.521   2.038  17.151  0.1812 -0.0510  0.1267
 1653SOL    HW116418   1.495   1.963  17.098 -1.1734  1.3546 -1.1795
 1653SOL    HW216419   1.477   2.105  17.098  0.3344  2.3609  3.0898
 1654SOL     OW16420   2.077   3.914  11.125  1.2711 -0.6958  0.2746
 1654SOL    HW116421   2.148   3.945  11.069  0.9574 -2.2340 -0.9804
 1654SOL    HW216422   2.095   3.820  11.122  0.8350 -0.7308 -1.7734
 1655SOL     OW16423   0.348   2.617  11.240  0.1643 -0.1787 -0.1745
 1655SOL    HW116424   0.345   2.535  11.191 -0.7253 -1.1956  1.5676
 1655SOL    HW216425   0.297   2.590  11.317 -1.1656  0.0829 -0.9672
 1656SOL     OW16426   1.348   3.925   6.308  0.2727  0.1259  0.4887
 1656SOL    HW116427   1.291   3.851   6.289  0.8353 -0.1174 -0.2603
 1656SOL    HW216428   1.302   3.995   6.262 -0.8358 -2.3189 -2.0931
 1657SOL     OW16429   1.167   4.003   7.691 -0.1310  0.2375 -0.0569
 1657SOL    HW116430   1.176   4.009   7.787 -0.0922 -0.6692 -0.0080
 1657SOL    HW216431   1.197   4.092   7.673 -0.3794  0.3158 -0.0819
 1658SOL     OW16432   0.300   1.731   3.001 -0.1268 -0.4228 -0.4063
 1658SOL    HW116433   0.270   1.817   3.031 -0.7983 -0.3300 -1.3220
 1658SOL    HW216434   0.376   1.759   2.950 -1.0664 -0.5842 -1.8951
 1659SOL     OW16435   3.825   0.444   3.828  0.0703  0.5640  0.6551
 1659SOL    HW116436   3.767   0.507   3.786 -0.8765 -2.3732 -2.4112
 1659SOL    HW216437   3.785   0.448   3.915  1.7089  0.6869  1.4162
 1660SOL     OW16438   0.738   1.055   3.854 -0.3371  0.0024  0.4240
 1660SOL    HW116439   0.712   1.063   3.946 -0.5007  1.7316  0.2206
 1660SOL    HW216440   0.814   1.111   3.842 -0.1235  0.0864  2.1232
 1661SOL     OW16441   0.942   2.414   4.581 -0.5851 -0.1596 -0.0807
 1661SOL    HW116442   0.964   2.437   4.671 -1.7112  0.4425  0.0407
 1661SOL    HW216443   0.940   2.500   4.538  0.9195 -0.0527  0.0547
 1662SOL     OW16444   1.893   2.980  14.484 -0.1297  0.5338  0.0791
 1662SOL    HW116445   1.824   2.950  14.426  1.6407 -1.6580 -0.8967
 1662SOL    HW216446   1.843   2.969  14.565 -1.8039  2.5785 -0.6746
 1663SOL     OW16447   3.027   1.681   7.623 -0.2758 -0.2424 -0.5219
 1663SOL    HW116448   3.116   1.698   7.655 -0.6022  1.7183 -0.6938
 1663SOL    HW216449   2.993   1.768   7.640  2.7675  0.6597  0.9267
 1664SOL     OW16450   3.583   2.266   3.516  0.5083 -0.2726 -0.3319
 1664SOL    HW116451   3.514   2.290   3.454 -1.5399  1.1277  2.4769
 1664SOL    HW216452   3.566   2.329   3.586 -1.9048  1.5137 -2.5578
 1665SOL     OW16453   3.626   2.086   0.152 -0.4141  0.5142 -0.0332
 1665SOL    HW116454   3.656   2.176   0.165 -1.5472  1.1040 -1.5434
 1665SOL    HW216455   3.642   2.081   0.057  0.2363 -3.4766  0.2739
 1666SOL     OW16456   0.932   0.364  16.128  0.1719 -0.5751  0.0691
 1666SOL    HW116457   0.886   0.421  16.066  1.3961  0.9471  0.5699
 1666SOL    HW216458   0.901   0.387  16.215  0.7143  1.4280 -0.2768
 1667SOL     OW16459   2.055   3.276   3.917 -0.6827 -0.1693 -0.0987
 1667SOL    HW116460   2.046   3.253   3.825  0.3698 -0.6185 -0.0990
 1667SOL    HW216461   2.029   3.368   3.912 -1.0632 -0.3460 -1.2712
 1668SOL     OW16462   3.693   0.927   2.587  0.3742 -0.6805  0.3912
 1668SOL    HW116463   3.597   0.932   2.592  0.3192  0.3182 -1.5025
 1668SOL    HW216464   3.709   0.990   2.517  1.3504 -1.8621 -0.4612
 1669SOL     OW16465   1.774   3.934   4.086 -0.6698  0.1985  0.1010
 1669SOL    HW116466   1.692   3.906   4.046 -0.6426 -0.3988  0.4675
 1669SOL    HW216467   1.810   3.995   4.021 -0.5418 -0.5559 -0.5382
 1670SOL     OW16468   2.252   0.802   1.266 -0.6474  0.1686 -0.5703
 1670SOL    HW116469   2.251   0.726   1.324 -1.5123  0.1046 -0.6644
 1670SOL    HW216470   2.223   0.877   1.319  0.3635 -0.2316  0.5253
 1671SOL     OW16471   0.729   2.885   4.891 -0.8316  0.5732  0.1867
 1671SOL    HW116472   0.679   2.966   4.885 -0.9793  0.5557  1.1885
 1671SOL    HW216473   0.799   2.906   4.829  0.9396 -2.0178  1.2538
 1672SOL     OW16474   1.501   1.496   0.682  0.1168  0.2850  0.2270
 1672SOL    HW116475   1.572   1.543   0.638 -0.8902  1.2992 -0.3087
 1672SOL    HW216476   1.441   1.569   0.700 -0.4245  0.2920 -1.6410
 1673SOL     OW16477   0.691   0.423   1.039 -0.1310  0.0385 -0.5216
 1673SOL    HW116478   0.763   0.395   1.095 -0.2104 -2.4717 -1.7031
 1673SOL    HW216479   0.620   0.410   1.102  0.8515  0.3468  0.6435
 1674SOL     OW16480   2.707   0.447  16.256 -0.1239 -0.0192  0.0780
 1674SOL    HW116481   2.730   0.533  16.222 -2.0147  0.5736  0.3088
 1674SOL    HW216482   2.708   0.449  16.351  0.2573  1.2015  0.0356
 1675SOL     OW16483   0.875   3.132   2.702  0.8264 -0.0419 -0.2586
 1675SOL    HW116484   0.813   3.079   2.752  0.8044  0.3162  0.1004
 1675SOL    HW216485   0.938   3.151   2.772  0.3861  0.0940  0.1002
 1676SOL     OW16486   3.445   3.976  17.287 -0.3007  0.1604  0.2048
 1676SOL    HW116487   3.468   3.928  17.367  2.4618  1.4603  0.1756
 1676SOL    HW216488   3.499   4.054  17.297 -1.3478  0.7601  1.2144
 1677SOL     OW16489   1.695   1.456   8.212 -1.0082 -0.2955  0.1700
 1677SOL    HW116490   1.748   1.425   8.139 -0.4337 -2.8466  1.6829
 1677SOL    HW216491   1.726   1.384   8.266 -4.3310 -0.8777  1.2919
 1678SOL     OW16492   0.464   0.030   8.666 -0.1934  0.0888  0.1867
 1678SOL    HW116493   0.404   4.717   8.601  0.4433 -1.4635  0.4729
 1678SOL    HW216494   0.477   4.686   8.732  2.2452  0.5273  0.1431
 1679SOL     OW16495   1.335   2.166   6.406 -0.0598  0.3366  0.6531
 1679SOL    HW116496   1.280   2.145   6.330  1.9955 -1.0391 -0.4657
 1679SOL    HW216497   1.374   2.080   6.422 -0.0485  0.4324  1.1239
 1680SOL     OW16498   4.256   2.568  10.094 -0.4426  0.3714 -0.3516
 1680SOL    HW116499   4.251   2.658  10.125  0.0513 -0.2557  1.5043
 1680SOL    HW216500   4.171   2.531  10.117 -0.5736  1.2327  0.5001
 1681SOL     OW16501   0.024   2.469   6.991  0.3254  0.5509 -0.1353
 1681SOL    HW116502   4.703   2.434   7.067  0.0687  0.1243 -0.4840
 1681SOL    HW216503   4.687   2.522   6.939 -1.7866  0.4475  2.2764
 1682SOL     OW16504   4.317   3.550  16.127 -0.2174 -0.0376 -0.3158
 1682SOL    HW116505   4.368   3.469  16.138 -1.3582 -0.7217 -0.0228
 1682SOL    HW216506   4.286   3.543  16.037 -0.9570  2.3726 -0.2424
 1683SOL     OW16507   1.163   3.653  16.955  0.4831 -0.0694  0.4778
 1683SOL    HW116508   1.085   3.686  17.000 -1.0953 -0.1582 -2.1944
 1683SOL    HW216509   1.213   3.734  16.944 -0.0079  0.2493  0.5999
 1684SOL     OW16510   3.937   3.375   8.680 -0.0351  0.0006  0.2924
 1684SOL    HW116511   3.962   3.303   8.623 -1.9925  0.6819 -1.4252
 1684SOL    HW216512   3.843   3.358   8.684 -0.2594  0.9237 -1.1669
 1685SOL     OW16513   0.134   4.078   0.445  0.0925 -0.0116  0.2110
 1685SOL    HW116514   0.204   4.057   0.507 -0.0162  2.8422  1.3256
 1685SOL    HW216515   0.170   4.161   0.413 -2.5904  1.2393  0.3939
 1686SOL     OW16516   0.946   3.931  16.849  0.2285  0.2913 -0.2408
 1686SOL    HW116517   0.926   3.903  16.938  0.1396 -1.2706 -0.7472
 1686SOL    HW216518   1.032   3.894  16.831  0.5089  2.6316 -3.8578
 1687SOL     OW16519   4.187   2.237   9.447  0.3559 -0.4921 -0.7645
 1687SOL    HW116520   4.158   2.292   9.519  0.0919 -1.7307  0.0784
 1687SOL    HW216521   4.265   2.202   9.489  0.4000 -1.2764 -1.4874
 1688SOL     OW16522   0.406   3.804   2.060  0.2295  0.3956 -0.9590
 1688SOL    HW116523   0.375   3.789   1.970 -0.1024  0.3536 -0.8372
 1688SOL    HW216524   0.469   3.732   2.071  1.0694  1.4072  0.7945
 1689SOL     OW16525   0.941   1.919   5.856 -0.4293 -0.0015  0.1837
 1689SOL    HW116526   0.913   1.995   5.907  0.1414  1.9409 -2.4349
 1689SOL    HW216527   1.035   1.933   5.848 -0.4775  0.6959  0.8529
 1690SOL     OW16528   0.957   3.641   6.270  0.7225 -0.0575 -0.4960
 1690SOL    HW116529   1.045   3.672   6.293  0.0205  1.2643  0.4026
 1690SOL    HW216530   0.927   3.723   6.233  0.5371  0.5988  1.1017
 1691SOL     OW16531   4.217   0.988   6.951  0.5596  0.5296  0.1366
 1691SOL    HW116532   4.188   1.070   6.911 -0.2645  0.4760  0.6183
 1691SOL    HW216533   4.155   0.963   7.020  2.1711  2.1408  2.1950
 1692SOL     OW16534   2.252   1.910   1.930  0.2335  0.4935  0.9072
 1692SOL    HW116535   2.180   1.914   1.866  0.0521  1.8159  1.1962
 1692SOL    HW216536   2.297   1.987   1.895 -0.6740  0.2755 -0.7644
 1693SOL     OW16537   3.565   0.795   6.811  0.6538  0.4286 -0.5231
 1693SOL    HW116538   3.512   0.722   6.781 -0.6269  1.1260  0.0572
 1693SOL    HW216539   3.634   0.792   6.745  1.6236 -0.7972  0.5263
 1694SOL     OW16540   2.469   3.755   3.098  0.3269  0.0311 -0.2449
 1694SOL    HW116541   2.527   3.702   3.152 -0.3619 -0.2840  0.1897
 1694SOL    HW216542   2.440   3.821   3.160  1.5220  1.2223 -0.9447
 1695SOL     OW16543   1.611   3.878   6.880  1.0770 -0.2496  0.4305
 1695SOL    HW116544   1.631   3.855   6.971  0.9574 -2.9007 -0.1895
 1695SOL    HW216545   1.569   3.964   6.877 -1.1448 -1.3945 -2.2719
 1696SOL     OW16546   0.732   2.282  17.231 -0.4130 -0.1056 -0.3685
 1696SOL    HW116547   0.763   2.345  17.296  1.3085 -0.3645 -0.9522
 1696SOL    HW216548   0.774   2.207  17.274 -1.0396 -0.2996 -0.0944
 1697SOL     OW16549   3.901   0.050   6.618  0.3314  0.0621  0.3352
 1697SOL    HW116550   3.898   0.101   6.537 -1.8227  0.2721  0.5308
 1697SOL    HW216551   3.810   0.040   6.647  0.1363  0.2817 -0.2013
 1698SOL     OW16552   3.712   4.630  13.289 -0.1023 -0.2932 -1.1395
 1698SOL    HW116553   3.793   4.634  13.239  1.4895 -1.0275  1.3899
 1698SOL    HW216554   3.754   4.607  13.372  1.8507  1.2713 -1.6837
 1699SOL     OW16555   1.252   3.267  12.601 -0.4411  0.4454 -0.1096
 1699SOL    HW116556   1.265   3.285  12.694 -1.7241  0.9836 -0.0328
 1699SOL    HW216557   1.158   3.278  12.588 -0.5177 -0.0158  0.0606
 1700SOL     OW16558   3.777   2.879   5.823  0.3230 -0.2998  0.4948
 1700SOL    HW116559   3.811   2.856   5.737 -1.6349 -0.5890 -0.2156
 1700SOL    HW216560   3.855   2.918   5.862  1.3115 -1.7699 -0.0561
 1701SOL     OW16561   4.113   3.363  17.225 -0.2012  0.0376 -0.6283
 1701SOL    HW116562   4.049   3.378  17.294  0.9836 -1.6493  0.8391
 1701SOL    HW216563   4.197   3.399  17.256 -0.4682  1.1836 -1.2303
 1702SOL     OW16564   1.283   0.180  13.334 -0.6528 -0.0486  0.5835
 1702SOL    HW116565   1.369   0.211  13.362 -0.4842  0.2487 -0.2784
 1702SOL    HW216566   1.294   0.179  13.239  0.4312 -1.8375  0.7443
 1703SOL     OW16567   1.848   2.461   7.597 -0.0617  0.3719 -0.7360
 1703SOL    HW116568   1.872   2.374   7.566 -0.5800  0.7219 -2.1141
 1703SOL    HW216569   1.796   2.476   7.518 -2.2788 -1.4604  0.3447
 1704SOL     OW16570   1.673   0.602  12.043  0.1596 -0.1575  0.2010
 1704SOL    HW116571   1.590   0.646  12.064 -0.4737 -0.2963 -1.9767
 1704SOL    HW216572   1.651   0.517  12.004  2.3855 -0.8827  0.5616
 1705SOL     OW16573   3.398   2.993   4.110  0.5556  0.4455  0.0391
 1705SOL    HW116574   3.471   3.054   4.102 -0.0417  1.2521  0.7147
 1705SOL    HW216575   3.389   2.959   4.021  0.5607  0.2289  0.1218
 1706SOL     OW16576   0.360   3.066   7.014  0.5608 -0.2220  0.0983
 1706SOL    HW116577   0.355   3.084   7.108 -1.2320 -2.0325  0.3407
 1706SOL    HW216578   0.272   3.031   7.009  0.3840  0.5705 -2.0576
 1707SOL     OW16579   1.454   3.571   7.677  0.3905 -0.2391 -0.5272
 1707SOL    HW116580   1.522   3.576   7.609  1.2290 -1.9870  0.1949
 1707SOL    HW216581   1.417   3.659   7.679  0.8952 -0.0112 -0.9544
 1708SOL     OW16582   0.916   1.376   9.665 -0.2630  0.5572 -0.1038
 1708SOL    HW116583   0.852   1.414   9.605 -1.2071  1.0607  1.2153
 1708SOL    HW216584   0.939   1.458   9.711  0.1259  0.8738 -0.8647
 1709SOL     OW16585   1.710   1.181  14.537 -0.3264  0.5366  0.1069
 1709SOL    HW116586   1.680   1.223  14.617 -1.1517  0.0255  0.0611
 1709SOL    HW216587   1.656   1.213  14.465  0.2078  0.2085 -0.4481
 1710SOL     OW16588   0.685   0.747  11.223  0.8548  0.1268 -0.1044
 1710SOL    HW116589   0.679   0.829  11.175 -2.4093 -0.1433 -0.1369
 1710SOL    HW216590   0.666   0.683  11.155 -0.5086 -0.2586  0.6484
 1711SOL     OW16591   2.924   3.721   9.024 -0.4676 -0.1818  0.3080
 1711SOL    HW116592   2.838   3.727   8.983  0.7515  1.1938 -2.0997
 1711SOL    HW216593   2.896   3.749   9.111  0.9957 -1.2477  1.1326
 1712SOL     OW16594   4.412   3.367   3.294  0.3283  0.4183  0.4326
 1712SOL    HW116595   4.499   3.390   3.327  0.6147  1.5113 -1.0635
 1712SOL    HW216596   4.418   3.385   3.200 -1.7758 -1.1404 -0.0032
 1713SOL     OW16597   2.893   1.958   9.538  0.3281 -0.6070 -0.6337
 1713SOL    HW116598   2.852   2.038   9.572  0.6975 -1.1794  1.1558
 1713SOL    HW216599   2.977   1.995   9.512  2.4252 -4.9209  0.0147
 1714SOL     OW16600   3.754   1.116   5.339  0.2315  0.8110  0.7221
 1714SOL    HW116601   3.683   1.114   5.276 -0.6165  1.0309  1.6731
 1714SOL    HW216602   3.789   1.204   5.323  2.3525 -0.1186  0.1990
 1715SOL     OW16603   2.036   0.506   5.093 -0.0028 -0.4876  0.0991
 1715SOL    HW116604   1.972   0.524   5.025 -0.6135  1.1824  1.1248
 1715SOL    HW216605   2.075   0.427   5.055 -0.4814 -0.9076  0.4632
 1716SOL     OW16606   1.451   4.374   9.441  0.2671 -0.1513 -0.2141
 1716SOL    HW116607   1.485   4.329   9.364 -0.6730 -2.9438  0.9952
 1716SOL    HW216608   1.442   4.303   9.504  1.2794  2.6703  3.1335
 1717SOL     OW16609   2.568   1.962   4.901 -0.2117  0.1108  0.0082
 1717SOL    HW116610   2.508   2.019   4.852 -1.5354 -1.6235 -0.3728
 1717SOL    HW216611   2.535   2.002   4.982  0.5175 -0.8124  0.7586
 1718SOL     OW16612   1.705   2.556   2.628  0.7609  0.3146 -0.1927
 1718SOL    HW116613   1.791   2.591   2.651  0.2374  1.3881  0.1463
 1718SOL    HW216614   1.683   2.620   2.561  1.7883  2.0429  1.1230
 1719SOL     OW16615   1.485   1.129   7.513  0.1068 -0.0277  0.2604
 1719SOL    HW116616   1.435   1.050   7.495 -1.6016  1.0989  0.0879
 1719SOL    HW216617   1.570   1.112   7.474 -0.1713  1.5145 -1.0053
 1720SOL     OW16618   3.888   1.227   1.001  0.4957  0.5606  0.5367
 1720SOL    HW116619   3.818   1.279   1.042  1.2233  2.2253 -0.3615
 1720SOL    HW216620   3.834   1.192   0.930  1.4733  0.3040 -0.0731
 1721SOL     OW16621   4.565   3.711   4.463  0.1787  0.2688 -0.0674
 1721SOL    HW116622   4.624   3.700   4.388 -0.6793  0.3308 -0.7501
 1721SOL    HW216623   4.585   3.628   4.506  0.8626  0.9997  1.0253
 1722SOL     OW16624   3.723   2.967   0.452 -0.5189 -0.4701  0.0827
 1722SOL    HW116625   3.805   3.015   0.448 -1.3115  0.9934  1.3504
 1722SOL    HW216626   3.749   2.875   0.450 -0.3371 -0.4258  0.4058
 1723SOL     OW16627   2.465   3.266  12.551 -0.1191 -0.0628  0.2970
 1723SOL    HW116628   2.494   3.357  12.542 -3.9958  0.8142 -3.2811
 1723SOL    HW216629   2.540   3.231  12.600 -0.5105 -0.7389  0.4087
 1724SOL     OW16630   1.845   3.401   7.541 -0.4142 -0.2231  0.0172
 1724SOL    HW116631   1.884   3.354   7.468  1.0031  0.9695  0.0218
 1724SOL    HW216632   1.752   3.402   7.516  0.4858  2.3714 -3.1413
 1725SOL     OW16633   0.302   4.198   3.282  0.2475  0.2122 -0.2483
 1725SOL    HW116634   0.397   4.212   3.279  0.7451 -2.6639  1.4456
 1725SOL    HW216635   0.262   4.254   3.349  0.8236  3.0033 -2.2373
 1726SOL     OW16636   4.453   1.729  10.764 -0.2552 -0.7794 -0.0212
 1726SOL    HW116637   4.448   1.823  10.749 -0.7440 -0.9143 -0.6637
 1726SOL    HW216638   4.371   1.710  10.809 -0.2127 -1.6696 -0.3175
 1727SOL     OW16639   4.122   3.024   4.078 -0.0215  0.1452  0.3699
 1727SOL    HW116640   4.056   3.058   4.139 -0.5096  0.8506 -0.5501
 1727SOL    HW216641   4.151   2.940   4.115  0.3183 -0.2684 -0.8516
 1728SOL     OW16642   2.002   3.258   7.330 -0.0495 -0.1422 -0.1178
 1728SOL    HW116643   2.081   3.311   7.323 -0.0641  0.1305  1.8286
 1728SOL    HW216644   2.035   3.175   7.365  0.2982  1.2051  2.7482
 1729SOL     OW16645   4.577   1.446   6.474 -0.3778  0.2899  0.2231
 1729SOL    HW116646   4.663   1.475   6.506  0.8908 -1.1513 -1.9014
 1729SOL    HW216647   4.550   1.523   6.425 -0.3402  1.0224  1.3708
 1730SOL     OW16648   2.237   0.821   7.349 -0.1985  0.2320  0.2933
 1730SOL    HW116649   2.274   0.905   7.322  0.8842 -0.0366  0.9397
 1730SOL    HW216650   2.237   0.762   7.274  1.2435 -0.0649  0.5260
 1731SOL     OW16651   1.609   4.216   2.916  0.6138 -0.1428  0.0780
 1731SOL    HW116652   1.671   4.175   2.976 -0.0822  0.9003  1.5218
 1731SOL    HW216653   1.653   4.300   2.901  1.8126 -1.0563 -1.4575
 1732SOL     OW16654   3.983   1.127   5.098  0.3125 -0.5963  0.5855
 1732SOL    HW116655   4.047   1.090   5.038  0.1667 -0.5783  0.4187
 1732SOL    HW216656   4.042   1.170   5.159 -0.6944  0.9745  0.4452
 1733SOL     OW16657   0.023   2.580   4.029  0.1582  0.8678 -0.8270
 1733SOL    HW116658   4.723   2.672   4.047  1.1193  0.9273  0.1540
 1733SOL    HW216659   0.021   2.588   3.934  0.3767  0.7484 -0.8411
 1734SOL     OW16660   3.830   4.087   1.740  0.1424 -0.1652 -0.4057
 1734SOL    HW116661   3.806   4.004   1.779  1.6828 -1.7351 -2.7781
 1734SOL    HW216662   3.926   4.091   1.748 -0.0716  0.1843  1.9056
 1735SOL     OW16663   0.354   4.034   6.736  0.3760  0.2257  0.6282
 1735SOL    HW116664   0.430   4.072   6.692  0.6721 -0.9727  0.1140
 1735SOL    HW216665   0.299   4.006   6.663  2.2118 -0.8399 -0.3547
 1736SOL     OW16666   2.779   4.202   2.876  0.1679 -0.5231  0.7708
 1736SOL    HW116667   2.721   4.246   2.814  0.1025  0.0122  1.2143
 1736SOL    HW216668   2.729   4.121   2.889 -0.6468  0.0838  1.3496
 1737SOL     OW16669   0.994   0.663   1.385  0.5493  0.1724 -0.0457
 1737SOL    HW116670   1.018   0.632   1.297  2.3932  1.6082 -0.0492
 1737SOL    HW216671   1.000   0.756   1.361 -3.3947  0.6785  0.9724
 1738SOL     OW16672   1.222   0.363  14.613 -0.1526 -0.3707  0.5104
 1738SOL    HW116673   1.261   0.301  14.675 -2.4922 -2.5545 -0.1924
 1738SOL    HW216674   1.298   0.403  14.571 -0.5557 -1.8579 -1.6626
 1739SOL     OW16675   2.380   3.238   3.097 -0.1102  0.2021 -0.5741
 1739SOL    HW116676   2.374   3.186   3.016  0.5368 -0.2066 -0.3643
 1739SOL    HW216677   2.427   3.309   3.053  0.0275  1.8348  2.2114
 1740SOL     OW16678   3.773   4.495   5.452  0.1072 -0.0153  0.2877
 1740SOL    HW116679   3.818   4.550   5.388 -1.1903 -0.0577 -0.6524
 1740SOL    HW216680   3.809   4.524   5.537 -0.7405 -0.1993  0.7110
 1741SOL     OW16681   2.399   2.182   6.032  0.7293 -0.3533 -0.3892
 1741SOL    HW116682   2.402   2.097   5.990  0.9036 -0.4495 -0.1800
 1741SOL    HW216683   2.392   2.236   5.954 -2.5610  0.8574  0.7018
 1742SOL     OW16684   4.502   0.570   1.511  0.2814  0.1194 -0.4251
 1742SOL    HW116685   4.437   0.533   1.452 -0.6957  0.7036  0.2948
 1742SOL    HW216686   4.449   0.641   1.545 -0.0242 -0.4346  0.2701
 1743SOL     OW16687   3.685   3.493   4.081 -0.2798  0.1732  0.5163
 1743SOL    HW116688   3.713   3.498   4.172 -0.2048  3.5451  0.3269
 1743SOL    HW216689   3.615   3.433   4.104 -1.8238  0.9959 -1.9881
 1744SOL     OW16690   1.415   1.458  13.253  0.3209  0.4419 -0.0965
 1744SOL    HW116691   1.421   1.391  13.321 -0.0426 -1.2522 -1.7351
 1744SOL    HW216692   1.331   1.494  13.281  0.7710 -0.0447  1.9007
 1745SOL     OW16693   4.620   3.200   3.051  0.5276 -0.4569 -0.7505
 1745SOL    HW116694   4.544   3.148   3.027  0.4116  0.0317 -1.4155
 1745SOL    HW216695   4.573   3.283   3.055  0.5966 -0.4623  0.3779
 1746SOL     OW16696   4.557   2.762  10.066 -0.3725 -0.5638  0.4435
 1746SOL    HW116697   4.646   2.796  10.067 -0.9815  1.1117 -1.1106
 1746SOL    HW216698   4.537   2.736  10.156 -0.7093  0.9716  0.8139
 1747SOL     OW16699   3.452   0.970   8.756 -0.0058 -0.6104  0.3691
 1747SOL    HW116700   3.376   1.024   8.732  1.0520 -0.2511 -2.2115
 1747SOL    HW216701   3.427   0.887   8.714  0.0155  0.0582 -0.9592
 1748SOL     OW16702   0.914   1.905   7.766 -0.3561  0.0593 -0.1094
 1748SOL    HW116703   0.912   1.940   7.855  0.9791 -1.8569  0.6531
 1748SOL    HW216704   0.901   1.987   7.717 -0.9587 -1.2967 -2.2462
 1749SOL     OW16705   1.968   2.705   8.980  0.0431  0.0880  0.3979
 1749SOL    HW116706   1.915   2.694   8.902 -2.1752 -0.2197  1.9511
 1749SOL    HW216707   1.949   2.796   9.003 -0.3549  0.0397  0.2496
 1750SOL     OW16708   3.606   3.997   3.665  0.5756 -0.3087  0.8984
 1750SOL    HW116709   3.628   3.904   3.662  0.9306 -0.0985 -3.0678
 1750SOL    HW216710   3.619   4.019   3.573 -0.2662 -0.1538  0.8112
 1751SOL     OW16711   2.780   2.597  15.904  0.4483  0.4127  0.0864
 1751SOL    HW116712   2.762   2.517  15.854  1.5835  2.1420 -3.1107
 1751SOL    HW216713   2.850   2.564  15.961 -0.1692 -1.7028 -0.3762
 1752SOL     OW16714   3.791   0.273   7.544  0.2291 -0.2509 -0.3903
 1752SOL    HW116715   3.808   0.220   7.622 -2.0879  1.9422  1.6111
 1752SOL    HW216716   3.883   0.296   7.532  0.2243  0.0978  0.2813
 1753SOL     OW16717   1.741   3.390  15.928  0.0306  0.6602 -0.0653
 1753SOL    HW116718   1.683   3.437  15.989  0.2213  0.2263  0.4460
 1753SOL    HW216719   1.769   3.315  15.980 -1.3964  0.7712  0.8802
 1754SOL     OW16720   4.022   4.210   7.811  0.3138 -0.4573  0.7783
 1754SOL    HW116721   3.992   4.284   7.864  0.7548  0.1311  0.2000
 1754SOL    HW216722   3.939   4.165   7.802 -0.2854  0.4626  1.6811
 1755SOL     OW16723   1.772   1.056   7.001 -0.7121  0.0733  0.2534
 1755SOL    HW116724   1.803   0.971   6.971 -1.3524  0.2204 -0.8337
 1755SOL    HW216725   1.678   1.042   7.010 -1.1734  2.1618 -1.2071
 1756SOL     OW16726   1.438   2.636  15.926  0.6383  0.7018  0.2864
 1756SOL    HW116727   1.360   2.686  15.951  1.0306  2.6167 -2.2921
 1756SOL    HW216728   1.511   2.688  15.961  1.4205  0.2338 -0.6394
 1757SOL     OW16729   1.831   4.300   3.162  0.4170  0.2368 -0.1545
 1757SOL    HW116730   1.804   4.215   3.127 -4.0984  1.8548 -0.5781
 1757SOL    HW216731   1.893   4.265   3.225 -0.7727  1.3259  1.6109
 1758SOL     OW16732   0.245   4.722  17.147 -0.1107 -0.1251  0.5498
 1758SOL    HW116733   0.175   4.687  17.202  0.3800 -1.6575  0.2052
 1758SOL    HW216734   0.229   0.092  17.150 -0.3779 -0.1636  0.4050
 1759SOL     OW16735   0.580   1.935   0.694  0.6542  0.3854 -0.7158
 1759SOL    HW116736   0.585   1.839   0.686  1.2578  0.2530  1.3592
 1759SOL    HW216737   0.630   1.955   0.773 -0.5438 -0.4242  0.2364
 1760SOL     OW16738   1.203   3.571   9.382  0.2909 -0.1533 -0.7637
 1760SOL    HW116739   1.239   3.504   9.440 -1.1723 -0.1893  0.0912
 1760SOL    HW216740   1.277   3.631   9.380  0.5898 -0.4903  0.2173
 1761SOL     OW16741   0.924   2.560   3.465 -0.2236  0.4923  0.3711
 1761SOL    HW116742   0.922   2.607   3.549  0.6104  2.6801 -0.8354
 1761SOL    HW216743   1.018   2.554   3.450 -0.3476  2.6881 -1.3197
 1762SOL     OW16744   1.084   1.105   8.596  0.0363  0.5201 -0.5855
 1762SOL    HW116745   1.034   1.078   8.519  0.3211  1.6069 -1.1401
 1762SOL    HW216746   1.158   1.143   8.548 -0.2668  0.2579 -1.2627
 1763SOL     OW16747   2.638   2.620   8.848 -0.1392 -0.2851 -0.6218
 1763SOL    HW116748   2.672   2.538   8.812 -0.4180 -0.4413 -0.5267
 1763SOL    HW216749   2.642   2.676   8.770 -0.8214  1.4343  0.5853
 1764SOL     OW16750   1.947   4.210   7.539 -0.6255  0.0844 -0.2393
 1764SOL    HW116751   1.952   4.267   7.462 -0.6076 -1.1051 -1.1068
 1764SOL    HW216752   1.864   4.164   7.526  0.0275 -0.2963 -2.8802
 1765SOL     OW16753   1.147   1.075   4.794 -0.9771 -0.1127  0.1127
 1765SOL    HW116754   1.135   1.170   4.791 -0.3166 -0.0446 -0.3699
 1765SOL    HW216755   1.237   1.064   4.825 -0.9412 -1.2636 -0.3601
 1766SOL     OW16756   3.385   2.172   8.714 -0.0787 -0.2448  0.2414
 1766SOL    HW116757   3.446   2.108   8.751  0.8209  1.1246  1.1464
 1766SOL    HW216758   3.356   2.188   8.804 -2.2889  1.6263 -0.8032
 1767SOL     OW16759   0.299   0.185   1.510  0.0554 -0.4935 -0.2401
 1767SOL    HW116760   0.309   0.133   1.431  1.3181 -0.9627  0.2249
 1767SOL    HW216761   0.252   0.118   1.560 -1.8548  0.1961 -1.1440
 1768SOL     OW16762   0.835   3.954   2.634 -0.2994  0.4895  0.2531
 1768SOL    HW116763   0.782   3.907   2.698 -1.0156  1.5693  0.4440
 1768SOL    HW216764   0.803   3.910   2.556  0.3403 -0.1994  0.3823
 1769SOL     OW16765   4.468   3.640   8.005  0.7829 -0.5624 -0.8853
 1769SOL    HW116766   4.526   3.635   8.080 -1.7982 -0.8148  1.0745
 1769SOL    HW216767   4.410   3.567   8.026  0.2572  0.1759  0.2483
 1770SOL     OW16768   1.753   3.102   9.603  0.3282  0.1804  0.2850
 1770SOL    HW116769   1.769   3.008   9.612  0.0561  0.0955 -0.0910
 1770SOL    HW216770   1.846   3.122   9.597  0.8520 -2.1655  0.4424
 1771SOL     OW16771   3.203   1.959   7.508 -0.0006 -0.4322 -0.1532
 1771SOL    HW116772   3.195   2.002   7.423  1.6603 -1.9669 -1.0779
 1771SOL    HW216773   3.109   1.958   7.528 -0.0340 -1.8492 -0.4290
 1772SOL     OW16774   3.576   1.986   0.786 -0.4088 -0.1932 -0.1716
 1772SOL    HW116775   3.656   2.033   0.810  0.7161 -1.6851 -1.0184
 1772SOL    HW216776   3.581   2.013   0.695 -2.6256  0.0757 -0.2143
 1773SOL     OW16777   0.663   2.995   8.916  0.0633 -0.0787 -0.7853
 1773SOL    HW116778   0.616   3.078   8.908 -2.2499 -1.4855 -1.6565
 1773SOL    HW216779   0.615   2.965   8.994  2.5574  0.0043  0.7915
 1774SOL     OW16780   3.669   3.183   8.351  0.4205 -0.3995  0.3984
 1774SOL    HW116781   3.647   3.114   8.288  0.1110  1.0305 -1.0559
 1774SOL    HW216782   3.705   3.245   8.287  0.8106 -0.6799  0.3430
 1775SOL     OW16783   3.268   4.371   2.820 -0.0735 -0.6360 -0.9890
 1775SOL    HW116784   3.360   4.374   2.848  0.2236  3.2334 -2.3430
 1775SOL    HW216785   3.261   4.433   2.747  1.4599  1.5092  0.6694
 1776SOL     OW16786   4.392   0.596   8.100 -0.4913  0.0619  0.7776
 1776SOL    HW116787   4.447   0.540   8.155  0.3340  0.6668  0.5630
 1776SOL    HW216788   4.345   0.640   8.170  1.0837  0.7957  1.3658
 1777SOL     OW16789   0.685   3.780   6.365 -0.0520  0.1104  0.0768
 1777SOL    HW116790   0.738   3.783   6.285 -1.0732  2.4399 -0.4941
 1777SOL    HW216791   0.745   3.815   6.431 -1.4866 -0.8263  1.9007
 1778SOL     OW16792   3.023   2.522   2.548 -0.1177  0.2355  0.4433
 1778SOL    HW116793   3.090   2.531   2.616 -0.4118  1.4555  0.5730
 1778SOL    HW216794   2.952   2.585   2.560  0.8911  1.2842  0.9611
 1779SOL     OW16795   1.470   3.705   9.395 -0.3113  0.4865  1.1659
 1779SOL    HW116796   1.454   3.776   9.458  2.5383  1.1531  1.1264
 1779SOL    HW216797   1.561   3.689   9.418 -0.0205 -1.1076 -1.2242
 1780SOL     OW16798   4.499   2.626   5.020  0.1323 -0.3618  0.2552
 1780SOL    HW116799   4.487   2.688   4.948 -0.3283 -0.0947  0.5591
 1780SOL    HW216800   4.587   2.647   5.051 -0.3847  0.6146  1.0649
 1781SOL     OW16801   4.397   4.049   3.597  0.3890  1.0175 -0.3066
 1781SOL    HW116802   4.394   4.022   3.505  0.3243 -0.3938  0.1066
 1781SOL    HW216803   4.477   4.006   3.625 -2.0466 -2.6518  0.9870
 1782SOL     OW16804   1.171   3.683  15.533  0.4233 -0.1387 -0.1282
 1782SOL    HW116805   1.160   3.589  15.546  0.7878  0.0460  1.4598
 1782SOL    HW216806   1.081   3.710  15.518  0.5619  1.0423  1.1083
 1783SOL     OW16807   1.047   2.500  12.627 -0.6509  0.1506  1.1835
 1783SOL    HW116808   1.061   2.502  12.722  0.8808  3.7035  0.8662
 1783SOL    HW216809   1.078   2.586  12.599  1.2672 -1.4874 -1.6542
 1784SOL     OW16810   0.124   0.868   8.104  0.2232  0.4911 -0.6821
 1784SOL    HW116811   0.208   0.883   8.148 -0.0279  1.7045 -0.6264
 1784SOL    HW216812   0.094   0.948   8.062 -2.0091 -0.2651 -0.5018
 1785SOL     OW16813   3.953   3.801   0.197  0.2474  0.2713 -0.0047
 1785SOL    HW116814   3.912   3.730   0.246  1.0305 -1.2175 -1.4785
 1785SOL    HW216815   4.031   3.818   0.250  1.0866  0.1253 -1.1823
 1786SOL     OW16816   0.330   1.315   8.048  0.1997 -0.0051  0.1963
 1786SOL    HW116817   0.299   1.251   8.112  0.1377 -0.0623  0.1103
 1786SOL    HW216818   0.321   1.398   8.094  0.8077 -0.6173  1.4209
 1787SOL     OW16819   0.283   4.555   3.318 -0.1045 -0.1640 -0.2831
 1787SOL    HW116820   0.209   4.613   3.338  0.5896  0.8468 -0.6279
 1787SOL    HW216821   0.336   4.580   3.393 -0.4683  1.2831 -0.4917
 1788SOL     OW16822   2.984   1.177   8.593 -0.3026 -0.2885 -0.2775
 1788SOL    HW116823   2.892   1.151   8.604 -0.4585  0.0809 -0.7147
 1788SOL    HW216824   2.975   1.261   8.638 -0.8151 -1.4888  1.8404
 1789SOL     OW16825   2.709   1.011  10.586  0.0880  0.5226 -0.7171
 1789SOL    HW116826   2.773   1.050  10.646  1.2106 -2.0149 -0.2886
 1789SOL    HW216827   2.700   0.921  10.617 -0.2945 -0.0889 -2.5831
 1790SOL     OW16828   1.584   3.260  17.308  0.1982  0.1544  0.6319
 1790SOL    HW116829   1.667   3.245  17.354  0.3624  2.5097  1.1043
 1790SOL    HW216830   1.601   3.230  17.218  1.2814  1.3648  0.4327
 1791SOL     OW16831   4.636   1.723  10.026 -0.0229 -0.2132 -0.5032
 1791SOL    HW116832   4.598   1.696   9.943  3.4307 -2.3440 -1.3815
 1791SOL    HW216833   4.673   1.640  10.055 -0.3522 -0.2380 -0.1442
 1792SOL     OW16834   3.969   4.677   8.625 -0.2885  0.1886  0.6739
 1792SOL    HW116835   3.880   4.686   8.590  0.2649 -0.1140 -0.7878
 1792SOL    HW216836   4.001   0.038   8.594  0.3762  0.1508  1.2707
 1793SOL     OW16837   2.775   3.515  10.943 -0.2681  0.2846  0.0799
 1793SOL    HW116838   2.714   3.588  10.947  0.8987  1.2267  0.6398
 1793SOL    HW216839   2.845   3.574  10.918 -1.2119  0.9567 -0.9594
 1794SOL     OW16840   4.106   1.545   5.499 -0.1345 -0.0932  0.0900
 1794SOL    HW116841   4.111   1.626   5.447  3.8642  0.0782  0.7846
 1794SOL    HW216842   4.011   1.539   5.509  0.0017 -1.0509  0.7189
 1795SOL     OW16843   3.614   3.633   2.611 -0.1996  0.4517  0.5829
 1795SOL    HW116844   3.589   3.725   2.611 -2.7783 -0.2796 -1.7944
 1795SOL    HW216845   3.529   3.597   2.634 -1.0769  0.7786 -2.1972
 1796SOL     OW16846   0.254   4.253   6.859  0.2011 -0.0083  0.2579
 1796SOL    HW116847   0.220   4.312   6.792  0.4397  1.3399  1.3282
 1796SOL    HW216848   0.264   4.168   6.817  0.3657  0.2045 -0.1384
 1797SOL     OW16849   3.179   0.612  10.222  0.3514  0.3937  0.3213
 1797SOL    HW116850   3.199   0.545  10.287 -0.0372 -1.7355 -1.7673
 1797SOL    HW216851   3.252   0.590  10.165  0.3581 -0.1276  0.5293
 1798SOL     OW16852   0.136   1.068   2.305 -0.5734 -0.2911 -0.1269
 1798SOL    HW116853   0.193   1.005   2.350  0.1879  0.3676 -0.1701
 1798SOL    HW216854   0.156   1.155   2.338 -1.8451  0.5524 -1.5808
 1799SOL     OW16855   4.533   0.306  16.857  0.7930  0.1898 -0.0065
 1799SOL    HW116856   4.507   0.397  16.870 -0.5151 -0.1492 -0.1648
 1799SOL    HW216857   4.585   0.293  16.936 -0.5845  0.6643  0.9855
 1800SOL     OW16858   3.664   4.145   5.609  0.2087  0.0236 -0.2675
 1800SOL    HW116859   3.754   4.175   5.592 -0.1415  0.2621 -1.7253
 1800SOL    HW216860   3.683   4.058   5.642  0.3609 -0.0541 -0.5574
 1801SOL     OW16861   3.351   3.443   1.725  0.0270 -0.5389 -0.0621
 1801SOL    HW116862   3.387   3.486   1.648 -1.7727  2.2134  0.6391
 1801SOL    HW216863   3.416   3.374   1.732  0.0882 -0.5410 -0.6839
 1802SOL     OW16864   0.801   2.848   9.242 -0.0276  0.0518  0.0712
 1802SOL    HW116865   0.854   2.782   9.287 -0.5472  1.1210  2.2211
 1802SOL    HW216866   0.713   2.837   9.278 -0.2284  0.3961 -0.3183
 1803SOL     OW16867   1.658   4.626   4.300  0.4863 -0.2084 -0.1337
 1803SOL    HW116868   1.640   4.717   4.277 -0.6836 -0.5883 -0.7261
 1803SOL    HW216869   1.656   4.584   4.213  1.1358 -0.6451  0.0518
 1804SOL     OW16870   0.461   3.180   8.910  0.1810  0.1794  0.7865
 1804SOL    HW116871   0.393   3.152   8.971  0.6661 -0.5518  0.9986
 1804SOL    HW216872   0.413   3.226   8.840 -1.2790 -1.2029  0.8865
 1805SOL     OW16873   2.188   2.354   0.895 -0.1600  0.0106 -0.0241
 1805SOL    HW116874   2.183   2.432   0.951 -0.7658 -0.8647  1.1604
 1805SOL    HW216875   2.246   2.294   0.942  0.8562  2.7838  2.2665
 1806SOL     OW16876   0.438   1.065   4.871  0.2277  0.0773 -0.1157
 1806SOL    HW116877   0.437   1.140   4.811 -0.7990 -1.0789 -1.5440
 1806SOL    HW216878   0.474   0.996   4.815 -2.4999 -0.0791 -1.6556
 1807SOL     OW16879   1.571   2.402   4.941 -0.0734  0.0378  0.0186
 1807SOL    HW116880   1.654   2.399   4.988  0.7538 -0.0766 -1.4591
 1807SOL    HW216881   1.532   2.477   4.986 -0.5609 -0.5173  0.5158
 1808SOL     OW16882   4.048   0.336  10.346  0.7359  0.6148  0.3431
 1808SOL    HW116883   4.044   0.370  10.257 -1.0204  1.4902  0.7615
 1808SOL    HW216884   3.955   0.332  10.367  0.9073  1.1806  1.2159
 1809SOL     OW16885   4.696   1.396   7.783 -0.3693  0.2876 -0.2282
 1809SOL    HW116886   0.007   1.377   7.696 -2.7619 -0.7585 -0.9508
 1809SOL    HW216887   4.637   1.322   7.794 -0.5291  0.3999 -0.3412
 1810SOL     OW16888   0.030   0.756   1.516 -0.6552  0.2211 -0.3016
 1810SOL    HW116889   0.014   0.663   1.499  0.9956  0.3527 -2.5966
 1810SOL    HW216890   0.048   0.791   1.429 -0.1658 -0.4545 -0.4740
 1811SOL     OW16891   0.551   1.188   0.747  0.2805  0.0583 -0.0122
 1811SOL    HW116892   0.594   1.108   0.715  1.8927  1.0160 -0.2200
 1811SOL    HW216893   0.468   1.174   0.700  0.2256 -0.7846  0.3277
 1812SOL     OW16894   2.589   0.369   7.647 -0.3028 -0.9046  0.2830
 1812SOL    HW116895   2.628   0.368   7.734 -0.9939 -0.8887  0.5879
 1812SOL    HW216896   2.498   0.345   7.660 -0.4401 -0.4500  0.1576
 1813SOL     OW16897   3.280   3.170   4.452 -0.4113  0.3144  0.3372
 1813SOL    HW116898   3.221   3.245   4.443 -2.0287 -0.6730  2.6862
 1813SOL    HW216899   3.227   3.097   4.484  0.8164  0.0003  1.6603
 1814SOL     OW16900   2.240   3.086  10.577  0.3221 -0.0482  0.0710
 1814SOL    HW116901   2.263   2.999  10.544 -1.3059 -0.8936  1.1634
 1814SOL    HW216902   2.230   3.071  10.671  1.1351 -3.2623 -0.3547
 1815SOL     OW16903   0.198   1.914   9.186 -0.2765  0.1473  0.2357
 1815SOL    HW116904   0.243   1.994   9.161 -3.2415  2.1410  1.3038
 1815SOL    HW216905   0.218   1.864   9.107  1.0609  2.7976 -1.0749
 1816SOL     OW16906   4.120   2.607  12.323  0.1251 -0.4544  0.1331
 1816SOL    HW116907   4.151   2.687  12.366 -2.0320 -1.0023  2.6951
 1816SOL    HW216908   4.027   2.629  12.326  0.2056  0.1019 -1.4325
 1817SOL     OW16909   1.904   3.264   2.992 -0.4472  0.3930 -0.7277
 1817SOL    HW116910   1.865   3.268   3.080  0.6613 -0.6457 -0.1938
 1817SOL    HW216911   1.945   3.350   2.985 -0.4326  0.3721 -0.8954
 1818SOL     OW16912   3.495   2.753   3.218  0.1570 -0.6659  0.3938
 1818SOL    HW116913   3.521   2.689   3.151  2.3042  2.2381 -1.5047
 1818SOL    HW216914   3.572   2.810   3.214 -1.8189  1.8673 -1.2077
 1819SOL     OW16915   0.831   3.637   6.603  0.0085 -0.3188 -0.0410
 1819SOL    HW116916   0.905   3.627   6.663 -1.0872 -2.8171  0.8721
 1819SOL    HW216917   0.864   3.715   6.557  0.0422  1.1777  2.4879
 1820SOL     OW16918   1.048   4.218   6.419 -0.4201  0.1751  0.0806
 1820SOL    HW116919   1.123   4.218   6.478 -0.5494 -1.4018  0.2275
 1820SOL    HW216920   0.981   4.228   6.487  1.3162  0.5204  1.7385
 1821SOL     OW16921   0.189   1.334  10.068  0.5521 -0.3926  0.3952
 1821SOL    HW116922   0.220   1.396  10.002 -0.8890 -0.9722 -0.8182
 1821SOL    HW216923   0.149   1.396  10.129 -0.2965  1.0269 -1.6043
 1822SOL     OW16924   2.099   1.239   1.845 -0.2252  0.1989  0.2435
 1822SOL    HW116925   2.192   1.235   1.823 -0.2295  1.2959  0.0409
 1822SOL    HW216926   2.080   1.332   1.829 -1.9838 -0.3541 -0.9526
 1823SOL     OW16927   4.478   3.398   4.825 -0.0421 -0.8297 -0.0611
 1823SOL    HW116928   4.513   3.341   4.756 -0.7044 -1.8777  0.4622
 1823SOL    HW216929   4.519   3.352   4.898 -0.5682 -0.4657  0.4629
 1824SOL     OW16930   1.724   1.774   1.844 -0.5970 -0.2067 -0.1256
 1824SOL    HW116931   1.758   1.703   1.900 -0.4990  0.3265  0.4878
 1824SOL    HW216932   1.652   1.813   1.894 -0.7613  1.2986 -1.5573
 1825SOL     OW16933   0.465   3.810   2.413  0.1171  0.3554 -0.7795
 1825SOL    HW116934   0.551   3.794   2.375  0.5164  0.9948 -0.1528
 1825SOL    HW216935   0.418   3.871   2.356 -1.6746 -0.3336 -0.0620
 1826SOL     OW16936   3.575   0.869   2.841 -0.1248  0.2202 -0.4211
 1826SOL    HW116937   3.598   0.783   2.807  2.8502  0.0954  1.8713
 1826SOL    HW216938   3.654   0.916   2.813 -1.3670  1.8876 -1.1560
 1827SOL     OW16939   4.551   4.628  14.789 -0.2576 -0.3065 -0.7755
 1827SOL    HW116940   4.532   4.687  14.716  0.8663 -0.2249 -1.0008
 1827SOL    HW216941   4.596   4.688  14.849  2.3793 -0.3372 -2.6953
 1828SOL     OW16942   1.623   2.107   2.780  0.0917 -0.3732 -0.0808
 1828SOL    HW116943   1.598   2.032   2.726  0.7376 -0.0328 -0.8625
 1828SOL    HW216944   1.599   2.081   2.869 -0.6544 -2.8963 -1.0456
 1829SOL     OW16945   0.722   4.554   2.619  0.6544 -0.7970 -0.6340
 1829SOL    HW116946   0.652   4.531   2.680 -0.0962 -0.4886 -1.3847
 1829SOL    HW216947   0.694   4.517   2.535  2.3238  0.5819 -1.7999
 1830SOL     OW16948   2.275   1.255   2.424  0.0014  0.2316  0.2203
 1830SOL    HW116949   2.331   1.179   2.407 -1.3308 -0.3249 -1.6298
 1830SOL    HW216950   2.190   1.215   2.410 -0.4336  1.2676 -0.1100
 1831SOL     OW16951   2.247   1.096   5.060  0.0314 -0.1165 -0.4419
 1831SOL    HW116952   2.341   1.095   5.078 -0.5038 -0.0159  2.3659
 1831SOL    HW216953   2.250   1.047   4.978  0.5017 -0.4722 -0.2157
 1832SOL     OW16954   0.167   3.447   4.647 -0.8362  0.1335 -0.4619
 1832SOL    HW116955   0.182   3.355   4.668 -1.0334  0.3540  0.6331
 1832SOL    HW216956   0.123   3.444   4.562  0.8312  0.9644 -1.3538
 1833SOL     OW16957   2.844   0.781   0.067  0.1679 -0.2614  0.4028
 1833SOL    HW116958   2.929   0.769   0.110  0.5483  0.1855 -0.2090
 1833SOL    HW216959   2.866   0.841  17.691 -0.6461  0.9638  1.1727
 1834SOL     OW16960   0.425   1.474  15.866  0.2954 -0.2623  0.1276
 1834SOL    HW116961   0.348   1.419  15.859 -0.2483  0.4546  0.4510
 1834SOL    HW216962   0.498   1.415  15.845  0.4651 -1.1382  3.1735
 1835SOL     OW16963   1.095   0.891   6.075  0.2497  0.0526  0.0204
 1835SOL    HW116964   1.040   0.944   6.017 -1.2214 -1.0464  0.4043
 1835SOL    HW216965   1.185   0.920   6.064  0.0115 -0.3595 -3.1690
 1836SOL     OW16966   3.511   3.432   3.626 -0.7304  0.3198  0.4298
 1836SOL    HW116967   3.515   3.463   3.716  0.8118 -1.7338  1.0551
 1836SOL    HW216968   3.431   3.476   3.595 -1.1090  1.3119  2.8327
 1837SOL     OW16969   2.836   0.268   3.850  0.3712  0.3231 -0.7165
 1837SOL    HW116970   2.906   0.203   3.854 -0.5666 -0.5373  1.5985
 1837SOL    HW216971   2.876   0.341   3.802 -0.5058  0.6573 -0.9452
 1838SOL     OW16972   4.142   4.103   1.741  0.1260  0.2184 -0.4466
 1838SOL    HW116973   4.169   4.174   1.684  0.0213  2.8792  2.7936
 1838SOL    HW216974   4.146   4.032   1.677 -0.5500  0.9472 -1.2869
 1839SOL     OW16975   4.613   4.321  16.450 -0.4481 -0.1170  0.0956
 1839SOL    HW116976   4.575   4.244  16.493  1.2577 -0.3088  1.2744
 1839SOL    HW216977   4.705   4.295  16.437 -0.2614  0.7588 -0.3493
 1840SOL     OW16978   4.038   0.325   0.891 -0.2047  0.0484  0.0300
 1840SOL    HW116979   3.971   0.319   0.822 -0.4677  2.6069  0.0530
 1840SOL    HW216980   4.113   0.318   0.831 -0.7225 -1.2587 -0.4658
 1841SOL     OW16981   2.772   4.183   4.475  0.1858 -0.2681 -0.3000
 1841SOL    HW116982   2.835   4.242   4.516  0.4177 -0.1887 -0.7692
 1841SOL    HW216983   2.735   4.241   4.408 -0.4977 -0.2732  0.0709
 1842SOL     OW16984   2.783   3.045  13.137 -0.1154 -0.0428  0.4904
 1842SOL    HW116985   2.759   3.128  13.096  1.8718 -0.0729 -0.7120
 1842SOL    HW216986   2.707   3.048  13.195  0.2397 -1.0826  1.0177
 1843SOL     OW16987   0.407   4.057   3.551 -0.4365  0.6813  0.4133
 1843SOL    HW116988   0.492   4.089   3.520 -1.5342  1.8895 -1.3515
 1843SOL    HW216989   0.367   4.144   3.552 -2.4807 -0.2417 -0.5314
 1844SOL     OW16990   0.401   4.673   1.689  0.4517 -0.2231 -0.5891
 1844SOL    HW116991   0.493   4.649   1.686 -0.2526 -2.9469 -1.0465
 1844SOL    HW216992   0.412   0.043   1.677  1.1019 -0.2306  0.0015
 1845SOL     OW16993   4.205   3.217   0.492  0.0344  0.2899 -0.3954
 1845SOL    HW116994   4.248   3.298   0.463 -0.9814  0.2956 -1.8968
 1845SOL    HW216995   4.238   3.167   0.418  0.5143 -0.0792  0.0680
 1846SOL     OW16996   1.695   2.558   0.199  0.3230 -0.1927 -0.0437
 1846SOL    HW116997   1.695   2.480   0.253  1.0503  0.7966  1.3976
 1846SOL    HW216998   1.675   2.612   0.275 -1.0906 -1.2642  0.3417
 1847SOL     OW16999   1.525   0.343   0.671  0.0702 -0.1178 -0.3125
 1847SOL    HW117000   1.483   0.284   0.734  0.2665  1.2957  1.1150
 1847SOL    HW217001   1.479   0.311   0.593  0.4490  1.2575 -1.0939
 1848SOL     OW17002   4.524   1.267   5.944 -0.1826  0.3127  0.4245
 1848SOL    HW117003   4.559   1.347   5.984  1.1502 -0.1872  0.2569
 1848SOL    HW217004   4.547   1.201   6.009  1.3093  0.1864 -0.2160
 1849SOL     OW17005   0.473   3.462   7.891 -0.2992 -0.3204  0.1742
 1849SOL    HW117006   0.501   3.551   7.913 -1.4051  0.0501  0.0708
 1849SOL    HW217007   0.446   3.465   7.799  0.5288 -0.7818 -0.0858
 1850SOL     OW17008   4.635   3.334   5.080  0.1987 -0.0843 -0.1060
 1850SOL    HW117009   4.634   3.244   5.112  0.9017 -0.2256 -0.4721
 1850SOL    HW217010   4.720   3.343   5.036  0.2303 -1.2251 -0.2884
 1851SOL     OW17011   0.900   2.914   9.014 -0.4964  0.0603 -0.2574
 1851SOL    HW117012   0.862   2.884   9.097 -2.4000 -0.5212 -1.3352
 1851SOL    HW217013   0.817   2.942   8.976 -0.3358 -0.2354 -0.8234
 1852SOL     OW17014   2.887   1.055   3.415  0.2933  0.7504 -0.0409
 1852SOL    HW117015   2.857   1.091   3.332  0.6455 -1.5546 -1.1740
 1852SOL    HW217016   2.893   0.960   3.405 -1.3325  0.5937  0.6459
 1853SOL     OW17017   4.272   2.538   4.230 -0.6644  0.4757  0.0321
 1853SOL    HW117018   4.361   2.553   4.261 -0.0489  0.4018 -1.7337
 1853SOL    HW217019   4.269   2.444   4.244 -0.6546  0.4283 -0.2811
 1854SOL     OW17020   0.947   1.457  14.733  0.2688  0.0749 -0.0096
 1854SOL    HW117021   0.927   1.370  14.767 -0.2826 -0.3620 -1.4265
 1854SOL    HW217022   0.857   1.488  14.723  0.6806  1.0700 -0.7048
 1855SOL     OW17023   0.441   0.038  17.620  0.2790 -0.3158 -0.5715
 1855SOL    HW117024   0.438   0.134  17.623  2.2822 -0.3435  1.8601
 1855SOL    HW217025   0.438   0.021   0.017  0.8011 -2.8551 -1.0279
 1856SOL     OW17026   3.314   1.342   8.719 -0.2438 -0.1549  0.2242
 1856SOL    HW117027   3.342   1.327   8.809  0.1622 -1.0886 -0.0511
 1856SOL    HW217028   3.265   1.262   8.698  0.9705 -0.2423 -2.4078
 1857SOL     OW17029   1.084   3.105  16.327 -0.9693  0.2604  0.0335
 1857SOL    HW117030   1.010   3.046  16.315  1.1060 -2.2560 -0.2328
 1857SOL    HW217031   1.044   3.164  16.391  1.2889  0.7934  0.9554
 1858SOL     OW17032   0.079   3.180  14.914  0.1358  0.7277  0.2250
 1858SOL    HW117033   0.098   3.118  14.844  0.8649  1.1986  0.0128
 1858SOL    HW217034   0.038   3.125  14.982  1.8825 -0.5733  0.2276
 1859SOL     OW17035   0.229   1.933   3.867  0.2552 -0.2906 -0.2122
 1859SOL    HW117036   0.230   1.967   3.778  1.7810  2.3987  0.8522
 1859SOL    HW217037   0.218   1.840   3.846 -2.2611 -0.0710  0.1451
 1860SOL     OW17038   4.264   0.599   8.860 -0.5027 -0.2080  1.0514
 1860SOL    HW117039   4.305   0.656   8.923  1.2169 -0.9320  0.5755
 1860SOL    HW217040   4.232   0.671   8.805 -0.0427  1.5931  3.1651
 1861SOL     OW17041   3.681   4.287   5.243 -0.1193  0.3782 -0.0330
 1861SOL    HW117042   3.667   4.381   5.255  2.1905  0.6437  0.4639
 1861SOL    HW217043   3.774   4.284   5.264 -0.1654  3.9985  0.7937
 1862SOL     OW17044   3.245   4.115   0.597  0.2289 -0.1647  0.0030
 1862SOL    HW117045   3.276   4.025   0.603 -3.0119 -1.4927 -2.9729
 1862SOL    HW217046   3.187   4.105   0.672 -0.4108 -0.6041 -0.5487
 1863SOL     OW17047   1.316   2.167   5.285  0.2514  0.0884 -0.4074
 1863SOL    HW117048   1.264   2.123   5.352  3.2690 -0.3636  1.6290
 1863SOL    HW217049   1.403   2.128   5.297 -0.7148 -2.7355 -2.6078
 1864SOL     OW17050   4.347   4.686  11.284  0.1915  0.2735  0.2497
 1864SOL    HW117051   4.403   4.712  11.211 -0.1766  1.4749  0.3911
 1864SOL    HW217052   4.413   4.652  11.343 -1.6927  0.6964  2.6189
 1865SOL     OW17053   0.983   3.335   1.460 -0.4592 -0.5977 -0.3378
 1865SOL    HW117054   1.012   3.307   1.546  0.2059  0.0972 -0.3291
 1865SOL    HW217055   0.991   3.252   1.414 -2.6298 -0.2416 -1.3481
 1866SOL     OW17056   1.198   1.933   5.800 -0.3916  0.0579 -0.2729
 1866SOL    HW117057   1.251   1.898   5.729 -0.7015 -0.5169 -0.2209
 1866SOL    HW217058   1.219   2.025   5.784  1.5649 -0.3074  0.2266
 1867SOL     OW17059   3.639   2.834   8.523 -0.1449 -0.5518 -0.6082
 1867SOL    HW117060   3.648   2.741   8.545 -1.4256 -0.2809  1.0700
 1867SOL    HW217061   3.552   2.858   8.553  0.3199 -0.1947  0.4834
 1868SOL     OW17062   2.857   3.634  13.228  0.5884  1.0750  0.6908
 1868SOL    HW117063   2.848   3.705  13.164 -0.6570 -0.5464 -0.9257
 1868SOL    HW217064   2.864   3.691  13.305  0.4948  0.0848  1.4281
 1869SOL     OW17065   0.700   1.727  11.319  0.0722 -0.1779  0.5237
 1869SOL    HW117066   0.717   1.752  11.410  1.1566  0.5297  0.1285
 1869SOL    HW217067   0.616   1.773  11.308  0.9243  0.7736 -2.0852
 1870SOL     OW17068   1.673   2.901   7.537 -0.0193  0.4615 -0.1054
 1870SOL    HW117069   1.715   2.832   7.486 -1.5394 -0.6506  0.1348
 1870SOL    HW217070   1.680   2.973   7.474  1.6098  0.8421  0.5160
 1871SOL     OW17071   1.840   4.011  15.806 -0.0417  0.1091 -0.1608
 1871SOL    HW117072   1.836   3.938  15.744  0.3753  1.0947 -1.3449
 1871SOL    HW217073   1.815   3.961  15.884 -1.5046 -0.1169 -0.7766
 1872SOL     OW17074   2.751   2.602   4.203  0.1655 -0.2290 -0.5258
 1872SOL    HW117075   2.817   2.568   4.143 -0.1335 -2.1667  0.2329
 1872SOL    HW217076   2.691   2.633   4.135  2.2855 -0.0998 -2.3251
 1873SOL     OW17077   4.371   0.793   1.610 -0.0091 -0.1025  0.7304
 1873SOL    HW117078   4.338   0.882   1.605 -1.2243 -0.6172 -0.3839
 1873SOL    HW217079   4.302   0.747   1.657  0.3759 -1.4715 -0.0289
 1874SOL     OW17080   3.019   0.256   5.958  0.1734  0.6643 -0.0043
 1874SOL    HW117081   2.992   0.265   6.049 -0.3116  3.3498 -0.3917
 1874SOL    HW217082   3.112   0.276   5.964  0.1511  0.7149  0.1849
 1875SOL     OW17083   4.158   0.939   4.622  0.2877  0.0354  0.1051
 1875SOL    HW117084   4.166   0.847   4.643 -0.1410 -0.6841 -2.7976
 1875SOL    HW217085   4.119   0.972   4.703  1.5964 -0.6393  1.0132
 1876SOL     OW17086   2.333   3.919   6.285 -0.5213 -0.2420  0.3593
 1876SOL    HW117087   2.323   3.926   6.191 -0.6946 -3.1270  0.1771
 1876SOL    HW217088   2.316   3.825   6.288  2.6513 -0.7300  3.7179
 1877SOL     OW17089   0.157   4.596   7.819 -0.2717  0.1018  0.2340
 1877SOL    HW117090   0.194   4.681   7.794  0.1215  0.4507  1.9766
 1877SOL    HW217091   0.238   4.551   7.843 -0.8119 -0.4215  1.0879
 1878SOL     OW17092   3.353   4.466   7.588 -0.0988 -0.1123 -0.4714
 1878SOL    HW117093   3.271   4.471   7.540  0.9784 -2.1782 -2.5243
 1878SOL    HW217094   3.359   4.561   7.599 -0.9444 -0.1561  0.3157
 1879SOL     OW17095   2.938   3.651   4.014 -0.5832 -0.6191  0.3383
 1879SOL    HW117096   2.865   3.624   3.958 -0.4485 -2.1126  0.8916
 1879SOL    HW217097   2.923   3.581   4.077 -0.5606 -3.1398 -2.4507
 1880SOL     OW17098   3.185   4.607   8.216 -0.2065  0.1752 -0.5543
 1880SOL    HW117099   3.198   4.686   8.163 -0.1585 -0.3734 -1.3618
 1880SOL    HW217100   3.103   4.628   8.260  0.4680 -0.1995  0.8713
 1881SOL     OW17101   0.827   0.689   2.871  0.3748  0.7522 -0.1440
 1881SOL    HW117102   0.890   0.752   2.904 -0.2722  1.2629  0.1303
 1881SOL    HW217103   0.823   0.628   2.945 -0.1380  2.1459  0.9686
 1882SOL     OW17104   4.149   3.749   4.050  0.7673 -0.5794  0.3733
 1882SOL    HW117105   4.082   3.757   4.118 -0.5574  0.6818 -1.0895
 1882SOL    HW217106   4.218   3.704   4.099 -0.1895 -2.6228 -0.1521
 1883SOL     OW17107   1.622   4.450   3.710 -0.3089 -0.2199  0.5703
 1883SOL    HW117108   1.675   4.370   3.702 -2.8817 -1.9026  0.4330
 1883SOL    HW217109   1.533   4.418   3.721  0.0028 -1.9148 -1.6279
 1884SOL     OW17110   3.149   4.262  15.888  0.2944  0.3146  0.0563
 1884SOL    HW117111   3.145   4.180  15.936 -2.0761 -0.2705 -1.1476
 1884SOL    HW217112   3.130   4.314  15.966  0.8799  0.4894  0.0885
 1885SOL     OW17113   4.250   4.720   3.274 -0.4125  0.2892 -0.1562
 1885SOL    HW117114   4.294   0.044   3.345  0.7740  0.0830 -0.7555
 1885SOL    HW217115   4.239   0.071   3.215  0.9597  1.7828  1.4359
 1886SOL     OW17116   1.495   4.007   1.051 -0.2450 -0.1604  0.3520
 1886SOL    HW117117   1.493   4.094   1.012  0.8044 -0.0605  0.5158
 1886SOL    HW217118   1.405   3.982   1.073 -0.3422  0.6377  0.8555
 1887SOL     OW17119   2.980   0.816  10.527  0.1794 -0.0097 -0.0016
 1887SOL    HW117120   2.901   0.787  10.573  0.4244 -0.6052  0.0478
 1887SOL    HW217121   2.941   0.866  10.456 -0.6731 -1.4803 -0.5791
 1888SOL     OW17122   1.785   1.368  10.809  0.1232  0.4384  0.2900
 1888SOL    HW117123   1.833   1.303  10.861  0.4897  0.3344 -0.1756
 1888SOL    HW217124   1.857   1.421  10.774  2.4329 -2.9338 -0.1447
 1889SOL     OW17125   4.426   2.693   6.209  0.1491  0.3781  0.3473
 1889SOL    HW117126   4.356   2.644   6.252  0.5470  1.4026  2.1714
 1889SOL    HW217127   4.389   2.780   6.223 -1.4993 -0.1851 -0.5566
 1890SOL     OW17128   4.060   3.879  14.477  0.2464 -0.0534 -0.5307
 1890SOL    HW117129   3.989   3.940  14.460 -0.8051 -1.7716 -2.3693
 1890SOL    HW217130   4.100   3.884  14.390 -1.2538 -1.5785 -1.3180
 1891SOL     OW17131   3.642   2.058   6.520  0.2463  0.3413 -0.2773
 1891SOL    HW117132   3.579   1.986   6.530  0.7006 -0.3982 -2.9179
 1891SOL    HW217133   3.724   2.012   6.534 -1.3933 -1.3144  4.0556
 1892SOL     OW17134   2.535   1.986  13.963 -0.0041 -0.0842  0.2408
 1892SOL    HW117135   2.460   1.961  13.909  0.8214  1.6316 -1.6789
 1892SOL    HW217136   2.606   1.972  13.901 -1.2727 -0.6184 -1.0817
 1893SOL     OW17137   1.200   1.140   4.508 -0.2032 -0.3221  1.2871
 1893SOL    HW117138   1.137   1.127   4.579 -2.0341 -3.5425 -0.9043
 1893SOL    HW217139   1.257   1.063   4.515  2.8204  1.6964 -1.1629
 1894SOL     OW17140   1.273   1.097  13.261  0.0137 -0.5542  0.2590
 1894SOL    HW117141   1.351   1.053  13.228 -2.0680 -2.5004 -2.0666
 1894SOL    HW217142   1.320   1.153  13.323  2.8156 -0.3607 -2.0520
 1895SOL     OW17143   3.043   1.302  15.054 -0.0108 -0.1082  0.1813
 1895SOL    HW117144   3.028   1.396  15.066 -0.8930 -0.7277  3.9763
 1895SOL    HW217145   3.046   1.259  15.139  0.3152 -3.6153 -1.5944
 1896SOL     OW17146   2.917   4.255   3.951 -0.7240  0.0834 -0.2668
 1896SOL    HW117147   2.904   4.202   4.029  0.5752 -1.4650 -1.1137
 1896SOL    HW217148   3.011   4.243   3.944 -0.8361 -0.9799 -0.0020
 1897SOL     OW17149   3.387   2.116   1.601 -0.3782 -0.2060 -0.1587
 1897SOL    HW117150   3.323   2.177   1.636  0.9597 -0.3348  2.4740
 1897SOL    HW217151   3.324   2.047   1.583 -0.1007 -0.7975  1.1437
 1898SOL     OW17152   3.797   1.764  12.362  0.0743 -0.3031 -0.2915
 1898SOL    HW117153   3.764   1.803  12.281 -1.0105  4.0863  2.3126
 1898SOL    HW217154   3.772   1.673  12.347 -0.6536 -0.1701  0.1494
 1899SOL     OW17155   2.387   0.040   8.371  0.6091  0.2150 -0.6298
 1899SOL    HW117156   2.341   4.700   8.425  1.8756 -2.1150 -2.2648
 1899SOL    HW217157   2.344   0.016   8.289 -1.6296 -3.3774  1.5882
 1900SOL     OW17158   0.400   0.294   8.581  0.2793  0.1422 -0.2865
 1900SOL    HW117159   0.371   0.277   8.671 -1.6968  0.0849 -0.9427
 1900SOL    HW217160   0.415   0.202   8.562  2.3669  1.0827 -3.1303
 1901SOL     OW17161   0.441   1.633  14.804 -0.2533  0.2450  0.2318
 1901SOL    HW117162   0.358   1.663  14.766 -0.0523  1.1952  0.5486
 1901SOL    HW217163   0.460   1.715  14.848 -0.8069  0.2667  0.4288
 1902SOL     OW17164   0.223   3.165   5.656 -0.0311  0.0613 -1.0750
 1902SOL    HW117165   0.309   3.140   5.621  0.4330  0.1564 -0.0270
 1902SOL    HW217166   0.209   3.086   5.708 -0.5349  1.0580  0.3209
 1903SOL     OW17167   3.316   1.293  12.864 -0.3965 -0.0966 -0.2842
 1903SOL    HW117168   3.231   1.280  12.822  1.1982 -0.5492 -3.3747
 1903SOL    HW217169   3.374   1.287  12.789  0.4350  0.5301  0.3088
 1904SOL     OW17170   4.507   0.300   0.313  0.3665  0.1392  0.2768
 1904SOL    HW117171   4.459   0.319   0.394 -0.9570 -1.6674 -0.0922
 1904SOL    HW217172   4.595   0.326   0.340  0.4453 -0.2306  0.3787
 1905SOL     OW17173   3.279   2.294   6.540 -0.1416 -0.1855 -0.1707
 1905SOL    HW117174   3.317   2.240   6.470  2.4176  0.3631  0.8429
 1905SOL    HW217175   3.286   2.383   6.506 -1.0362 -0.1428 -0.2435
 1906SOL     OW17176   2.129   3.945   2.748  0.0863  0.4261  0.1451
 1906SOL    HW117177   2.099   4.035   2.742  1.1043  0.7345 -0.3046
 1906SOL    HW217178   2.119   3.926   2.841  1.2282  2.4143  0.6603
 1907SOL     OW17179   2.180   2.301  13.233  0.1136  0.5630  0.2986
 1907SOL    HW117180   2.244   2.332  13.169 -0.9346  1.7020 -0.2040
 1907SOL    HW217181   2.096   2.335  13.203  0.9430  1.4739 -0.9761
 1908SOL     OW17182   3.511   0.642   1.451 -0.8917  0.5174  0.2367
 1908SOL    HW117183   3.591   0.695   1.442  0.1389 -0.9914  0.4637
 1908SOL    HW217184   3.464   0.685   1.523  0.5632  0.1386  1.4260
 1909SOL     OW17185   3.004   3.275   4.654  0.3519  0.4780 -0.1511
 1909SOL    HW117186   2.982   3.368   4.667  1.2041  0.6470  0.0271
 1909SOL    HW217187   2.947   3.252   4.580 -1.9417  0.6118  1.5446
 1910SOL     OW17188   3.578   3.134  11.529  0.3151  0.2294  0.3417
 1910SOL    HW117189   3.551   3.226  11.537 -1.6796 -0.2960 -0.4456
 1910SOL    HW217190   3.489   3.098  11.536  0.2763  0.2224 -0.2229
 1911SOL     OW17191   0.475   1.195   4.469 -0.2840  0.3124  0.1584
 1911SOL    HW117192   0.497   1.206   4.377  2.6659  0.0765  0.8359
 1911SOL    HW217193   0.565   1.193   4.502  0.2362 -2.2355 -1.4288
 1912SOL     OW17194   4.522   1.435   1.234  0.0707 -0.3325 -0.0094
 1912SOL    HW117195   4.602   1.406   1.279  1.0791 -0.4874 -1.8747
 1912SOL    HW217196   4.521   1.379   1.156 -0.1441  0.6142 -0.6861
 1913SOL     OW17197   0.549   0.396  16.110  0.1263 -0.7417 -0.2169
 1913SOL    HW117198   0.613   0.360  16.171  0.5379  0.6794  0.1959
 1913SOL    HW217199   0.528   0.480  16.151  0.5418 -0.6523 -0.1861
 1914SOL     OW17200   0.893   0.278   2.094 -0.2967 -0.6776 -0.5120
 1914SOL    HW117201   0.816   0.325   2.062 -0.2233  0.3784  0.8588
 1914SOL    HW217202   0.881   0.282   2.189 -2.4966  0.8601 -0.8595
 1915SOL     OW17203   3.165   3.738  12.542 -0.0348 -0.1374  0.5030
 1915SOL    HW117204   3.176   3.819  12.591 -0.4211 -0.7576  1.6084
 1915SOL    HW217205   3.174   3.765  12.451 -0.2676 -0.0805  0.4979
 1916SOL     OW17206   0.079   4.686   4.888 -0.3010  0.0860  0.3215
 1916SOL    HW117207   0.140   0.026   4.925  0.5343  1.5879 -3.6538
 1916SOL    HW217208   0.006   0.019   4.863  0.1219  1.8246  2.8951
 1917SOL     OW17209   2.474   1.998   1.030 -0.6003  0.2804 -0.4451
 1917SOL    HW117210   2.549   1.951   1.066 -0.2835  0.7002 -0.5587
 1917SOL    HW217211   2.503   1.989   0.939 -1.6466  1.4753 -0.9146
 1918SOL     OW17212   2.156   1.122   3.889  0.4459  0.3017  0.2648
 1918SOL    HW117213   2.234   1.121   3.834  0.0658  0.6771 -0.2787
 1918SOL    HW217214   2.195   1.084   3.968  0.4425  0.7864  0.4999
 1919SOL     OW17215   2.499   4.443   4.215  0.0471 -0.0623 -0.1340
 1919SOL    HW117216   2.494   4.510   4.147  1.5854  0.4772  0.2842
 1919SOL    HW217217   2.594   4.444   4.226 -0.0385 -0.3527  0.6290
 1920SOL     OW17218   4.193   0.518   4.416 -0.3317 -0.3155 -0.0863
 1920SOL    HW117219   4.189   0.452   4.347  2.1804 -1.7461  1.0951
 1920SOL    HW217220   4.154   0.591   4.369 -0.3368 -0.6261 -0.5601
 1921SOL     OW17221   3.671   0.833   7.812  0.1875  0.2253 -0.4455
 1921SOL    HW117222   3.690   0.914   7.860 -1.2186 -0.2803  0.9564
 1921SOL    HW217223   3.576   0.844   7.801  0.3603  0.0558 -2.0539
 1922SOL     OW17224   0.374   4.536   8.118 -0.3962  0.8189 -0.0930
 1922SOL    HW117225   0.342   4.462   8.168  0.0682  0.6044 -0.1141
 1922SOL    HW217226   0.372   4.508   8.027  1.5131 -0.4552  0.2592
 1923SOL     OW17227   0.663   0.569   0.633  0.1622 -0.4174  0.6170
 1923SOL    HW117228   0.692   0.495   0.686 -0.0231 -1.8945 -1.3686
 1923SOL    HW217229   0.730   0.591   0.568 -1.5820  2.1437 -0.3061
 1924SOL     OW17230   1.273   2.132   7.907 -0.1638 -0.1226  0.3804
 1924SOL    HW117231   1.310   2.183   7.979 -1.0199 -1.0071  1.4381
 1924SOL    HW217232   1.185   2.169   7.906 -0.8541 -1.7699  0.0124
 1925SOL     OW17233   0.965   4.133   5.074 -0.2438  0.1498  0.0862
 1925SOL    HW117234   0.956   4.054   5.127  0.4049  1.8920  2.7978
 1925SOL    HW217235   0.929   4.111   4.987 -0.4036 -0.9067  0.4225
 1926SOL     OW17236   1.421   0.216   3.661 -0.1866 -0.0267  0.4577
 1926SOL    HW117237   1.466   0.212   3.577 -0.0868 -1.9199  0.6115
 1926SOL    HW217238   1.328   0.205   3.641 -0.6290  2.1156  1.3438
 1927SOL     OW17239   4.513   0.061   4.430 -0.3047  0.5078 -0.2710
 1927SOL    HW117240   4.427   0.065   4.388  0.1700 -1.8513 -1.4863
 1927SOL    HW217241   4.558   0.109   4.361 -1.8870  3.1182  0.5207
 1928SOL     OW17242   1.769   2.634   2.090  0.0551  0.2614 -0.4193
 1928SOL    HW117243   1.743   2.555   2.044 -0.6863  0.6464 -0.6464
 1928SOL    HW217244   1.828   2.678   2.029  2.5769 -0.8619  1.2050
 1929SOL     OW17245   0.763   0.054   5.549  0.0199  0.2362  0.1758
 1929SOL    HW117246   0.831   0.095   5.495  0.3697 -0.1917  0.2860
 1929SOL    HW217247   0.780   4.684   5.537  2.7188  0.8751 -1.1956
 1930SOL     OW17248   4.466   4.362  14.305 -0.3033 -0.0357 -0.0867
 1930SOL    HW117249   4.482   4.282  14.255  2.9128  0.4955  0.0758
 1930SOL    HW217250   4.540   4.414  14.273 -0.6341 -0.6386 -1.8282
 1931SOL     OW17251   1.475   1.928   9.439  0.1381 -0.4082  0.3850
 1931SOL    HW117252   1.515   1.969   9.516  0.3764 -1.3814  0.7808
 1931SOL    HW217253   1.431   2.000   9.395 -0.9362 -1.1696  0.2033
 1932SOL     OW17254   4.517   0.169   0.886  0.2516 -0.4187  0.0568
 1932SOL    HW117255   4.472   0.248   0.914  0.0164  0.0180 -1.5881
 1932SOL    HW217256   4.591   0.199   0.834 -0.2235 -0.2958 -0.5395
 1933SOL     OW17257   2.750   4.138  10.917 -0.0627 -0.0387 -0.3549
 1933SOL    HW117258   2.796   4.208  10.870  1.5548 -0.3298  0.7747
 1933SOL    HW217259   2.813   4.067  10.928 -1.0297 -1.0792 -1.5938
 1934SOL     OW17260   4.405   1.261   4.666 -0.1255  0.3152  0.1230
 1934SOL    HW117261   4.437   1.264   4.756 -0.1178  1.6007  0.0690
 1934SOL    HW217262   4.324   1.308   4.682  0.8353  1.7077  0.9225
 1935SOL     OW17263   1.359   2.698   8.799 -0.0102 -0.2208 -0.9623
 1935SOL    HW117264   1.287   2.683   8.738 -1.8757 -0.4602  1.3038
 1935SOL    HW217265   1.345   2.622   8.854  1.8369 -0.9884 -1.5594
 1936SOL     OW17266   1.596   1.495  15.800 -0.2437 -0.2082  0.0540
 1936SOL    HW117267   1.548   1.522  15.722 -2.2616  0.5521  1.5454
 1936SOL    HW217268   1.625   1.406  15.779  0.3276  0.4981 -2.1048
 1937SOL     OW17269   3.242   2.260   2.785  0.3697  0.0523  0.3270
 1937SOL    HW117270   3.174   2.312   2.827  2.0908  0.9972  1.9401
 1937SOL    HW217271   3.188   2.206   2.727  3.7971 -0.6610 -2.1844
 1938SOL     OW17272   0.281   0.789   2.696  0.0666 -0.1870 -0.3915
 1938SOL    HW117273   0.314   0.739   2.770 -0.2557 -0.4504 -0.4258
 1938SOL    HW217274   0.304   0.878   2.723  0.3040 -0.2991 -0.2303
 1939SOL     OW17275   3.821   2.739   7.822 -0.1547  0.5233  0.4425
 1939SOL    HW117276   3.801   2.804   7.890  1.3554  0.9181  0.5078
 1939SOL    HW217277   3.768   2.665   7.852 -2.2417  0.6597 -2.9546
 1940SOL     OW17278   4.676   3.375   2.150 -0.3255 -0.1933  0.0703
 1940SOL    HW117279   4.652   3.304   2.209  0.6185  0.2287  0.9775
 1940SOL    HW217280   4.701   3.440   2.216  1.5358  0.7064 -1.5265
 1941SOL     OW17281   3.991   1.491   7.595 -0.2825  0.0505 -0.5338
 1941SOL    HW117282   3.946   1.473   7.512 -4.5786  1.3034  1.5612
 1941SOL    HW217283   3.959   1.419   7.649 -1.4942  1.1725  0.2260
 1942SOL     OW17284   1.936   2.462  10.261 -0.6237  0.1502  0.9032
 1942SOL    HW117285   1.990   2.465  10.182  1.1296 -4.2760  1.9355
 1942SOL    HW217286   2.004   2.458  10.328 -0.2859  0.0470  0.5575
 1943SOL     OW17287   2.523   1.849   7.748 -0.0106 -0.1577  0.0648
 1943SOL    HW117288   2.445   1.799   7.723 -1.2466  0.6089  2.4367
 1943SOL    HW217289   2.541   1.800   7.828  1.1309  1.2719  0.6751
 1944SOL     OW17290   4.634   0.217   7.488  0.0621 -0.1059  0.0372
 1944SOL    HW117291   4.692   0.270   7.542  0.8800 -2.6753  1.6654
 1944SOL    HW217292   4.691   0.181   7.420  0.9163  1.1747  0.0737
 1945SOL     OW17293   1.593   2.314   5.394  0.2325  0.4611  0.4984
 1945SOL    HW117294   1.667   2.267   5.432  1.0445  1.5304  0.2545
 1945SOL    HW217295   1.629   2.399   5.367  0.3227  0.9723  2.2445
 1946SOL     OW17296   3.524   2.041   0.520 -0.3856  0.0576 -0.3413
 1946SOL    HW117297   3.560   1.956   0.543 -1.6345 -0.1088  0.9400
 1946SOL    HW217298   3.608   2.088   0.522 -0.7379  0.6304  0.8861
 1947SOL     OW17299   0.322   0.146   3.824  0.6898 -0.3468  0.1978
 1947SOL    HW117300   0.258   0.081   3.794 -0.1252 -0.7465  2.8274
 1947SOL    HW217301   0.315   0.203   3.748 -2.2358 -2.0725 -0.8497
 1948SOL     OW17302   0.158   3.266   3.043  0.1834 -0.1750  0.2434
 1948SOL    HW117303   0.127   3.356   3.035  0.7770  0.1479  1.5094
 1948SOL    HW217304   0.075   3.221   3.032  0.6671 -0.9721 -0.1301
 1949SOL     OW17305   2.692   2.275   6.247 -0.1015 -0.3647  0.3597
 1949SOL    HW117306   2.775   2.288   6.200  0.0939  0.3735  0.9031
 1949SOL    HW217307   2.636   2.328   6.190  1.5444 -0.0378 -0.9426
 1950SOL     OW17308   0.056   0.690   3.420 -0.6618 -0.3869  0.1727
 1950SOL    HW117309   0.118   0.750   3.378 -1.0110 -0.3524 -0.2988
 1950SOL    HW217310   0.016   0.742   3.489 -0.4979  1.5032 -1.1387
 1951SOL     OW17311   3.373   3.653   3.325  0.3350  0.2322  0.4567
 1951SOL    HW117312   3.468   3.659   3.336  0.3448  0.6828  0.1240
 1951SOL    HW217313   3.359   3.677   3.234  1.6895 -0.1718  0.1425
 1952SOL     OW17314   2.605   2.395  12.010 -0.2970  0.6638 -0.2547
 1952SOL    HW117315   2.590   2.467  11.949 -1.3109  0.3646 -0.3484
 1952SOL    HW217316   2.691   2.417  12.045 -1.4717  2.7443  1.3329
 1953SOL     OW17317   2.096   4.182   8.527  0.5786  0.1129  0.2315
 1953SOL    HW117318   2.185   4.205   8.501  0.7539 -0.9658 -0.1118
 1953SOL    HW217319   2.116   4.108   8.585  1.4283  1.5823  1.8150
 1954SOL     OW17320   4.630   1.336   1.918 -0.5224  0.1001  0.2722
 1954SOL    HW117321   4.651   1.254   1.873  1.0263  1.5393 -1.5929
 1954SOL    HW217322   4.695   1.333   1.989  1.6409 -0.8712 -1.7510
 1955SOL     OW17323   0.970   1.210  12.975  0.3419 -0.1568 -0.0779
 1955SOL    HW117324   0.975   1.223  13.070  0.9166 -0.1504 -0.1041
 1955SOL    HW217325   1.059   1.230  12.946  0.3433  1.1522  0.8183
 1956SOL     OW17326   3.432   4.265   1.776  0.1320 -0.7363  0.0351
 1956SOL    HW117327   3.346   4.295   1.744 -0.5681 -1.1906  1.4590
 1956SOL    HW217328   3.443   4.301   1.864 -0.2443 -0.4736 -0.0236
 1957SOL     OW17329   1.369   4.352   2.829 -0.5017  0.3669  0.1568
 1957SOL    HW117330   1.446   4.295   2.837  0.3422  1.6731  1.4321
 1957SOL    HW217331   1.404   4.412   2.764  1.3908 -1.0044 -0.0978
 1958SOL     OW17332   3.110   0.620  12.261 -0.0495  0.4706 -0.1253
 1958SOL    HW117333   3.138   0.542  12.308 -1.3994 -0.6502 -1.1634
 1958SOL    HW217334   3.084   0.586  12.175  0.4743 -0.0786 -0.0609
 1959SOL     OW17335   3.006   4.520   7.913 -0.5158 -0.4383 -1.1105
 1959SOL    HW117336   2.925   4.522   7.964  0.2656 -2.1744  0.2058
 1959SOL    HW217337   3.030   4.613   7.908 -0.6406 -0.2863  1.0203
 1960SOL     OW17338   0.240   2.178  14.701  0.2859 -0.2478  0.1565
 1960SOL    HW117339   0.226   2.111  14.634 -0.8453  0.5939 -0.4409
 1960SOL    HW217340   0.245   2.257  14.647  2.6987 -0.9101 -0.6297
 1961SOL     OW17341   3.641   3.665  12.276  0.2309 -0.0723 -0.6259
 1961SOL    HW117342   3.549   3.657  12.253  0.7255 -3.0055 -1.5401
 1961SOL    HW217343   3.639   3.657  12.371 -1.3472  0.6593 -0.5991
 1962SOL     OW17344   1.515   3.202   0.426 -0.6627 -0.3047 -0.0911
 1962SOL    HW117345   1.535   3.200   0.519 -3.0545 -0.5087  0.4161
 1962SOL    HW217346   1.429   3.160   0.423 -0.9264  0.2053  0.4870
 1963SOL     OW17347   4.642   1.269   6.992 -0.3834  0.4434 -0.5068
 1963SOL    HW117348   4.609   1.326   6.922 -0.7471  2.3448  1.2338
 1963SOL    HW217349   4.595   1.187   6.977 -0.6031  0.4432  0.1974
 1964SOL     OW17350   4.180   4.350   8.347  0.3103 -0.0841 -0.1148
 1964SOL    HW117351   4.146   4.375   8.433  1.8005  0.3087  0.3637
 1964SOL    HW217352   4.130   4.278   8.309 -1.1414  0.6144  0.4698
 1965SOL     OW17353   4.524   4.586  11.889 -0.1300  0.1577 -0.1791
 1965SOL    HW117354   4.538   4.494  11.913  1.7106  1.3875  3.5220
 1965SOL    HW217355   4.518   4.572  11.795 -0.7324  0.2652 -0.1601
 1966SOL     OW17356   3.197   2.313  17.586 -0.8035  0.1235  0.0857
 1966SOL    HW117357   3.248   2.289  17.509  1.3962  2.6282  0.7069
 1966SOL    HW217358   3.214   2.408  17.592  0.9799 -0.3180  2.4960
 1967SOL     OW17359   4.602   2.919   4.251 -0.6068 -0.0361  0.0483
 1967SOL    HW117360   4.687   2.947   4.216 -0.2572  0.3695  1.1934
 1967SOL    HW217361   4.599   2.835   4.207  2.2600 -0.2553  0.2654
 1968SOL     OW17362   2.399   2.393  15.092  0.2167 -0.2639 -0.5377
 1968SOL    HW117363   2.384   2.346  15.010 -1.0242  0.7747 -0.9112
 1968SOL    HW217364   2.343   2.470  15.084  0.5663 -0.0113 -0.5715
 1969SOL     OW17365   3.287   1.973   3.937 -0.1266  0.4923 -0.2871
 1969SOL    HW117366   3.375   1.937   3.944  0.1298  0.8282 -1.8066
 1969SOL    HW217367   3.277   1.975   3.842 -0.1931  2.0578 -0.2403
 1970SOL     OW17368   0.647   1.598   3.710 -0.4981  0.2268  0.0406
 1970SOL    HW117369   0.644   1.511   3.671  1.6271  0.5558 -0.8477
 1970SOL    HW217370   0.555   1.602   3.735 -0.7551 -0.3123 -0.8106
 1971SOL     OW17371   2.301   2.188   8.730  0.1997 -1.0749  0.3576
 1971SOL    HW117372   2.326   2.278   8.711 -1.9335 -0.4428  0.6449
 1971SOL    HW217373   2.386   2.143   8.739  0.8817  0.5505  1.8981
 1972SOL     OW17374   2.910   1.609   1.796 -0.0071 -0.3686 -0.3560
 1972SOL    HW117375   2.957   1.541   1.844 -1.1802 -2.4530 -2.1423
 1972SOL    HW217376   2.945   1.681   1.849  2.6290 -0.9285 -1.3454
 1973SOL     OW17377   1.498   4.197  14.910  0.1745  0.1753  0.2751
 1973SOL    HW117378   1.452   4.238  14.838  1.3495 -0.4338 -0.8215
 1973SOL    HW217379   1.510   4.109  14.874  0.2849  0.7428 -1.0491
 1974SOL     OW17380   0.110   0.015   3.724  0.6433  0.0860  0.0843
 1974SOL    HW117381   0.015   0.017   3.740  0.3487 -2.1750 -1.3964
 1974SOL    HW217382   0.117   4.657   3.676 -0.5784  0.1023 -0.1220
 1975SOL     OW17383   3.167   1.989  12.443 -0.2046  0.1382  0.1337
 1975SOL    HW117384   3.169   1.910  12.496  0.1478  2.2359  3.2903
 1975SOL    HW217385   3.194   2.055  12.508 -0.7622 -1.6925  2.2177
 1976SOL     OW17386   0.277   1.947   9.616  0.2636  0.3368  0.1581
 1976SOL    HW117387   0.320   2.028   9.641 -1.9562  1.7922 -0.7835
 1976SOL    HW217388   0.352   1.896   9.583 -0.5711 -1.1917  0.6186
 1977SOL     OW17389   2.769   4.518  10.582 -0.3276 -0.0046  0.2089
 1977SOL    HW117390   2.729   4.519  10.495  1.2579  1.0482 -0.4962
 1977SOL    HW217391   2.850   4.561  10.555 -0.6927  0.1066 -0.6951
 1978SOL     OW17392   0.800   3.222  11.437  0.0130  0.5953  0.5286
 1978SOL    HW117393   0.730   3.159  11.451  0.5651  0.2061  1.5666
 1978SOL    HW217394   0.800   3.232  11.342 -0.1607  0.9464  0.5628
 1979SOL     OW17395   2.701   1.981   8.221 -0.7477 -0.4833  0.3909
 1979SOL    HW117396   2.637   2.053   8.223 -2.3021 -1.8733  0.4129
 1979SOL    HW217397   2.771   2.021   8.170 -1.2460  3.0204  2.3870
 1980SOL     OW17398   2.024   3.296   4.554  0.2677 -0.0130  0.0140
 1980SOL    HW117399   2.073   3.289   4.473 -1.1481 -0.9052 -0.7642
 1980SOL    HW217400   1.935   3.315   4.525  0.3864  1.6363  0.7431
 1981SOL     OW17401   2.148   3.685   9.335 -0.1476  0.4354 -0.3992
 1981SOL    HW117402   2.234   3.644   9.345 -0.9584 -0.8483  1.2467
 1981SOL    HW217403   2.095   3.605   9.337 -1.9922  1.6666 -0.1637
 1982SOL     OW17404   1.104   0.332  13.846  0.1452  0.4250 -0.0685
 1982SOL    HW117405   1.136   0.369  13.928  0.4365 -0.8430  0.3889
 1982SOL    HW217406   1.085   0.408  13.790  2.0859  1.5965  0.8600
 1983SOL     OW17407   1.974   1.508   5.940  0.3808 -0.1495 -0.1243
 1983SOL    HW117408   1.952   1.525   5.848 -0.3811 -1.6002 -0.2141
 1983SOL    HW217409   2.000   1.597   5.963 -0.1625  0.3205 -1.3110
 1984SOL     OW17410   1.517   1.863   8.056  0.4269  0.0823  0.0887
 1984SOL    HW117411   1.571   1.831   8.128 -2.3481 -0.0779  2.0852
 1984SOL    HW217412   1.563   1.808   7.993  0.5022 -0.6939  0.8264
 1985SOL     OW17413   3.045   3.761   3.633 -0.0359  0.5425  0.1094
 1985SOL    HW117414   2.953   3.736   3.633  0.4093 -1.1201 -1.4522
 1985SOL    HW217415   3.028   3.853   3.652  0.0296  0.6683 -0.4354
 1986SOL     OW17416   2.694   4.513   3.635  0.0232  0.4871 -0.4649
 1986SOL    HW117417   2.635   4.589   3.637  0.0571  0.4664  1.4299
 1986SOL    HW217418   2.775   4.551   3.602  0.3132  1.1144  0.9540
 1987SOL     OW17419   0.361   2.840   8.819  0.0103 -0.3020 -0.4392
 1987SOL    HW117420   0.377   2.870   8.908 -0.6349  0.6763 -0.6525
 1987SOL    HW217421   0.400   2.753   8.820 -1.1701 -0.8356  0.5546
 1988SOL     OW17422   4.707   2.435   2.767  0.1739  0.2373  0.2871
 1988SOL    HW117423   4.691   2.458   2.676  0.0579 -2.0709 -0.2695
 1988SOL    HW217424   0.074   2.461   2.780  0.3289  1.0388 -2.4556
 1989SOL     OW17425   1.535   2.334   8.521 -0.2472 -0.2045 -0.4652
 1989SOL    HW117426   1.463   2.372   8.471 -1.0104  0.0488  0.8209
 1989SOL    HW217427   1.536   2.255   8.467 -1.4466 -1.1905  0.9550
 1990SOL     OW17428   4.324   2.968   7.023 -0.1090 -0.4652 -0.3632
 1990SOL    HW117429   4.339   3.044   7.080  0.5421 -1.0314  0.2295
 1990SOL    HW217430   4.229   2.971   7.015 -0.1078  1.5376  0.1814
 1991SOL     OW17431   0.491   1.851  12.547  0.2422  0.1605  0.0146
 1991SOL    HW117432   0.397   1.835  12.542  0.3119 -0.1499 -0.3111
 1991SOL    HW217433   0.503   1.873  12.454  0.4671 -0.4141 -0.0956
 1992SOL     OW17434   0.753   2.573   8.842  0.0826 -0.2041 -0.5854
 1992SOL    HW117435   0.733   2.651   8.790  0.6466  0.6838  0.5294
 1992SOL    HW217436   0.699   2.507   8.799 -1.3069  0.2774  0.4294
 1993SOL     OW17437   2.327   1.185   2.053 -0.0361  0.6465 -0.0166
 1993SOL    HW117438   2.337   1.192   1.958 -4.3037 -0.2461 -0.5247
 1993SOL    HW217439   2.362   1.268   2.083  1.4635 -0.1592  0.4619
 1994SOL     OW17440   0.828   1.423  10.624  0.2618  0.5971 -0.4723
 1994SOL    HW117441   0.826   1.476  10.544 -2.4229 -0.3598 -1.0512
 1994SOL    HW217442   0.881   1.477  10.683  0.9431 -0.2995 -0.2728
 1995SOL     OW17443   1.353   3.670  15.348  0.5366  0.4403 -0.3630
 1995SOL    HW117444   1.281   3.665  15.412  2.1044 -1.9253  1.2018
 1995SOL    HW217445   1.336   3.753  15.304  1.0944 -0.2031 -1.8111
 1996SOL     OW17446   1.369   1.442   4.106  0.0077 -0.7066  0.2663
 1996SOL    HW117447   1.444   1.431   4.048 -0.5679 -1.1287 -0.4013
 1996SOL    HW217448   1.304   1.452   4.038 -0.6913 -1.3223  0.8400
 1997SOL     OW17449   0.895   2.619   3.016 -0.2029  0.2017 -0.0479
 1997SOL    HW117450   0.891   2.696   2.960 -1.7817 -0.1145 -0.3775
 1997SOL    HW217451   0.895   2.660   3.102 -0.4416 -2.1763  1.1061
 1998SOL     OW17452   0.901   3.744   4.817 -0.0158  0.9880  0.2197
 1998SOL    HW117453   0.904   3.702   4.730 -1.0551  0.6313  0.3637
 1998SOL    HW217454   0.830   3.803   4.792 -0.2378  0.7102  0.1953
 1999SOL     OW17455   2.436   4.270  10.211 -0.0449 -0.1156  0.4623
 1999SOL    HW117456   2.342   4.277  10.198  0.1910  0.1504 -1.1390
 1999SOL    HW217457   2.447   4.180  10.243 -3.6180 -0.4881  0.5886
 2000SOL     OW17458   2.332   0.107   5.481 -0.6599 -0.3541 -0.0526
 2000SOL    HW117459   2.244   0.105   5.442 -0.4357 -1.0942 -0.5292
 2000SOL    HW217460   2.343   0.202   5.489 -0.9860 -0.2461 -0.7901
 2001SOL     OW17461   4.356   4.036   3.334  0.1896 -0.3200  0.1429
 2001SOL    HW117462   4.420   4.086   3.284 -1.4135 -0.1859 -1.7500
 2001SOL    HW217463   4.349   3.960   3.276  0.2298 -0.1250 -0.1147
 2002SOL     OW17464   2.347   4.214   7.541 -0.3302  0.0860 -0.2797
 2002SOL    HW117465   2.426   4.176   7.503 -0.9352  0.1738 -1.6234
 2002SOL    HW217466   2.281   4.217   7.473 -0.0674 -0.5190 -0.5640
 2003SOL     OW17467   2.011   1.840  13.363  0.4302  0.7100 -0.1364
 2003SOL    HW117468   1.999   1.779  13.290 -1.0703 -1.8585  2.2937
 2003SOL    HW217469   1.924   1.878  13.370  0.2383 -0.1848  2.3352
 2004SOL     OW17470   0.667   2.316   4.564 -0.4369  0.2820 -0.9544
 2004SOL    HW117471   0.724   2.391   4.548  2.3367 -1.4428  0.8417
 2004SOL    HW217472   0.606   2.316   4.490 -0.0371  1.3659 -1.2785
 2005SOL     OW17473   3.972   2.579   1.188 -0.1021 -0.2921  0.1761
 2005SOL    HW117474   3.968   2.647   1.255  0.3944  0.9268 -1.0397
 2005SOL    HW217475   3.926   2.508   1.233  0.1894 -0.2264  0.5769
 2006SOL     OW17476   1.888   0.397   7.787  0.1600 -0.0792 -0.1018
 2006SOL    HW117477   1.803   0.353   7.780  0.0168  0.0798  0.6245
 2006SOL    HW217478   1.905   0.382   7.880  0.2447  2.8783  0.3561
 2007SOL     OW17479   4.286   3.858   0.685 -0.4309  0.1450  0.6249
 2007SOL    HW117480   4.349   3.930   0.692 -0.2343  0.0301  0.0672
 2007SOL    HW217481   4.309   3.822   0.599 -0.7558 -0.5321  0.8150
 2008SOL     OW17482   1.688   2.532   5.597 -0.2949  0.5809  0.1474
 2008SOL    HW117483   1.622   2.558   5.533 -1.2149 -0.4903  0.6450
 2008SOL    HW217484   1.755   2.600   5.588  0.5442 -0.0768  1.3822
 2009SOL     OW17485   2.285   4.648   2.170  0.1102  0.2790  0.4892
 2009SOL    HW117486   2.328   4.669   2.253  2.1522 -0.5599 -0.3664
 2009SOL    HW217487   2.198   4.646   2.210 -0.5600  1.1828 -0.9562
 2010SOL     OW17488   3.211   4.206   3.937 -0.2896 -0.7351 -0.1084
 2010SOL    HW117489   3.239   4.296   3.952 -1.3469 -0.8151  2.4130
 2010SOL    HW217490   3.274   4.183   3.869  0.7952  0.1239  0.6152
 2011SOL     OW17491   1.525   3.937   9.108 -0.3698 -0.4407  0.2790
 2011SOL    HW117492   1.550   3.946   9.200 -0.6216  0.0837  0.3004
 2011SOL    HW217493   1.433   3.912   9.115 -0.8580  0.9465 -1.0153
 2012SOL     OW17494   0.551   4.328   8.711 -0.0948 -0.0711 -0.7227
 2012SOL    HW117495   0.459   4.333   8.683 -0.4359  4.3805  1.2040
 2012SOL    HW217496   0.558   4.401   8.771 -3.2980 -0.4898  0.2027
 2013SOL     OW17497   3.129   4.212  12.403 -0.3672 -0.1400  0.2038
 2013SOL    HW117498   3.200   4.173  12.453  0.0457  0.4315  0.0721
 2013SOL    HW217499   3.046   4.210  12.450  0.2099 -1.6789  1.1403
 2014SOL     OW17500   4.494   4.008   5.789 -0.4302 -0.2660 -0.2172
 2014SOL    HW117501   4.427   4.070   5.817 -0.5149 -0.5576  0.2262
 2014SOL    HW217502   4.474   3.930   5.842 -3.2454 -0.2143 -1.1731
 2015SOL     OW17503   3.257   0.823   1.378  0.3563  0.1246  0.2087
 2015SOL    HW117504   3.299   0.812   1.463  2.9173 -2.2180 -1.3424
 2015SOL    HW217505   3.234   0.914   1.397  0.1704  0.0086  0.5246
 2016SOL     OW17506   2.736   3.827   6.102 -0.5453 -0.2003 -0.2867
 2016SOL    HW117507   2.774   3.869   6.024 -0.3000 -1.3987 -0.8147
 2016SOL    HW217508   2.672   3.773   6.057 -1.1816  0.1182  0.2473
 2017SOL     OW17509   4.287   0.657   9.752  0.7639 -0.5471 -0.3482
 2017SOL    HW117510   4.246   0.720   9.694 -3.7706 -1.2864  2.0602
 2017SOL    HW217511   4.294   0.576   9.701  1.0464 -0.9571  0.3327
 2018SOL     OW17512   2.084   0.301   6.537  0.1244  0.2973 -0.1566
 2018SOL    HW117513   2.127   0.216   6.530 -0.3012  0.1905 -1.3289
 2018SOL    HW217514   2.119   0.340   6.618  0.8706  2.9219 -1.7419
 2019SOL     OW17515   1.101   0.526  13.085  0.6440  0.1683 -0.1028
 2019SOL    HW117516   1.021   0.556  13.043  0.9877 -1.0472 -1.6238
 2019SOL    HW217517   1.118   0.597  13.147 -1.4841  0.5196  0.0514
 2020SOL     OW17518   2.301   0.755   5.418 -0.7874 -0.1105 -0.2471
 2020SOL    HW117519   2.371   0.699   5.384 -0.1109 -0.7318  2.1871
 2020SOL    HW217520   2.249   0.769   5.338 -0.0192  1.5272 -0.4548
 2021SOL     OW17521   1.467   1.813   8.446  0.5554  0.0355 -0.1283
 2021SOL    HW117522   1.561   1.802   8.464  0.6656 -0.5408 -1.0346
 2021SOL    HW217523   1.436   1.723   8.448 -0.3278  0.3646  0.5183
 2022SOL     OW17524   3.417   4.597   5.487 -0.0829  0.0698 -0.4919
 2022SOL    HW117525   3.433   4.528   5.551  2.6669  0.5252 -0.7121
 2022SOL    HW217526   3.474   4.659   5.531  1.1381 -1.2316 -0.2309
 2023SOL     OW17527   1.174   1.702   6.018 -0.2243  0.7434  0.1957
 2023SOL    HW117528   1.182   1.780   5.964 -1.6169 -0.6969 -2.0698
 2023SOL    HW217529   1.196   1.743   6.102 -2.6198  1.5256  0.4521
 2024SOL     OW17530   0.373   0.802   3.715 -0.1859  0.2317 -0.0544
 2024SOL    HW117531   0.367   0.763   3.628 -2.3722 -0.8405  0.5616
 2024SOL    HW217532   0.302   0.865   3.704 -1.9669 -1.3978  2.0854
 2025SOL     OW17533   1.297   2.691   1.294 -0.2546 -0.1409 -0.2278
 2025SOL    HW117534   1.223   2.752   1.303 -0.1637 -0.3489  2.0564
 2025SOL    HW217535   1.355   2.701   1.370 -0.2318 -0.5620 -0.1932
 2026SOL     OW17536   3.611   1.418   7.982 -0.6250  0.3281  0.5077
 2026SOL    HW117537   3.682   1.364   8.016 -1.2391 -0.2490  0.8624
 2026SOL    HW217538   3.663   1.489   7.943  0.2646  0.7801  2.5096
 2027SOL     OW17539   2.577   2.390  13.926  0.0778 -0.6919  0.8964
 2027SOL    HW117540   2.511   2.338  13.972 -1.8920  1.3117  0.2848
 2027SOL    HW217541   2.535   2.387  13.840 -0.2707  1.1644  0.9990
 2028SOL     OW17542   0.209   3.734   2.228 -0.3053  0.0887 -0.2101
 2028SOL    HW117543   0.261   3.735   2.148 -2.0355  0.4914 -1.3043
 2028SOL    HW217544   0.240   3.813   2.273 -0.6335  0.7386 -1.1325
 2029SOL     OW17545   2.679   1.633   6.035 -0.0000 -0.0988 -0.2733
 2029SOL    HW117546   2.723   1.689   6.099  0.0227  2.5244 -2.6093
 2029SOL    HW217547   2.739   1.559   6.024 -0.4255 -0.2056 -1.8216
 2030SOL     OW17548   4.096   0.742   1.044  0.0115 -0.7947  0.2842
 2030SOL    HW117549   4.099   0.651   1.074 -1.5303 -1.2220 -0.9032
 2030SOL    HW217550   4.116   0.789   1.125 -0.0932  0.5493 -0.4597
 2031SOL     OW17551   4.547   3.559  14.813 -0.2975 -0.3584 -0.3969
 2031SOL    HW117552   4.483   3.492  14.789 -0.3297 -0.2133 -0.7218
 2031SOL    HW217553   4.626   3.504  14.817 -0.3802 -0.4548 -0.0889
 2032SOL     OW17554   4.038   3.532  16.254  0.1729  0.2321  0.3159
 2032SOL    HW117555   4.019   3.472  16.327 -1.5854 -1.2721 -1.3654
 2032SOL    HW217556   4.126   3.565  16.272 -0.1882  2.4492 -2.0133
 2033SOL     OW17557   4.451   0.107   2.621 -0.1640 -0.4977 -0.1053
 2033SOL    HW117558   4.508   0.131   2.548  1.3150 -0.2139  1.1547
 2033SOL    HW217559   4.394   0.040   2.583 -0.0775 -0.6666  0.0677
 2034SOL     OW17560   0.608   3.483  15.245  0.3635 -0.4499  0.2998
 2034SOL    HW117561   0.623   3.405  15.298 -1.4133  0.3301  1.9462
 2034SOL    HW217562   0.664   3.457  15.171  1.2416 -0.5003  0.9879
 2035SOL     OW17563   2.602   4.238   5.079 -0.6374 -0.0201 -0.0769
 2035SOL    HW117564   2.546   4.306   5.041 -0.7936  0.2925  0.7119
 2035SOL    HW217565   2.661   4.221   5.005  0.0211  0.0794  0.4212
 2036SOL     OW17566   4.349   1.719   6.725  0.0828  0.4937 -0.5853
 2036SOL    HW117567   4.338   1.631   6.690 -1.6715  0.1155  0.9333
 2036SOL    HW217568   4.441   1.730   6.700  0.3068  0.4504  0.2167
 2037SOL     OW17569   3.300   1.821   7.160  0.3432 -0.9283 -0.1401
 2037SOL    HW117570   3.267   1.904   7.125 -1.2987 -0.8835  1.5459
 2037SOL    HW217571   3.227   1.772   7.196 -0.4293 -0.1685 -0.6539
 2038SOL     OW17572   3.749   2.575  10.897  0.4881 -0.0951  0.2525
 2038SOL    HW117573   3.706   2.659  10.913 -1.6126 -0.6913 -2.3322
 2038SOL    HW217574   3.843   2.592  10.910  0.0237  1.5309  1.5026
 2039SOL     OW17575   0.423   2.713   8.570 -0.3578 -0.3999 -0.4580
 2039SOL    HW117576   0.403   2.770   8.644  0.3211 -2.7114  1.5055
 2039SOL    HW217577   0.359   2.643   8.581 -0.3936 -0.3592 -0.4049
 2040SOL     OW17578   4.099   4.293   6.555 -0.3394 -0.3735  0.1275
 2040SOL    HW117579   4.066   4.383   6.549  2.3402  0.6236  0.4433
 2040SOL    HW217580   4.126   4.282   6.464  0.8148 -0.2890  0.4583
 2041SOL     OW17581   3.142   0.084   2.824  0.0274  0.6369  0.4368
 2041SOL    HW117582   3.073   0.115   2.766 -0.2284  0.8103  0.8366
 2041SOL    HW217583   3.106   0.003   2.860  0.3817  1.3190  2.3687
 2042SOL     OW17584   0.210   3.432   1.342  0.7255  0.1146  0.1338
 2042SOL    HW117585   0.243   3.484   1.415  0.1267  0.0395  0.4545
 2042SOL    HW217586   0.282   3.369   1.330  0.2112 -0.6161  0.9178
 2043SOL     OW17587   1.504   0.513   3.138  0.2625  0.0214  0.0536
 2043SOL    HW117588   1.561   0.477   3.070 -0.3226  1.0088 -0.9583
 2043SOL    HW217589   1.568   0.528   3.208 -1.3507  1.1214  1.3145
 2044SOL     OW17590   2.623   2.837   8.650  0.1991 -0.2985 -0.0490
 2044SOL    HW117591   2.639   2.899   8.721  0.9527 -1.2461  0.6050
 2044SOL    HW217592   2.635   2.896   8.576 -1.6364  0.9373  0.6287
 2045SOL     OW17593   3.153   3.692  13.499 -0.4133  0.4392 -0.3609
 2045SOL    HW117594   3.117   3.779  13.482 -0.4713  0.3225 -0.8237
 2045SOL    HW217595   3.085   3.644  13.546  1.8748 -2.0373  0.4575
 2046SOL     OW17596   4.273   2.614  11.427 -0.4107 -0.0265 -0.3490
 2046SOL    HW117597   4.343   2.678  11.436 -1.1764  0.9778 -1.6197
 2046SOL    HW217598   4.192   2.663  11.418 -0.2922  0.4600  1.2386
 2047SOL     OW17599   1.365   4.442  16.102  0.1525  0.3002 -0.0634
 2047SOL    HW117600   1.273   4.453  16.127  0.7910  3.1168  1.0160
 2047SOL    HW217601   1.382   4.530  16.068 -0.2460  1.6903  3.3046
 2048SOL     OW17602   1.254   2.982   3.565 -0.3189  0.3290 -0.3450
 2048SOL    HW117603   1.330   2.999   3.620 -0.3024  1.4165 -0.7106
 2048SOL    HW217604   1.205   3.061   3.587  0.2354  0.1809  1.4231
 2049SOL     OW17605   3.225   1.554  12.817 -0.2072  0.3919 -0.1037
 2049SOL    HW117606   3.138   1.531  12.849  1.0911  0.1285  3.2229
 2049SOL    HW217607   3.284   1.497  12.866 -0.1822 -1.0690 -1.8349
 2050SOL     OW17608   1.671   2.745   1.696  0.3304  0.1777  0.1017
 2050SOL    HW117609   1.630   2.830   1.680  0.1771  0.3271  1.3026
 2050SOL    HW217610   1.653   2.701   1.612 -0.0906 -0.5231  0.5558
 2051SOL     OW17611   1.747   2.208   4.255  0.2752  0.4133 -0.2029
 2051SOL    HW117612   1.840   2.211   4.276 -0.2262 -1.1187  2.2266
 2051SOL    HW217613   1.715   2.182   4.342  1.1242  0.9541  0.2686
 2052SOL     OW17614   4.145   0.121   1.066 -0.3941  0.5561 -0.0271
 2052SOL    HW117615   4.121   0.180   0.995 -0.5220 -2.5225 -2.5286
 2052SOL    HW217616   4.215   0.166   1.114  0.3831 -0.6214 -0.0394
 2053SOL     OW17617   3.932   3.506   2.398  0.0857  0.2420 -0.2687
 2053SOL    HW117618   4.023   3.486   2.377  0.1331 -0.6554  0.8019
 2053SOL    HW217619   3.932   3.597   2.427 -1.6427  1.1412 -3.1301
 2054SOL     OW17620   3.347   1.314   8.979 -0.4413 -0.2788  0.1650
 2054SOL    HW117621   3.379   1.245   9.037 -0.9732 -1.4286 -0.9283
 2054SOL    HW217622   3.282   1.358   9.035 -1.0001 -0.0825 -0.6449
 2055SOL     OW17623   2.992   3.392   0.209  0.5088 -0.0163 -0.6917
 2055SOL    HW117624   3.078   3.350   0.199  0.5790  0.0774 -0.4846
 2055SOL    HW217625   2.979   3.385   0.303  0.7576 -2.3098 -0.8246
 2056SOL     OW17626   0.390   4.197   4.180 -0.3460 -0.6526  0.0357
 2056SOL    HW117627   0.298   4.176   4.166 -0.0384 -1.8907 -0.0791
 2056SOL    HW217628   0.426   4.119   4.138 -1.5709 -1.9406  1.4298
 2057SOL     OW17629   4.652   4.168  10.661 -0.3910 -0.1023  0.5246
 2057SOL    HW117630   4.629   4.261  10.659  0.4488  0.1111  0.3815
 2057SOL    HW217631   0.021   4.174  10.636 -0.3239 -0.3719  0.7102
 2058SOL     OW17632   1.489   1.788   4.667  0.3201  0.1125 -0.3432
 2058SOL    HW117633   1.441   1.867   4.692 -0.9387 -0.1717 -1.8480
 2058SOL    HW217634   1.578   1.821   4.660  0.2533 -0.2432 -2.7570
 2059SOL     OW17635   3.847   4.039  12.094 -0.0698  0.3423 -0.0066
 2059SOL    HW117636   3.801   3.961  12.063  2.2745 -0.6708 -0.9706
 2059SOL    HW217637   3.796   4.063  12.171 -0.6111 -0.7945 -0.0022
 2060SOL     OW17638   3.368   0.907  16.906  0.1513  0.0426  0.4927
 2060SOL    HW117639   3.380   0.945  16.819 -0.1600 -2.2137 -0.5459
 2060SOL    HW217640   3.346   0.989  16.949  0.3082 -0.0341  0.7197
 2061SOL     OW17641   0.199   2.556   2.883 -0.0082 -0.1836  0.5375
 2061SOL    HW117642   0.213   2.648   2.862 -3.0296  0.7015  2.3340
 2061SOL    HW217643   0.290   2.528   2.873  0.2647  1.1932 -0.6976
 2062SOL     OW17644   3.990   0.559  10.139 -0.5354  0.1544 -0.1612
 2062SOL    HW117645   4.045   0.624  10.181 -1.1743  0.7277 -0.2209
 2062SOL    HW217646   3.978   0.617  10.064  1.6628 -2.3474 -2.4407
 2063SOL     OW17647   0.475   3.576  14.988  0.5129  0.3825  0.2127
 2063SOL    HW117648   0.428   3.658  15.000  0.5742  0.4799 -0.2391
 2063SOL    HW217649   0.501   3.564  15.080 -1.4302  1.6503  0.9218
 2064SOL     OW17650   2.919   1.027   2.046  0.5993  0.5626  0.2842
 2064SOL    HW117651   2.868   1.040   2.126  0.7698 -1.4364  0.7108
 2064SOL    HW217652   2.881   0.946   2.013 -0.5904  0.7309  1.2068
 2065SOL     OW17653   1.251   3.505   1.912  0.8187  0.6197  0.6099
 2065SOL    HW117654   1.169   3.544   1.941  0.9167  0.3402  1.2566
 2065SOL    HW217655   1.277   3.446   1.983  0.1654 -0.8185 -0.3276
 2066SOL     OW17656   1.363   0.069   0.372  0.0316 -0.0387 -0.7981
 2066SOL    HW117657   1.440   0.126   0.376 -0.6721  0.7504  1.0763
 2066SOL    HW217658   1.297   0.138   0.364 -0.1468 -0.3246 -1.8874
 2067SOL     OW17659   1.240   4.245  12.106 -0.1467  0.1059 -0.5868
 2067SOL    HW117660   1.239   4.330  12.061 -0.9753  0.1752 -0.4187
 2067SOL    HW217661   1.296   4.186  12.054  0.8026  1.1706 -0.7887
 2068SOL     OW17662   0.918   3.739   9.780  0.1379  0.6657 -0.1636
 2068SOL    HW117663   0.927   3.645   9.797 -3.5161  0.0250 -1.7084
 2068SOL    HW217664   0.828   3.740   9.748 -0.7017  0.8468  2.1973
 2069SOL     OW17665   0.012   3.038  12.468 -0.1610  0.1164 -0.5541
 2069SOL    HW117666   0.026   2.952  12.428  3.4408  0.9424 -1.0297
 2069SOL    HW217667   4.651   3.059  12.430  0.0049  1.9760  0.1421
 2070SOL     OW17668   1.732   2.289   7.892  0.6828  0.5143 -0.3450
 2070SOL    HW117669   1.777   2.374   7.893 -0.5624  1.1491  1.6127
 2070SOL    HW217670   1.653   2.319   7.846  1.0275 -0.6846 -1.6943
 2071SOL     OW17671   3.122   4.718   5.012  0.3045  0.4979  0.0547
 2071SOL    HW117672   3.190   4.652   4.998 -0.0518 -0.1100  1.2108
 2071SOL    HW217673   3.066   4.659   5.063 -0.3215  1.6408  0.6686
 2072SOL     OW17674   2.568   3.506   2.451  0.1814  0.0959 -0.8729
 2072SOL    HW117675   2.479   3.472   2.460  0.7318 -0.3182  2.8583
 2072SOL    HW217676   2.566   3.534   2.359  2.4778 -1.0835 -1.2673
 2073SOL     OW17677   4.375   4.133   2.925 -0.1487  0.6308  0.1198
 2073SOL    HW117678   4.412   4.141   3.013  1.4793 -0.3194 -0.4748
 2073SOL    HW217679   4.454   4.141   2.871 -0.1521  0.2164  0.0475
 2074SOL     OW17680   0.891   4.238   9.994  0.4386  0.3541  0.0797
 2074SOL    HW117681   0.851   4.226  10.080 -1.0225  4.2423 -0.0947
 2074SOL    HW217682   0.860   4.157   9.953 -0.6956  0.2815  1.1047
 2075SOL     OW17683   2.049   1.154   6.567 -0.2797 -0.2417 -0.7681
 2075SOL    HW117684   2.047   1.226   6.630  0.2858 -0.0534 -0.9598
 2075SOL    HW217685   2.119   1.097   6.597  0.8263  0.8775 -1.2178
 2076SOL     OW17686   1.293   4.700  16.665 -0.4059  0.1559  0.0673
 2076SOL    HW117687   1.375   0.024  16.653 -0.0052 -0.9068 -1.3726
 2076SOL    HW217688   1.288   4.659  16.579 -1.3597  0.4783 -0.0317
 2077SOL     OW17689   1.407   0.968   5.773 -0.0625  0.4004 -0.0167
 2077SOL    HW117690   1.369   1.039   5.823  1.7811  1.0092  0.5223
 2077SOL    HW217691   1.487   1.007   5.737 -0.9675  1.3881 -0.9305
 2078SOL     OW17692   1.098   2.890   1.252  0.5223  0.2281 -0.2466
 2078SOL    HW117693   1.068   2.938   1.175  1.8798  1.1189 -0.2305
 2078SOL    HW217694   1.129   2.961   1.309 -1.3514  1.3810 -0.6684
 2079SOL     OW17695   3.936   2.147   7.628  0.4992  0.0278  0.0929
 2079SOL    HW117696   3.938   2.070   7.571  1.2283  1.5129 -1.8770
 2079SOL    HW217697   4.029   2.158   7.644  0.4177  0.2118  0.4212
 2080SOL     OW17698   4.009   2.692   7.117  0.0294 -0.2810 -0.2354
 2080SOL    HW117699   4.030   2.767   7.060 -0.7709 -0.1613 -0.3684
 2080SOL    HW217700   4.097   2.653   7.120  0.5456  1.0222  1.9680
 2081SOL     OW17701   3.297   4.201   7.690  0.3126  0.1290 -0.3858
 2081SOL    HW117702   3.297   4.290   7.654 -0.5323  0.3990  0.2980
 2081SOL    HW217703   3.278   4.204   7.784 -3.3061  1.4291 -1.1437
 2082SOL     OW17704   2.967   2.067   6.853  0.6575 -0.1083 -0.0803
 2082SOL    HW117705   2.951   1.995   6.792  0.4548  0.8125 -1.1342
 2082SOL    HW217706   3.017   2.132   6.802  0.0394 -1.1133 -1.9927
 2083SOL     OW17707   4.690   1.076   8.581  0.5391 -0.1621  0.5530
 2083SOL    HW117708   4.655   1.092   8.493 -1.0052  0.9826  1.3911
 2083SOL    HW217709   4.714   1.160   8.619  2.3508 -0.5642  0.3321
 2084SOL     OW17710   4.261   1.835   8.768  0.3932  0.5457  0.3429
 2084SOL    HW117711   4.310   1.877   8.697  1.4492 -0.3534  0.5481
 2084SOL    HW217712   4.300   1.750   8.785  1.3568  1.3800  2.3362
 2085SOL     OW17713   1.148   0.884   3.652 -0.1664 -0.5759 -0.5747
 2085SOL    HW117714   1.137   0.957   3.591  0.3628  0.0939  0.1271
 2085SOL    HW217715   1.060   0.862   3.683 -0.4175 -0.8364 -1.4816
 2086SOL     OW17716   1.042   0.540   7.317 -0.3370 -0.0472  0.6139
 2086SOL    HW117717   1.068   0.468   7.260 -0.8653  0.6711 -0.5343
 2086SOL    HW217718   1.128   0.575   7.339 -0.1701  1.4385 -2.4483
 2087SOL     OW17719   1.712   3.952  13.308 -1.2144 -0.2475 -0.1071
 2087SOL    HW117720   1.792   3.952  13.255  0.0482 -1.1074  1.8362
 2087SOL    HW217721   1.727   4.036  13.351  2.9712  1.1542 -4.3004
 2088SOL     OW17722   2.531   4.417   4.887  0.4898 -0.4769 -0.4463
 2088SOL    HW117723   2.490   4.409   4.801 -1.3749 -1.5912  0.5319
 2088SOL    HW217724   2.510   4.510   4.896  0.0836 -0.7850  1.8645
 2089SOL     OW17725   3.405   1.460   6.285 -0.0169  0.4717 -0.4108
 2089SOL    HW117726   3.333   1.397   6.284 -0.5737  1.0871  0.9982
 2089SOL    HW217727   3.406   1.458   6.189 -0.8841  1.0706 -0.4301
 2090SOL     OW17728   1.423   3.793  17.140 -0.1045 -0.1511  0.4230
 2090SOL    HW117729   1.330   3.778  17.158 -0.2424  2.1350  1.5962
 2090SOL    HW217730   1.448   3.710  17.099  0.7457  1.0323 -1.4371
 2091SOL     OW17731   3.678   4.679   7.590  0.0185 -0.6247  0.8638
 2091SOL    HW117732   3.739   0.018   7.632  0.2212  0.2594 -0.7582
 2091SOL    HW217733   3.746   4.620   7.559 -0.0755  1.2198 -2.8167
 2092SOL     OW17734   1.685   3.848   8.343 -0.0581 -0.3742  0.0352
 2092SOL    HW117735   1.761   3.882   8.390 -1.2910  0.9084  1.0930
 2092SOL    HW217736   1.645   3.780   8.397 -3.3801 -0.1100 -2.0768
 2093SOL     OW17737   2.400   3.547  13.039  0.2241 -0.0030  0.3972
 2093SOL    HW117738   2.423   3.508  12.954  2.1865 -0.0161  0.9206
 2093SOL    HW217739   2.472   3.611  13.041  1.1311 -1.0701  1.6622
 2094SOL     OW17740   3.735   3.075   4.651  0.0429  0.1138  0.0544
 2094SOL    HW117741   3.744   3.069   4.746 -1.0930 -0.1181  0.1502
 2094SOL    HW217742   3.697   2.988   4.637  1.4483 -0.8069  1.9826
 2095SOL     OW17743   0.409   4.403   5.549  0.3961  0.1654 -0.3486
 2095SOL    HW117744   0.369   4.490   5.556 -0.7388 -0.4418  0.5960
 2095SOL    HW217745   0.472   4.420   5.479  1.1020  0.8996  0.4736
 2096SOL     OW17746   1.697   2.021   6.359  0.2370 -0.1970  0.1286
 2096SOL    HW117747   1.729   2.066   6.282  0.6349 -1.1405 -0.2608
 2096SOL    HW217748   1.626   1.971   6.318 -0.2549  0.1798  0.5248
 2097SOL     OW17749   0.743   3.368   5.829  0.4223  0.0012 -0.2615
 2097SOL    HW117750   0.676   3.310   5.866  0.0985  1.3359  1.2502
 2097SOL    HW217751   0.767   3.422   5.905 -0.8018 -0.2093  0.2803
 2098SOL     OW17752   3.431   0.198   8.131 -0.2094 -0.7619 -0.2189
 2098SOL    HW117753   3.399   0.128   8.074 -1.4122  0.0223 -0.5017
 2098SOL    HW217754   3.523   0.175   8.115  0.7163  0.2114  3.9165
 2099SOL     OW17755   0.606   3.236  15.999 -0.5981 -0.0300 -0.2911
 2099SOL    HW117756   0.568   3.289  16.068  3.4449  0.3881  1.6534
 2099SOL    HW217757   0.698   3.260  16.011 -0.1437 -1.8069 -0.1357
 2100SOL     OW17758   0.285   3.899   6.497  0.0977 -0.3554 -0.0265
 2100SOL    HW117759   0.357   3.836   6.509  0.9558  0.6517  0.0484
 2100SOL    HW217760   0.231   3.844   6.440 -0.7844  1.5408 -1.0256
 2101SOL     OW17761   3.041   0.706  16.879  0.4119  0.8414 -0.1929
 2101SOL    HW117762   3.031   0.789  16.832 -0.5686  0.4682 -0.6251
 2101SOL    HW217763   3.136   0.702  16.894  0.5391  0.0033 -1.2043
 2102SOL     OW17764   0.308   0.571   8.158  0.3385 -0.3136  0.1589
 2102SOL    HW117765   0.330   0.662   8.180 -1.4632  0.1264  0.1064
 2102SOL    HW217766   0.296   0.536   8.246  1.1641  1.2389  0.8895
 2103SOL     OW17767   2.243   3.274  15.822 -0.0047 -0.2132 -0.0845
 2103SOL    HW117768   2.189   3.195  15.815  2.5240 -1.8976 -0.3273
 2103SOL    HW217769   2.233   3.280  15.917 -4.0535  1.5784 -0.6062
 2104SOL     OW17770   1.775   4.324   0.145  0.2811  0.3575 -0.1697
 2104SOL    HW117771   1.690   4.330   0.188  0.9461 -2.8664  1.5798
 2104SOL    HW217772   1.743   4.327   0.054 -2.3565 -0.2126  0.7377
 2105SOL     OW17773   3.979   1.743   2.357 -0.1547  0.0695  0.0504
 2105SOL    HW117774   3.978   1.655   2.394  0.1330  1.2775  2.9606
 2105SOL    HW217775   4.061   1.731   2.308 -0.3222 -1.2058  0.0739
 2106SOL     OW17776   3.604   1.420   9.754 -0.3067 -0.2014  0.1338
 2106SOL    HW117777   3.571   1.388   9.838 -0.4337  0.6996  0.4281
 2106SOL    HW217778   3.516   1.420   9.715  0.0644  0.6176 -0.6879
 2107SOL     OW17779   1.404   3.116   7.560  1.0097  0.3619  0.5036
 2107SOL    HW117780   1.473   3.179   7.581  0.4502  1.9024 -2.3560
 2107SOL    HW217781   1.366   3.153   7.480  1.1478 -0.3343  0.1152
 2108SOL     OW17782   2.186   0.762   8.902 -0.0205 -0.0566  0.5728
 2108SOL    HW117783   2.156   0.774   8.812 -0.4496  0.8613  0.8469
 2108SOL    HW217784   2.207   0.668   8.903 -0.4261 -0.1475  0.3613
 2109SOL     OW17785   1.388   3.502  13.550  0.5161  0.3301  0.3479
 2109SOL    HW117786   1.476   3.523  13.519  0.7924  2.3081  2.5457
 2109SOL    HW217787   1.400   3.486  13.644  0.8061  1.5009  0.5107
 2110SOL     OW17788   3.702   2.866  10.950 -0.0374  0.1458 -0.4079
 2110SOL    HW117789   3.626   2.914  10.983 -0.3862  0.1162 -1.1671
 2110SOL    HW217790   3.767   2.882  11.018  0.2182 -0.7540 -0.4410
 2111SOL     OW17791   3.635   2.769   0.715 -0.0242 -0.0952  0.1524
 2111SOL    HW117792   3.718   2.753   0.670  0.8427  1.9453  1.0673
 2111SOL    HW217793   3.609   2.680   0.740 -2.7963  1.8217  4.0788
 2112SOL     OW17794   3.209   2.817   7.631  0.7487  0.2396  0.5182
 2112SOL    HW117795   3.210   2.783   7.542  0.1643 -0.4086  0.7596
 2112SOL    HW217796   3.136   2.879   7.635  0.5814  0.0677  0.1099
 2113SOL     OW17797   2.685   0.064  13.109 -0.5338  0.1153 -0.2783
 2113SOL    HW117798   2.598   0.078  13.146 -0.3783 -0.9092  0.5031
 2113SOL    HW217799   2.725   0.151  13.113  1.9408 -0.9636 -1.2175
 2114SOL     OW17800   3.792   2.116   8.712  0.2479 -0.0520  0.1844
 2114SOL    HW117801   3.871   2.064   8.696  0.1479  0.9265 -3.4019
 2114SOL    HW217802   3.821   2.176   8.780 -0.7885  2.0792 -1.2706
 2115SOL     OW17803   3.573   4.205  17.367 -0.0909 -0.4271 -0.4370
 2115SOL    HW117804   3.523   4.206  17.449 -2.1012 -1.4230 -1.6545
 2115SOL    HW217805   3.577   4.295  17.334  0.2313 -1.3535 -2.9525
 2116SOL     OW17806   2.704   2.493  10.443  0.3550 -0.0966  0.2305
 2116SOL    HW117807   2.773   2.447  10.490  0.5698 -0.9241 -0.8776
 2116SOL    HW217808   2.715   2.453  10.357 -1.2016  0.5461 -0.2840
 2117SOL     OW17809   1.889   3.325   2.686 -0.3014 -0.1728  0.0152
 2117SOL    HW117810   1.892   3.314   2.781 -0.6814 -1.2717 -0.1046
 2117SOL    HW217811   1.982   3.310   2.669 -0.0380 -0.3304  1.5836
 2118SOL     OW17812   3.711   0.329   1.512  1.0874 -0.1423 -0.1984
 2118SOL    HW117813   3.758   0.406   1.544  1.1035 -0.9395  1.7406
 2118SOL    HW217814   3.691   0.287   1.596  2.3448  1.3838  0.8599
 2119SOL     OW17815   0.820   0.236   3.398  0.1321  0.4542  0.5587
 2119SOL    HW117816   0.730   0.205   3.397 -0.0135  0.8384  1.3908
 2119SOL    HW217817   0.857   0.186   3.471 -0.0129  0.2821  0.5130
 2120SOL     OW17818   4.272   4.414   7.296  0.2528 -0.3929  0.2325
 2120SOL    HW117819   4.363   4.418   7.267  0.1269  0.7632 -0.0211
 2120SOL    HW217820   4.225   4.424   7.213  2.4074 -0.9385 -1.0659
 2121SOL     OW17821   0.043   4.412   4.849 -0.0519  0.3742  0.4554
 2121SOL    HW117822   0.049   4.501   4.885  1.0835 -0.2155  1.7098
 2121SOL    HW217823   4.723   4.430   4.765  0.8188 -0.9087 -0.2696
 2122SOL     OW17824   0.182   0.703   7.869  0.7249  0.0760 -0.3865
 2122SOL    HW117825   0.178   0.742   7.956 -0.8672  0.7836 -0.7768
 2122SOL    HW217826   0.093   0.668   7.859 -0.4343  2.1591  2.6963
 2123SOL     OW17827   2.009   0.901  16.427  0.4292 -0.4524  0.3642
 2123SOL    HW117828   2.019   0.993  16.400  0.5334 -0.0545  1.7224
 2123SOL    HW217829   2.007   0.852  16.345  0.4450  1.7795 -0.9986
 2124SOL     OW17830   1.940   3.634   8.581 -0.0181 -0.6526  0.1404
 2124SOL    HW117831   1.893   3.630   8.497 -0.7213 -2.4287  0.6112
 2124SOL    HW217832   1.880   3.589   8.641 -0.7852  0.2649  0.0547
 2125SOL     OW17833   3.233   1.702  16.902 -0.7129  0.1319  0.6352
 2125SOL    HW117834   3.153   1.715  16.953 -0.8890  0.5434  0.2473
 2125SOL    HW217835   3.293   1.717  16.975 -0.2970 -0.1339  0.3483
 2126SOL     OW17836   2.392   4.214  15.452 -0.0783 -0.4447 -0.3605
 2126SOL    HW117837   2.352   4.190  15.369  1.9595  0.8257 -1.7058
 2126SOL    HW217838   2.483   4.234  15.428 -1.0333  2.1663 -1.7904
 2127SOL     OW17839   3.202   4.066   5.890  0.3627 -0.1202  0.5099
 2127SOL    HW117840   3.147   3.996   5.927 -1.0232  0.0616 -1.1617
 2127SOL    HW217841   3.149   4.141   5.916 -2.2490 -1.7447 -0.0989
 2128SOL     OW17842   2.444   4.451   7.854 -0.0841  0.3584 -0.1066
 2128SOL    HW117843   2.480   4.367   7.881 -0.2603 -0.1610 -1.4855
 2128SOL    HW217844   2.351   4.431   7.851  0.1194 -0.1771 -3.0465
 2129SOL     OW17845   3.349   1.361   2.781  0.5306 -0.2955  0.2089
 2129SOL    HW117846   3.429   1.341   2.733 -0.3182  0.4125 -1.5219
 2129SOL    HW217847   3.351   1.298   2.853 -1.3640 -0.5172  0.0727
 2130SOL     OW17848   3.429   1.625   9.958 -0.4269  0.3421 -0.3522
 2130SOL    HW117849   3.336   1.602   9.957 -0.4253  0.3348 -0.3397
 2130SOL    HW217850   3.454   1.533   9.973 -2.0829  0.1117  0.9710
 2131SOL     OW17851   3.062   0.548   6.444 -0.1408 -0.4624 -0.1408
 2131SOL    HW117852   3.084   0.489   6.372 -0.0118  0.7509 -1.0909
 2131SOL    HW217853   3.036   0.627   6.396  1.0469 -0.3953 -0.6662
 2132SOL     OW17854   4.653   4.496   8.410  0.3315 -0.0716  0.3087
 2132SOL    HW117855   4.612   4.431   8.353 -2.7745  0.8174  1.5128
 2132SOL    HW217856   4.618   4.474   8.497  2.4060 -1.1475  0.8975
 2133SOL     OW17857   1.202   3.160  12.114 -0.2353 -0.3056 -0.6612
 2133SOL    HW117858   1.225   3.193  12.201 -0.6776  2.4316 -1.5779
 2133SOL    HW217859   1.222   3.068  12.132 -1.0989 -0.5902 -1.1592
 2134SOL     OW17860   2.037   2.054   8.665  0.6530  0.8302 -0.2695
 2134SOL    HW117861   2.115   2.102   8.637  3.4394 -3.6715 -0.2450
 2134SOL    HW217862   1.996   2.129   8.708  1.1151  1.3505 -0.7406
 2135SOL     OW17863   3.629   4.666   8.713  0.6125  0.4202  0.5878
 2135SOL    HW117864   3.550   4.703   8.753  1.1404  1.6490  0.4936
 2135SOL    HW217865   3.651   0.010   8.650 -0.2579 -0.2277 -0.4174
 2136SOL     OW17866   0.665   1.574   9.195  0.1436 -0.1925  0.4529
 2136SOL    HW117867   0.581   1.576   9.240 -0.5835 -1.6339 -0.8577
 2136SOL    HW217868   0.665   1.655   9.143  0.5483 -1.1831 -1.0873
 2137SOL     OW17869   2.414   3.287   7.084  0.5171  0.6454 -0.1182
 2137SOL    HW117870   2.357   3.210   7.084  2.0043 -0.4433 -0.8320
 2137SOL    HW217871   2.497   3.240   7.091  0.4599  0.4651 -0.6797
 2138SOL     OW17872   2.499   0.470   4.407  0.2440 -0.1444 -0.7337
 2138SOL    HW117873   2.493   0.457   4.501 -1.5904  2.7964 -0.4506
 2138SOL    HW217874   2.442   0.399   4.377 -0.0390  0.4329 -1.5523
 2139SOL     OW17875   2.990   0.613   5.544  0.0115 -0.3367  0.0111
 2139SOL    HW117876   2.972   0.519   5.539 -1.4704 -0.1013  1.0323
 2139SOL    HW217877   2.933   0.640   5.615  0.0622  1.6248 -0.7125
 2140SOL     OW17878   1.146   3.875  17.162  0.2057  0.2872  0.1237
 2140SOL    HW117879   1.125   3.966  17.142 -0.4165  0.2209  0.4890
 2140SOL    HW217880   1.069   3.831  17.125 -0.3652 -0.3107  2.0370
 2141SOL     OW17881   2.528   0.197   7.421  0.8589  0.6930 -0.0148
 2141SOL    HW117882   2.592   0.232   7.358  1.1085 -0.7090 -0.5500
 2141SOL    HW217883   2.584   0.145   7.479  3.1436  1.5214 -1.4442
 2142SOL     OW17884   1.161   1.579   8.288  0.2432  0.0616  0.1868
 2142SOL    HW117885   1.183   1.598   8.380  0.4876 -2.4127  0.6480
 2142SOL    HW217886   1.100   1.650   8.266 -0.9586 -0.4228  1.9327
 2143SOL     OW17887   4.439   3.970  17.405  0.2918  0.2676 -0.0297
 2143SOL    HW117888   4.418   4.020  17.484 -0.2408  2.3921 -1.5007
 2143SOL    HW217889   4.522   4.014  17.389  2.4321 -3.2284  1.4345
 2144SOL     OW17890   3.275   3.511   1.974 -0.0199  0.0070  0.5187
 2144SOL    HW117891   3.370   3.515   1.984 -0.0018  1.4434 -0.1871
 2144SOL    HW217892   3.279   3.481   1.883 -2.6887  1.0366  0.0659
 2145SOL     OW17893   2.357   4.270   6.024 -0.2612  0.2886  0.0912
 2145SOL    HW117894   2.443   4.230   6.009 -1.7716 -2.4780 -1.3280
 2145SOL    HW217895   2.328   4.220   6.101 -0.7445  0.7926  0.2389
 2146SOL     OW17896   3.968   0.610   5.695  0.1800  0.0439 -0.3816
 2146SOL    HW117897   4.037   0.675   5.686 -0.5594  1.3313  3.1795
 2146SOL    HW217898   3.924   0.647   5.771 -0.2178  1.2836 -1.2285
 2147SOL     OW17899   1.200   1.083   6.384  0.7300  0.0015 -0.5389
 2147SOL    HW117900   1.131   1.050   6.442 -0.0019  0.1845 -1.3191
 2147SOL    HW217901   1.275   1.057   6.439  0.4910 -1.1816 -0.7675
 2148SOL     OW17902   0.587   4.511   2.376 -0.0435 -0.2307 -0.3120
 2148SOL    HW117903   0.551   4.452   2.309  2.0152 -1.7427 -0.0774
 2148SOL    HW217904   0.525   4.581   2.355 -1.1069 -1.1524 -0.2736
 2149SOL     OW17905   4.659   3.940   3.366  0.0930  0.4087 -0.2554
 2149SOL    HW117906   4.626   3.936   3.456 -0.0712 -0.0677 -0.3339
 2149SOL    HW217907   0.026   3.926   3.392  0.2195  1.4555 -0.1204
 2150SOL     OW17908   0.580   3.207  15.374 -0.1319  0.2746 -0.3985
 2150SOL    HW117909   0.497   3.198  15.421 -1.4315 -1.0850 -2.9203
 2150SOL    HW217910   0.624   3.136  15.420  0.1052 -0.0524 -1.1278
 2151SOL     OW17911   2.234   3.940   5.978 -0.1924  0.2346  0.1264
 2151SOL    HW117912   2.219   3.933   5.884  0.4770 -4.9025  0.3642
 2151SOL    HW217913   2.276   3.856   5.996 -0.0767  0.5355  1.2767
 2152SOL     OW17914   2.287   3.467   9.961 -0.1236  0.1415  0.4750
 2152SOL    HW117915   2.321   3.412  10.031  0.7365 -0.2749 -0.2642
 2152SOL    HW217916   2.352   3.538   9.956 -0.4347  0.3746 -0.3777
 2153SOL     OW17917   3.822   1.412  10.952  0.3039 -0.0264 -0.0226
 2153SOL    HW117918   3.755   1.466  10.910 -0.3392 -1.0061 -0.2470
 2153SOL    HW217919   3.804   1.333  10.901 -1.7216  0.6336 -0.3296
 2154SOL     OW17920   3.407   4.180   3.744 -0.1354  0.6773  0.3409
 2154SOL    HW117921   3.459   4.254   3.713  2.1374 -1.9056 -2.0391
 2154SOL    HW217922   3.482   4.120   3.737 -1.0286 -0.4351  0.3667
 2155SOL     OW17923   4.361   3.623   4.215  0.0750  0.7509  0.5097
 2155SOL    HW117924   4.435   3.621   4.155  0.5070 -1.7864  1.1418
 2155SOL    HW217925   4.357   3.529   4.229 -0.3452  0.3830 -2.0238
 2156SOL     OW17926   1.201   0.048   8.976 -0.1934  0.6415  0.1929
 2156SOL    HW117927   1.290   0.080   8.994 -0.5813  1.5121  0.5413
 2156SOL    HW217928   1.189   0.074   8.885 -0.2587 -0.2435 -0.0542
 2157SOL     OW17929   4.148   4.646  16.493 -0.1596 -0.0724 -0.0568
 2157SOL    HW117930   4.053   4.644  16.492 -0.1216 -1.0696 -2.1511
 2157SOL    HW217931   4.168   4.556  16.466  3.2064 -0.2221  2.9376
 2158SOL     OW17932   4.448   0.985   6.101  0.1203 -0.5848  0.2470
 2158SOL    HW117933   4.533   0.942   6.092  1.0357  1.1096  0.7258
 2158SOL    HW217934   4.416   1.003   6.013  1.5135  0.3992 -0.0538
 2159SOL     OW17935   3.191   0.020   2.439 -0.4328 -0.3649 -0.3462
 2159SOL    HW117936   3.281   0.042   2.414 -1.1147  0.6409 -1.9713
 2159SOL    HW217937   3.138   0.047   2.363  1.6323 -0.8169 -1.9311
 2160SOL     OW17938   2.512   3.154   9.334 -0.5628  0.4709  0.1835
 2160SOL    HW117939   2.526   3.084   9.397  0.4533 -0.6718 -1.3320
 2160SOL    HW217940   2.454   3.204   9.392 -0.9856  0.8554 -0.5724
 2161SOL     OW17941   0.664   2.974   9.682  0.0744  0.4143  0.3475
 2161SOL    HW117942   0.573   2.968   9.654  0.4800  0.5172 -0.9775
 2161SOL    HW217943   0.668   3.066   9.707  2.0789  0.0160  1.4650
 2162SOL     OW17944   1.065   2.116   8.509 -0.6634  0.4727 -0.6976
 2162SOL    HW117945   1.136   2.080   8.455  0.0036  2.0701 -0.8697
 2162SOL    HW217946   0.988   2.108   8.452 -1.9815 -2.0734  1.4230
 2163SOL     OW17947   0.096   1.337  11.896  0.1331  0.3797  0.2271
 2163SOL    HW117948   0.073   1.268  11.959  2.3523  1.1140  1.8310
 2163SOL    HW217949   0.077   1.290  11.815 -0.3464  0.8138  0.0910
 2164SOL     OW17950   2.726   4.696   5.142 -0.1184 -0.1564 -0.3435
 2164SOL    HW117951   2.772   4.653   5.214 -0.4249  0.6008  0.3055
 2164SOL    HW217952   2.744   0.065   5.161 -1.8329  0.0421  0.2915
 2165SOL     OW17953   0.878   3.357  15.744  0.4320  0.2165 -0.4429
 2165SOL    HW117954   0.834   3.433  15.708  1.2945  0.7605 -0.3392
 2165SOL    HW217955   0.834   3.285  15.700 -1.1994  0.8274  0.2101
 2166SOL     OW17956   3.910   0.719   0.496  0.2150 -0.3293 -0.5808
 2166SOL    HW117957   3.921   0.696   0.404 -0.9800 -2.1053 -0.2858
 2166SOL    HW217958   3.984   0.774   0.523  1.0050 -2.3953  1.3677
 2167SOL     OW17959   3.768   1.052   6.882 -0.5104  0.4645  0.0689
 2167SOL    HW117960   3.776   1.124   6.944  0.8045  0.1779  0.2376
 2167SOL    HW217961   3.684   1.069   6.839 -0.5711  0.7413  0.3019
 2168SOL     OW17962   0.033   2.269  16.218 -0.5170 -0.7283  0.5022
 2168SOL    HW117963   0.122   2.261  16.251  0.5804  3.2478 -1.4585
 2168SOL    HW217964   0.050   2.340  16.156 -0.4683  0.3883  1.7899
 2169SOL     OW17965   4.121   1.128   7.971 -1.0080  0.3927 -0.0564
 2169SOL    HW117966   4.216   1.116   7.964 -1.1670  0.4432 -2.3262
 2169SOL    HW217967   4.120   1.199   8.035  1.1765  0.0581  0.3612
 2170SOL     OW17968   1.415   2.796   9.448 -0.0611 -0.1349  0.3870
 2170SOL    HW117969   1.510   2.809   9.454  0.0968 -1.2959  0.3843
 2170SOL    HW217970   1.412   2.750   9.364  0.6494 -0.8426  0.7458
 2171SOL     OW17971   3.313   2.611  15.608 -0.0780 -0.3257 -0.1995
 2171SOL    HW117972   3.261   2.532  15.596 -2.0317  0.7783  0.9830
 2171SOL    HW217973   3.279   2.659  15.533  0.2433 -1.4898 -1.0900
 2172SOL     OW17974   2.729   3.529   1.080  0.1126 -0.7035 -0.0883
 2172SOL    HW117975   2.794   3.494   1.019 -0.2658 -2.3703  0.4614
 2172SOL    HW217976   2.681   3.594   1.028  2.1998  0.0149 -1.1211
 2173SOL     OW17977   2.061   2.817  15.200 -0.0038  0.2065  0.4016
 2173SOL    HW117978   2.058   2.901  15.155  0.3517 -0.1157 -0.2307
 2173SOL    HW217979   1.973   2.782  15.187 -0.3022  1.1360 -0.0273
 2174SOL     OW17980   0.718   0.881  12.307 -0.1156 -0.0836  0.3698
 2174SOL    HW117981   0.804   0.882  12.264 -0.9999  0.0422 -1.3990
 2174SOL    HW217982   0.679   0.956  12.263  1.2056 -0.0172 -0.7012
 2175SOL     OW17983   3.106   3.603   9.551 -0.2587  0.0250  0.4747
 2175SOL    HW117984   3.035   3.618   9.613 -0.6750 -0.5744  0.1427
 2175SOL    HW217985   3.173   3.603   9.619  0.8018  1.7092 -0.5744
 2176SOL     OW17986   4.363   1.286   3.077  0.1089 -0.1139 -0.0164
 2176SOL    HW117987   4.276   1.325   3.073 -1.3285 -3.4073 -1.4176
 2176SOL    HW217988   4.358   1.226   3.002  0.7902  1.0518 -0.9949
 2177SOL     OW17989   0.610   0.413   3.977 -0.6104  0.8209 -0.3948
 2177SOL    HW117990   0.566   0.433   3.894 -2.1320 -0.8003  0.0190
 2177SOL    HW217991   0.642   0.497   4.009  1.2701  0.1565 -0.5312
 2178SOL     OW17992   3.104   1.498   4.002 -0.3417 -0.1972 -0.2941
 2178SOL    HW117993   3.190   1.499   3.959 -1.4631 -0.5108 -2.5361
 2178SOL    HW217994   3.062   1.436   3.943  0.2732 -0.6395 -0.2688
 2179SOL     OW17995   3.045   2.703   6.898 -0.2068  0.3329  0.4166
 2179SOL    HW117996   2.989   2.730   6.825 -0.4486 -2.5759 -0.4865
 2179SOL    HW217997   3.092   2.632   6.854 -0.9105  0.9389 -1.3477
 2180SOL     OW17998   4.611   4.317   5.693  1.1983 -0.1291  0.8408
 2180SOL    HW117999   4.617   4.222   5.683 -0.4758 -0.2061  0.5308
 2180SOL    HW218000   4.666   4.349   5.622  1.2829  0.3425  1.1214
 2181SOL     OW18001   0.204   0.433  15.787 -0.3216  0.1419 -0.2185
 2181SOL    HW118002   0.151   0.449  15.865  0.9042  1.9458  0.2453
 2181SOL    HW218003   0.286   0.392  15.817 -0.3798 -0.1933 -0.5124
 2182SOL     OW18004   2.103   3.896  13.631 -0.5754  0.5186  0.0986
 2182SOL    HW118005   2.019   3.920  13.670 -0.2782 -0.4528  1.3360
 2182SOL    HW218006   2.130   3.970  13.576  1.7800 -0.5313 -0.1355
 2183SOL     OW18007   0.184   3.565  13.909 -0.6069  0.4932 -0.1537
 2183SOL    HW118008   0.122   3.536  13.976  2.6095  0.6857  2.9047
 2183SOL    HW218009   0.221   3.642  13.951 -2.5575  1.9698 -1.1644
 2184SOL     OW18010   1.115   2.443   9.146  0.4394 -0.0850 -0.2584
 2184SOL    HW118011   1.064   2.506   9.095  0.9239  0.4144 -0.1202
 2184SOL    HW218012   1.062   2.364   9.143  1.6887 -0.9260 -0.1582
 2185SOL     OW18013   4.489   4.719  12.542 -0.3446 -0.6490 -0.5412
 2185SOL    HW118014   4.496   4.702  12.448 -2.5164  0.9659 -0.9799
 2185SOL    HW218015   4.572   4.679  12.570  0.7415  3.3410  1.8788
 2186SOL     OW18016   1.639   4.607   1.523 -0.2144  0.3388  0.1900
 2186SOL    HW118017   1.681   4.674   1.578 -0.7887  1.8526 -1.2110
 2186SOL    HW218018   1.601   4.544   1.584  1.4329  0.0692  0.9332
 2187SOL     OW18019   2.569   3.550   8.364  0.1573  0.1746 -0.9947
 2187SOL    HW118020   2.598   3.640   8.349  1.4349 -0.1424 -0.4902
 2187SOL    HW218021   2.594   3.506   8.283  2.5348  0.1574 -0.2432
 2188SOL     OW18022   1.156   1.556   7.935 -0.6902  0.7145 -1.1053
 2188SOL    HW118023   1.184   1.642   7.967 -1.5832 -0.0527  1.6986
 2188SOL    HW218024   1.242   1.531   7.902 -0.4887 -1.4146  1.0418
 2189SOL     OW18025   1.969   3.926  13.143 -0.0686 -0.8849 -0.0210
 2189SOL    HW118026   1.969   3.953  13.052 -0.5510 -0.8730 -0.0172
 2189SOL    HW218027   2.061   3.899  13.151  0.1432 -0.5334 -1.2910
 2190SOL     OW18028   3.065   3.347  10.705  0.1709  0.1069 -0.0045
 2190SOL    HW118029   3.156   3.360  10.679 -0.4217  0.8368 -1.6641
 2190SOL    HW218030   3.039   3.423  10.757  3.2189  1.8673 -1.1179
 2191SOL     OW18031   1.664   0.759  15.752 -0.0309 -0.0029  0.2039
 2191SOL    HW118032   1.673   0.677  15.800 -0.6578  0.4384  1.0778
 2191SOL    HW218033   1.735   0.742  15.690 -1.0062 -1.9436 -0.3777
 2192SOL     OW18034   3.592   4.622   1.036  0.0785  0.4123 -0.4756
 2192SOL    HW118035   3.620   4.532   1.021 -0.3930  0.2383 -0.2951
 2192SOL    HW218036   3.680   4.657   1.052  0.2174 -0.3227  0.4082
 2193SOL     OW18037   0.894   1.016   2.613 -0.2501 -0.5808  0.0885
 2193SOL    HW118038   0.833   1.042   2.682 -1.2980 -1.6587 -0.4361
 2193SOL    HW218039   0.911   1.101   2.571 -2.5394 -0.0061  0.3220
 2194SOL     OW18040   2.154   2.210   3.192 -0.4011  0.5951 -0.2708
 2194SOL    HW118041   2.126   2.274   3.126  0.7422  2.6649  1.2741
 2194SOL    HW218042   2.063   2.193   3.218 -0.6825  2.2782 -0.1727
 2195SOL     OW18043   2.192   2.992  11.692  0.0795  0.0212  0.1735
 2195SOL    HW118044   2.283   2.975  11.718  0.9192 -1.2824 -3.6453
 2195SOL    HW218045   2.209   3.034  11.608  1.1270  0.6990  0.7203
 2196SOL     OW18046   2.549   2.026   2.910 -0.3701  0.1004 -0.2203
 2196SOL    HW118047   2.522   2.117   2.904 -0.5502 -0.0356 -1.5707
 2196SOL    HW218048   2.645   2.032   2.914 -0.1501 -2.4179 -1.6326
 2197SOL     OW18049   3.803   2.090   6.082  0.0823  0.6728  0.1171
 2197SOL    HW118050   3.802   2.080   5.986 -0.6659 -1.0201  0.2920
 2197SOL    HW218051   3.818   1.999   6.110 -2.1098  1.0901  2.6224
 2198SOL     OW18052   3.177   3.747   2.029  0.5084  0.6045  0.0528
 2198SOL    HW118053   3.083   3.736   2.014  0.3296  0.9913  0.9027
 2198SOL    HW218054   3.210   3.658   2.014  0.0691 -0.0119  2.6967
 2199SOL     OW18055   3.632   2.079   7.565  0.3334  0.0188 -0.2112
 2199SOL    HW118056   3.725   2.057   7.569  0.4953  1.1747  1.8328
 2199SOL    HW218057   3.589   1.999   7.535 -0.3482 -0.4948  2.1530
 2200SOL     OW18058   3.624   3.805   0.444 -0.1796  0.1924  0.2100
 2200SOL    HW118059   3.638   3.711   0.433 -1.4182  0.2170 -1.4859
 2200SOL    HW218060   3.710   3.842   0.423 -0.4417  0.9889  0.5246
 2201SOL     OW18061   2.123   1.969   6.912 -0.8115  0.0900  0.0695
 2201SOL    HW118062   2.129   2.064   6.913 -0.7033  0.0850 -0.1389
 2201SOL    HW218063   2.127   1.953   6.817 -3.0399 -0.5502  0.0732
 2202SOL     OW18064   0.475   3.725   8.863 -0.3987 -0.0782  0.0371
 2202SOL    HW118065   0.499   3.811   8.828  1.8374 -0.3184  0.9559
 2202SOL    HW218066   0.525   3.738   8.944 -2.7462 -2.6360  1.9015
 2203SOL     OW18067   3.790   3.516   7.905  0.3930  0.5301 -0.3390
 2203SOL    HW118068   3.852   3.589   7.903 -1.7307  2.3794  1.1510
 2203SOL    HW218069   3.734   3.533   7.830  1.4014 -1.5883 -1.5649
 2204SOL     OW18070   4.080   3.705   6.875 -0.2568 -0.0097  0.1516
 2204SOL    HW118071   4.107   3.728   6.964  0.9067  0.9603 -0.4608
 2204SOL    HW218072   4.141   3.633   6.859 -0.4478  0.1468 -1.2412
 2205SOL     OW18073   0.641   1.170   2.685 -1.1307 -0.0024  0.4019
 2205SOL    HW118074   0.583   1.239   2.652 -0.1528  0.3076 -0.6835
 2205SOL    HW218075   0.593   1.141   2.762 -1.6647 -1.6155 -0.5314
 2206SOL     OW18076   4.211   2.626   3.231 -0.3611  0.4028 -0.0871
 2206SOL    HW118077   4.124   2.622   3.192 -0.0582 -0.2181 -0.6943
 2206SOL    HW218078   4.197   2.580   3.314  1.4553  2.1787  1.2320
 2207SOL     OW18079   2.623   3.060   5.406 -0.6070  0.3312  0.5892
 2207SOL    HW118080   2.669   2.996   5.460 -0.9746 -1.9569 -1.8016
 2207SOL    HW218081   2.584   3.115   5.474  3.6297  2.5329  1.2498
 2208SOL     OW18082   1.559   4.652   7.337  0.2304  0.3025 -0.0167
 2208SOL    HW118083   1.600   4.688   7.258  0.4759  0.3874  0.1485
 2208SOL    HW218084   1.636   4.603   7.367  0.4186 -0.1654 -1.2560
 2209SOL     OW18085   2.553   3.783   4.280  0.6058  0.2732  0.0993
 2209SOL    HW118086   2.498   3.719   4.325  1.5105  0.0857  0.9400
 2209SOL    HW218087   2.573   3.845   4.351 -1.3760  2.7593 -1.5095
 2210SOL     OW18088   2.787   0.357   1.554 -0.4703 -0.0230 -0.1631
 2210SOL    HW118089   2.754   0.428   1.499  2.7628  1.2085 -0.5525
 2210SOL    HW218090   2.840   0.409   1.615  0.3591  0.0255 -0.9320
 2211SOL     OW18091   3.007   3.109  10.765 -0.2739  0.2030  0.3875
 2211SOL    HW118092   3.020   3.077  10.676 -1.5973  1.2793 -0.1789
 2211SOL    HW218093   3.013   3.201  10.742 -1.9724  0.0894 -0.4791
 2212SOL     OW18094   0.586   3.320   3.959 -0.6242 -0.0150 -0.0511
 2212SOL    HW118095   0.646   3.392   3.940 -0.4559 -0.3210 -0.6802
 2212SOL    HW218096   0.629   3.258   3.900  2.0718  1.1947  0.6628
 2213SOL     OW18097   4.526   3.020   4.509  0.3095 -0.1657  0.1521
 2213SOL    HW118098   4.431   3.024   4.499  0.6032  1.0275 -2.2250
 2213SOL    HW218099   4.553   2.999   4.420  0.2712 -3.0481  0.8302
 2214SOL     OW18100   0.306   4.697  12.144 -0.9557  0.1445 -0.0250
 2214SOL    HW118101   0.341   4.715  12.232  1.6764 -1.1476 -0.8067
 2214SOL    HW218102   0.262   4.614  12.161 -1.0187  0.1398 -0.2187
 2215SOL     OW18103   3.426   2.022   9.208 -0.9967 -0.3518 -0.1277
 2215SOL    HW118104   3.513   2.000   9.172 -0.3076  0.9769  0.7381
 2215SOL    HW218105   3.456   2.065   9.288 -2.5801  2.5067 -1.0784
 2216SOL     OW18106   2.001   2.029   0.305  0.6083  0.3145  0.3352
 2216SOL    HW118107   1.945   2.085   0.359  0.8901  0.6496  0.2814
 2216SOL    HW218108   1.980   1.940   0.334 -0.0382  0.3969  0.1275
 2217SOL     OW18109   1.378   2.163   4.446  0.1136 -0.2255 -0.1177
 2217SOL    HW118110   1.474   2.166   4.441  0.1154 -1.4081 -0.8567
 2217SOL    HW218111   1.344   2.216   4.374 -0.4747 -2.8146 -1.7565
 2218SOL     OW18112   4.213   3.103   5.867  0.5673  1.0130  0.8405
 2218SOL    HW118113   4.238   3.189   5.832  0.8034  0.3900 -0.5340
 2218SOL    HW218114   4.193   3.125   5.958 -0.9330 -0.1823  0.7935
 2219SOL     OW18115   3.851   0.157   6.067 -0.1297  0.0030  0.3783
 2219SOL    HW118116   3.868   0.075   6.113 -1.2130  0.0896  0.9484
 2219SOL    HW218117   3.759   0.136   6.050 -0.7561  2.1403  1.0760
 2220SOL     OW18118   0.535   2.967   8.389  0.6014  0.5870 -0.4622
 2220SOL    HW118119   0.536   2.873   8.404  0.5933  0.3040 -2.2287
 2220SOL    HW218120   0.533   2.998   8.479 -3.4302 -0.1695 -0.2808
 2221SOL     OW18121   2.896   4.239   1.033  0.4583  0.2507 -0.3670
 2221SOL    HW118122   2.937   4.290   0.963 -0.6810  1.8022  0.0744
 2221SOL    HW218123   2.819   4.294   1.044 -0.0385 -0.2918 -1.1133
 2222SOL     OW18124   3.481   1.689   2.140 -0.1421 -0.3953 -0.2360
 2222SOL    HW118125   3.484   1.743   2.062 -0.2189 -1.4286 -0.9498
 2222SOL    HW218126   3.571   1.655   2.148  0.1599  0.4028 -0.2692
 2223SOL     OW18127   2.884   1.701   6.222 -0.4159  0.7473  0.9901
 2223SOL    HW118128   2.940   1.705   6.299 -0.9677  0.9655  1.3812
 2223SOL    HW218129   2.951   1.669   6.161 -1.7536  0.1145 -0.1371
 2224SOL     OW18130   3.459   0.810   4.782 -0.5113  0.3353 -0.2299
 2224SOL    HW118131   3.501   0.745   4.726 -1.4764 -0.9980  0.5997
 2224SOL    HW218132   3.480   0.882   4.723 -0.6952  0.0980 -0.5862
 2225SOL     OW18133   1.006   0.765   4.479 -0.5801 -0.0397 -0.4855
 2225SOL    HW118134   0.936   0.820   4.442 -0.0778  0.0038 -1.3670
 2225SOL    HW218135   1.074   0.780   4.414 -2.8760  1.4321 -2.5621
 2226SOL     OW18136   3.459   4.389   8.682  0.3129 -0.1122  0.3942
 2226SOL    HW118137   3.458   4.436   8.598  0.9855  1.8925  1.4879
 2226SOL    HW218138   3.507   4.452   8.736  2.6852 -0.9079 -0.7683
 2227SOL     OW18139   0.843   1.716   6.725 -0.2864  0.1194  0.4542
 2227SOL    HW118140   0.764   1.764   6.705 -0.1896 -0.6916 -1.8603
 2227SOL    HW218141   0.806   1.629   6.743  0.2502 -0.3820 -0.9102
 2228SOL     OW18142   3.610   2.931   2.548 -0.0082  0.3562  0.4010
 2228SOL    HW118143   3.564   2.853   2.516 -1.1807  0.7772  1.0517
 2228SOL    HW218144   3.703   2.908   2.552  0.4444  2.4028  1.5376
 2229SOL     OW18145   3.351   0.393   2.278  0.7015 -0.4073 -0.9301
 2229SOL    HW118146   3.343   0.347   2.362 -1.0154 -0.0289 -0.8791
 2229SOL    HW218147   3.268   0.439   2.292 -0.1665 -2.0703 -0.5262
 2230SOL     OW18148   2.938   2.323   7.960 -0.2081  0.3510  0.2792
 2230SOL    HW118149   2.934   2.242   8.010 -0.1296  1.6251  2.3171
 2230SOL    HW218150   3.002   2.306   7.891 -1.9361 -0.5306 -1.1478
 2231SOL     OW18151   2.198   2.639  10.148 -0.2748  0.2474  0.7026
 2231SOL    HW118152   2.185   2.695  10.225  1.6006  1.1867  0.3289
 2231SOL    HW218153   2.146   2.682  10.081  3.4438  1.5317 -1.3363
 2232SOL     OW18154   1.120   4.024   4.291  0.0495 -0.0557 -0.0726
 2232SOL    HW118155   1.100   4.115   4.316  0.8395  0.1948 -0.3416
 2232SOL    HW218156   1.203   4.045   4.248  0.6893 -0.0983  1.1412
 2233SOL     OW18157   2.633   0.567   6.633  0.1530  0.6952 -0.0908
 2233SOL    HW118158   2.586   0.544   6.713 -0.4380  0.0649 -0.6229
 2233SOL    HW218159   2.689   0.638   6.664 -0.3127  1.3563 -0.7699
 2234SOL     OW18160   1.082   2.349  17.582  0.7509 -0.1632 -0.1082
 2234SOL    HW118161   1.164   2.385  17.615  0.0837 -0.1746  1.5221
 2234SOL    HW218162   1.055   2.416  17.520  1.8143 -0.7248 -1.1769
 2235SOL     OW18163   3.727   2.297   7.305 -0.0913 -0.4328  0.2442
 2235SOL    HW118164   3.708   2.204   7.287  0.1642 -0.3646 -0.3594
 2235SOL    HW218165   3.793   2.323   7.241 -0.6145 -1.7776 -0.8569
 2236SOL     OW18166   2.797   4.665   3.130  0.2031 -0.6155  0.7548
 2236SOL    HW118167   2.842   4.599   3.077  0.4752 -0.1290  0.3818
 2236SOL    HW218168   2.863   4.695   3.192  0.4891  0.4426 -0.0461
 2237SOL     OW18169   4.373   0.398   0.882 -0.2675  0.4662 -0.3069
 2237SOL    HW118170   4.334   0.353   0.807  1.0107 -0.1522 -0.6127
 2237SOL    HW218171   4.418   0.463   0.828  0.6080 -0.1376 -0.3193
 2238SOL     OW18172   1.238   3.742   4.798 -0.2444  0.1634  0.3728
 2238SOL    HW118173   1.189   3.660   4.785 -0.1556  0.2371 -0.4196
 2238SOL    HW218174   1.269   3.724   4.887  2.2629  1.8809 -0.1715
 2239SOL     OW18175   1.499   2.271   2.547  0.4675  0.6404  0.4533
 2239SOL    HW118176   1.457   2.313   2.472 -0.0687 -0.2657  0.2459
 2239SOL    HW218177   1.434   2.201   2.555  2.6199 -1.3483  0.6738
 2240SOL     OW18178   1.301   2.374   6.102  0.0171  0.7444 -0.5099
 2240SOL    HW118179   1.254   2.428   6.166 -1.5886 -0.1938 -0.8713
 2240SOL    HW218180   1.275   2.287   6.133 -1.8335  1.0916 -1.0391
 2241SOL     OW18181   3.333   0.976   3.175 -0.4926 -0.6252  0.0163
 2241SOL    HW118182   3.243   0.955   3.201 -0.8691  0.9106 -0.0395
 2241SOL    HW218183   3.319   1.071   3.177 -0.0535 -0.5815  0.9505
 2242SOL     OW18184   3.350   1.460   7.180 -0.4732 -0.2328  0.5201
 2242SOL    HW118185   3.366   1.369   7.205 -4.3737 -0.9992  0.1692
 2242SOL    HW218186   3.421   1.514   7.216  0.4009  0.2857 -1.9846
 2243SOL     OW18187   0.883   1.179   4.857 -0.1568 -0.0362  0.6215
 2243SOL    HW118188   0.868   1.195   4.950 -3.4990 -1.8654  0.3981
 2243SOL    HW218189   0.957   1.234   4.831  0.1853 -1.1625 -0.8293
 2244SOL     OW18190   4.377   2.452  15.002  0.3947  0.1611  0.8757
 2244SOL    HW118191   4.395   2.543  14.979  0.0231  0.3233  1.2442
 2244SOL    HW218192   4.455   2.408  14.968  1.8844  3.0394  0.6420
 2245SOL     OW18193   3.120   3.475   1.113 -0.3593  0.4412  0.2584
 2245SOL    HW118194   3.032   3.467   1.076 -1.1994 -0.8231  2.5428
 2245SOL    HW218195   3.123   3.568   1.136 -1.3141  0.7371 -0.8047
 2246SOL     OW18196   2.817   3.215   8.471  0.7006  0.4429 -0.2042
 2246SOL    HW118197   2.758   3.290   8.482 -1.7438 -1.1494 -2.4213
 2246SOL    HW218198   2.751   3.146   8.468  2.7064 -1.4374 -0.6497
 2247SOL     OW18199   2.329   1.644   5.575 -0.3070 -0.0205  0.3742
 2247SOL    HW118200   2.303   1.553   5.561 -0.4139  0.0877 -0.1381
 2247SOL    HW218201   2.319   1.651   5.670 -1.5608  1.3446  0.1381
 2248SOL     OW18202   0.876   3.030   6.525 -0.1152 -0.1487 -0.2846
 2248SOL    HW118203   0.941   3.086   6.482  0.4769 -0.7975 -0.2551
 2248SOL    HW218204   0.830   3.004   6.445 -0.7000 -0.9041  0.3046
 2249SOL     OW18205   1.992   3.465   9.420 -0.1438  0.6148 -0.0788
 2249SOL    HW118206   2.042   3.472   9.502  0.7835 -2.3795 -0.4056
 2249SOL    HW218207   1.904   3.493   9.443  0.2520  0.1572  1.9745
 2250SOL     OW18208   0.084   4.161   0.704 -0.2662 -0.0495 -0.0648
 2250SOL    HW118209   0.159   4.104   0.683 -1.1349 -0.6925 -1.4273
 2250SOL    HW218210   0.013   4.135   0.646 -1.5844  2.1922  0.5737
 2251SOL     OW18211   4.301   0.241   5.324 -0.2581  0.5476 -0.8298
 2251SOL    HW118212   4.217   0.219   5.366  0.6811 -0.0244  0.7269
 2251SOL    HW218213   4.325   0.327   5.358 -2.4825  0.3480  1.2607
 2252SOL     OW18214   1.988   3.495   5.190  0.3049 -0.2227 -0.5708
 2252SOL    HW118215   1.965   3.554   5.118  1.3574 -0.4890 -1.1263
 2252SOL    HW218216   1.919   3.525   5.250  0.5748  0.3650 -0.5491
 2253SOL     OW18217   0.704   0.427   9.238 -0.1265  0.6032  0.1971
 2253SOL    HW118218   0.714   0.395   9.328  0.9090  2.1096  0.6185
 2253SOL    HW218219   0.679   0.344   9.199  0.0943  1.6868 -2.2133
 2254SOL     OW18220   3.509   0.252   7.814 -0.5174  0.0747 -0.2759
 2254SOL    HW118221   3.467   0.336   7.798 -1.7661 -0.5763 -0.4080
 2254SOL    HW218222   3.592   0.274   7.857 -1.8921  0.0465  2.4014
 2255SOL     OW18223   3.734   4.572  12.772 -0.0581 -0.1056  0.1366
 2255SOL    HW118224   3.819   4.572  12.727  0.3019  0.1114  0.8230
 2255SOL    HW218225   3.676   4.565  12.696 -0.0156  0.9134  0.0049
 2256SOL     OW18226   2.466   1.358   9.559  0.1652 -0.2106  0.1958
 2256SOL    HW118227   2.540   1.413   9.536 -0.3199  0.8298  1.1469
 2256SOL    HW218228   2.418   1.429   9.601 -1.6856 -1.4011  0.0942
 2257SOL     OW18229   4.449   3.450   6.638 -0.8623  0.4104  0.5108
 2257SOL    HW118230   4.513   3.499   6.689 -0.1944  1.5330 -1.3866
 2257SOL    HW218231   4.415   3.522   6.585  0.9787 -0.0165 -1.2664
 2258SOL     OW18232   0.708   3.135   4.362 -0.3784 -0.4324 -0.1491
 2258SOL    HW118233   0.790   3.164   4.322  0.0893  2.0752  2.5889
 2258SOL    HW218234   0.707   3.207   4.424  2.6355 -0.3983 -0.1283
 2259SOL     OW18235   0.436   1.509   6.794  0.2205 -0.2647  0.2245
 2259SOL    HW118236   0.375   1.473   6.859 -1.5348 -1.5054 -2.0576
 2259SOL    HW218237   0.458   1.600   6.814 -1.1979 -0.5197  2.9544
 2260SOL     OW18238   3.972   1.245   2.380 -0.4801 -0.0394 -0.1873
 2260SOL    HW118239   3.932   1.158   2.376 -1.9010  0.6092 -0.1770
 2260SOL    HW218240   3.965   1.281   2.292 -2.7410  1.0497  0.4188
 2261SOL     OW18241   2.845   1.120   4.156 -0.8139  0.1218  0.0895
 2261SOL    HW118242   2.777   1.158   4.100 -0.3339  0.1214 -0.4858
 2261SOL    HW218243   2.919   1.180   4.155  0.3792 -1.4024 -1.2318
 2262SOL     OW18244   2.466   3.109  14.440  0.1449 -0.1213  0.5719
 2262SOL    HW118245   2.559   3.133  14.441 -0.3797  1.8899  1.9056
 2262SOL    HW218246   2.433   3.199  14.438 -1.4318 -0.7108  0.7300
 2263SOL     OW18247   1.360   3.711  16.466  0.3466  0.0569 -0.0674
 2263SOL    HW118248   1.341   3.633  16.414 -0.8813  0.2433  0.1243
 2263SOL    HW218249   1.429   3.677  16.524  0.5002  1.1453  0.4064
 2264SOL     OW18250   2.516   2.972   4.964  0.3936  0.2889  0.8549
 2264SOL    HW118251   2.488   2.932   4.882 -0.7488  0.4053  1.1916
 2264SOL    HW218252   2.468   3.054   4.952  0.4527  0.3065  0.7312
 2265SOL     OW18253   1.137   4.555   5.673  0.2932  0.2688  0.3853
 2265SOL    HW118254   1.101   4.642   5.692  1.0627  0.3759  1.3643
 2265SOL    HW218255   1.055   4.506   5.668 -1.0824  2.6736 -0.8417
 2266SOL     OW18256   0.476   1.767   5.722  0.0570 -0.2008 -0.1282
 2266SOL    HW118257   0.503   1.758   5.630  4.0257  2.8565  0.7124
 2266SOL    HW218258   0.521   1.694   5.765 -0.4560 -1.0284 -0.9996
 2267SOL     OW18259   2.101   2.591   4.471 -0.1024 -0.4203  0.3993
 2267SOL    HW118260   2.096   2.686   4.472 -1.0186 -0.4705  1.0639
 2267SOL    HW218261   2.152   2.567   4.394 -3.0074 -0.5252 -1.5056
 2268SOL     OW18262   3.048   4.278   5.930 -0.3827 -0.5168 -0.4394
 2268SOL    HW118263   2.995   4.290   5.852  0.2860 -2.5107 -1.1954
 2268SOL    HW218264   3.125   4.334   5.920 -0.5706 -0.2274 -0.2418
 2269SOL     OW18265   3.791   3.840   1.876 -0.1916  0.0046 -0.2679
 2269SOL    HW118266   3.852   3.796   1.934  0.1270  1.3078  0.3908
 2269SOL    HW218267   3.723   3.780   1.847 -1.6582  1.3468  0.4350
 2270SOL     OW18268   3.900   0.341   2.856 -0.5068  0.3310 -0.4783
 2270SOL    HW118269   3.973   0.401   2.871  1.5231 -2.0186 -0.9311
 2270SOL    HW218270   3.886   0.357   2.762  0.0757  0.1513 -0.5937
 2271SOL     OW18271   1.949   2.441   4.134 -0.2148  0.3920  0.2950
 2271SOL    HW118272   1.903   2.371   4.088 -2.4719  1.8263  0.3153
 2271SOL    HW218273   1.939   2.404   4.222  1.9474 -0.6655  0.0893
 2272SOL     OW18274   3.875   0.758   1.429  0.6089  0.2944 -0.5219
 2272SOL    HW118275   3.883   0.843   1.386 -0.7472  0.0953 -1.1665
 2272SOL    HW218276   3.856   0.787   1.518 -1.9191  0.0181 -0.9717
 2273SOL     OW18277   1.835   3.114   7.146  0.2322  0.1706 -0.0026
 2273SOL    HW118278   1.772   3.104   7.217  1.4845 -0.1675  1.0708
 2273SOL    HW218279   1.867   3.201   7.171 -0.2396  0.4694 -0.4149
 2274SOL     OW18280   4.478   2.853   4.772  0.2091  0.2162 -0.0895
 2274SOL    HW118281   4.389   2.853   4.807  0.3451  0.2141  0.2531
 2274SOL    HW218282   4.470   2.880   4.680  1.6063  0.1957 -0.2216
 2275SOL     OW18283   0.942   0.588   2.050 -0.2329 -0.2215  0.5799
 2275SOL    HW118284   0.859   0.555   2.016 -0.2402  0.7260 -0.2977
 2275SOL    HW218285   0.978   0.652   1.988 -0.8219 -0.6801 -0.2347
 2276SOL     OW18286   2.251   1.090  11.517  0.1637  0.0944  0.2351
 2276SOL    HW118287   2.183   1.066  11.580 -0.7942 -1.9183 -1.5636
 2276SOL    HW218288   2.256   1.185  11.526 -1.3751  0.3443 -1.5566
 2277SOL     OW18289   0.592   0.878   4.329 -0.5664  0.1852  0.0053
 2277SOL    HW118290   0.664   0.906   4.385 -0.9276 -2.1179  1.6346
 2277SOL    HW218291   0.615   0.941   4.261 -0.5017  1.9631  1.6511
 2278SOL     OW18292   3.582   3.682   1.847  0.4437  0.7701 -0.0143
 2278SOL    HW118293   3.553   3.622   1.916  1.0857 -0.7719 -1.0867
 2278SOL    HW218294   3.504   3.737   1.844 -0.3662 -0.3769 -0.3184
 2279SOL     OW18295   3.701   4.320   1.670 -0.2855  0.4010  0.6486
 2279SOL    HW118296   3.617   4.304   1.714 -1.4942  2.2779 -0.9710
 2279SOL    HW218297   3.759   4.250   1.700  1.6835  0.5428 -2.8567
 2280SOL     OW18298   4.533   2.985  12.276  0.2519 -0.7064  0.1969
 2280SOL    HW118299   4.521   2.892  12.298 -1.0737 -0.9312 -1.4609
 2280SOL    HW218300   4.443   3.015  12.286 -0.5277 -2.4159 -1.6203
 2281SOL     OW18301   2.950   2.313   3.103 -0.3314 -0.0068  0.1209
 2281SOL    HW118302   2.892   2.388   3.119 -2.0300 -1.1436 -0.6490
 2281SOL    HW218303   2.910   2.270   3.028 -0.0094  1.5289 -0.9470
 2282SOL     OW18304   2.465   3.634   0.019 -0.1714 -0.0797 -0.2413
 2282SOL    HW118305   2.495   3.677  17.636  0.6815  1.7663  1.0733
 2282SOL    HW218306   2.548   3.619   0.064 -1.2326 -0.7133  1.5257
 2283SOL     OW18307   1.117   2.863   3.758 -0.5323  0.2914  0.5044
 2283SOL    HW118308   1.190   2.802   3.760  0.4560  1.4513 -0.2445
 2283SOL    HW218309   1.150   2.911   3.682 -4.1450 -0.2102 -1.3788
 2284SOL     OW18310   4.307   3.656   9.587 -0.0286 -0.2118  0.2438
 2284SOL    HW118311   4.361   3.674   9.664 -0.3894  1.7438  0.0293
 2284SOL    HW218312   4.218   3.681   9.614 -0.0852  0.3338 -0.4513
 2285SOL     OW18313   0.856   1.633  14.124 -0.6038 -0.0011  0.2885
 2285SOL    HW118314   0.829   1.574  14.055  0.0828 -0.7304  0.6363
 2285SOL    HW218315   0.945   1.599  14.136 -0.0164  1.4707  0.0914
 2286SOL     OW18316   2.066   2.738  14.359  0.0602  0.0203  0.1949
 2286SOL    HW118317   2.154   2.775  14.358  0.5145 -1.0397  0.6561
 2286SOL    HW218318   2.029   2.760  14.273  0.8674 -0.5173 -0.2906
 2287SOL     OW18319   1.245   0.118   9.490  0.1223 -0.0525 -0.0503
 2287SOL    HW118320   1.320   0.068   9.522  0.5541 -0.2673 -1.3701
 2287SOL    HW218321   1.288   0.169   9.421  2.2561  1.7777  2.6758
 2288SOL     OW18322   3.646   4.435   8.118  0.0977 -0.0505  0.3076
 2288SOL    HW118323   3.568   4.410   8.067  1.1083  0.3814 -1.4714
 2288SOL    HW218324   3.639   4.372   8.189 -1.0493  1.6027  1.6719
 2289SOL     OW18325   0.778   4.197   3.801  0.0003  0.1754  0.7793
 2289SOL    HW118326   0.840   4.266   3.777  0.9518 -0.2233  2.0984
 2289SOL    HW218327   0.708   4.245   3.846 -0.8506 -1.4834  1.2417
 2290SOL     OW18328   1.122   3.359   4.882  0.2339 -0.1069 -0.2485
 2290SOL    HW118329   1.103   3.437   4.936  1.0773 -0.6470  0.8314
 2290SOL    HW218330   1.039   3.311   4.889 -0.0182  0.2584 -0.7557
 2291SOL     OW18331   3.676   0.983   4.899  0.7242 -0.2196  0.0090
 2291SOL    HW118332   3.702   0.930   4.974 -2.0015 -0.4028  0.8088
 2291SOL    HW218333   3.587   0.951   4.883  1.3444 -1.8619 -0.1062
 2292SOL     OW18334   3.900   3.063  13.112 -0.0325  0.3167 -0.3614
 2292SOL    HW118335   3.851   3.034  13.035  0.8500 -1.5333 -0.2162
 2292SOL    HW218336   3.876   3.154  13.094  1.3538  0.8923  0.6998
 2293SOL     OW18337   2.433   1.983  12.881  0.3018  0.2952 -0.6193
 2293SOL    HW118338   2.344   2.012  12.860  0.6374 -0.2895 -2.8539
 2293SOL    HW218339   2.420   1.993  12.975  0.8926  1.3910 -0.6564
 2294SOL     OW18340   1.541   1.706   3.781 -0.1737 -0.4960  0.4788
 2294SOL    HW118341   1.509   1.795   3.797  0.4278 -0.1177 -0.3948
 2294SOL    HW218342   1.633   1.716   3.755 -0.5422 -0.2338 -0.7709
 2295SOL     OW18343   0.608   1.841  14.929 -0.0730 -0.3662  0.1411
 2295SOL    HW118344   0.699   1.869  14.919  0.2481 -1.9867 -1.3791
 2295SOL    HW218345   0.577   1.922  14.969  1.5892  0.0865  0.5275
 2296SOL     OW18346   3.724   1.709   9.306 -0.1719  0.1045 -0.0502
 2296SOL    HW118347   3.714   1.660   9.388  4.7724 -2.1035 -0.7854
 2296SOL    HW218348   3.806   1.668   9.278 -0.8633 -1.1291 -0.2660
 2297SOL     OW18349   0.638   0.687   6.185  0.4931  0.2720 -0.6579
 2297SOL    HW118350   0.595   0.740   6.118 -3.1169 -1.0154  0.6449
 2297SOL    HW218351   0.717   0.667   6.135 -0.0048 -1.8707 -0.5949
 2298SOL     OW18352   0.881   1.628   5.902  0.2414  0.1632  0.1519
 2298SOL    HW118353   0.871   1.720   5.926  0.0176  0.5850 -1.6434
 2298SOL    HW218354   0.975   1.627   5.882 -0.3722 -0.2340 -2.6556
 2299SOL     OW18355   4.160   1.972   1.841  0.0901  0.1565  0.2017
 2299SOL    HW118356   4.223   1.946   1.907  2.7114  0.8259 -2.0171
 2299SOL    HW218357   4.100   2.016   1.901  2.1289 -0.4036  2.6208
 2300SOL     OW18358   1.507   2.145   3.366  0.4009  0.3585  0.1570
 2300SOL    HW118359   1.596   2.112   3.371  0.7545  1.6533  2.3756
 2300SOL    HW218360   1.504   2.213   3.433 -2.0689  0.0883  0.3241
 2301SOL     OW18361   0.137   0.281   5.643  0.1243 -0.4186 -0.0792
 2301SOL    HW118362   0.192   0.327   5.706  1.2015 -0.6313 -0.8550
 2301SOL    HW218363   0.069   0.348   5.641  1.6336  1.0883 -0.9363
 2302SOL     OW18364   2.475   2.637  10.247  0.0057  0.0903  0.0683
 2302SOL    HW118365   2.461   2.600  10.334  3.2209 -0.4246  0.3831
 2302SOL    HW218366   2.570   2.651  10.251  0.1654 -1.4085  1.6931
 2303SOL     OW18367   0.667   4.230  10.156 -0.5628  0.0854 -0.2027
 2303SOL    HW118368   0.615   4.207  10.079  1.0196  2.1790 -1.9060
 2303SOL    HW218369   0.662   4.143  10.196  1.8702  0.1029  0.1531
 2304SOL     OW18370   1.252   0.981   8.249  0.3413 -0.2513  0.0708
 2304SOL    HW118371   1.215   0.920   8.312  0.2251 -1.1997 -0.9017
 2304SOL    HW218372   1.290   0.914   8.192  1.2058  0.6531 -0.4254
 2305SOL     OW18373   1.282   3.194   6.665  0.1278  0.1268  0.0302
 2305SOL    HW118374   1.266   3.186   6.571 -1.3537  0.4274  0.2531
 2305SOL    HW218375   1.279   3.288   6.682  2.9759  0.3427 -0.6775
 2306SOL     OW18376   3.019   0.915  17.213  0.4031 -0.1483 -0.4444
 2306SOL    HW118377   3.095   0.857  17.209  0.7099  0.2281 -0.0810
 2306SOL    HW218378   3.015   0.948  17.302  2.4835  0.7509 -0.6907
 2307SOL     OW18379   0.446   0.149   9.614  0.2887 -0.2153  0.2159
 2307SOL    HW118380   0.364   0.100   9.610  0.1507  0.1339 -1.4758
 2307SOL    HW218381   0.512   0.081   9.598 -1.2713 -1.9742  1.3247
 2308SOL     OW18382   3.570   1.377  16.910 -0.2853 -0.5901 -0.4151
 2308SOL    HW118383   3.481   1.342  16.921 -0.5832  0.3641  0.2064
 2308SOL    HW218384   3.570   1.457  16.963 -0.5138 -0.8406 -0.0289
 2309SOL     OW18385   1.162   3.133   1.362  0.2592 -0.5413  0.4594
 2309SOL    HW118386   1.210   3.197   1.309 -1.7660  1.3758  0.9364
 2309SOL    HW218387   1.183   3.159   1.452  1.2203  0.7552 -0.1333
 2310SOL     OW18388   2.753   0.956  16.295 -0.1661  0.0733 -0.3880
 2310SOL    HW118389   2.757   0.990  16.384 -1.1813  1.4599 -0.8831
 2310SOL    HW218390   2.715   1.028  16.245 -1.1946  1.7825  2.8477
 2311SOL     OW18391   3.131   3.363   7.578  0.4069  0.7547  0.6034
 2311SOL    HW118392   3.052   3.327   7.537 -0.5032  2.5947  0.7401
 2311SOL    HW218393   3.141   3.312   7.659  2.0206 -1.4608 -0.9703
 2312SOL     OW18394   0.038   4.718   6.103 -0.2897  0.9426  0.2153
 2312SOL    HW118395   0.109   0.053   6.127  1.3944 -1.1139  0.2937
 2312SOL    HW218396   0.047   0.002   6.008  0.4204 -4.0305 -0.1347
 2313SOL     OW18397   3.948   0.359   8.660 -0.0526 -0.5767 -0.4921
 2313SOL    HW118398   3.919   0.356   8.569 -0.3889 -0.1677 -0.3996
 2313SOL    HW218399   4.034   0.319   8.654  0.3038 -0.2034  1.9079
 2314SOL     OW18400   1.434   2.008   6.032 -0.7301  0.5770 -0.2868
 2314SOL    HW118401   1.466   1.965   5.952 -1.3998 -1.8913  0.7588
 2314SOL    HW218402   1.482   2.089   6.046  1.4427 -0.2809 -2.8028
 2315SOL     OW18403   0.411   4.397   9.057 -0.6967 -0.5125  0.1938
 2315SOL    HW118404   0.443   4.457   9.125  0.2140 -0.0201 -0.6561
 2315SOL    HW218405   0.421   4.458   8.984  1.6281 -0.2521  0.7165
 2316SOL     OW18406   3.622   2.424   1.110 -0.7327 -0.5879  0.3642
 2316SOL    HW118407   3.537   2.406   1.151 -0.9403  0.0757  0.2166
 2316SOL    HW218408   3.607   2.516   1.091  0.1958 -0.4906  0.1158
 2317SOL     OW18409   2.585   2.698   4.009 -0.5613 -0.6995  0.4659
 2317SOL    HW118410   2.532   2.643   3.952 -1.0334 -0.8253  1.0283
 2317SOL    HW218411   2.591   2.785   3.971  1.4543 -0.7600  0.5932
 2318SOL     OW18412   1.130   1.059  12.088  0.9314  0.7687 -0.1767
 2318SOL    HW118413   1.144   1.089  12.178  0.3216 -0.3176  0.2836
 2318SOL    HW218414   1.124   1.146  12.048 -2.0112  0.9101  0.6428
 2319SOL     OW18415   3.946   4.491  13.823  0.0374 -0.5811 -0.9496
 2319SOL    HW118416   3.880   4.458  13.884 -0.0553  2.6278  0.6738
 2319SOL    HW218417   4.026   4.438  13.831 -0.2643 -1.4531 -3.5422
 2320SOL     OW18418   2.413   4.393  17.451  0.2252  0.4114  0.3384
 2320SOL    HW118419   2.355   4.342  17.508 -0.2703 -1.8266 -2.1745
 2320SOL    HW218420   2.476   4.427  17.515  1.4909  0.7497 -1.0851
 2321SOL     OW18421   3.636   0.157  15.464 -0.0109  0.2212  0.4065
 2321SOL    HW118422   3.629   0.120  15.552  2.4080  0.3587  0.6402
 2321SOL    HW218423   3.701   0.226  15.474  0.1443  0.0369  0.6912
 2322SOL     OW18424   3.376   3.726   7.657  0.1232 -0.3733  0.0047
 2322SOL    HW118425   3.299   3.767   7.697 -0.4069  1.5284 -2.9957
 2322SOL    HW218426   3.427   3.806   7.652  0.4339 -0.4589  1.6052
 2323SOL     OW18427   3.252   3.560  11.474  1.3737 -0.0885 -0.7341
 2323SOL    HW118428   3.194   3.603  11.412  1.0689  1.5253  0.6742
 2323SOL    HW218429   3.336   3.607  11.473  1.1021  0.3480 -2.2475
 2324SOL     OW18430   1.543   1.276   6.074 -0.2824 -0.3315 -0.3063
 2324SOL    HW118431   1.452   1.246   6.076  0.1885 -1.8318 -1.0566
 2324SOL    HW218432   1.576   1.222   6.146 -0.4647  1.4193  1.0863
 2325SOL     OW18433   1.552   2.224   1.462 -0.1386 -0.3150 -0.5207
 2325SOL    HW118434   1.468   2.178   1.461  0.3165 -1.1423 -0.1195
 2325SOL    HW218435   1.618   2.164   1.495  0.0818  0.6403  0.7448
 2326SOL     OW18436   0.392   0.639   3.180 -0.3656 -0.2690  0.8387
 2326SOL    HW118437   0.366   0.710   3.122 -0.0875 -0.8184  0.0408
 2326SOL    HW218438   0.347   0.564   3.140  0.5522 -1.2970  1.7356
 2327SOL     OW18439   1.873   0.559   0.791  0.1103 -0.0585 -0.1670
 2327SOL    HW118440   1.887   0.473   0.831  0.7261  0.7286  1.3136
 2327SOL    HW218441   1.829   0.520   0.716  0.0963 -1.7887  0.7361
 2328SOL     OW18442   2.737   0.085   0.983 -0.1684  0.3861  0.4056
 2328SOL    HW118443   2.706   0.041   1.062  1.1983 -1.5633 -0.1353
 2328SOL    HW218444   2.661   0.129   0.946  0.1858  1.0365  0.4616
 2329SOL     OW18445   4.077   1.060   7.204  0.1260  0.2281  0.0836
 2329SOL    HW118446   4.070   1.136   7.145  0.0900  0.1984  0.0498
 2329SOL    HW218447   4.162   1.081   7.242  0.6825 -0.0794 -0.9865
 2330SOL     OW18448   4.450   2.515   3.240 -0.6266 -0.4331 -0.2283
 2330SOL    HW118449   4.511   2.581   3.273 -0.1830 -0.2591 -1.4015
 2330SOL    HW218450   4.365   2.558   3.227  1.0134  3.6765  2.6755
 2331SOL     OW18451   1.899   0.003   5.941  0.6711 -0.1005 -0.0618
 2331SOL    HW118452   1.961   4.700   6.009 -0.5530 -1.6975  0.4282
 2331SOL    HW218453   1.945   0.074   5.895  2.7011 -0.0585  2.0205
 2332SOL     OW18454   1.143   2.746  12.548  0.3749  0.4591 -0.2716
 2332SOL    HW118455   1.090   2.814  12.506  0.4035  1.9088  2.0419
 2332SOL    HW218456   1.225   2.794  12.554 -0.7572  2.2718  0.5467
 2333SOL     OW18457   2.427   3.385  14.372 -0.4738  0.4955 -0.3939
 2333SOL    HW118458   2.456   3.471  14.403 -0.4878 -0.4249  2.1876
 2333SOL    HW218459   2.493   3.376  14.304  1.3823 -0.8887  1.6127
 2334SOL     OW18460   4.155   4.585  16.164 -0.5120 -0.1087 -0.1399
 2334SOL    HW118461   4.087   4.629  16.113  0.7786  1.7814 -0.2296
 2334SOL    HW218462   4.118   4.498  16.181 -2.6094  0.6016 -1.0359
 2335SOL     OW18463   1.125   2.737  11.585  0.5949 -0.4261 -0.3238
 2335SOL    HW118464   1.030   2.734  11.597  0.7346 -1.9296  0.3727
 2335SOL    HW218465   1.154   2.720  11.675  2.6473 -2.5127 -1.3979
 2336SOL     OW18466   4.695   0.915   9.366  0.8775 -0.1860  0.1756
 2336SOL    HW118467   4.696   0.829   9.408  2.4905  0.8874  2.3223
 2336SOL    HW218468   0.057   0.951   9.388  1.4619 -1.5931  0.2075
 2337SOL     OW18469   2.041   2.432   9.354  0.7002  0.4347 -0.3534
 2337SOL    HW118470   2.104   2.463   9.289  0.4879  2.3737  0.3384
 2337SOL    HW218471   2.092   2.361   9.391 -1.5548 -1.0796 -0.1295
 2338SOL     OW18472   1.560   2.660   1.436  0.7602 -0.3470  0.3042
 2338SOL    HW118473   1.573   2.604   1.360  0.5979  1.4518 -1.0526
 2338SOL    HW218474   1.552   2.742   1.387  0.0744 -0.3178  0.4597
 2339SOL     OW18475   4.510   2.214   2.033 -0.3665  0.3004  0.6658
 2339SOL    HW118476   4.556   2.292   2.000  2.1597 -1.5463 -0.1803
 2339SOL    HW218477   4.570   2.189   2.103  0.5019 -1.1068 -0.5881
 2340SOL     OW18478   2.063   4.657  15.631 -0.5618  0.1835  0.1414
 2340SOL    HW118479   2.055   4.693  15.543 -2.6863 -0.3601  0.1206
 2340SOL    HW218480   2.081   4.568  15.600 -1.8760 -0.1146  0.2232
 2341SOL     OW18481   2.368   4.089   2.052 -0.1310  0.2328  0.1262
 2341SOL    HW118482   2.413   4.131   2.126  0.4494  0.1686 -0.1847
 2341SOL    HW218483   2.300   4.035   2.093  0.6044  0.8102  2.1390
 2342SOL     OW18484   1.602   0.045   6.213 -0.4823  0.4456  0.0285
 2342SOL    HW118485   1.608   0.072   6.121 -0.1451  0.3630  0.0270
 2342SOL    HW218486   1.695   0.034   6.231 -0.5667  0.1914  0.2991
 2343SOL     OW18487   2.016   3.559  13.296  0.1302  0.6203  0.2720
 2343SOL    HW118488   1.930   3.592  13.269  1.8324  1.3057 -4.3100
 2343SOL    HW218489   2.074   3.624  13.257  0.0654  0.4947 -0.0307
 2344SOL     OW18490   2.032   2.673   3.801  0.4884 -0.1938  0.2816
 2344SOL    HW118491   1.944   2.705   3.823  0.1562 -1.3743  0.6604
 2344SOL    HW218492   2.042   2.710   3.713  2.4185 -1.3684  0.0153
 2345SOL     OW18493   2.707   0.970   4.702 -0.3138 -0.0220  0.0952
 2345SOL    HW118494   2.702   0.935   4.613  0.2149  2.0018 -0.7477
 2345SOL    HW218495   2.621   1.012   4.700 -0.1292  0.3238 -0.9912
 2346SOL     OW18496   3.239   2.939   5.969 -0.4477 -0.4484  0.1769
 2346SOL    HW118497   3.199   3.025   5.958 -1.1951 -0.8500 -0.2171
 2346SOL    HW218498   3.266   2.920   5.879  0.2556 -3.1117  0.9450
 2347SOL     OW18499   3.730   4.114  12.318  0.1791  0.6972  0.4957
 2347SOL    HW118500   3.789   4.131  12.391  1.8284  1.6316 -1.0356
 2347SOL    HW218501   3.643   4.123  12.358 -0.2726  0.0310 -0.3388
 2348SOL     OW18502   3.437   4.263   4.706  0.4182 -0.4583 -0.0719
 2348SOL    HW118503   3.372   4.194   4.713 -0.8152  0.7358  0.2896
 2348SOL    HW218504   3.383   4.339   4.728 -0.2133 -0.3728 -1.9433
 2349SOL     OW18505   3.995   3.329   4.725 -0.1391  0.1296  0.6767
 2349SOL    HW118506   3.981   3.352   4.817 -1.5412  1.9050  0.0129
 2349SOL    HW218507   4.017   3.417   4.694 -4.8870  0.3817 -2.0106
 2350SOL     OW18508   2.117   1.381   7.972  0.1617  0.0956 -0.7202
 2350SOL    HW118509   2.198   1.428   7.994  1.0301 -1.5103 -0.5075
 2350SOL    HW218510   2.083   1.376   8.061 -0.0293 -0.5757 -0.8321
 2351SOL     OW18511   1.707   4.574  16.247 -0.3743 -0.1524  0.6891
 2351SOL    HW118512   1.799   4.584  16.272 -0.6120  1.9042  0.7405
 2351SOL    HW218513   1.689   4.495  16.299  1.7358 -1.1323 -0.0393
 2352SOL     OW18514   4.697   0.396   0.499  0.2732  0.1231 -0.1998
 2352SOL    HW118515   0.035   0.469   0.509  0.4437 -0.0548  0.0412
 2352SOL    HW218516   0.001   0.331   0.563  0.6039  1.3861  0.9381
 2353SOL     OW18517   2.114   3.646   7.605  0.3728 -0.1478  0.0509
 2353SOL    HW118518   2.061   3.627   7.682 -1.7658 -1.2031 -1.6748
 2353SOL    HW218519   2.174   3.715   7.635 -0.5466 -0.7132  3.1891
 2354SOL     OW18520   1.812   2.951   5.703  0.2495  0.1296  0.1505
 2354SOL    HW118521   1.718   2.939   5.690 -0.1470  3.6282 -0.0990
 2354SOL    HW218522   1.825   3.034   5.657  1.0593 -1.0836 -1.8537
 2355SOL     OW18523   1.981   2.039   2.427 -0.1726  0.2535  0.3917
 2355SOL    HW118524   1.933   1.956   2.417  1.3328 -0.8549  2.5657
 2355SOL    HW218525   1.987   2.058   2.333  2.2134  1.1705  0.7274
 2356SOL     OW18526   1.590   0.545   4.830  0.8694 -1.0007  0.2122
 2356SOL    HW118527   1.521   0.610   4.817  1.1374 -0.9585 -0.9894
 2356SOL    HW218528   1.541   0.465   4.850 -1.5720  0.9357  1.9569
 2357SOL     OW18529   3.113   4.616  15.275  0.4224  0.6293  0.0260
 2357SOL    HW118530   3.073   4.596  15.191  1.6397 -2.3553  0.1635
 2357SOL    HW218531   3.157   4.532  15.284 -0.4415  0.2362  0.5703
 2358SOL     OW18532   0.374   3.314  14.121 -0.0314 -0.4418 -0.3114
 2358SOL    HW118533   0.297   3.366  14.145  0.5837  0.8042 -1.0323
 2358SOL    HW218534   0.448   3.368  14.146  0.5395  0.3015 -3.5661
 2359SOL     OW18535   4.180   2.707   4.064  0.0341 -0.3185 -0.4187
 2359SOL    HW118536   4.123   2.757   4.123  0.2111 -1.3645  0.6342
 2359SOL    HW218537   4.212   2.636   4.120  0.3811 -0.5785 -0.9517
 2360SOL     OW18538   3.034   0.531   7.881  0.3916  0.1042  0.3610
 2360SOL    HW118539   3.041   0.476   7.803 -1.3169 -0.2352  0.4532
 2360SOL    HW218540   3.128   0.546   7.888 -0.0669  2.7099  1.2490
 2361SOL     OW18541   2.536   4.672   2.317 -0.0114  0.4761 -0.6705
 2361SOL    HW118542   2.521   4.587   2.358 -1.1060  1.5497  1.1266
 2361SOL    HW218543   2.632   4.661   2.317 -0.5091 -3.9068  1.7283
 2362SOL     OW18544   0.051   2.908   7.461  0.5004 -0.7132  0.0621
 2362SOL    HW118545   0.013   2.854   7.530 -0.2632  1.7640  1.5765
 2362SOL    HW218546   0.047   2.991   7.509 -0.8406 -1.0730  0.5893
 2363SOL     OW18547   3.301   2.826   0.970  0.4646 -0.5835  0.4564
 2363SOL    HW118548   3.219   2.851   1.011  0.9369  0.4135  0.7945
 2363SOL    HW218549   3.268   2.785   0.890  0.0849 -2.2751  1.4908
 2364SOL     OW18550   0.985   1.048   3.233 -0.3229 -0.4561  0.2390
 2364SOL    HW118551   0.916   1.013   3.289 -0.7853  1.4660  0.8595
 2364SOL    HW218552   0.945   1.127   3.198  1.0615  1.5123  3.1187
 2365SOL     OW18553   4.068   0.844   5.010 -0.0451 -0.1391 -0.0645
 2365SOL    HW118554   4.023   0.766   4.978  1.9180 -0.7320 -1.4142
 2365SOL    HW218555   4.023   0.843   5.094  1.1405 -1.7294  0.5565
 2366SOL     OW18556   2.095   3.393   7.777  0.3223  0.1552 -0.4070
 2366SOL    HW118557   2.131   3.467   7.827  0.5450 -0.1820 -0.0745
 2366SOL    HW218558   2.138   3.405   7.692 -0.6337 -0.2140 -0.9362
 2367SOL     OW18559   0.089   3.449  14.848  0.1534  0.3651 -0.1120
 2367SOL    HW118560   0.117   3.491  14.929  3.6938 -1.1399 -0.5554
 2367SOL    HW218561   0.082   3.355  14.868 -2.1881  0.8298  1.2296
 2368SOL     OW18562   3.439   1.504   8.508 -0.0752  0.6765  0.2927
 2368SOL    HW118563   3.463   1.577   8.566 -2.1700  1.2032  0.5087
 2368SOL    HW218564   3.386   1.443   8.558  0.6583 -0.0319  0.2034
 2369SOL     OW18565   1.577   2.537  13.706 -0.4723 -0.0843  0.6360
 2369SOL    HW118566   1.500   2.547  13.762  0.0907  2.2107  1.0304
 2369SOL    HW218567   1.554   2.559  13.616  1.8366  2.1531  0.5915
 2370SOL     OW18568   3.607   3.155  11.879 -0.2530 -0.0786 -0.5961
 2370SOL    HW118569   3.642   3.238  11.913  1.6859  0.1241 -3.1024
 2370SOL    HW218570   3.557   3.131  11.957  1.5722 -0.3453  0.4847
 2371SOL     OW18571   2.791   0.194  16.536 -0.2020 -0.0977  0.0571
 2371SOL    HW118572   2.864   0.177  16.596  1.0198 -0.3429 -1.4920
 2371SOL    HW218573   2.774   0.288  16.531 -0.9154 -0.1151  2.3998
 2372SOL     OW18574   0.623   3.074   2.432 -0.7123  0.5422 -0.3284
 2372SOL    HW118575   0.570   3.030   2.366  0.3908  0.3789 -1.0899
 2372SOL    HW218576   0.679   3.002   2.460 -2.7580 -0.7541  0.4440
 2373SOL     OW18577   0.988   1.114  13.560  0.4981  0.2974  0.1884
 2373SOL    HW118578   1.073   1.070  13.555  0.9334  1.2585 -0.8369
 2373SOL    HW218579   0.945   1.074  13.484 -0.9523 -1.4524  1.9367
 2374SOL     OW18580   0.319   0.788  15.422 -0.0345  0.4993 -0.2207
 2374SOL    HW118581   0.251   0.726  15.396  0.7301 -0.1926 -0.5527
 2374SOL    HW218582   0.266   0.866  15.443  0.7500  1.4665 -1.8265
 2375SOL     OW18583   2.783   4.298   2.080 -0.5597  0.3607 -0.4137
 2375SOL    HW118584   2.841   4.222   2.078  0.3871  1.0487  0.3540
 2375SOL    HW218585   2.754   4.299   1.989  0.4757  2.7059 -0.7220
 2376SOL     OW18586   2.643   0.298   6.049 -0.3665  0.2691 -0.2278
 2376SOL    HW118587   2.588   0.341   6.115 -2.3947 -1.0235 -1.0828
 2376SOL    HW218588   2.730   0.310   6.089  0.4066 -0.7875 -1.5884
 2377SOL     OW18589   4.619   0.405   4.675  0.3691  0.4929 -0.4344
 2377SOL    HW118590   4.593   0.447   4.593  1.2025 -1.4753 -1.7088
 2377SOL    HW218591   4.692   0.463   4.699 -0.1273  0.8439  0.2043
 2378SOL     OW18592   0.148   3.351  15.780  0.1721  0.2214  0.4276
 2378SOL    HW118593   0.238   3.319  15.778 -0.3077 -1.0438 -1.4003
 2378SOL    HW218594   0.142   3.369  15.686 -3.4897  0.1740  0.6554
 2379SOL     OW18595   1.909   3.579   2.072  0.6361 -0.2129 -0.1914
 2379SOL    HW118596   1.909   3.559   1.978  0.1518 -3.6898  0.5630
 2379SOL    HW218597   1.854   3.507   2.102  0.9507 -0.6669 -0.7236
 2380SOL     OW18598   0.652   3.812   9.128  0.0201 -0.1221  0.5122
 2380SOL    HW118599   0.703   3.884   9.165  1.7172 -0.4581 -1.2326
 2380SOL    HW218600   0.717   3.745   9.112 -0.9464 -0.6882 -1.0160
 2381SOL     OW18601   2.519   2.752   6.458  0.2747 -0.8937 -0.3857
 2381SOL    HW118602   2.435   2.709   6.439  0.3857 -1.2414 -0.0864
 2381SOL    HW218603   2.581   2.680   6.465  1.8931  0.6765  1.3781
 2382SOL     OW18604   0.318   0.253   3.230  0.5576  0.1371 -0.0097
 2382SOL    HW118605   0.284   0.333   3.191 -1.9428  0.4711  2.7926
 2382SOL    HW218606   0.349   0.215   3.148  0.7731 -1.9394  1.0215
 2383SOL     OW18607   4.360   0.190   5.614  0.7748 -0.2645  0.8171
 2383SOL    HW118608   4.301   0.265   5.608  3.9380  1.9763 -1.9842
 2383SOL    HW218609   4.363   0.169   5.521 -1.4221  0.2040  0.6445
 2384SOL     OW18610   4.093   3.271   6.111  0.5895 -0.5521  0.3551
 2384SOL    HW118611   4.105   3.210   6.183 -0.1728  1.7446  2.4394
 2384SOL    HW218612   4.005   3.297   6.136  1.3415  0.6446  1.8002
 2385SOL     OW18613   2.381   2.830   2.622  0.2761  0.2787  0.1154
 2385SOL    HW118614   2.443   2.837   2.549  0.4116 -1.8683  0.0264
 2385SOL    HW218615   2.424   2.759   2.670  2.3496  1.7514  0.4711
 2386SOL     OW18616   4.233   4.117   7.342 -0.2750  0.1422  0.1446
 2386SOL    HW118617   4.301   4.170   7.300 -0.1674 -1.8244 -2.2017
 2386SOL    HW218618   4.200   4.174   7.411 -0.9035  0.5819 -0.5290
 2387SOL     OW18619   0.441   1.250   7.202  0.3441  0.1919 -0.2561
 2387SOL    HW118620   0.405   1.320   7.148 -1.9330 -1.4158 -0.8248
 2387SOL    HW218621   0.526   1.288   7.224 -0.1299  0.4172  1.1591
 2388SOL     OW18622   1.820   0.666   0.211 -0.2446  0.1895 -0.1771
 2388SOL    HW118623   1.786   0.745   0.170 -0.9642 -0.2221 -0.3705
 2388SOL    HW218624   1.896   0.650   0.155  0.1613 -1.2149  0.7795
 2389SOL     OW18625   3.729   1.890   8.567  0.0789  0.2620 -0.3575
 2389SOL    HW118626   3.757   1.960   8.626  0.2204 -0.8796  0.9404
 2389SOL    HW218627   3.668   1.935   8.509  2.3976  1.4358 -1.8673
 2390SOL     OW18628   1.099   0.354   0.677  0.3168  0.1927  0.7656
 2390SOL    HW118629   1.021   0.306   0.649  0.6284 -0.2245  0.6106
 2390SOL    HW218630   1.099   0.327   0.769 -0.5691  1.1396  1.0472
 2391SOL     OW18631   3.106   0.561   3.985  0.7912  0.0168 -0.1527
 2391SOL    HW118632   3.026   0.565   4.039  0.0987 -2.8035 -0.9253
 2391SOL    HW218633   3.160   0.493   4.027 -0.3987 -0.5131  0.5403
 2392SOL     OW18634   0.792   2.983  14.561 -0.2423  0.3836  0.3379
 2392SOL    HW118635   0.785   2.920  14.490 -1.8945  1.6167 -0.5768
 2392SOL    HW218636   0.742   2.940  14.631  1.7398  0.2196  1.6677
 2393SOL     OW18637   1.380   2.231   6.942 -0.0406  0.1203  0.2278
 2393SOL    HW118638   1.443   2.299   6.918  0.1472  0.7845  2.5780
 2393SOL    HW218639   1.419   2.163   6.888 -1.3925 -0.3628 -0.1302
 2394SOL     OW18640   4.695   2.297   5.953 -0.0955 -0.2493 -0.2965
 2394SOL    HW118641   4.684   2.222   6.011 -0.3699  0.6349  0.7899
 2394SOL    HW218642   4.603   2.321   5.946  0.1044  0.7945  0.6039
 2395SOL     OW18643   2.723   3.775  11.924  0.3429 -0.5244  0.1162
 2395SOL    HW118644   2.714   3.765  11.829  0.5532 -2.0335  0.2560
 2395SOL    HW218645   2.655   3.843  11.928  0.0759 -0.8091  0.4158
 2396SOL     OW18646   0.038   0.827  13.011  1.2916  0.7231 -0.6765
 2396SOL    HW118647   4.689   0.803  13.069  0.5221  0.5751 -1.7110
 2396SOL    HW218648   0.112   0.815  13.071  1.5619 -1.5627 -1.4815
 2397SOL     OW18649   0.712   0.568   2.495  0.1010 -0.3140 -0.3813
 2397SOL    HW118650   0.734   0.494   2.552 -2.6827  1.2475  2.7513
 2397SOL    HW218651   0.741   0.643   2.546 -2.5883  1.0989 -0.9402
 2398SOL     OW18652   4.040   3.307  15.803 -0.1979 -0.6182 -0.4858
 2398SOL    HW118653   3.993   3.235  15.760 -0.6666  0.0717 -1.1296
 2398SOL    HW218654   4.090   3.247  15.858  1.9140  1.3567 -0.3028
 2399SOL     OW18655   0.948   1.179  17.263  0.0173  0.2765  0.0705
 2399SOL    HW118656   0.963   1.251  17.202 -1.8968  2.0504  1.6846
 2399SOL    HW218657   0.853   1.176  17.276 -0.1071  0.1056 -0.8825
 2400SOL     OW18658   3.956   0.231   8.349  0.0132  0.8301  0.6782
 2400SOL    HW118659   4.031   0.259   8.296 -1.4945  2.8047 -0.3736
 2400SOL    HW218660   3.960   0.138   8.326 -0.5997  0.8247  0.6021
 2401SOL     OW18661   3.121   1.968   6.157  0.2121 -0.3270  0.0329
 2401SOL    HW118662   3.180   1.912   6.107  0.7587  0.2937 -0.0090
 2401SOL    HW218663   3.156   2.056   6.167 -0.4773  0.1709 -2.0053
 2402SOL     OW18664   0.882   3.079   4.729 -0.5133 -0.1563  0.3207
 2402SOL    HW118665   0.910   3.115   4.813 -0.2694 -0.5201  0.3912
 2402SOL    HW218666   0.936   3.004   4.706 -1.0462 -0.4520  0.0377
 2403SOL     OW18667   1.123   3.219   3.600 -0.0547  0.0875  0.2099
 2403SOL    HW118668   1.168   3.299   3.627 -3.1211  1.7957  0.3205
 2403SOL    HW218669   1.120   3.231   3.505  1.4437 -0.5633  0.0940
 2404SOL     OW18670   0.374   1.433   8.892  0.6682  0.3387 -0.3182
 2404SOL    HW118671   0.317   1.357   8.884  2.0378 -0.7031 -0.2538
 2404SOL    HW218672   0.421   1.432   8.809 -0.4326  0.4476 -0.9447
 2405SOL     OW18673   3.703   1.630  10.032 -0.1545  0.3505  0.2303
 2405SOL    HW118674   3.626   1.647   9.979  1.1551  0.2880 -1.6922
 2405SOL    HW218675   3.670   1.591  10.112  0.2638 -1.7059 -0.6134
 2406SOL     OW18676   4.387   1.828   1.718  0.1120 -0.3566 -0.3716
 2406SOL    HW118677   4.397   1.866   1.631  2.5873 -3.6900 -1.5336
 2406SOL    HW218678   4.359   1.903   1.771 -2.0353 -1.5953  0.2568
 2407SOL     OW18679   4.054   1.014  10.883  0.0278  0.0765 -0.7260
 2407SOL    HW118680   4.104   0.950  10.933 -0.2620 -0.2269 -0.8234
 2407SOL    HW218681   4.119   1.080  10.861  2.0089 -1.4887  0.4695
 2408SOL     OW18682   1.219   2.439   4.462 -0.1106 -0.2425  0.2059
 2408SOL    HW118683   1.127   2.414   4.474 -0.7736  1.7488 -0.5881
 2408SOL    HW218684   1.228   2.417   4.369 -1.4218 -0.2667  0.0771
 2409SOL     OW18685   2.365   0.044  14.797  0.0744  0.5759  0.1904
 2409SOL    HW118686   2.425   0.033  14.871 -1.6010 -0.1769  1.4407
 2409SOL    HW218687   2.295   0.096  14.836 -1.4862 -1.3188 -0.0859
 2410SOL     OW18688   3.910   2.320   8.461 -0.7822  0.0315  0.0309
 2410SOL    HW118689   3.936   2.400   8.414 -1.4511 -0.7264 -1.6494
 2410SOL    HW218690   3.986   2.289   8.509  0.6615  1.5711 -1.2449
 2411SOL     OW18691   4.399   2.987   7.717 -0.2404  0.1536  0.7044
 2411SOL    HW118692   4.465   3.035   7.768  0.1264  0.1743  0.2080
 2411SOL    HW218693   4.406   2.893   7.735  0.7169 -0.1421 -1.2656
 2412SOL     OW18694   4.644   1.115  13.832  0.0000  0.2246  0.1345
 2412SOL    HW118695   4.652   1.023  13.806  1.0933 -0.0853  1.5748
 2412SOL    HW218696   0.013   1.139  13.821 -0.4367  1.3849 -1.0018
 2413SOL     OW18697   3.108   1.441   6.326  0.2697  0.0670 -0.2930
 2413SOL    HW118698   3.112   1.535   6.346  1.7982 -0.2251  0.6617
 2413SOL    HW218699   3.081   1.442   6.234  1.1329 -3.1043 -0.5650
 2414SOL     OW18700   3.302   0.136   7.499  0.7060  0.4958 -0.1828
 2414SOL    HW118701   3.361   0.087   7.442 -0.7291  1.1291 -2.1856
 2414SOL    HW218702   3.321   0.083   7.577 -3.2018  0.0585  0.4348
 2415SOL     OW18703   1.514   4.684  13.574 -0.1486 -0.4333 -0.3259
 2415SOL    HW118704   1.518   4.605  13.520  0.4068  0.4509 -1.5898
 2415SOL    HW218705   1.553   0.020  13.510 -2.0103  0.7510 -0.3475
 2416SOL     OW18706   2.729   1.856   9.874 -0.0828 -0.1750  0.5711
 2416SOL    HW118707   2.680   1.930   9.909  0.2199  0.4185 -0.2297
 2416SOL    HW218708   2.810   1.861   9.925  0.5381  1.3434 -0.5678
 2417SOL     OW18709   3.025   0.717  16.267 -0.4987  0.2694 -0.4319
 2417SOL    HW118710   3.115   0.711  16.235 -0.2676  0.6346  0.1268
 2417SOL    HW218711   2.977   0.730  16.186 -1.2860  1.3998  0.2081
 2418SOL     OW18712   0.331   4.293   4.503 -0.0662 -0.2813 -0.5118
 2418SOL    HW118713   0.347   4.381   4.469  2.7687 -0.5048  0.2662
 2418SOL    HW218714   0.258   4.262   4.449  0.4741  1.3389 -2.1872
 2419SOL     OW18715   2.929   1.863   1.932  0.1343  0.3102 -0.6811
 2419SOL    HW118716   2.860   1.909   1.884  0.6031  1.1508 -0.5562
 2419SOL    HW218717   2.899   1.883   2.021 -1.3093  1.6483 -1.4616
 2420SOL     OW18718   2.014   3.187  17.300 -0.2839  0.2464  0.4771
 2420SOL    HW118719   2.067   3.163  17.376  0.7186  1.2337  0.0759
 2420SOL    HW218720   1.935   3.139  17.326  1.2064 -4.0451 -2.9861
 2421SOL     OW18721   0.486   3.962   7.744  0.1118  0.3948  0.4782
 2421SOL    HW118722   0.555   3.923   7.689 -0.1568  0.8673 -0.1964
 2421SOL    HW218723   0.443   4.003   7.669 -0.5890  2.0547  1.7942
 2422SOL     OW18724   4.021   4.213   9.997 -0.2205 -0.0305 -0.0309
 2422SOL    HW118725   4.004   4.203   9.904  2.4805  0.2716 -0.5530
 2422SOL    HW218726   4.093   4.153  10.017 -0.1919  0.4489  1.3172
 2423SOL     OW18727   4.114   2.307   5.869  0.1926 -0.5338  0.2944
 2423SOL    HW118728   4.023   2.291   5.894 -0.0552  1.0462  0.4080
 2423SOL    HW218729   4.133   2.389   5.913 -0.1855 -0.2416 -0.0905
 2424SOL     OW18730   1.189   3.088   6.060 -0.1590 -0.6063 -0.2554
 2424SOL    HW118731   1.179   3.116   5.969  0.2789 -0.1582 -0.1663
 2424SOL    HW218732   1.158   2.998   6.052 -1.0321 -0.3780  0.6059
 2425SOL     OW18733   2.426   3.729   2.269 -0.1874  0.0263  0.0242
 2425SOL    HW118734   2.496   3.699   2.210  0.2602  1.2301 -0.0688
 2425SOL    HW218735   2.478   3.778   2.333 -4.1444  0.0706  3.1619
 2426SOL     OW18736   2.118   4.110   4.210  0.1733  0.4953 -0.1343
 2426SOL    HW118737   2.130   4.044   4.279  0.0118 -0.1004 -0.6756
 2426SOL    HW218738   2.192   4.163   4.238  1.8464 -2.1216  0.4352
 2427SOL     OW18739   4.365   4.057   6.191 -0.5878 -0.8151  0.5520
 2427SOL    HW118740   4.332   4.080   6.105 -0.7356 -0.5073  0.6910
 2427SOL    HW218741   4.437   4.119   6.181 -1.2268 -0.1154  0.2949
 2428SOL     OW18742   3.007   0.015   3.317  0.7753 -0.0790 -0.6421
 2428SOL    HW118743   3.090   4.691   3.319  2.0825  2.3689  2.0845
 2428SOL    HW218744   3.032   0.093   3.366  2.7346 -0.0675 -1.6688
 2429SOL     OW18745   0.295   2.270   2.348  0.4605  0.2943  0.2952
 2429SOL    HW118746   0.213   2.304   2.312  0.8087  1.0897  0.2619
 2429SOL    HW218747   0.350   2.345   2.327 -0.0102  0.5962  0.1241
 2430SOL     OW18748   2.048   1.310   9.430  0.8979  0.1915 -0.8766
 2430SOL    HW118749   2.141   1.287   9.425  0.9087 -0.2378  1.2067
 2430SOL    HW218750   2.044   1.354   9.515  0.4769 -1.5838  0.0229
 2431SOL     OW18751   0.487   1.571  12.582 -0.1158  0.4326  0.0651
 2431SOL    HW118752   0.528   1.652  12.550 -0.9004 -0.4005 -3.0690
 2431SOL    HW218753   0.398   1.579  12.549 -0.7096 -1.9170  1.0911
 2432SOL     OW18754   2.742   3.559   5.789 -0.1394 -0.2154  0.0225
 2432SOL    HW118755   2.696   3.485   5.748 -0.2324 -0.2014  0.1023
 2432SOL    HW218756   2.681   3.569   5.862  0.9617  2.6989  0.5087
 2433SOL     OW18757   2.824   1.995   6.204 -0.1465  0.3104 -0.2444
 2433SOL    HW118758   2.890   1.926   6.198  0.2876  0.6488  0.6270
 2433SOL    HW218759   2.855   2.032   6.287  1.2157 -1.1406 -0.0956
 2434SOL     OW18760   1.956   2.162   7.767  0.7418  0.3915  0.5048
 2434SOL    HW118761   1.894   2.096   7.737  1.2638 -1.2089  2.9369
 2434SOL    HW218762   1.891   2.218   7.809 -1.0728  0.0117 -1.7950
 2435SOL     OW18763   2.465   2.604  10.793  0.0954 -0.3257 -0.6838
 2435SOL    HW118764   2.551   2.610  10.835 -0.8695 -0.1237  1.2495
 2435SOL    HW218765   2.446   2.698  10.784  0.8216  0.1477  2.7015
 2436SOL     OW18766   1.374   0.863  13.562  0.1379  0.2625 -0.1086
 2436SOL    HW118767   1.466   0.848  13.584 -0.5493 -2.6187  0.7534
 2436SOL    HW218768   1.325   0.803  13.618  1.4727 -0.4648  0.2778
 2437SOL     OW18769   4.535   1.773   3.657 -0.2352 -0.0449 -0.2027
 2437SOL    HW118770   4.548   1.694   3.711 -2.3110 -0.1530  0.1388
 2437SOL    HW218771   4.531   1.837   3.728  0.5183  1.0774 -1.1977
 2438SOL     OW18772   1.312   2.979   8.103  0.3764 -0.4485  0.0107
 2438SOL    HW118773   1.326   2.906   8.042 -0.3465 -0.5431 -0.0364
 2438SOL    HW218774   1.242   3.022   8.053 -0.5743 -1.7713  0.2348
 2439SOL     OW18775   1.378   4.718   9.696  0.4020  0.1812  0.5299
 2439SOL    HW118776   1.471   0.004   9.675  0.5733 -4.2270 -0.6171
 2439SOL    HW218777   1.375   0.026   9.787 -0.9544  1.3119  0.0937
 2440SOL     OW18778   3.177   3.120   4.797  0.1870 -0.2047  0.0206
 2440SOL    HW118779   3.118   3.171   4.741 -1.2718 -2.4295 -0.4554
 2440SOL    HW218780   3.265   3.131   4.761  0.0385  1.3890  0.1319
 2441SOL     OW18781   4.452   3.461   0.046  0.1338  0.3841 -0.2654
 2441SOL    HW118782   4.411   3.537   0.086 -0.4551 -0.3884  0.5949
 2441SOL    HW218783   4.530   3.495   0.002  1.2274 -1.2656  0.4307
 2442SOL     OW18784   0.281   1.962   3.593 -0.1310 -0.2259 -0.5589
 2442SOL    HW118785   0.221   1.890   3.572 -0.0455 -0.6446  0.5775
 2442SOL    HW218786   0.221   2.036   3.583 -0.6905 -0.7919 -1.4094
 2443SOL     OW18787   1.241   3.784   4.321  0.3087 -0.1828  0.0966
 2443SOL    HW118788   1.293   3.788   4.401 -0.6186 -0.8053  0.7412
 2443SOL    HW218789   1.191   3.866   4.326  2.2451  0.8831  1.7338
 2444SOL     OW18790   2.339   1.526   2.476  0.7774  0.6232 -0.6964
 2444SOL    HW118791   2.307   1.436   2.464  0.8387  0.6391 -0.9789
 2444SOL    HW218792   2.300   1.554   2.559  0.1101  0.7650 -1.0607
 2445SOL     OW18793   3.501   0.414  10.761  0.4408 -0.1642 -0.5690
 2445SOL    HW118794   3.504   0.333  10.812 -0.6506 -0.8497 -1.5741
 2445SOL    HW218795   3.553   0.394  10.683  0.6521  1.9895 -0.9734
 2446SOL     OW18796   1.359   3.630   5.050  0.4925 -0.0274 -0.7300
 2446SOL    HW118797   1.454   3.623   5.055  0.2094 -3.5157 -0.2836
 2446SOL    HW218798   1.351   3.662   5.139  0.4271 -1.2766 -0.2877
 2447SOL     OW18799   0.362   0.564   1.637  0.3883 -0.3313  0.9055
 2447SOL    HW118800   0.364   0.658   1.657 -0.1235  0.4073 -2.4891
 2447SOL    HW218801   0.389   0.561   1.545  0.4804 -1.9139  0.9866
 2448SOL     OW18802   0.989   2.641   4.870  0.0305  0.0733 -0.1464
 2448SOL    HW118803   0.972   2.548   4.888  1.0160 -0.8174 -3.8987
 2448SOL    HW218804   1.064   2.656   4.927 -0.5477 -0.8200  0.8635
 2449SOL     OW18805   1.170   2.867   8.879  0.4134  0.5682  0.4929
 2449SOL    HW118806   1.255   2.830   8.858 -0.2411 -0.6287 -0.0777
 2449SOL    HW218807   1.120   2.787   8.896  0.8978 -0.4291 -2.7065
 2450SOL     OW18808   0.397   3.400   5.699  0.0017 -0.1708 -0.6965
 2450SOL    HW118809   0.377   3.349   5.778 -0.0509  0.0791 -0.5470
 2450SOL    HW218810   0.315   3.445   5.676 -0.8332 -0.6399  1.3427
 2451SOL     OW18811   2.107   2.782   5.120 -0.4332 -0.1211 -0.0838
 2451SOL    HW118812   2.153   2.699   5.129 -1.7194 -0.9805 -1.3834
 2451SOL    HW218813   2.138   2.820   5.038 -2.9311  3.1433  0.4613
 2452SOL     OW18814   2.110   1.541   0.933  0.5535 -0.3620 -0.0069
 2452SOL    HW118815   2.187   1.495   0.966  1.5171  0.9141 -0.4606
 2452SOL    HW218816   2.070   1.474   0.878  1.0348 -0.9484  0.3589
 2453SOL     OW18817   3.113   2.859  16.777 -0.8817 -0.0064 -0.9703
 2453SOL    HW118818   3.120   2.887  16.686 -0.8158  0.9640 -0.6680
 2453SOL    HW218819   3.017   2.851  16.782 -0.8164 -0.8442 -0.9819
 2454SOL     OW18820   1.661   2.598   5.339 -0.0456  0.1637  0.5401
 2454SOL    HW118821   1.679   2.656   5.265  0.3027 -1.8263 -0.9527
 2454SOL    HW218822   1.751   2.586   5.368 -0.2556  1.8579  1.8732
 2455SOL     OW18823   0.113   4.077   4.310  0.0568 -0.0243  0.5394
 2455SOL    HW118824   0.150   4.043   4.392  0.6692 -0.0487  0.2470
 2455SOL    HW218825   0.060   4.003   4.279  0.2105 -0.3031  0.9348
 2456SOL     OW18826   0.943   3.382   7.333  0.2653  0.6947 -0.4836
 2456SOL    HW118827   0.886   3.446   7.376  0.0592 -0.6656  1.2609
 2456SOL    HW218828   0.954   3.314   7.399 -2.9803  1.0712  0.4592
 2457SOL     OW18829   2.826   0.409  12.113 -0.1027  0.5559  0.7013
 2457SOL    HW118830   2.898   0.469  12.094 -0.8275  2.0778  2.8078
 2457SOL    HW218831   2.752   0.457  12.076 -0.0738  1.3573  1.6749
 2458SOL     OW18832   0.512   4.002   8.396  0.1305 -0.4359  0.2640
 2458SOL    HW118833   0.520   3.948   8.317  0.7578  1.0482 -0.6746
 2458SOL    HW218834   0.567   3.961   8.463 -0.6691 -1.7141  0.1490
 2459SOL     OW18835   2.652   4.388   7.296  0.3280  0.0896  0.0054
 2459SOL    HW118836   2.560   4.387   7.268 -0.0224  2.4371  1.0498
 2459SOL    HW218837   2.679   4.308   7.252 -1.7061 -0.6306  0.0448
 2460SOL     OW18838   1.146   4.523  15.216  0.2236  0.4237  0.2164
 2460SOL    HW118839   1.111   4.565  15.137 -0.2384  0.9189  0.6866
 2460SOL    HW218840   1.073   4.460  15.223  0.9163 -0.6896 -2.3138
 2461SOL     OW18841   4.196   0.438   3.747  0.0334 -0.1980  0.5618
 2461SOL    HW118842   4.157   0.376   3.684  1.7355 -0.0947 -0.5835
 2461SOL    HW218843   4.275   0.466   3.702 -0.2272 -3.4548 -1.9862
 2462SOL     OW18844   4.405   4.494   1.996  0.2030 -0.3384  0.3343
 2462SOL    HW118845   4.411   4.557   2.067 -0.9227  1.0001 -0.7596
 2462SOL    HW218846   4.424   4.549   1.920 -0.1619 -0.6355  0.0253
 2463SOL     OW18847   0.460   3.926   2.973 -0.4399 -0.3604  0.0380
 2463SOL    HW118848   0.423   3.839   2.985  1.4419 -1.2534 -0.5332
 2463SOL    HW218849   0.452   3.956   3.063  1.8972  1.4754 -0.3543
 2464SOL     OW18850   4.604   4.708   7.616  0.8024  0.1223  0.4459
 2464SOL    HW118851   4.626   0.024   7.700  2.0387  0.5007 -0.0550
 2464SOL    HW218852   4.591   0.062   7.562 -0.4855  1.0060  2.0102
 2465SOL     OW18853   0.329   3.746  11.853 -0.4850  0.7632 -0.1592
 2465SOL    HW118854   0.304   3.812  11.918 -1.5149 -2.8964  3.1518
 2465SOL    HW218855   0.306   3.674  11.912 -1.5184  1.2311  0.0163
 2466SOL     OW18856   1.614   2.633  15.227 -0.6261  0.3039  0.6062
 2466SOL    HW118857   1.565   2.666  15.302 -1.2184  0.8838 -0.0328
 2466SOL    HW218858   1.558   2.573  15.178  0.4717 -2.1608  2.3566
 2467SOL     OW18859   2.724   3.309  13.726 -0.2808 -0.2289  0.4513
 2467SOL    HW118860   2.752   3.364  13.800 -2.5234 -0.1868  1.2756
 2467SOL    HW218861   2.645   3.363  13.719 -1.9682 -2.1840  4.3636
 2468SOL     OW18862   4.555   3.180   5.455  0.0489 -0.1921 -0.1560
 2468SOL    HW118863   4.563   3.131   5.537  0.5554 -0.5021 -0.3884
 2468SOL    HW218864   4.638   3.154   5.414  0.6510 -1.9374  2.0912
 2469SOL     OW18865   2.696   3.979   6.321  0.5187 -0.4753  0.4604
 2469SOL    HW118866   2.779   3.971   6.368  0.6103 -0.6081  0.2738
 2469SOL    HW218867   2.708   3.935   6.237  2.2414 -0.7330  0.8431
 2470SOL     OW18868   3.459   4.261   7.131  0.2430 -0.4265 -0.3369
 2470SOL    HW118869   3.470   4.166   7.128  3.6768 -0.1244  1.9432
 2470SOL    HW218870   3.472   4.278   7.224  1.6435 -1.6353 -0.2997
 2471SOL     OW18871   2.412   4.606   5.151  0.0530  0.4376 -0.1421
 2471SOL    HW118872   2.502   4.639   5.158  0.0236  0.5060 -0.0985
 2471SOL    HW218873   2.374   4.618   5.063 -1.0107  1.6370  0.4837
 2472SOL     OW18874   0.192   2.864  16.271  0.2250 -0.3528 -0.3934
 2472SOL    HW118875   0.210   2.955  16.296  3.8442 -0.6032 -2.0643
 2472SOL    HW218876   0.265   2.827  16.320  0.5222  1.0310  0.2070
 2473SOL     OW18877   1.892   1.341   5.188 -0.4063  0.3802 -0.7679
 2473SOL    HW118878   1.841   1.270   5.227 -1.0495  0.2364 -1.8895
 2473SOL    HW218879   1.885   1.312   5.097  2.4450 -2.5078 -0.0764
 2474SOL     OW18880   3.213   3.876  16.908  0.3663 -0.5580  0.1386
 2474SOL    HW118881   3.135   3.823  16.891  0.7338 -0.4639 -1.8589
 2474SOL    HW218882   3.190   3.948  16.849  0.1425  0.0214  0.9307
 2475SOL     OW18883   0.733   0.670   4.951 -1.0367  0.1687 -0.0042
 2475SOL    HW118884   0.814   0.706   4.989 -1.2953  0.2284  0.4832
 2475SOL    HW218885   0.759   0.635   4.866 -1.0353  0.6261 -0.1924
 2476SOL     OW18886   0.071   0.813  15.850  0.0935  0.3265  0.0244
 2476SOL    HW118887   0.090   0.765  15.931  0.8067  0.6932  0.0738
 2476SOL    HW218888   0.058   0.903  15.878  2.2771  1.0754 -1.4299
 2477SOL     OW18889   3.516   3.692  12.927 -0.1336  0.2845  0.6887
 2477SOL    HW118890   3.487   3.626  12.864  1.9205 -2.6021  2.7477
 2477SOL    HW218891   3.436   3.735  12.958 -0.2398  0.7836 -0.2867
 2478SOL     OW18892   2.411   2.296   5.331  0.2834 -0.3475 -0.3777
 2478SOL    HW118893   2.422   2.389   5.351  2.0463 -0.7807  0.6860
 2478SOL    HW218894   2.462   2.273   5.409  0.4889 -0.6519 -0.6046
 2479SOL     OW18895   3.411   0.961  11.367 -0.2693  0.1843  0.3379
 2479SOL    HW118896   3.485   0.952  11.307 -1.6661  1.7777 -1.5999
 2479SOL    HW218897   3.346   0.920  11.311  0.7126  1.0005 -1.3813
 2480SOL     OW18898   3.618   1.461   5.370 -0.4981 -0.0310 -0.1800
 2480SOL    HW118899   3.708   1.468   5.400 -0.5794  1.8913 -0.3857
 2480SOL    HW218900   3.631   1.419   5.285 -0.1030  1.3038 -0.7752
 2481SOL     OW18901   1.289   2.175   2.807  0.2017 -0.7285  0.1978
 2481SOL    HW118902   1.318   2.187   2.717 -1.7759 -0.0039 -0.3344
 2481SOL    HW218903   1.370   2.146   2.849  1.8435  1.7264 -1.2926
 2482SOL     OW18904   2.947   3.568  16.359 -0.3300  0.0353  0.1865
 2482SOL    HW118905   2.980   3.654  16.385  0.1399 -0.0698 -0.0705
 2482SOL    HW218906   2.963   3.571  16.265  0.0974 -1.0995  0.2220
 2483SOL     OW18907   4.525   3.084   9.011 -0.0338  0.1057 -0.2480
 2483SOL    HW118908   4.568   3.023   9.071  0.3405  1.1038  0.5016
 2483SOL    HW218909   4.489   3.141   9.079 -0.5217 -0.4215 -0.0636
 2484SOL     OW18910   4.545   4.163   2.717 -0.2573 -0.0050  0.2940
 2484SOL    HW118911   4.533   4.197   2.628  1.0652  0.8630  0.4525
 2484SOL    HW218912   4.608   4.093   2.703  0.4624  0.9783 -1.3987
 2485SOL     OW18913   3.020   1.763   4.738  0.3993  0.6500 -0.2607
 2485SOL    HW118914   3.051   1.851   4.718  0.3503  0.8315  0.4555
 2485SOL    HW218915   3.038   1.734   4.649  0.6766 -0.3708  0.1255
 2486SOL     OW18916   2.939   4.640   5.349  0.0784  0.0735 -0.2251
 2486SOL    HW118917   2.861   4.636   5.404  1.0433 -0.4913  1.1043
 2486SOL    HW218918   3.011   4.663   5.408  1.2281 -3.7903 -0.1307
 2487SOL     OW18919   3.046   1.824  17.458  0.2083 -0.6485  0.0132
 2487SOL    HW118920   2.984   1.787  17.395 -3.0270  1.8803  1.7258
 2487SOL    HW218921   2.993   1.885  17.508 -0.1496 -1.8667  1.1365
 2488SOL     OW18922   2.412   4.326   5.679 -0.5774  0.3587  0.1160
 2488SOL    HW118923   2.498   4.285   5.690 -1.6478 -1.4349  1.9405
 2488SOL    HW218924   2.431   4.414   5.648  1.0361  0.6130  1.8275
 2489SOL     OW18925   1.894   4.269   4.173 -0.1484  0.4877 -0.1241
 2489SOL    HW118926   1.950   4.321   4.115 -2.0005  0.5454 -1.8592
 2489SOL    HW218927   1.945   4.189   4.183 -0.5141  0.6343  2.8938
 2490SOL     OW18928   0.725   1.065   5.454 -0.0836 -0.4028 -0.3925
 2490SOL    HW118929   0.805   1.050   5.404 -0.8558  0.1781 -1.8083
 2490SOL    HW218930   0.718   1.161   5.452 -1.7045 -0.4655  2.2315
 2491SOL     OW18931   0.295   3.013  10.587 -0.3025 -0.0677 -0.1664
 2491SOL    HW118932   0.300   3.033  10.494 -1.2121  1.1929  0.0541
 2491SOL    HW218933   0.203   3.038  10.597  0.0542  0.7780  0.9851
 2492SOL     OW18934   0.754   2.108   0.107  0.7484  0.0446 -0.6817
 2492SOL    HW118935   0.782   2.024   0.143  1.7256  0.5958 -0.1430
 2492SOL    HW218936   0.690   2.090   0.038 -1.3910  0.1163  1.2877
 2493SOL     OW18937   2.602   3.645   1.596  0.2214 -0.2800  0.1093
 2493SOL    HW118938   2.612   3.616   1.505  2.5520  2.0750 -0.3929
 2493SOL    HW218939   2.530   3.592   1.629  0.8230 -0.8774  0.4588
 2494SOL     OW18940   2.522   3.815   9.526  0.4499  0.0495  0.4151
 2494SOL    HW118941   2.602   3.867   9.526  0.6150 -0.1937  1.4715
 2494SOL    HW218942   2.452   3.877   9.504  2.2422  1.4639 -1.2045
 2495SOL     OW18943   1.862   3.550  13.851 -0.1320  0.4901 -0.5441
 2495SOL    HW118944   1.802   3.623  13.866 -0.3959  0.2522 -0.4346
 2495SOL    HW218945   1.914   3.555  13.931  0.5113  1.5557 -1.0313
 2496SOL     OW18946   3.513   0.971   6.203 -0.1488 -0.8116  0.1198
 2496SOL    HW118947   3.540   1.044   6.148  1.0049 -2.3406 -1.3348
 2496SOL    HW218948   3.537   1.006   6.290  1.1990  2.3702 -1.5181
 2497SOL     OW18949   0.714   3.973   7.117 -0.5238  0.5809 -0.1071
 2497SOL    HW118950   0.648   3.927   7.168 -1.7639 -0.4123 -2.5940
 2497SOL    HW218951   0.659   4.032   7.065 -1.3657  0.4213  0.6031
 2498SOL     OW18952   2.549   2.851   7.039  0.2023 -0.6978  0.0999
 2498SOL    HW118953   2.556   2.756   7.053 -1.6508 -0.5598  1.9925
 2498SOL    HW218954   2.494   2.874   7.114  0.6137 -0.9947  0.4926
 2499SOL     OW18955   1.727   4.405   6.621 -0.4833 -0.5015  0.3329
 2499SOL    HW118956   1.816   4.439   6.624  0.0325 -2.0414  2.3212
 2499SOL    HW218957   1.749   4.312   6.611  0.2108 -0.0418 -2.4943
 2500SOL     OW18958   1.036   2.267  14.489 -0.4541 -0.1813  0.9645
 2500SOL    HW118959   1.036   2.288  14.582  2.3417  3.1987  0.2047
 2500SOL    HW218960   0.944   2.280  14.465 -0.1220  2.0705  0.9328
 2501SOL     OW18961   1.341   2.762   6.573 -0.1205 -0.0051 -0.0027
 2501SOL    HW118962   1.334   2.822   6.647 -0.6851 -1.7211  1.3403
 2501SOL    HW218963   1.278   2.794   6.508  2.2675  2.5194 -1.0933
 2502SOL     OW18964   1.549   2.599  17.667  0.0615 -0.2339  0.4437
 2502SOL    HW118965   1.606   2.571   0.042  1.3281 -0.2786 -0.5788
 2502SOL    HW218966   1.461   2.577  17.696  0.2704  0.5083  1.6769
 2503SOL     OW18967   1.744   4.391  16.489  0.3173 -0.4141 -0.0057
 2503SOL    HW118968   1.771   4.421  16.576  0.9369 -1.0743  0.0300
 2503SOL    HW218969   1.825   4.347  16.463 -0.5387 -1.9290 -0.1016
 2504SOL     OW18970   2.518   0.013  14.391 -0.4437 -0.4687 -0.1307
 2504SOL    HW118971   2.502   4.676  14.318  0.1263  0.1376 -0.7478
 2504SOL    HW218972   2.480   4.683  14.461 -2.5821  0.6419 -0.4137
 2505SOL     OW18973   1.118   2.957  14.972  0.2550 -0.1721 -0.5228
 2505SOL    HW118974   1.210   2.937  14.986  0.1968 -0.4935 -0.5955
 2505SOL    HW218975   1.114   2.951  14.877  1.6156 -3.4610 -0.3847
 2506SOL     OW18976   2.259   1.851   8.446  0.5666 -0.4704 -0.6315
 2506SOL    HW118977   2.352   1.834   8.435  0.3604 -0.8074 -1.8129
 2506SOL    HW218978   2.246   1.774   8.502 -0.3684 -0.0782 -0.3088
 2507SOL     OW18979   0.418   2.868  15.274 -0.1236 -0.0444  0.5191
 2507SOL    HW118980   0.385   2.803  15.336 -0.2935  1.0717  1.6191
 2507SOL    HW218981   0.506   2.830  15.272 -0.2719 -0.4109  1.2099
 2508SOL     OW18982   4.249   0.096  12.435  0.6086  0.0270 -0.5447
 2508SOL    HW118983   4.322   0.067  12.490 -0.3680  1.4372  1.5037
 2508SOL    HW218984   4.237   0.185  12.469  1.7384 -0.2010  0.4467
 2509SOL     OW18985   2.640   0.633   3.026 -0.0848 -1.1696 -0.0831
 2509SOL    HW118986   2.581   0.704   3.000 -0.9793 -1.1597  1.9701
 2509SOL    HW218987   2.652   0.590   2.941  3.0516 -1.9175  0.7325
 2510SOL     OW18988   1.080   3.213   2.874  0.2286  0.1617 -0.2916
 2510SOL    HW118989   1.155   3.200   2.816  0.5573 -0.5870  0.3002
 2510SOL    HW218990   1.090   3.128   2.917 -0.3383 -0.2911 -1.0607
 2511SOL     OW18991   2.044   4.334   3.924 -0.7823 -0.2661 -0.1110
 2511SOL    HW118992   1.999   4.384   3.855 -0.3517  0.6147  0.2407
 2511SOL    HW218993   2.003   4.249   3.911 -0.1599 -0.7112  0.9126
 2512SOL     OW18994   3.143   4.137   7.067  0.0379 -0.1678  0.1364
 2512SOL    HW118995   3.150   4.084   7.147  1.3045 -0.7954 -0.3833
 2512SOL    HW218996   3.137   4.227   7.099 -1.7780  1.4369 -4.6873
 2513SOL     OW18997   3.380   1.522   9.614  0.0874  0.4452 -0.5747
 2513SOL    HW118998   3.403   1.594   9.673 -0.1443  1.0973 -1.2814
 2513SOL    HW218999   3.299   1.554   9.575  1.1600  4.6838  0.6097
 2514SOL     OW19000   2.087   4.690   5.336  0.2978 -0.3543  0.7926
 2514SOL    HW119001   2.085   4.643   5.419  0.1669 -0.5328  0.6875
 2514SOL    HW219002   2.076   0.055   5.372  0.8950 -1.3151  3.3420
 2515SOL     OW19003   0.221   0.045   9.106 -0.8807  0.9594  0.4417
 2515SOL    HW119004   0.141   0.092   9.081 -0.5453  1.2858 -0.0236
 2515SOL    HW219005   0.189   4.714   9.178 -0.9091 -0.3958 -0.6160
 2516SOL     OW19006   2.378   2.251  11.648  0.2783 -0.2185  0.1467
 2516SOL    HW119007   2.374   2.165  11.607  0.6411 -0.0030 -0.3383
 2516SOL    HW219008   2.472   2.255  11.665  0.3646 -0.0614 -0.3710
 2517SOL     OW19009   4.541   0.312  17.187 -0.3891 -0.5150  0.6868
 2517SOL    HW119010   4.559   0.295  17.279  0.6004 -0.5803  0.4744
 2517SOL    HW219011   4.458   0.359  17.186  0.0234  0.2046  0.8279
 2518SOL     OW19012   0.343   4.302   2.279 -0.2496 -0.0901  0.1736
 2518SOL    HW119013   0.397   4.306   2.201 -2.6212  0.5260 -1.4233
 2518SOL    HW219014   0.413   4.277   2.340 -0.2151  2.1698  1.0526
 2519SOL     OW19015   3.668   2.219  14.802  0.4811 -0.5646  0.1228
 2519SOL    HW119016   3.624   2.159  14.743  1.8268  1.0652 -2.5361
 2519SOL    HW219017   3.670   2.157  14.875 -1.1294  1.0507  1.5607
 2520SOL     OW19018   1.387   2.683   9.201  0.2506 -0.0646 -0.1227
 2520SOL    HW119019   1.315   2.727   9.155 -2.0391 -3.1540  0.5195
 2520SOL    HW219020   1.462   2.700   9.144  0.2757 -0.1057 -0.1014
 2521SOL     OW19021   1.230   3.982   4.897  0.0718 -0.0061  0.2411
 2521SOL    HW119022   1.190   3.897   4.881 -0.1849  0.2241 -0.3371
 2521SOL    HW219023   1.252   4.003   4.806  0.3747 -0.2440  0.2580
 2522SOL     OW19024   2.994   2.902   9.338  0.3818  0.2086  0.4059
 2522SOL    HW119025   2.961   2.819   9.372 -1.0517  0.7262  0.3146
 2522SOL    HW219026   3.019   2.875   9.250 -0.8411  0.9701 -0.1768
 2523SOL     OW19027   3.547   1.483  10.204 -0.0848 -0.6419 -0.4052
 2523SOL    HW119028   3.516   1.456  10.117  0.7781  0.0401 -0.9355
 2523SOL    HW219029   3.465   1.498  10.250 -0.5483 -2.9164 -0.5089
 2524SOL     OW19030   2.166   3.392   8.731 -0.2746 -0.1965  0.0177
 2524SOL    HW119031   2.255   3.409   8.763 -0.9245 -0.0011  1.7132
 2524SOL    HW219032   2.178   3.437   8.648 -0.8982 -0.8168 -0.4075
 2525SOL     OW19033   2.755   4.214  10.301 -0.5333  0.9504  0.0674
 2525SOL    HW119034   2.669   4.208  10.261  0.1245 -2.3057 -0.8516
 2525SOL    HW219035   2.797   4.133  10.274 -0.6423  0.9530 -0.1077
 2526SOL     OW19036   1.572   3.697   8.511  0.2971  0.4506 -0.2488
 2526SOL    HW119037   1.617   3.636   8.568  0.1214  1.6691  1.2165
 2526SOL    HW219038   1.506   3.736   8.568  0.2771  0.6779 -0.4270
 2527SOL     OW19039   4.722   3.817  11.429  0.0719 -0.1962  0.1030
 2527SOL    HW119040   0.074   3.782  11.476 -0.6910  1.4507  2.5654
 2527SOL    HW219041   4.672   3.736  11.428 -2.1987  1.2050 -0.8546
 2528SOL     OW19042   4.645   4.704   2.143 -0.0415  0.3741  0.3040
 2528SOL    HW119043   4.686   4.693   2.229 -1.3071  2.1329  1.1069
 2528SOL    HW219044   4.560   4.665   2.163 -1.1608  2.3575 -0.6427
 2529SOL     OW19045   2.786   3.509   6.868 -0.1834 -0.6337 -0.1803
 2529SOL    HW119046   2.785   3.597   6.830 -0.1582 -0.4218  0.3053
 2529SOL    HW219047   2.707   3.469   6.832 -0.1529 -0.4473 -0.4549
 2530SOL     OW19048   3.022   1.171  15.325 -0.1360  0.3203  0.1534
 2530SOL    HW119049   3.004   1.216  15.408  1.0487  1.0597  0.0063
 2530SOL    HW219050   3.110   1.138  15.342  0.0360  1.2171  0.9976
 2531SOL     OW19051   2.328   3.471   1.898  0.1074  0.1510  0.3788
 2531SOL    HW119052   2.313   3.414   1.974 -0.0895 -0.3641 -0.0465
 2531SOL    HW219053   2.424   3.480   1.903 -0.1228  0.7297  3.7120
 2532SOL     OW19054   1.096   2.069  17.128 -0.5471  0.6189 -0.1253
 2532SOL    HW119055   1.178   2.044  17.171  0.0761 -2.7977 -3.3062
 2532SOL    HW219056   1.121   2.159  17.107 -0.7031  0.1824 -2.2639
 2533SOL     OW19057   0.003   3.388  14.337 -0.2710 -0.0006  0.0511
 2533SOL    HW119058   4.635   3.398  14.365 -0.1630  0.4630  0.2517
 2533SOL    HW219059   4.720   3.436  14.255 -0.1849 -0.7714 -0.4092
 2534SOL     OW19060   1.142   0.175   9.730 -0.0618  0.4269 -0.4389
 2534SOL    HW119061   1.207   0.240   9.757  0.8342 -0.9105  0.6250
 2534SOL    HW219062   1.191   0.139   9.656  0.3738  2.4862 -1.1426
 2535SOL     OW19063   3.156   1.611   8.784  0.0460 -0.3929  0.2948
 2535SOL    HW119064   3.133   1.532   8.734  1.8260 -0.4855 -0.3838
 2535SOL    HW219065   3.238   1.582   8.826 -0.5256 -2.3565  0.0841
 2536SOL     OW19066   0.787   0.712  14.557 -0.5741 -0.1242  0.2816
 2536SOL    HW119067   0.735   0.693  14.635 -2.1773  2.5497 -0.1485
 2536SOL    HW219068   0.767   0.644  14.493 -0.4890 -2.8233  3.1402
 2537SOL     OW19069   1.367   2.660  12.298  0.1539 -0.2872  0.3477
 2537SOL    HW119070   1.436   2.654  12.364  1.1906  0.5408 -0.6684
 2537SOL    HW219071   1.346   2.569  12.276 -0.0210  0.5025 -2.8222
 2538SOL     OW19072   4.720   2.999  15.110  0.0149  0.1187  0.1700
 2538SOL    HW119073   0.084   2.965  15.092  0.7774  1.4408  1.3895
 2538SOL    HW219074   4.673   2.917  15.124  1.2160 -0.1295  2.6396
 2539SOL     OW19075   2.340   0.956  11.890 -0.5947 -0.2844 -0.2761
 2539SOL    HW119076   2.332   0.961  11.985 -2.0573  0.0609 -0.4187
 2539SOL    HW219077   2.429   0.989  11.877 -0.7758  0.9351  1.6218
 2540SOL     OW19078   1.174   0.065  13.799  0.2675 -0.1630  0.1302
 2540SOL    HW119079   1.250   0.109  13.835 -0.0216 -0.7870  1.5181
 2540SOL    HW219080   1.120   0.140  13.775  0.8468 -0.0961 -0.9632
 2541SOL     OW19081   4.663   0.625   3.178 -0.1350 -0.0192  0.2219
 2541SOL    HW119082   4.701   0.638   3.265 -0.5597 -1.6141  0.6365
 2541SOL    HW219083   0.019   0.597   3.135 -0.3845 -0.7567  0.2421
 2542SOL     OW19084   0.674   0.889   5.131 -0.3302  0.4812  0.1758
 2542SOL    HW119085   0.769   0.876   5.125 -0.3285  0.7680 -0.3788
 2542SOL    HW219086   0.637   0.809   5.093  0.6271  0.5156 -0.8167
 2543SOL     OW19087   4.459   2.696   9.253  0.3122 -0.0329 -0.3399
 2543SOL    HW119088   4.405   2.714   9.330  0.4086 -1.4184  0.0556
 2543SOL    HW219089   4.484   2.605   9.268 -0.3136 -0.3383 -1.1483
 2544SOL     OW19090   2.383   2.427  15.532 -0.4822 -0.4582 -0.5054
 2544SOL    HW119091   2.303   2.479  15.537  0.4192  0.9153 -0.3489
 2544SOL    HW219092   2.435   2.478  15.594  0.4956 -1.3113 -0.6238
 2545SOL     OW19093   2.401   2.893   8.193  0.0592  0.0454 -0.0155
 2545SOL    HW119094   2.312   2.859   8.184  0.2091 -0.4286  0.3164
 2545SOL    HW219095   2.383   2.970   8.247 -1.4363  0.4292 -1.0732
 2546SOL     OW19096   0.692   3.491   6.442  0.3650  0.0020  0.1008
 2546SOL    HW119097   0.738   3.532   6.515 -1.0050 -1.7042  1.9214
 2546SOL    HW219098   0.714   3.559   6.378  0.1517  0.7937  0.8723
 2547SOL     OW19099   0.752   2.781  15.713  0.0705 -0.1157  0.4560
 2547SOL    HW119100   0.744   2.843  15.785  0.4167  0.3816  0.0627
 2547SOL    HW219101   0.835   2.737  15.732  1.2082  0.3296 -3.3206
 2548SOL     OW19102   0.356   1.287   1.778  0.1884 -0.1905 -0.6329
 2548SOL    HW119103   0.389   1.376   1.773 -2.0648  0.7517  1.3475
 2548SOL    HW219104   0.357   1.268   1.872 -1.7548 -5.4111 -1.6546
 2549SOL     OW19105   0.579   2.675  16.674 -0.4462  0.0243 -0.6643
 2549SOL    HW119106   0.598   2.700  16.764 -5.5123  0.5794  0.2545
 2549SOL    HW219107   0.625   2.591  16.667 -0.3960 -0.0487  0.5348
 2550SOL     OW19108   2.734   0.746   2.616  0.4912 -0.0146  0.1865
 2550SOL    HW119109   2.822   0.710   2.602 -0.0237 -1.6404  1.0902
 2550SOL    HW219110   2.761   0.829   2.654  0.7083  0.2692 -0.5902
 2551SOL     OW19111   0.196   0.179   7.031 -0.4962  0.6007 -0.0206
 2551SOL    HW119112   0.258   0.247   7.005  0.0282  0.0138 -0.3122
 2551SOL    HW219113   0.211   0.118   6.959  0.7967  1.8837 -0.8466
 2552SOL     OW19114   3.379   3.925   8.457  0.4390  0.1238  0.3310
 2552SOL    HW119115   3.465   3.893   8.432  0.8022  0.5138  1.0742
 2552SOL    HW219116   3.408   3.991   8.520  0.1936  0.9272 -0.3994
 2553SOL     OW19117   4.226   1.852   5.693  0.5888  0.1115 -0.5744
 2553SOL    HW119118   4.165   1.925   5.680 -0.4192 -0.5547  0.4965
 2553SOL    HW219119   4.188   1.783   5.747  1.6975 -0.0261  0.0211
 2554SOL     OW19120   3.685   1.820   4.902 -0.0463 -0.3304  0.1373
 2554SOL    HW119121   3.738   1.799   4.825  0.3394 -3.0143  1.1468
 2554SOL    HW219122   3.625   1.746   4.897 -0.7244  0.1831  0.8737
 2555SOL     OW19123   0.615   4.436   5.212  0.1995  0.1949  0.4205
 2555SOL    HW119124   0.677   4.373   5.248 -1.3586 -1.5188  0.0956
 2555SOL    HW219125   0.598   4.391   5.129 -1.5402 -0.4073  1.1044
 2556SOL     OW19126   4.302   2.373  10.745 -0.5097 -0.4743  0.2702
 2556SOL    HW119127   4.291   2.309  10.815  2.1833 -0.6426  0.5394
 2556SOL    HW219128   4.326   2.320  10.669 -3.1107 -1.1689 -0.0676
 2557SOL     OW19129   4.247   2.686   0.516  0.0180 -0.0220 -0.1688
 2557SOL    HW119130   4.302   2.671   0.439  0.7635 -0.4189  0.4380
 2557SOL    HW219131   4.301   2.743   0.570  1.3532  0.0535 -1.5938
 2558SOL     OW19132   0.307   0.570   6.190 -0.1448 -0.3068 -0.3458
 2558SOL    HW119133   0.362   0.641   6.223  0.5472 -0.7627 -0.5047
 2558SOL    HW219134   0.220   0.607   6.199  0.0440  0.1756 -0.4819
 2559SOL     OW19135   3.986   3.537   7.284  0.1330  0.1891 -0.6813
 2559SOL    HW119136   3.969   3.534   7.378  1.5089 -1.0733 -0.4655
 2559SOL    HW219137   3.898   3.526   7.248  0.3071  2.2089 -1.7347
 2560SOL     OW19138   1.791   4.047   3.050 -0.9061  0.2745  0.0887
 2560SOL    HW119139   1.811   3.998   2.970  1.9172  0.9819  0.3685
 2560SOL    HW219140   1.813   3.975   3.109 -1.5421  0.7038  0.8489
 2561SOL     OW19141   1.672   2.811   0.348  0.9927  0.1013 -0.2171
 2561SOL    HW119142   1.647   2.898   0.314  2.4424  0.1845 -1.0408
 2561SOL    HW219143   1.749   2.831   0.402  0.2854  0.8207  0.5409
 2562SOL     OW19144   0.026   3.469  15.158  0.0522  0.1403  0.2400
 2562SOL    HW119145   4.699   3.490  15.237  0.7753  0.6992  0.5611
 2562SOL    HW219146   0.080   3.548  15.146  0.3800 -0.5081 -2.5496
 2563SOL     OW19147   2.977   2.169   6.383 -0.0498 -0.2906 -0.5051
 2563SOL    HW119148   2.957   2.262   6.375  1.4418  0.0381 -0.3753
 2563SOL    HW219149   3.056   2.180   6.330  0.4376 -0.7184  0.1285
 2564SOL     OW19150   0.852   2.744   7.572 -0.0620  0.4122 -0.2538
 2564SOL    HW119151   0.898   2.674   7.525  0.7602 -0.4748  1.8333
 2564SOL    HW219152   0.857   2.818   7.513  1.1750  0.7944  0.3356
 2565SOL     OW19153   3.460   4.708   3.195  0.3500 -0.4121 -0.3993
 2565SOL    HW119154   3.536   0.006   3.250 -1.0004 -0.0189  1.3127
 2565SOL    HW219155   3.479   0.044   3.123 -1.6737 -1.4731 -1.8273
 2566SOL     OW19156   0.723   1.505   3.333 -0.1713  0.1597  0.0044
 2566SOL    HW119157   0.814   1.489   3.357 -0.1475 -0.2759 -0.3926
 2566SOL    HW219158   0.694   1.442   3.399  0.4756 -0.1060  0.0297
 2567SOL     OW19159   2.256   0.175  10.614  0.3487  0.0003 -0.2647
 2567SOL    HW119160   2.185   0.132  10.661  0.6682 -1.1598 -0.8425
 2567SOL    HW219161   2.212   0.260  10.607  2.7779  1.1971 -1.0008
 2568SOL     OW19162   0.569   1.707  15.827  0.0469  1.0914  0.4062
 2568SOL    HW119163   0.560   1.721  15.733  0.9324  0.2374  0.1923
 2568SOL    HW219164   0.522   1.624  15.829  2.5553 -0.2798  2.3323
 2569SOL     OW19165   1.745   1.618   0.827 -0.3021 -0.5022 -0.0455
 2569SOL    HW119166   1.734   1.712   0.843 -1.8637 -0.8098  0.6643
 2569SOL    HW219167   1.656   1.583   0.834 -1.4367  1.6013 -3.8327
 2570SOL     OW19168   2.907   3.590   2.282 -0.5602 -0.1336 -0.0800
 2570SOL    HW119169   2.895   3.547   2.366  2.2929  1.0484  0.9386
 2570SOL    HW219170   3.003   3.592   2.282 -0.5500 -0.8157 -1.1944
 2571SOL     OW19171   3.826   3.968   0.423 -0.0508  0.3110  0.1599
 2571SOL    HW119172   3.920   3.988   0.429  0.2802 -1.3924  0.7418
 2571SOL    HW219173   3.817   4.018   0.342 -1.5380 -0.9462 -0.4481
 2572SOL     OW19174   2.497   3.337   1.021  0.0163 -0.1330  0.1183
 2572SOL    HW119175   2.544   3.401   1.074 -1.5153 -0.4075  1.8097
 2572SOL    HW219176   2.419   3.329   1.076  0.2202  2.0132  0.7032
 2573SOL     OW19177   3.897   0.157   2.041 -0.2772 -0.3635 -0.0298
 2573SOL    HW119178   3.857   0.070   2.046  0.5940 -0.6742  1.4479
 2573SOL    HW219179   3.896   0.176   1.947 -0.6469 -0.0612  0.0362
 2574SOL     OW19180   2.634   2.542   5.079  0.1841  0.5030 -0.0500
 2574SOL    HW119181   2.667   2.454   5.097  0.6509  0.7675  0.4040
 2574SOL    HW219182   2.712   2.591   5.105  0.2011  1.8629 -2.7733
 2575SOL     OW19183   0.609   3.388   2.825 -0.2974  0.1886  0.2010
 2575SOL    HW119184   0.627   3.326   2.896 -1.0597 -1.3330 -0.9438
 2575SOL    HW219185   0.657   3.342   2.757 -0.2673 -0.1061  0.4207
 2576SOL     OW19186   2.818   1.847   4.942  0.5883 -0.3145 -0.3186
 2576SOL    HW119187   2.848   1.814   4.857  0.0823  0.3823 -0.7676
 2576SOL    HW219188   2.732   1.887   4.927 -0.0230 -1.2226  0.8166
 2577SOL     OW19189   3.763   3.962   6.231  0.4681  0.2197 -0.5248
 2577SOL    HW119190   3.798   3.873   6.221 -1.3939 -0.8059  2.3195
 2577SOL    HW219191   3.753   3.948   6.325  1.7640  0.4334 -0.3480
 2578SOL     OW19192   0.654   0.272   4.513  0.1650  0.5249 -0.2803
 2578SOL    HW119193   0.587   0.280   4.446 -1.6231  0.4208  1.4991
 2578SOL    HW219194   0.652   0.177   4.528 -1.2304  0.5583 -0.3170
 2579SOL     OW19195   0.317   0.498   6.510  0.1441  0.1909 -0.1521
 2579SOL    HW119196   0.394   0.505   6.566  0.6377 -0.5141 -0.7560
 2579SOL    HW219197   0.334   0.419   6.458 -0.1274  0.7413 -1.0843
 2580SOL     OW19198   1.422   0.759   4.798 -0.2672  0.7607  0.2708
 2580SOL    HW119199   1.403   0.792   4.886 -3.7600  1.0879 -0.6300
 2580SOL    HW219200   1.337   0.724   4.773 -0.1294  0.4787  0.2051
 2581SOL     OW19201   1.726   0.582   8.254  1.0774 -0.1201 -0.5600
 2581SOL    HW119202   1.760   0.550   8.170  0.2082  2.3765 -1.8745
 2581SOL    HW219203   1.734   0.677   8.260 -4.1746  0.2569  0.0256
 2582SOL     OW19204   0.747   2.903   9.944  0.1475 -0.2385  0.0743
 2582SOL    HW119205   0.721   2.926   9.855  0.4007  1.9320  0.5607
 2582SOL    HW219206   0.758   2.809   9.931  0.2440 -0.2539  0.2646
 2583SOL     OW19207   4.507   2.308   2.874  0.1063  0.0002 -0.5542
 2583SOL    HW119208   4.585   2.354   2.845  0.6348  0.7942  2.0583
 2583SOL    HW219209   4.445   2.381   2.869  0.0414 -0.0192 -0.0400
 2584SOL     OW19210   4.268   4.201   1.505  0.0361 -0.6993 -0.3347
 2584SOL    HW119211   4.275   4.147   1.426 -0.5094 -0.6923 -0.3862
 2584SOL    HW219212   4.194   4.254   1.475  2.3271  1.4021 -2.2530
 2585SOL     OW19213   3.277   0.706  16.140  0.0923  0.7983 -0.3213
 2585SOL    HW119214   3.280   0.783  16.083  1.0061 -0.0960 -1.4899
 2585SOL    HW219215   3.299   0.638  16.076  1.1272  0.2466  0.6308
 2586SOL     OW19216   3.562   2.844   5.554  0.9010  0.2270 -0.5054
 2586SOL    HW119217   3.633   2.786   5.584 -0.8344 -0.4935  2.2498
 2586SOL    HW219218   3.590   2.849   5.463  1.9923  1.2169 -0.1161
 2587SOL     OW19219   0.666   1.680   0.671  0.3952  0.1138 -0.0643
 2587SOL    HW119220   0.730   1.624   0.629  1.2833 -0.7711  2.4329
 2587SOL    HW219221   0.684   1.664   0.764  0.1966  3.5281  0.5725
 2588SOL     OW19222   1.181   2.507  13.284  0.0901  0.0740 -0.0543
 2588SOL    HW119223   1.123   2.439  13.252 -1.1814  1.0877  0.1050
 2588SOL    HW219224   1.133   2.587  13.262  0.3606  0.7972  1.9297
 2589SOL     OW19225   2.502   4.175   4.131  0.0424  0.5484 -0.1422
 2589SOL    HW119226   2.516   4.147   4.041  0.1870 -0.0463  0.0639
 2589SOL    HW219227   2.516   4.270   4.126 -0.2247  0.7736  3.1200
 2590SOL     OW19228   3.159   2.635   7.425  0.0614  0.1255 -0.2989
 2590SOL    HW119229   3.107   2.640   7.345 -0.6237  0.5225  0.1760
 2590SOL    HW219230   3.198   2.548   7.410 -0.3045  0.1433 -1.3713
 2591SOL     OW19231   0.858   0.349  10.610  0.4193  0.0098  0.5360
 2591SOL    HW119232   0.817   0.425  10.568 -0.1938 -0.7142 -0.1621
 2591SOL    HW219233   0.855   0.284  10.540 -1.2133  1.4237 -0.7066
 2592SOL     OW19234   3.771   1.255   4.467  0.2038 -0.0106 -0.2840
 2592SOL    HW119235   3.784   1.347   4.488 -1.9482  0.5213 -1.3214
 2592SOL    HW219236   3.679   1.243   4.489  0.1360 -2.6298 -1.8989
 2593SOL     OW19237   0.794   3.148   7.220  0.0488 -0.1582  0.2984
 2593SOL    HW119238   0.735   3.124   7.148 -0.9999 -1.1787  1.5186
 2593SOL    HW219239   0.770   3.240   7.215 -0.9777 -0.3333  2.0994
 2594SOL     OW19240   3.317   3.380  10.185 -0.1406  0.1624 -0.1118
 2594SOL    HW119241   3.302   3.292  10.219 -2.6121  1.1177  1.2450
 2594SOL    HW219242   3.341   3.356  10.095  0.4700 -2.0047  0.6309
 2595SOL     OW19243   0.139   0.394   4.806 -0.6354  0.1660 -0.1341
 2595SOL    HW119244   0.185   0.348   4.877 -1.5619 -1.8886 -0.8565
 2595SOL    HW219245   0.083   0.323   4.776 -0.9794  0.3309  0.1149
 2596SOL     OW19246   1.499   4.143   6.866  0.6192 -0.7308 -0.0561
 2596SOL    HW119247   1.594   4.156   6.867  0.7545 -1.6599 -0.8672
 2596SOL    HW219248   1.481   4.209   6.799 -0.2327 -0.0106  0.8645
 2597SOL     OW19249   4.562   3.202   4.134  0.2626  0.6751  0.5764
 2597SOL    HW119250   4.572   3.110   4.157  1.4784  0.7912  0.4751
 2597SOL    HW219251   4.508   3.204   4.054  0.8813  0.9019  0.1647
 2598SOL     OW19252   3.552   3.279   1.665 -0.5281 -0.8387 -0.2926
 2598SOL    HW119253   3.537   3.277   1.570 -1.6127 -2.0808 -0.0868
 2598SOL    HW219254   3.637   3.323   1.665 -0.2220 -1.4470  0.5614
 2599SOL     OW19255   1.390   2.146  16.909  0.7119 -0.2593 -0.0101
 2599SOL    HW119256   1.300   2.154  16.878 -0.6955 -0.1443  4.0963
 2599SOL    HW219257   1.436   2.220  16.868  0.8208 -0.9499 -1.1215
 2600SOL     OW19258   0.655   1.476   4.719  0.0374 -0.3246  0.0010
 2600SOL    HW119259   0.644   1.571   4.730  0.1135 -0.6175  2.4967
 2600SOL    HW219260   0.614   1.451   4.802  0.1175  0.6542  0.3342
 2601SOL     OW19261   1.423   3.094   3.265  0.1612  0.2950  0.0834
 2601SOL    HW119262   1.427   3.094   3.170 -1.1852 -3.7609  0.0380
 2601SOL    HW219263   1.384   3.009   3.288 -2.5621  1.0056 -1.8531
 2602SOL     OW19264   4.362   2.080   3.377 -0.6275 -0.2046 -0.5070
 2602SOL    HW119265   4.452   2.049   3.386 -0.4574  0.0279 -1.4284
 2602SOL    HW219266   4.372   2.160   3.326  0.7959  0.4703  0.8417
 2603SOL     OW19267   3.019   0.829   0.734  0.7107  0.2787 -0.5550
 2603SOL    HW119268   3.065   0.762   0.784  1.4004  1.9756  1.0710
 2603SOL    HW219269   2.926   0.804   0.736  0.8962 -0.4940 -1.8176
 2604SOL     OW19270   3.982   1.091   6.448  0.1428  0.1152  0.2988
 2604SOL    HW119271   4.074   1.071   6.461  1.3412  4.3584 -1.7529
 2604SOL    HW219272   3.955   1.080   6.539  2.1909 -1.2605  0.7303
 2605SOL     OW19273   4.683   0.547   0.921  0.9207 -0.3097  0.1575
 2605SOL    HW119274   4.647   0.559   0.833  1.6886  1.1496  0.0267
 2605SOL    HW219275   0.049   0.575   0.903  0.8213  1.0533  1.7831
 2606SOL     OW19276   4.385   1.938   2.009 -0.0322  0.1745 -0.2366
 2606SOL    HW119277   4.371   2.002   2.079  2.2459  1.3042 -0.8400
 2606SOL    HW219278   4.425   2.001   1.950  0.6190 -0.3513 -0.3527
 2607SOL     OW19279   3.545   2.971   8.220 -0.3426 -0.0978 -0.2504
 2607SOL    HW119280   3.526   2.888   8.264 -2.4681 -0.1018 -1.1801
 2607SOL    HW219281   3.466   3.025   8.223  1.1936  1.9960  2.2842
 2608SOL     OW19282   2.196   3.593   2.730  0.3639 -0.2333  0.5437
 2608SOL    HW119283   2.124   3.649   2.760  1.2582  0.6621  1.0196
 2608SOL    HW219284   2.139   3.524   2.697 -0.2780  0.6443 -0.1759
 2609SOL     OW19285   3.566   1.262  13.934  0.1920  0.0143  0.1986
 2609SOL    HW119286   3.491   1.255  13.993  1.2210  2.1158  1.7673
 2609SOL    HW219287   3.544   1.341  13.884 -1.3471 -0.7918 -0.3707
 2610SOL     OW19288   2.488   2.323   9.333 -0.1386  0.2532 -0.0958
 2610SOL    HW119289   2.548   2.397   9.339  0.1284  0.0243  0.0355
 2610SOL    HW219290   2.547   2.250   9.349 -0.2349  0.3259  0.6208
 2611SOL     OW19291   2.668   3.291  10.096 -0.1725  0.3886  0.1116
 2611SOL    HW119292   2.683   3.219  10.034 -1.7050 -1.1814  1.5668
 2611SOL    HW219293   2.655   3.252  10.183 -1.0811 -0.3433 -0.3541
 2612SOL     OW19294   0.757   0.598   5.455 -0.0437 -0.3463 -0.4151
 2612SOL    HW119295   0.687   0.664   5.456  0.5193  0.2407  0.7163
 2612SOL    HW219296   0.831   0.649   5.422 -1.0298  1.1253 -0.3785
 2613SOL     OW19297   0.920   0.195   4.281  0.1489 -0.4443 -0.3902
 2613SOL    HW119298   0.883   0.283   4.270 -1.2949 -0.8182  1.4771
 2613SOL    HW219299   0.973   0.178   4.203 -2.0285  2.7169 -2.5861
 2614SOL     OW19300   2.711   3.421   6.118  0.6707  0.0857  0.1308
 2614SOL    HW119301   2.753   3.478   6.183 -2.7528  1.5185  1.0661
 2614SOL    HW219302   2.633   3.474   6.099 -0.3572 -1.2802  0.5375
 2615SOL     OW19303   1.497   3.124  15.917  0.0152  0.0377  0.5587
 2615SOL    HW119304   1.567   3.169  15.869 -1.1897  1.2663 -0.0280
 2615SOL    HW219305   1.423   3.136  15.857 -0.4006 -1.7155  0.7354
 2616SOL     OW19306   2.230   4.376   0.531 -0.0312  0.3510  0.2865
 2616SOL    HW119307   2.208   4.306   0.469 -0.1777  0.7987 -0.1621
 2616SOL    HW219308   2.301   4.417   0.483  1.7532 -0.5196  2.1875
 2617SOL     OW19309   3.928   0.112   9.066  0.0317  0.1058  0.1452
 2617SOL    HW119310   3.974   0.065   9.135  0.9523  0.0923 -0.4896
 2617SOL    HW219311   3.913   0.043   9.002 -0.3813  0.9416 -0.6711
 2618SOL     OW19312   3.796   1.083   1.954 -0.1210  0.0128 -0.3809
 2618SOL    HW119313   3.838   1.168   1.968 -0.3531  0.0638  0.0080
 2618SOL    HW219314   3.836   1.050   1.874 -0.6298 -1.3465 -0.0657
 2619SOL     OW19315   4.067   4.241   2.133  0.4832  0.0010  0.7910
 2619SOL    HW119316   4.140   4.186   2.103 -0.5449 -1.6447  1.3191
 2619SOL    HW219317   4.073   4.322   2.082 -0.1269 -0.4699 -0.0141
 2620SOL     OW19318   2.511   2.787   5.567  0.0845  0.6472  0.7189
 2620SOL    HW119319   2.463   2.860   5.608  0.0907  0.6021  0.8052
 2620SOL    HW219320   2.493   2.719   5.631 -1.8418  0.0993 -0.3900
 2621SOL     OW19321   4.033   1.389   4.091  0.1981  0.5244 -0.0700
 2621SOL    HW119322   4.096   1.457   4.114  0.1973 -0.4311  2.7358
 2621SOL    HW219323   4.075   1.309   4.122  2.6123  2.2428  1.0889
 2622SOL     OW19324   3.417   4.191   4.186 -0.6178  0.1102 -0.1754
 2622SOL    HW119325   3.507   4.193   4.153  0.4364 -2.3338  2.5773
 2622SOL    HW219326   3.438   4.170   4.277  1.8008  0.1890 -0.7182
 2623SOL     OW19327   1.534   1.465   3.888  0.1941  0.4386 -0.1231
 2623SOL    HW119328   1.618   1.458   3.934  1.6864 -0.2992 -2.9430
 2623SOL    HW219329   1.527   1.556   3.860  0.7603 -0.3859 -2.9693
 2624SOL     OW19330   0.913   1.402   3.997 -0.1478 -0.0442  0.4322
 2624SOL    HW119331   0.907   1.343   3.922 -2.6173  0.8451 -0.0775
 2624SOL    HW219332   0.821   1.427   4.009 -0.5960 -1.3282 -0.3645
 2625SOL     OW19333   0.149   4.173   2.519  0.2350 -0.1502  0.2876
 2625SOL    HW119334   0.236   4.205   2.539  1.6803 -2.2165 -2.6507
 2625SOL    HW219335   0.106   4.258   2.528  2.1799  0.8395  0.1843
 2626SOL     OW19336   3.783   2.110   3.596  0.0539 -0.5349 -0.3870
 2626SOL    HW119337   3.849   2.154   3.543  2.0385  0.7868  3.1889
 2626SOL    HW219338   3.704   2.144   3.554  0.8161 -0.0137 -1.3869
 2627SOL     OW19339   3.683   0.600   3.407  0.6454  0.0507 -0.0777
 2627SOL    HW119340   3.614   0.658   3.374 -1.1926 -1.7566  0.6343
 2627SOL    HW219341   3.659   0.600   3.499 -3.1946 -0.5468 -1.0987
 2628SOL     OW19342   2.468   3.701  13.716 -0.0024 -0.3901  0.4106
 2628SOL    HW119343   2.427   3.779  13.678  1.0894 -0.4054 -0.8135
 2628SOL    HW219344   2.475   3.718  13.810  3.9460 -0.9732  0.2445
 2629SOL     OW19345   0.032   2.587   8.934  0.2824  0.0423 -0.1216
 2629SOL    HW119346   0.046   2.624   9.021 -0.6177  0.8399 -0.3252
 2629SOL    HW219347   0.119   2.550   8.918 -0.7058 -1.9600 -0.7625
 2630SOL     OW19348   0.290   1.411   7.020 -0.1426  0.0062 -0.4522
 2630SOL    HW119349   0.270   1.335   6.965 -0.0539 -0.3406 -0.0061
 2630SOL    HW219350   0.215   1.407   7.079 -0.1918  3.1043 -0.3424
 2631SOL     OW19351   1.772   1.835   5.948  0.3283 -0.8857  0.2307
 2631SOL    HW119352   1.756   1.917   5.995  0.4721  0.1078 -1.4544
 2631SOL    HW219353   1.681   1.829   5.919  0.7263 -2.2561 -0.7879
 2632SOL     OW19354   3.261   0.083  15.750 -0.6001 -0.3389 -0.5470
 2632SOL    HW119355   3.259   0.074  15.845 -0.7036  0.1180 -0.5029
 2632SOL    HW219356   3.208   0.013  15.713 -0.3495 -0.6013 -0.4101
 2633SOL     OW19357   1.563   2.392   6.303  0.0460  0.4565 -0.2947
 2633SOL    HW119358   1.489   2.355   6.351 -0.1682  2.2113  0.7203
 2633SOL    HW219359   1.545   2.366   6.212 -0.3381 -1.6265  0.3692
 2634SOL     OW19360   2.241   1.111   5.498 -0.4268  0.1819 -0.1698
 2634SOL    HW119361   2.208   1.164   5.425  0.4443  1.9334  0.7283
 2634SOL    HW219362   2.327   1.087   5.464  0.9447  0.8965  2.8732
 2635SOL     OW19363   3.330   1.390   3.553  0.1934 -0.0657  0.3745
 2635SOL    HW119364   3.320   1.308   3.504  0.3180 -1.2222  2.3000
 2635SOL    HW219365   3.422   1.405   3.533  0.0420 -1.8063 -1.6484
 2636SOL     OW19366   4.098   3.042  11.676 -0.3839 -0.4207  0.4688
 2636SOL    HW119367   4.113   3.099  11.601  0.2873 -1.1586  0.0385
 2636SOL    HW219368   4.010   3.004  11.669 -1.0550  1.2068  0.0703
 2637SOL     OW19369   0.213   0.200  14.699  0.1235  0.6820 -0.1629
 2637SOL    HW119370   0.205   0.111  14.734 -1.4995  0.2914 -1.5316
 2637SOL    HW219371   0.176   0.252  14.771 -0.4701  1.3381 -0.9518
 2638SOL     OW19372   4.467   0.515   4.452  0.0607  0.8893  0.6535
 2638SOL    HW119373   4.376   0.547   4.449 -0.5382 -0.9108 -0.1099
 2638SOL    HW219374   4.453   0.430   4.410  1.0895  0.3581  1.3954
 2639SOL     OW19375   2.133   1.979   9.010  0.3721  0.1642  0.4400
 2639SOL    HW119376   2.186   2.047   9.050  0.9846 -0.2234  0.2884
 2639SOL    HW219377   2.053   1.978   9.062 -1.0103 -1.6856 -1.6872
 2640SOL     OW19378   1.087   0.631   0.173  0.6965  0.2307 -0.2444
 2640SOL    HW119379   1.155   0.675   0.122  0.7010  0.4138 -0.0793
 2640SOL    HW219380   1.130   0.565   0.226  0.0555  1.0952  1.3440
 2641SOL     OW19381   4.660   2.893  12.799  0.3323  0.2722  0.1024
 2641SOL    HW119382   4.571   2.886  12.764 -0.9885  2.5009  3.0101
 2641SOL    HW219383   4.642   2.913  12.890 -0.2377 -1.9477  0.4592
 2642SOL     OW19384   2.919   3.941   6.955  0.0583 -0.2039 -0.2766
 2642SOL    HW119385   2.878   3.879   6.896 -0.3944 -0.9838  0.8479
 2642SOL    HW219386   3.008   3.907   6.962  0.5157  1.2253  0.8006
 2643SOL     OW19387   4.299   0.082   8.118  0.8377  0.2054 -0.1196
 2643SOL    HW119388   4.294   0.004   8.174  1.3496  0.8982  0.8949
 2643SOL    HW219389   4.368   0.042   8.065  0.2804 -0.4531 -0.3424
 2644SOL     OW19390   0.640   4.196  12.764 -0.4612  0.3228  0.3328
 2644SOL    HW119391   0.568   4.152  12.718 -0.8584  0.3146  0.9650
 2644SOL    HW219392   0.587   4.250  12.823  2.2962 -0.3195  3.4019
 2645SOL     OW19393   2.165   0.034   6.555  0.0746  0.4489  0.5360
 2645SOL    HW119394   2.194   4.711   6.633  1.1240  3.7676  2.1280
 2645SOL    HW219395   2.244   0.034   6.502 -2.0355  0.5807 -2.6110
 2646SOL     OW19396   0.636   2.575  14.215  0.3601 -0.4884 -0.0390
 2646SOL    HW119397   0.571   2.504  14.216 -1.4387  1.1191 -4.0585
 2646SOL    HW219398   0.642   2.593  14.122  0.8981  1.2623  0.3401
 2647SOL     OW19399   4.555   2.767   4.032  0.2291 -0.8938  0.1806
 2647SOL    HW119400   4.529   2.841   3.977 -3.9914 -1.3743  1.5441
 2647SOL    HW219401   4.476   2.714   4.036  0.3041 -0.8948  1.5397
 2648SOL     OW19402   0.430   0.021  15.056  0.9262 -0.1482 -0.2460
 2648SOL    HW119403   0.461   0.037  15.146 -0.9158  0.3485  0.2906
 2648SOL    HW219404   0.340   0.049  15.070  0.1820 -0.8749 -3.6530
 2649SOL     OW19405   0.832   0.358   7.847 -0.0567 -0.1129  0.0702
 2649SOL    HW119406   0.761   0.298   7.827 -1.0122  0.7114  0.9919
 2649SOL    HW219407   0.801   0.436   7.802 -0.3818  0.3075  1.0156
 2650SOL     OW19408   2.498   4.653   3.194  0.4572 -0.7210 -0.3277
 2650SOL    HW119409   2.414   4.612   3.174  0.6130 -1.0173 -0.3761
 2650SOL    HW219410   2.559   4.586   3.164 -1.6819 -1.9813 -1.8282
 2651SOL     OW19411   1.175   3.808  12.166  0.2800  0.4677  0.3245
 2651SOL    HW119412   1.244   3.762  12.119  1.7500  4.1649 -1.1499
 2651SOL    HW219413   1.120   3.819  12.088  0.8547  2.4624  0.2009
 2652SOL     OW19414   3.286   0.344   8.442 -0.0330 -0.3533 -0.1992
 2652SOL    HW119415   3.347   0.362   8.514  1.1369  0.0879 -1.3107
 2652SOL    HW219416   3.268   0.429   8.402  0.8717  0.8940  2.0347
 2653SOL     OW19417   3.217   2.440   5.041  0.2332 -0.6304  0.0218
 2653SOL    HW119418   3.304   2.409   5.066 -0.2628 -0.0651  2.4400
 2653SOL    HW219419   3.183   2.453   5.130 -0.4799 -0.6177 -0.2622
 2654SOL     OW19420   1.270   1.066   2.199  1.1430 -0.3079 -0.9944
 2654SOL    HW119421   1.248   0.973   2.205 -0.2464  0.0788 -0.0689
 2654SOL    HW219422   1.217   1.108   2.267  1.8536 -0.3171 -0.4226
 2655SOL     OW19423   2.618   0.282  17.133  0.0331  0.1804  0.2826
 2655SOL    HW119424   2.568   0.200  17.123  1.4907 -0.9314  2.0976
 2655SOL    HW219425   2.578   0.342  17.070  0.0007 -1.7138 -1.5380
 2656SOL     OW19426   1.108   1.052   5.090 -0.6846  0.2937 -0.3034
 2656SOL    HW119427   1.166   1.128   5.094 -0.8109  0.5241 -2.4828
 2656SOL    HW219428   1.170   0.986   5.059 -2.4074 -1.3816 -0.1905
 2657SOL     OW19429   3.922   1.942  15.283 -0.0655 -0.1102  0.3100
 2657SOL    HW119430   3.899   1.893  15.204  0.1342  0.9315 -0.4021
 2657SOL    HW219431   3.965   1.872  15.332  0.0579 -0.4148 -0.2334
 2658SOL     OW19432   3.459   3.994   7.686  0.0302 -0.5595  0.4278
 2658SOL    HW119433   3.536   4.044   7.658 -0.2106  0.1533  1.0397
 2658SOL    HW219434   3.384   4.051   7.671 -0.2646 -1.1570 -0.3882
 2659SOL     OW19435   0.933   3.039   5.193  0.4185  0.1354  0.1465
 2659SOL    HW119436   1.005   2.996   5.239  0.3932 -0.7860 -0.6657
 2659SOL    HW219437   0.885   2.969   5.150 -0.9941 -0.1298  2.1740
 2660SOL     OW19438   1.930   2.069  15.825  0.3909  0.3205  0.0465
 2660SOL    HW119439   1.994   1.999  15.836 -2.3692 -2.2831 -0.5325
 2660SOL    HW219440   1.901   2.062  15.734  2.5645  1.9383 -0.7734
 2661SOL     OW19441   4.403   1.894   7.731 -0.1818 -0.2171 -0.2824
 2661SOL    HW119442   4.450   1.811   7.721  0.3380 -0.0553  0.9061
 2661SOL    HW219443   4.391   1.893   7.826 -0.8241  0.3396 -0.3559
 2662SOL     OW19444   3.952   0.193   3.305  0.0947 -0.0826  0.3998
 2662SOL    HW119445   3.890   0.233   3.365 -0.6125  2.4763 -2.0363
 2662SOL    HW219446   3.903   0.194   3.223  0.7714  1.7358  0.0254
 2663SOL     OW19447   3.223   0.367   1.781 -0.2815 -0.2326  0.6174
 2663SOL    HW119448   3.215   0.304   1.710 -0.4432 -0.9215  1.2512
 2663SOL    HW219449   3.317   0.383   1.773  0.1101 -2.2024  1.3076
 2664SOL     OW19450   1.878   1.235   9.036  0.2137 -0.0204 -0.2357
 2664SOL    HW119451   1.970   1.219   9.060  0.4778 -1.8755 -2.4411
 2664SOL    HW219452   1.832   1.269   9.112  0.6405  3.3553 -1.5034
 2665SOL     OW19453   0.522   1.888  12.284 -0.3025 -0.2624  0.0349
 2665SOL    HW119454   0.517   1.815  12.222 -0.5376 -0.6606  0.5275
 2665SOL    HW219455   0.569   1.952  12.230  0.4901 -1.0003 -0.1400
 2666SOL     OW19456   2.766   4.207   2.432 -0.6739  0.3575 -0.0784
 2666SOL    HW119457   2.746   4.243   2.518 -1.2640 -1.0900  0.3990
 2666SOL    HW219458   2.683   4.208   2.385 -1.5465 -3.1973  1.3622
 2667SOL     OW19459   3.969   1.523   3.872  0.3787  0.4724  0.1056
 2667SOL    HW119460   3.979   1.452   3.935  0.7409  0.3507 -0.0843
 2667SOL    HW219461   3.883   1.561   3.892 -1.3007 -2.3480 -1.7400
 2668SOL     OW19462   2.663   3.286  13.074 -0.1814  0.1175 -0.1152
 2668SOL    HW119463   2.741   3.335  13.050 -1.5955  3.0953  1.4367
 2668SOL    HW219464   2.640   3.327  13.157 -1.4083  0.3503 -0.5671
 2669SOL     OW19465   4.312   0.476   2.794 -0.5830 -0.3774  0.0437
 2669SOL    HW119466   4.359   0.559   2.790  1.8407 -1.7699 -0.4188
 2669SOL    HW219467   4.280   0.476   2.704  0.8856 -1.4083 -0.4938
 2670SOL     OW19468   2.252   1.648   0.616  0.2770  0.5287  0.4024
 2670SOL    HW119469   2.263   1.683   0.705  1.0786 -2.2346  1.3961
 2670SOL    HW219470   2.241   1.555   0.638 -0.4250  0.7802  1.1124
 2671SOL     OW19471   1.287   1.266   8.267  0.4756 -0.3132 -0.0392
 2671SOL    HW119472   1.287   1.170   8.257 -1.0658 -0.4516  1.4105
 2671SOL    HW219473   1.286   1.265   8.362  0.7050  2.6748 -0.0161
 2672SOL     OW19474   2.954   1.681   9.739 -0.0518 -0.6386  0.2834
 2672SOL    HW119475   2.882   1.741   9.720  1.7535  1.5296  0.2152
 2672SOL    HW219476   3.012   1.699   9.665 -0.8462 -0.7821 -0.3642
 2673SOL     OW19477   2.276   0.133   7.790 -0.5770  0.3470 -0.3199
 2673SOL    HW119478   2.190   0.126   7.748 -0.7094  1.0915 -0.1627
 2673SOL    HW219479   2.292   0.226   7.775  0.0150 -0.3437 -4.0450
 2674SOL     OW19480   2.776   2.899  11.266  0.1407  0.9352 -0.0476
 2674SOL    HW119481   2.786   2.907  11.171  2.8695 -1.5507  0.0387
 2674SOL    HW219482   2.689   2.933  11.288 -0.6190 -0.6168 -0.5797
 2675SOL     OW19483   2.322   2.486   2.422  0.3001 -0.3856 -0.6958
 2675SOL    HW119484   2.352   2.396   2.409 -0.2694 -0.9079  1.6086
 2675SOL    HW219485   2.400   2.538   2.402  0.5397 -0.8186 -0.8959
 2676SOL     OW19486   2.218   1.969   4.430  0.3785  0.4108  0.7132
 2676SOL    HW119487   2.175   1.976   4.345  0.6215  0.0115  0.5545
 2676SOL    HW219488   2.265   2.051   4.413  1.5081 -0.4852 -0.5642
 2677SOL     OW19489   1.956   1.108  17.315 -0.3650  0.1246 -0.4146
 2677SOL    HW119490   2.051   1.115  17.308 -0.4892 -1.5146 -4.0546
 2677SOL    HW219491   1.929   1.118  17.224 -0.8347 -1.5002 -0.4677
 2678SOL     OW19492   3.463   0.890  11.925 -0.7866 -0.2191 -0.1384
 2678SOL    HW119493   3.410   0.828  11.874 -2.2723 -0.3645  1.6017
 2678SOL    HW219494   3.529   0.924  11.864  2.1249 -1.5904  2.2878
 2679SOL     OW19495   3.400   3.733   4.907 -0.5881  0.2957  0.2535
 2679SOL    HW119496   3.474   3.709   4.963  0.2553  2.3869  0.0249
 2679SOL    HW219497   3.346   3.780   4.971 -1.4682 -3.0697  1.9848
 2680SOL     OW19498   0.242   1.276  15.855 -0.4796  0.1180  0.6131
 2680SOL    HW119499   0.272   1.191  15.822  0.3803 -0.1232  2.0340
 2680SOL    HW219500   0.148   1.262  15.845  0.3312 -3.5924 -1.7476
 2681SOL     OW19501   3.111   4.234  11.575  0.6753 -0.1740 -0.0036
 2681SOL    HW119502   3.198   4.263  11.547  1.0351  0.1336  1.4122
 2681SOL    HW219503   3.110   4.145  11.541  0.7852  1.4738 -4.2666
 2682SOL     OW19504   4.289   0.389   8.465  0.6157  0.2012  0.6484
 2682SOL    HW119505   4.244   0.337   8.531 -0.6386 -0.9739 -1.1321
 2682SOL    HW219506   4.226   0.455   8.436  0.6451 -0.2912 -0.5284
 2683SOL     OW19507   2.371   2.340   9.086 -0.7278 -0.1430  0.0400
 2683SOL    HW119508   2.298   2.400   9.103  0.7215  2.0949 -1.6836
 2683SOL    HW219509   2.410   2.345   9.173 -0.0419 -0.9637 -0.2192
 2684SOL     OW19510   1.221   0.493   3.191  0.0124  0.1296  0.1179
 2684SOL    HW119511   1.314   0.496   3.211  0.0099  1.8958 -0.0622
 2684SOL    HW219512   1.204   0.423   3.254  0.6347 -1.6233 -1.6536
 2685SOL     OW19513   2.440   1.469   7.860 -0.0807 -0.0557  0.3994
 2685SOL    HW119514   2.476   1.535   7.920  0.1519 -0.4493  0.6993
 2685SOL    HW219515   2.471   1.394   7.911 -1.4101 -1.4598 -0.9051
 2686SOL     OW19516   1.784   3.769  10.539 -0.2816 -0.3830  0.1521
 2686SOL    HW119517   1.776   3.816  10.456  2.9048 -0.4314 -0.1989
 2686SOL    HW219518   1.853   3.705  10.518  0.9147  0.7070  0.7306
 2687SOL     OW19519   3.392   0.926   2.579 -0.3720  0.0811 -0.3315
 2687SOL    HW119520   3.329   0.987   2.539 -0.6507  0.3738  0.5478
 2687SOL    HW219521   3.360   0.923   2.669  1.4095  0.4791  0.3137
 2688SOL     OW19522   0.043   4.555   7.218  0.0585 -0.0036  0.0318
 2688SOL    HW119523   0.069   4.642   7.250 -1.6780  0.1741  0.9733
 2688SOL    HW219524   0.125   4.506   7.209 -1.2523 -2.4648  1.5467
 2689SOL     OW19525   2.278   3.070   4.836 -0.2628 -0.0252 -0.1505
 2689SOL    HW119526   2.295   3.065   4.742  0.9958  1.6357 -0.0241
 2689SOL    HW219527   2.241   3.158   4.834  0.2314  0.1726 -0.6152
 2690SOL     OW19528   2.521   1.695  10.262 -0.1452 -0.0166 -0.6115
 2690SOL    HW119529   2.499   1.639  10.337  1.8174  1.3656  0.9818
 2690SOL    HW219530   2.581   1.640  10.212 -0.1526 -0.1754 -0.4468
 2691SOL     OW19531   3.576   0.552   3.660  0.0923 -0.8672  0.4981
 2691SOL    HW119532   3.549   0.531   3.750 -1.5333 -1.3925 -0.1294
 2691SOL    HW219533   3.506   0.510   3.611  0.6787  1.0022 -1.9322
 2692SOL     OW19534   2.237   3.833   2.521  0.0740  0.7859  0.5195
 2692SOL    HW119535   2.185   3.876   2.590  0.0850 -0.2486  1.1818
 2692SOL    HW219536   2.325   3.817   2.556 -0.0479  2.0179  1.4006
 2693SOL     OW19537   1.338   1.600   5.617  0.0393  0.1817 -0.5881
 2693SOL    HW119538   1.400   1.548   5.667 -1.6711 -0.6105  0.6972
 2693SOL    HW219539   1.377   1.582   5.532  0.5467  0.6647 -0.4555
 2694SOL     OW19540   0.539   3.497   6.787 -0.3694 -0.3413  1.0440
 2694SOL    HW119541   0.559   3.459   6.873  0.5766 -1.9486  0.1114
 2694SOL    HW219542   0.594   3.437   6.737  0.0781  0.7196  0.2769
 2695SOL     OW19543   0.589   1.200   9.664  0.5956 -0.3256  0.1844
 2695SOL    HW119544   0.584   1.273   9.726 -0.4286  0.0417 -0.3262
 2695SOL    HW219545   0.678   1.167   9.679  1.1688  1.7933  1.5997
 2696SOL     OW19546   3.332   2.138  15.103 -0.1731 -0.5895  0.0349
 2696SOL    HW119547   3.415   2.185  15.111  0.7401 -2.4187  1.3444
 2696SOL    HW219548   3.275   2.196  15.052  1.0614  1.0938  0.5759
 2697SOL     OW19549   2.847   0.300   5.291  0.9920 -0.5881 -0.2042
 2697SOL    HW119550   2.753   0.281   5.285  0.9018 -0.0246 -0.5489
 2697SOL    HW219551   2.880   0.311   5.202  0.4713  0.6412 -0.2487
 2698SOL     OW19552   2.363   2.783   2.293 -0.9316  0.2110 -0.1956
 2698SOL    HW119553   2.325   2.729   2.362 -0.4696  1.6593  1.1936
 2698SOL    HW219554   2.423   2.839   2.342 -0.8829 -2.3209  2.6791
 2699SOL     OW19555   2.950   2.674  12.216  0.5035  0.1810  0.1009
 2699SOL    HW119556   2.909   2.737  12.276 -0.9551 -1.0252  0.3661
 2699SOL    HW219557   3.026   2.651  12.270 -0.2464  0.1031  1.1069
 2700SOL     OW19558   2.738   1.599  15.301 -0.1157 -0.5716 -0.6574
 2700SOL    HW119559   2.761   1.515  15.260  2.1055 -0.0087 -0.5222
 2700SOL    HW219560   2.646   1.581  15.323  0.6957 -0.0249  3.0433
 2701SOL     OW19561   0.397   3.889  10.219 -0.3162  0.1223 -0.1747
 2701SOL    HW119562   0.382   3.979  10.189  2.9159 -0.0552 -2.3691
 2701SOL    HW219563   0.323   3.854  10.170 -0.5397 -0.1782  0.3814
 2702SOL     OW19564   1.227   0.399   4.549 -0.3614 -0.4584 -0.4259
 2702SOL    HW119565   1.261   0.377   4.462  1.8399 -0.0721  0.3426
 2702SOL    HW219566   1.231   0.313   4.592  0.3453  0.4756  1.3801
 2703SOL     OW19567   4.591   1.192  16.358 -0.1759 -0.0038  1.1144
 2703SOL    HW119568   4.631   1.106  16.375  0.2713  0.0999  0.5696
 2703SOL    HW219569   4.511   1.189  16.410 -1.2257 -0.6292 -0.5660
 2704SOL     OW19570   0.774   3.384   7.806 -0.0099 -0.0599 -0.4902
 2704SOL    HW119571   0.725   3.367   7.886 -0.9209  1.2260 -0.7731
 2704SOL    HW219572   0.748   3.477   7.805  0.4930  0.0951  1.0305
 2705SOL     OW19573   1.050   0.648  12.342  0.5266 -0.1688  0.8184
 2705SOL    HW119574   0.986   0.601  12.287  1.3400  0.1859 -0.4217
 2705SOL    HW219575   1.093   0.573  12.381  0.2408 -0.9759 -0.4313
 2706SOL     OW19576   4.428   2.411   7.773 -0.2400  0.1041  0.3814
 2706SOL    HW119577   4.416   2.496   7.816 -0.4037  0.5556 -0.5652
 2706SOL    HW219578   4.449   2.448   7.687 -0.0938 -1.2814 -0.1803
 2707SOL     OW19579   1.322   0.692   6.999  0.1545  0.5192 -0.1521
 2707SOL    HW119580   1.257   0.680   6.930 -1.6561 -2.1542  2.0152
 2707SOL    HW219581   1.384   0.621   6.984  1.1943  1.3120  0.3096
 2708SOL     OW19582   0.805   4.002   9.250 -0.0018  0.2757  0.2211
 2708SOL    HW119583   0.803   4.091   9.216  0.6283 -0.0479 -0.6817
 2708SOL    HW219584   0.797   4.006   9.345 -0.1400 -1.0438  0.2773
 2709SOL     OW19585   1.919   3.365   5.749 -0.1929 -0.5110 -0.0285
 2709SOL    HW119586   1.863   3.432   5.789  1.0929  1.7915 -2.1422
 2709SOL    HW219587   1.970   3.429   5.699 -0.7388 -0.3075 -0.3221
 2710SOL     OW19588   1.988   4.617  17.679  0.1229  0.2748  0.1096
 2710SOL    HW119589   1.928   4.660  17.618 -1.7052 -2.3891  0.0191
 2710SOL    HW219590   2.066   4.671  17.666  1.0879 -1.8238 -2.8831
 2711SOL     OW19591   0.854   1.228  14.862 -0.1743 -0.0546 -0.1176
 2711SOL    HW119592   0.759   1.239  14.860 -0.0340  0.8624 -1.6166
 2711SOL    HW219593   0.845   1.134  14.846  0.0544 -0.4199  1.9062
 2712SOL     OW19594   0.111   4.273   5.342 -0.4469 -0.1544 -0.5819
 2712SOL    HW119595   0.098   4.332   5.416  0.5346 -0.7044  0.0330
 2712SOL    HW219596   0.190   4.225   5.371 -0.2054 -0.8782 -2.4471
 2713SOL     OW19597   0.454   1.146  11.532 -0.4648 -0.1722 -0.6646
 2713SOL    HW119598   0.467   1.081  11.601  0.9615  1.5769  0.6779
 2713SOL    HW219599   0.382   1.117  11.474  0.4641 -1.4132 -1.1972
 2714SOL     OW19600   4.243   3.862  17.046  0.5199  0.1875  0.1186
 2714SOL    HW119601   4.332   3.885  17.072  0.4314  0.9183 -0.2398
 2714SOL    HW219602   4.256   3.870  16.952  1.1081  1.3423  0.2997
 2715SOL     OW19603   1.178   4.547   8.523  0.5832  0.3266 -0.0485
 2715SOL    HW119604   1.215   4.502   8.599  2.2022  0.0574 -0.9871
 2715SOL    HW219605   1.157   4.631   8.565 -0.0607  0.7139 -1.1436
 2716SOL     OW19606   3.292   4.182   3.054  0.0026 -0.5642  0.4803
 2716SOL    HW119607   3.360   4.189   2.988  0.6388 -2.1950  0.9669
 2716SOL    HW219608   3.210   4.169   3.005  0.3140 -2.0000  0.3557
 2717SOL     OW19609   3.208   4.140   2.644 -0.7061  0.5913  0.0941
 2717SOL    HW119610   3.262   4.178   2.575  1.1430 -1.2278  0.5438
 2717SOL    HW219611   3.274   4.142   2.713  0.5007 -1.2991 -0.9884
 2718SOL     OW19612   3.457   2.985   6.428  0.4082 -0.5552 -0.7380
 2718SOL    HW119613   3.479   2.970   6.336  0.1444  2.5987 -1.2995
 2718SOL    HW219614   3.503   3.066   6.448 -0.4475 -0.5941  1.4220
 2719SOL     OW19615   4.511   2.569   6.818 -0.5626  0.7959 -0.5095
 2719SOL    HW119616   4.587   2.573   6.760 -1.3349 -1.1265 -1.6382
 2719SOL    HW219617   4.442   2.575   6.753  0.6741  2.3764 -1.6843
 2720SOL     OW19618   1.589   0.400   7.787 -0.4883 -0.1294 -0.2121
 2720SOL    HW119619   1.527   0.330   7.767 -0.7723 -0.3045  1.2913
 2720SOL    HW219620   1.538   0.448   7.852  0.5490  3.2126 -1.8421
 2721SOL     OW19621   2.721   3.455  15.506 -0.0541 -0.0646 -0.7406
 2721SOL    HW119622   2.705   3.485  15.416  1.0160  1.0746 -0.5469
 2721SOL    HW219623   2.658   3.384  15.520  0.2099 -0.7669 -3.1442
 2722SOL     OW19624   0.656   4.254   0.419 -0.0692 -0.5184  0.2208
 2722SOL    HW119625   0.659   4.219   0.508  1.8725  2.0528  1.1426
 2722SOL    HW219626   0.729   4.213   0.373  0.8526 -0.1193  1.3432
 2723SOL     OW19627   4.679   3.485   3.332 -0.5140 -0.5424 -0.1620
 2723SOL    HW119628   4.706   3.520   3.417  1.4503  1.0029 -1.4358
 2723SOL    HW219629   0.032   3.430   3.317  0.6475 -0.2013  4.3039
 2724SOL     OW19630   3.980   0.045   3.598  0.6027 -0.9953  0.2757
 2724SOL    HW119631   4.040   0.120   3.593 -0.5486  0.0321  2.3817
 2724SOL    HW219632   4.033   4.723   3.664 -0.4381 -0.0485  1.7588
 2725SOL     OW19633   0.198   4.582  11.217 -0.0083 -0.1804 -0.4030
 2725SOL    HW119634   0.287   4.609  11.194  0.8523 -1.9103  0.8948
 2725SOL    HW219635   0.200   4.499  11.170  0.2607 -0.0725 -0.5833
 2726SOL     OW19636   2.042   0.595   1.987  0.1614  0.0920 -0.2331
 2726SOL    HW119637   1.998   0.618   1.905 -1.6172 -0.5418  0.5349
 2726SOL    HW219638   2.063   0.503   1.973 -2.5578 -0.3361 -1.6244
 2727SOL     OW19639   4.032   0.622  15.494 -0.8158  0.3965 -0.4697
 2727SOL    HW119640   4.038   0.532  15.525 -3.4691  0.0147 -1.0874
 2727SOL    HW219641   4.104   0.669  15.537 -0.8080  0.0357 -0.0919
 2728SOL     OW19642   3.295   4.421   9.114 -0.6432  0.1228 -0.9845
 2728SOL    HW119643   3.280   4.398   9.022 -0.0634  2.7868 -1.7274
 2728SOL    HW219644   3.239   4.359   9.160  0.5072 -1.8369 -2.2268
 2729SOL     OW19645   2.765   0.602   1.376  0.5942 -0.0070  0.4151
 2729SOL    HW119646   2.804   0.564   1.297 -0.7664 -0.4765 -0.0375
 2729SOL    HW219647   2.839   0.640   1.422  1.4926  0.3871 -1.3721
 2730SOL     OW19648   1.819   1.319   1.676  0.2950  0.4584  0.1437
 2730SOL    HW119649   1.770   1.342   1.755 -1.4425  2.2934 -1.4622
 2730SOL    HW219650   1.872   1.396   1.657  0.8137 -0.0894 -0.6487
 2731SOL     OW19651   0.868   4.253   1.105 -0.1067 -0.1728 -0.2676
 2731SOL    HW119652   0.945   4.220   1.060 -0.9943 -1.8737 -0.5456
 2731SOL    HW219653   0.896   4.309   1.177 -1.4045  1.0941 -0.7370
 2732SOL     OW19654   2.627   0.568  13.929  0.3142  0.0427 -0.2294
 2732SOL    HW119655   2.554   0.628  13.920  1.9117  1.7030 -2.2360
 2732SOL    HW219656   2.666   0.595  14.012 -0.3431  2.1687 -0.6280
 2733SOL     OW19657   0.546   3.217   4.623  0.1938  0.3005 -0.3763
 2733SOL    HW119658   0.510   3.299   4.657 -2.0164 -0.0273 -1.9083
 2733SOL    HW219659   0.635   3.249   4.610  1.5378 -3.2238  0.2218
 2734SOL     OW19660   1.119   2.667   8.640  0.2468 -0.4135  0.0977
 2734SOL    HW119661   1.130   2.572   8.631  2.1520 -0.0973 -1.0909
 2734SOL    HW219662   1.056   2.681   8.569  1.2226 -1.4417 -0.9915
 2735SOL     OW19663   2.229   0.169  15.042 -0.1350  0.1625  0.1917
 2735SOL    HW119664   2.285   0.096  15.068  0.8944  1.8664  2.6874
 2735SOL    HW219665   2.178   0.182  15.122  0.9962  2.5337  0.5101
 2736SOL     OW19666   4.045   1.775   2.970 -0.1490 -0.2109  0.1784
 2736SOL    HW119667   4.061   1.840   2.902  0.3222 -0.5934 -0.0767
 2736SOL    HW219668   4.051   1.819   3.055 -1.6802  1.7312 -0.7453
 2737SOL     OW19669   1.338   2.927  12.660 -0.1821  0.4712 -0.3169
 2737SOL    HW119670   1.373   2.979  12.733  1.5891  0.0053 -0.8419
 2737SOL    HW219671   1.307   2.854  12.714 -1.1740  0.7799 -0.4614
 2738SOL     OW19672   1.324   3.171   8.577  0.4001  0.2515  0.1616
 2738SOL    HW119673   1.364   3.091   8.611  1.6334  1.0705  0.6077
 2738SOL    HW219674   1.276   3.136   8.502  1.6985  0.3527 -0.7107
 2739SOL     OW19675   0.132   2.948   8.518  0.4033 -0.4880  0.3254
 2739SOL    HW119676   0.105   3.022   8.572  0.5353  0.3038 -0.7074
 2739SOL    HW219677   0.096   2.975   8.434  1.6119  1.8280  0.5360
 2740SOL     OW19678   3.948   3.721  15.665  0.1692  0.1021 -0.4614
 2740SOL    HW119679   3.875   3.782  15.675 -0.1851 -0.1332 -1.6208
 2740SOL    HW219680   3.938   3.669  15.744  2.2985 -0.1216 -0.3528
 2741SOL     OW19681   4.680   1.385  17.170 -0.1073 -0.3024 -0.2008
 2741SOL    HW119682   4.665   1.390  17.076 -1.6264 -0.7010  0.0160
 2741SOL    HW219683   4.592   1.370  17.204  0.1093 -0.6112  0.2286
 2742SOL     OW19684   0.932   2.133   4.287  0.0479  0.5734  0.0014
 2742SOL    HW119685   0.859   2.071   4.286  0.6658 -0.1161 -2.8597
 2742SOL    HW219686   0.980   2.112   4.206 -0.2878 -1.1221  0.2479
 2743SOL     OW19687   4.190   3.652   4.448  0.2651 -0.5423 -0.0560
 2743SOL    HW119688   4.260   3.623   4.506 -0.3087 -1.1887  0.3158
 2743SOL    HW219689   4.234   3.650   4.363  1.0792  1.8626  0.2990
 2744SOL     OW19690   1.780   1.556   5.284 -0.5815 -0.2603 -0.7903
 2744SOL    HW119691   1.701   1.523   5.243 -0.7028  0.7765 -1.3847
 2744SOL    HW219692   1.841   1.483   5.274 -1.6722 -1.4796  1.4354
 2745SOL     OW19693   0.976   1.141   9.015  0.2676 -0.4061 -0.4967
 2745SOL    HW119694   0.900   1.139   8.956 -1.0127 -0.9096  1.1907
 2745SOL    HW219695   0.913   1.137   9.087  0.8894  2.1451  0.1752
 2746SOL     OW19696   1.287   2.600  15.714 -0.0681  0.2860 -0.3113
 2746SOL    HW119697   1.234   2.670  15.753  0.3268 -0.4053  1.4570
 2746SOL    HW219698   1.371   2.606  15.760 -0.3640  2.0216  0.0064
 2747SOL     OW19699   0.720   0.768   7.301  0.1109 -0.2361  0.3964
 2747SOL    HW119700   0.685   0.831   7.364  1.2778  0.0784  0.7296
 2747SOL    HW219701   0.714   0.822   7.222 -1.2368  2.4626  2.3475
 2748SOL     OW19702   4.650   0.623   7.825  0.0291 -0.4156  0.4533
 2748SOL    HW119703   4.576   0.673   7.859 -0.4169 -0.5514 -0.3247
 2748SOL    HW219704   4.626   0.541   7.867  2.0019 -3.0773 -3.5818
 2749SOL     OW19705   3.120   3.934   8.354 -0.0150  0.2057 -0.7471
 2749SOL    HW119706   3.090   3.911   8.442  0.0483  1.8020 -0.3181
 2749SOL    HW219707   3.208   3.966   8.373 -0.1749  0.8457 -1.0940
 2750SOL     OW19708   3.821   0.689   2.886 -0.0378 -0.2211 -0.3500
 2750SOL    HW119709   3.774   0.649   2.813  1.3635 -2.3383 -0.0989
 2750SOL    HW219710   3.876   0.618   2.919 -2.8336 -0.8079  3.1004
 2751SOL     OW19711   2.877   1.555  17.385  0.4461  0.5423  0.4792
 2751SOL    HW119712   2.867   1.650  17.383  0.6222  0.4914 -2.0332
 2751SOL    HW219713   2.906   1.544  17.476 -1.2248 -1.4858  0.7609
 2752SOL     OW19714   4.297   3.899   2.319 -0.0794 -0.3012  0.1038
 2752SOL    HW119715   4.299   3.804   2.329 -0.7096 -0.3452 -0.1706
 2752SOL    HW219716   4.211   3.910   2.280  0.3158 -1.6252 -1.1337
 2753SOL     OW19717   0.835   0.577  10.459  0.1529  0.0258 -0.0010
 2753SOL    HW119718   0.862   0.664  10.490 -2.5541  1.3014 -1.2145
 2753SOL    HW219719   0.897   0.568  10.386  0.6086  0.9526  0.2647
 2754SOL     OW19720   0.612   0.462   8.572 -0.5480 -0.2036  0.0651
 2754SOL    HW119721   0.541   0.401   8.591 -0.0444 -1.0876 -0.8679
 2754SOL    HW219722   0.629   0.511   8.652 -0.1574  0.5573 -0.4829
 2755SOL     OW19723   1.806   2.306   6.680  0.1742  0.6617 -0.8996
 2755SOL    HW119724   1.754   2.241   6.727  0.9764  0.1678 -0.7173
 2755SOL    HW219725   1.829   2.364   6.753  1.2241 -1.1545  0.2012
 2756SOL     OW19726   1.321   0.914   1.235  0.0423  0.1667 -0.6233
 2756SOL    HW119727   1.406   0.906   1.191  1.2148  2.7703  1.1077
 2756SOL    HW219728   1.322   0.835   1.288  0.1850  1.2750  1.0488
 2757SOL     OW19729   3.758   2.662   5.589 -0.5514 -0.2247 -0.1901
 2757SOL    HW119730   3.841   2.628   5.556  0.0797  0.0601  1.0867
 2757SOL    HW219731   3.750   2.604   5.666  0.4777 -0.5087 -0.2967
 2758SOL     OW19732   0.826   1.264   6.484 -0.0578 -0.0412  0.4824
 2758SOL    HW119733   0.860   1.175   6.493 -0.2569 -0.1640  0.0316
 2758SOL    HW219734   0.882   1.307   6.548 -1.2200  0.4341  1.1691
 2759SOL     OW19735   3.315   3.844   4.658  0.1064 -0.4796 -0.1002
 2759SOL    HW119736   3.324   3.812   4.747 -1.5243 -0.3500  0.1113
 2759SOL    HW219737   3.387   3.803   4.611 -0.6309 -0.2804 -1.4138
 2760SOL     OW19738   3.969   2.297   4.898 -0.6046  0.6439  0.0450
 2760SOL    HW119739   3.925   2.325   4.818  1.0905 -1.4611 -1.6045
 2760SOL    HW219740   3.919   2.349   4.961  1.4340  0.9984  1.3559
 2761SOL     OW19741   0.621   3.358   2.201  0.6223 -0.2549 -0.2501
 2761SOL    HW119742   0.663   3.274   2.185  0.4067  0.0442 -2.3002
 2761SOL    HW219743   0.551   3.323   2.256  0.6446  0.8135  0.4689
 2762SOL     OW19744   1.788   3.334   1.851 -0.3004  0.1719  0.1371
 2762SOL    HW119745   1.839   3.413   1.832 -0.2212  0.1812  0.3964
 2762SOL    HW219746   1.771   3.339   1.945  0.0746  1.8562  0.1138
 2763SOL     OW19747   0.711   0.308   0.032  0.1482 -0.2538  0.1579
 2763SOL    HW119748   0.709   0.214   0.018  0.6813 -0.4483  1.3303
 2763SOL    HW219749   0.708   0.350  17.643  0.3876 -1.4438 -0.4309
 2764SOL     OW19750   4.157   4.015   8.224  0.0129 -0.3487 -0.3881
 2764SOL    HW119751   4.245   4.049   8.239  0.1974 -1.6751  1.5371
 2764SOL    HW219752   4.196   3.943   8.174  0.0736  0.1856 -1.1010
 2765SOL     OW19753   1.797   3.039  17.451  0.0321 -0.5377  0.3269
 2765SOL    HW119754   1.790   3.115  17.509 -0.7569  0.7459 -1.4826
 2765SOL    HW219755   1.738   2.979  17.497 -0.9450 -0.7104 -1.1599
 2766SOL     OW19756   3.606   1.020   1.104 -0.5879 -0.0104  0.6015
 2766SOL    HW119757   3.672   0.983   1.045 -0.9162  0.5270 -0.0962
 2766SOL    HW219758   3.584   1.102   1.060  0.4407  0.5520  1.1208
 2767SOL     OW19759   1.318   0.615   5.207  0.2063 -0.1357  0.7672
 2767SOL    HW119760   1.254   0.581   5.145 -0.1165  0.6260  0.6815
 2767SOL    HW219761   1.322   0.710   5.190 -1.2871  0.6010  4.5904
 2768SOL     OW19762   1.607   3.934  17.263  0.1448  0.1238  0.0505
 2768SOL    HW119763   1.532   3.882  17.236  0.2578 -0.5806  1.0898
 2768SOL    HW219764   1.618   3.984  17.182  1.5018  1.5551  1.1138
 2769SOL     OW19765   1.974   2.289   9.995  0.4802  0.3520  0.1044
 2769SOL    HW119766   1.889   2.304   9.952 -0.1242 -3.1206  0.0358
 2769SOL    HW219767   1.946   2.242  10.074 -0.1350  0.7193  0.1075
 2770SOL     OW19768   3.449   3.040  15.902  0.0191 -0.3524 -0.4226
 2770SOL    HW119769   3.499   3.039  15.984 -3.1197  0.5666  1.4807
 2770SOL    HW219770   3.454   2.950  15.871 -1.4741 -0.3247 -0.7505
 2771SOL     OW19771   3.913   1.690   0.394  0.4077 -0.0259  0.4596
 2771SOL    HW119772   3.864   1.749   0.337  2.0900  1.2466  0.3387
 2771SOL    HW219773   3.993   1.741   0.382  2.2469 -2.6200  1.8203
 2772SOL     OW19774   2.813   1.058  14.767  0.3309  0.7593  0.0325
 2772SOL    HW119775   2.833   1.151  14.763  1.9555  0.4155  0.2200
 2772SOL    HW219776   2.718   1.063  14.756  0.2901 -0.0716  0.0026
 2773SOL     OW19777   1.072   0.655   8.370 -0.4386 -0.1616  0.0433
 2773SOL    HW119778   1.126   0.709   8.427  1.0789 -1.8535  0.2103
 2773SOL    HW219779   1.067   0.577   8.426  0.5942  0.1763  0.6152
 2774SOL     OW19780   2.728   0.412  13.734  0.4422  0.0033 -0.4958
 2774SOL    HW119781   2.696   0.479  13.794 -0.0251 -0.8505  0.2022
 2774SOL    HW219782   2.814   0.410  13.775  0.5102 -0.4138 -0.6559
 2775SOL     OW19783   3.717   4.658   1.452  0.0214  0.9176  0.2415
 2775SOL    HW119784   3.679   0.002   1.396 -1.1297  1.4125  1.6202
 2775SOL    HW219785   3.642   4.598   1.453 -0.3948  1.4197 -0.6103
 2776SOL     OW19786   4.270   0.598  12.017  0.4588 -0.2469  0.0776
 2776SOL    HW119787   4.291   0.687  11.987  0.5996 -0.1593  0.4386
 2776SOL    HW219788   4.221   0.620  12.097 -1.0006 -0.3243 -0.7964
 2777SOL     OW19789   2.434   3.990  15.949  0.1020  0.7070 -0.6506
 2777SOL    HW119790   2.483   3.930  15.892 -0.9206 -1.2627  0.5317
 2777SOL    HW219791   2.445   4.069  15.896  1.4573  1.7748  1.2463
 2778SOL     OW19792   2.211   4.364   7.752  0.3018 -0.4604 -0.4610
 2778SOL    HW119793   2.122   4.354   7.718 -0.4950 -1.5432  1.9457
 2778SOL    HW219794   2.262   4.307   7.695  0.5647 -0.1629 -0.5232
 2779SOL     OW19795   2.373   1.019   7.043  0.3553  0.3073 -0.4749
 2779SOL    HW119796   2.408   1.055   7.125 -0.5228  0.4251 -0.1588
 2779SOL    HW219797   2.413   1.082   6.982 -1.2761  1.6244 -0.1843
 2780SOL     OW19798   4.257   3.920   2.778 -0.1186 -0.0364 -0.0822
 2780SOL    HW119799   4.224   3.857   2.842  2.1070  0.9005  1.9851
 2780SOL    HW219800   4.284   3.989   2.838  2.8118 -0.2402 -1.1445
 2781SOL     OW19801   2.971   0.640   6.932  0.3261 -0.0337  0.0581
 2781SOL    HW119802   2.996   0.583   7.005 -0.7954  0.1782  0.6081
 2781SOL    HW219803   2.880   0.659   6.954  0.5973  1.3047  0.0325
 2782SOL     OW19804   2.667   0.877   5.254 -0.4731  0.8110 -0.2019
 2782SOL    HW119805   2.717   0.883   5.173  0.0009  0.3129  0.0468
 2782SOL    HW219806   2.710   0.794   5.279 -1.1968  0.3967 -0.3471
 2783SOL     OW19807   3.079   0.089   1.326  0.2709 -0.4865 -0.2970
 2783SOL    HW119808   3.011   0.026   1.351 -1.4013  1.3242 -0.2652
 2783SOL    HW219809   3.128   0.027   1.272 -0.7029 -0.9173 -0.6856
 2784SOL     OW19810   3.774   2.310   2.816  0.2159 -0.1213  0.5217
 2784SOL    HW119811   3.700   2.279   2.868  1.1397  0.3979  2.1442
 2784SOL    HW219812   3.782   2.233   2.760  1.0953  1.0662 -1.0088
 2785SOL     OW19813   1.486   1.748  17.354  0.1186  0.2725 -0.0291
 2785SOL    HW119814   1.576   1.744  17.385  0.2129 -0.3559 -0.3763
 2785SOL    HW219815   1.484   1.667  17.302  1.9500 -0.0428  0.4138
 2786SOL     OW19816   0.005   3.334   6.716  0.0573 -0.5733 -0.4097
 2786SOL    HW119817   4.708   3.422   6.745 -1.2369 -1.3665  1.0707
 2786SOL    HW219818   0.029   3.306   6.804 -1.7951 -0.5897  0.0748
 2787SOL     OW19819   0.893   1.720   4.856  0.1716 -0.3012 -0.7632
 2787SOL    HW119820   0.799   1.738   4.851 -0.1560 -1.6064  0.5437
 2787SOL    HW219821   0.927   1.755   4.774  0.1162 -1.8201 -1.4497
 2788SOL     OW19822   0.381   3.669   7.399  0.1374 -0.1284  0.2923
 2788SOL    HW119823   0.286   3.672   7.413  0.0673  1.1879 -0.4109
 2788SOL    HW219824   0.395   3.737   7.332 -1.2923  0.9673  1.1093
 2789SOL     OW19825   3.532   1.630  17.011  0.0985  0.0300 -0.0684
 2789SOL    HW119826   3.530   1.688  16.935 -1.3938 -0.9977 -0.8146
 2789SOL    HW219827   3.461   1.672  17.060  0.3619  0.3109  0.0731
 2790SOL     OW19828   4.044   0.030   1.366 -0.3330 -0.3892  1.1213
 2790SOL    HW119829   4.096   0.108   1.386  1.1114 -0.9272 -0.5052
 2790SOL    HW219830   4.025   4.707   1.448  1.4747 -1.7923  0.7217
 2791SOL     OW19831   3.604   4.077  14.285 -0.2467  0.1102  0.0346
 2791SOL    HW119832   3.512   4.091  14.307  0.2238  0.6915  1.6539
 2791SOL    HW219833   3.606   4.060  14.191  1.1814 -1.5804  0.3730
 2792SOL     OW19834   2.958   1.301  13.326 -0.5097  0.1404 -0.2622
 2792SOL    HW119835   3.016   1.331  13.396 -1.5683 -1.6148  1.3703
 2792SOL    HW219836   2.888   1.264  13.381  0.8413 -2.2515 -0.1694
 2793SOL     OW19837   3.005   0.734   1.357 -0.1955 -0.2441 -0.4693
 2793SOL    HW119838   3.096   0.766   1.366 -1.0894  1.6190  2.1058
 2793SOL    HW219839   2.956   0.815   1.371  1.8351  0.8453  0.4237
 2794SOL     OW19840   2.700   3.521   3.901 -0.3224  0.3198 -0.1645
 2794SOL    HW119841   2.643   3.573   3.957  0.0304 -1.4907  1.8997
 2794SOL    HW219842   2.672   3.429   3.907 -1.2069  0.4207 -2.7113
 2795SOL     OW19843   0.267   3.528   6.841  0.0688 -0.2991  0.1324
 2795SOL    HW119844   0.352   3.520   6.798 -0.5541  0.7390 -1.3012
 2795SOL    HW219845   0.279   3.475   6.920  1.9506 -1.1224 -0.7130
 2796SOL     OW19846   0.012   2.009  14.875 -0.3449  0.4382 -0.0799
 2796SOL    HW119847   0.047   2.087  14.833 -0.8880  0.3598 -0.6748
 2796SOL    HW219848   4.643   2.032  14.875 -0.1895  1.0758  1.1664
 2797SOL     OW19849   1.586   2.279   0.749  0.3332  0.1320  0.4392
 2797SOL    HW119850   1.661   2.272   0.808  1.7528  2.2634 -1.1185
 2797SOL    HW219851   1.508   2.285   0.804 -0.3297  0.9027 -0.5984
 2798SOL     OW19852   1.059   0.828  12.837 -0.2336 -0.3719 -0.6710
 2798SOL    HW119853   1.027   0.913  12.805 -2.1268  0.3043  2.9515
 2798SOL    HW219854   1.011   0.824  12.920  2.7846 -0.9519  1.0366
 2799SOL     OW19855   3.826   2.859   9.043 -0.3834 -0.9602 -0.3389
 2799SOL    HW119856   3.822   2.816   8.958  0.1325 -1.3445 -0.1739
 2799SOL    HW219857   3.903   2.813   9.077 -0.3923 -0.0818  0.8831
 2800SOL     OW19858   0.866   3.628   1.174  0.4769 -0.5104  0.1871
 2800SOL    HW119859   0.810   3.694   1.213 -1.0674 -0.5782 -1.8918
 2800SOL    HW219860   0.942   3.622   1.232  0.4405 -0.6605  0.2200
 2801SOL     OW19861   4.515   2.125  16.197 -0.0057 -0.4977  0.4612
 2801SOL    HW119862   4.608   2.151  16.199 -0.0884 -0.1688  0.0885
 2801SOL    HW219863   4.473   2.204  16.232  0.5518 -0.0154  0.0471
 2802SOL     OW19864   1.837   1.530   7.994  0.6597  0.7569 -0.0422
 2802SOL    HW119865   1.777   1.601   7.971  0.7022  0.7494 -0.1760
 2802SOL    HW219866   1.865   1.492   7.911 -1.0917  1.1760 -0.8155
 2803SOL     OW19867   2.416   0.712   5.100  0.0186 -0.2699 -0.2321
 2803SOL    HW119868   2.488   0.737   5.042  0.2541  2.5125  1.3059
 2803SOL    HW219869   2.376   0.640   5.051 -0.4950 -1.2367  1.6052
 2804SOL     OW19870   2.654   4.690   6.654 -0.1464 -0.0920 -0.0606
 2804SOL    HW119871   2.715   0.039   6.640 -0.3953  0.2154  0.4473
 2804SOL    HW219872   2.707   4.610   6.656  1.1816  0.7658 -1.0846
 2805SOL     OW19873   3.440   4.253  13.287  0.0353  0.6659  0.3138
 2805SOL    HW119874   3.363   4.198  13.302 -0.2651  0.9148 -0.2941
 2805SOL    HW219875   3.403   4.321  13.231  0.6456  0.3997 -0.4150
 2806SOL     OW19876   0.954   3.278   6.088 -0.5239  0.1708 -0.0205
 2806SOL    HW119877   1.024   3.236   6.039 -2.2443 -2.3957 -0.3098
 2806SOL    HW219878   0.897   3.202   6.103  1.6762 -1.0125  2.4509
 2807SOL     OW19879   3.013   1.316   9.393  0.3148 -0.3072  0.2179
 2807SOL    HW119880   2.972   1.331   9.308  1.0771  1.0228  0.0956
 2807SOL    HW219881   3.102   1.349   9.380  1.6731 -3.4947  1.3281
 2808SOL     OW19882   3.362   3.724   6.349  0.4159  0.0932 -0.0209
 2808SOL    HW119883   3.328   3.645   6.391  0.2836  1.3500  2.2061
 2808SOL    HW219884   3.399   3.696   6.265  0.1719  1.5862 -0.6307
 2809SOL     OW19885   2.865   1.349  13.081 -0.2492  0.1333  0.3923
 2809SOL    HW119886   2.912   1.346  13.165  0.8730 -0.1089 -0.2447
 2809SOL    HW219887   2.774   1.336  13.105  0.2067 -2.0283  0.9262
 2810SOL     OW19888   3.087   4.159   7.538 -0.1159  0.1699 -0.9082
 2810SOL    HW119889   3.169   4.159   7.588 -0.6690 -1.3923 -0.0012
 2810SOL    HW219890   3.036   4.231   7.574 -2.2416 -1.1814 -1.2021
 2811SOL     OW19891   3.620   0.802  14.015 -0.5031  0.2495  0.2012
 2811SOL    HW119892   3.568   0.853  14.077 -1.4668 -0.1685 -0.2578
 2811SOL    HW219893   3.604   0.857  13.938 -2.1750 -2.4180 -1.3703
 2812SOL     OW19894   4.498   2.148   0.545 -0.7444  0.0285 -0.5725
 2812SOL    HW119895   4.555   2.127   0.618  0.0315 -0.1788 -1.2375
 2812SOL    HW219896   4.456   2.225   0.584  0.9568  1.0163 -0.6877
 2813SOL     OW19897   1.475   2.967  14.937 -0.1764 -0.2724 -0.1788
 2813SOL    HW119898   1.569   2.965  14.957 -0.3343 -1.2387  0.4436
 2813SOL    HW219899   1.453   3.050  14.978 -2.1682 -0.6587 -0.4571
 2814SOL     OW19900   0.913   2.134   3.052  0.1150 -0.8015  0.2492
 2814SOL    HW119901   0.856   2.058   3.069 -2.5907  1.1176 -0.1807
 2814SOL    HW219902   0.882   2.201   3.112 -0.0384 -0.0125 -0.7010
 2815SOL     OW19903   4.073   0.972   3.897  0.3157 -0.1073  0.2046
 2815SOL    HW119904   4.015   0.919   3.952  0.3555 -1.3120 -0.8979
 2815SOL    HW219905   4.146   0.979   3.958 -0.8732 -0.6408  1.6887
 2816SOL     OW19906   2.553   3.240   4.091  0.3461  0.1281 -0.0211
 2816SOL    HW119907   2.463   3.271   4.091 -0.7819 -3.2186 -0.3426
 2816SOL    HW219908   2.589   3.291   4.164  0.4293  1.9442 -1.3434
 2817SOL     OW19909   0.546   4.118   6.046  0.0795 -0.1542 -0.1605
 2817SOL    HW119910   0.486   4.062   6.095 -0.4752  1.0503  0.5393
 2817SOL    HW219911   0.509   4.088   5.963  2.4115  0.2730 -1.3734
 2818SOL     OW19912   3.772   4.394   8.749  0.0486  0.2363  0.1708
 2818SOL    HW119913   3.707   4.396   8.818  1.4000  1.2354  1.4151
 2818SOL    HW219914   3.758   4.476   8.701 -1.2250  1.0713  1.9822
 2819SOL     OW19915   0.732   2.117   9.497  0.2270  0.0044 -0.3627
 2819SOL    HW119916   0.778   2.181   9.443 -0.2036 -0.1363 -0.8893
 2819SOL    HW219917   0.687   2.166   9.566  0.7730  1.8846 -1.3404
 2820SOL     OW19918   4.210   4.523  11.691  0.5415  0.1690  0.0873
 2820SOL    HW119919   4.163   4.543  11.610 -0.5359  0.0800  0.6908
 2820SOL    HW219920   4.302   4.528  11.664 -0.6110 -1.1118 -3.9600
 2821SOL     OW19921   4.405   1.116   2.830  0.4025 -0.4520 -0.0958
 2821SOL    HW119922   4.428   1.165   2.751 -1.3363 -0.4059 -0.5726
 2821SOL    HW219923   4.361   1.039   2.794 -1.2486  0.1965  0.5573
 2822SOL     OW19924   4.395   3.422   2.046 -0.4064  0.3421 -0.1778
 2822SOL    HW119925   4.413   3.493   1.985 -4.1583  0.6170 -0.9629
 2822SOL    HW219926   4.427   3.453   2.131  0.3748  1.4328 -0.8624
 2823SOL     OW19927   0.476   0.268   4.821 -0.2742  0.7330  0.7019
 2823SOL    HW119928   0.539   0.203   4.790 -0.2448  3.1877 -4.3974
 2823SOL    HW219929   0.511   0.299   4.905 -0.8964  0.1942  1.1648
 2824SOL     OW19930   0.496   1.851   3.421 -0.4640 -0.4984 -0.0493
 2824SOL    HW119931   0.436   1.800   3.366  2.2966 -2.7182 -0.9724
 2824SOL    HW219932   0.445   1.856   3.502  2.9340 -0.6120  2.0828
 2825SOL     OW19933   3.311   4.468   6.966  0.2310 -0.3793 -0.3223
 2825SOL    HW119934   3.355   4.414   7.032  0.8619  0.3668 -0.1323
 2825SOL    HW219935   3.219   4.465   6.993  0.8527 -1.0927  1.7911
 2826SOL     OW19936   4.294   0.532  15.324 -0.2365 -0.2169 -0.0013
 2826SOL    HW119937   4.267   0.547  15.414 -2.2403 -2.7768 -0.1788
 2826SOL    HW219938   4.267   0.441  15.313  3.9120 -1.8205  3.1120
 2827SOL     OW19939   2.143   3.557   2.233 -0.6038  0.2444 -0.0951
 2827SOL    HW119940   2.065   3.509   2.260  0.1081 -0.4172  0.7806
 2827SOL    HW219941   2.101   3.603   2.160 -0.3643  0.1995 -0.2620
 2828SOL     OW19942   0.914   0.140   3.655  0.0177  0.5757  0.0859
 2828SOL    HW119943   0.820   0.142   3.637  0.1252  1.3003 -0.3561
 2828SOL    HW219944   0.921   0.194   3.734 -2.6744  1.0241  0.0258
 2829SOL     OW19945   3.710   4.530   8.455 -0.3931 -0.3320  0.2723
 2829SOL    HW119946   3.686   4.443   8.423 -0.0847 -0.8803  1.5155
 2829SOL    HW219947   3.758   4.568   8.382  1.9695  0.3003  2.1517
 2830SOL     OW19948   3.610   2.452   5.463  0.6850 -0.3491 -0.7558
 2830SOL    HW119949   3.680   2.458   5.527 -0.2339 -0.9250  0.2921
 2830SOL    HW219950   3.593   2.357   5.467 -0.2098 -0.1588 -0.0088
 2831SOL     OW19951   1.222   0.256   8.785 -0.0868  0.2691  0.8826
 2831SOL    HW119952   1.196   0.348   8.786 -1.2905 -0.0673 -0.0464
 2831SOL    HW219953   1.311   0.277   8.813 -0.4063 -2.3988  4.0461
 2832SOL     OW19954   1.491   3.238   1.595 -0.1951 -0.1540 -0.0701
 2832SOL    HW119955   1.549   3.312   1.613  2.9352 -1.9835 -2.7880
 2832SOL    HW219956   1.425   3.288   1.546 -0.3248  0.3450  0.6093
 2833SOL     OW19957   1.447   2.556   7.478  0.1238  0.2440  0.6321
 2833SOL    HW119958   1.528   2.546   7.427 -0.5914 -0.3564 -0.3741
 2833SOL    HW219959   1.473   2.632   7.531 -1.5295 -0.0782  1.9158
 2834SOL     OW19960   2.090   0.477   7.622  0.4875  0.0821  0.3412
 2834SOL    HW119961   2.030   0.456   7.693 -1.4424 -0.2604 -1.3829
 2834SOL    HW219962   2.106   0.572   7.618  0.8948  0.0813  2.1893
 2835SOL     OW19963   2.521   1.213   5.533 -0.4761  0.3020 -0.1764
 2835SOL    HW119964   2.514   1.118   5.524  1.5990  0.1309 -0.1192
 2835SOL    HW219965   2.550   1.221   5.624  2.2081 -0.9623 -0.9078
 2836SOL     OW19966   2.310   2.914  11.986  0.1912  0.5505  0.2251
 2836SOL    HW119967   2.327   2.820  11.975 -1.1363 -0.0430  3.1119
 2836SOL    HW219968   2.386   2.960  11.952 -0.1827 -0.4419 -1.9269
 2837SOL     OW19969   3.875   3.146   4.429  0.0437  0.2939  0.1923
 2837SOL    HW119970   3.869   3.107   4.517 -3.0676 -1.9446 -1.0161
 2837SOL    HW219971   3.801   3.105   4.385  1.1592 -1.6122  0.0817
 2838SOL     OW19972   4.495   2.948   8.093  0.7226  0.3981  0.5375
 2838SOL    HW119973   4.476   2.965   8.186  0.8081  1.6492  0.3285
 2838SOL    HW219974   4.561   2.881   8.111  0.1889 -0.4813 -0.8659
 2839SOL     OW19975   2.833   2.192  12.888 -0.0911  0.2757 -0.3788
 2839SOL    HW119976   2.753   2.141  12.889  2.2503 -3.4295 -0.7602
 2839SOL    HW219977   2.861   2.192  12.797 -2.1896 -1.0094 -1.0163
 2840SOL     OW19978   0.693   0.520  12.790 -0.2666 -0.2252  0.0394
 2840SOL    HW119979   0.747   0.575  12.734  0.4863 -1.4023 -0.3946
 2840SOL    HW219980   0.673   0.458  12.720  0.6288  1.4124 -1.6549
 2841SOL     OW19981   3.110   2.825   5.174 -0.1764 -0.6143 -1.1459
 2841SOL    HW119982   3.139   2.734   5.172 -2.9496 -1.5767  2.7493
 2841SOL    HW219983   3.151   2.852   5.256  0.1099 -1.9216 -0.8574
 2842SOL     OW19984   3.449   0.132   1.120 -0.1411  0.0575  0.0340
 2842SOL    HW119985   3.459   0.080   1.200 -3.3213 -0.3548  0.1675
 2842SOL    HW219986   3.476   0.069   1.053 -1.6313 -3.1598  2.4280
 2843SOL     OW19987   2.739   1.955   5.441  0.6265 -0.4399  0.6841
 2843SOL    HW119988   2.826   1.996   5.438 -0.6018  2.1481 -0.0412
 2843SOL    HW219989   2.731   1.912   5.356 -2.4942  1.9402 -0.2161
 2844SOL     OW19990   1.568   0.052  14.991 -0.8253 -0.4040 -0.1408
 2844SOL    HW119991   1.490   0.066  15.044 -1.7898  1.0083 -1.9363
 2844SOL    HW219992   1.569   4.680  14.997  1.3311 -0.3139  0.9512
 2845SOL     OW19993   3.919   1.835   5.672  0.3962 -0.4932 -0.3072
 2845SOL    HW119994   3.951   1.879   5.593 -1.6564  0.9924 -0.3100
 2845SOL    HW219995   3.877   1.909   5.716 -0.2417 -1.2748  0.3949
 2846SOL     OW19996   3.112   0.980  16.287  0.4006  0.1808  0.7592
 2846SOL    HW119997   3.062   0.898  16.285 -1.0026  1.0619 -0.3894
 2846SOL    HW219998   3.076   1.019  16.367 -1.0821 -0.1386  0.2551
 2847SOL     OW19999   3.405   3.291   7.056  0.1396 -0.2131  0.6050
 2847SOL    HW120000   3.451   3.370   7.084 -1.2176  0.5205  0.7253
 2847SOL    HW220001   3.328   3.294   7.111  0.7566 -0.0039  1.4593
 2848SOL     OW20002   3.717   3.376   7.081 -0.4175 -0.1759 -0.3450
 2848SOL    HW120003   3.739   3.469   7.087 -1.8315  0.2800 -2.1356
 2848SOL    HW220004   3.648   3.372   7.148  0.8770 -0.3645  0.9719
 2849SOL     OW20005   1.015   3.732  10.431 -0.2285 -0.2935  0.0561
 2849SOL    HW120006   1.028   3.676  10.355 -1.7012  0.0187 -0.4131
 2849SOL    HW220007   1.053   3.815  10.401 -1.0762  0.1609  0.2483
 2850SOL     OW20008   2.051   2.156   6.657  0.7542 -0.8493  0.0581
 2850SOL    HW120009   2.042   2.100   6.580 -0.6088 -1.8500  0.9411
 2850SOL    HW220010   1.967   2.200   6.673  1.5019  0.3009  0.7737
 2851SOL     OW20011   0.492   2.579   6.974  0.0829 -0.3532 -0.2605
 2851SOL    HW120012   0.527   2.608   7.058 -0.1712 -0.2619 -0.1867
 2851SOL    HW220013   0.526   2.650   6.920 -0.1994 -0.3165 -0.3918
 2852SOL     OW20014   0.339   1.685   7.109  0.2384 -0.4150 -0.8586
 2852SOL    HW120015   0.327   1.595   7.079  2.2474 -1.2966  0.9921
 2852SOL    HW220016   0.264   1.705   7.166  0.9609 -3.8515  1.2849
 2853SOL     OW20017   3.986   2.815   4.227  0.5627 -0.4029 -0.0109
 2853SOL    HW120018   3.963   2.771   4.309 -0.7191  0.2716 -0.0029
 2853SOL    HW220019   3.900   2.855   4.214  0.7656  0.0022 -0.1099
 2854SOL     OW20020   3.930   3.031   9.968  0.1976 -0.2437  0.0808
 2854SOL    HW120021   3.995   3.030  10.039 -0.0974  1.2569  0.3726
 2854SOL    HW220022   3.953   3.119   9.937 -0.8031 -0.2942 -0.8045
 2855SOL     OW20023   3.924   0.540   6.436  0.0980  0.3168 -0.3610
 2855SOL    HW120024   3.937   0.596   6.359 -1.4146 -0.8801 -1.4950
 2855SOL    HW220025   3.989   0.577   6.496  2.4104 -1.2360 -1.9166
 2856SOL     OW20026   1.592   1.914   7.474  0.5470  0.5095  0.4512
 2856SOL    HW120027   1.665   1.974   7.459  0.0661  0.4377 -2.1631
 2856SOL    HW220028   1.587   1.924   7.569 -1.8142 -1.7809  0.5750
 2857SOL     OW20029   2.195   0.518   3.958 -0.3933  0.1273 -0.1458
 2857SOL    HW120030   2.201   0.474   3.873 -1.8632 -3.7435  1.7457
 2857SOL    HW220031   2.224   0.608   3.945  0.0691 -0.2801 -1.9739
 2858SOL     OW20032   2.891   3.306   3.935 -0.8246 -0.1404 -0.4005
 2858SOL    HW120033   2.986   3.305   3.946 -0.7575  0.8176 -0.9105
 2858SOL    HW220034   2.885   3.309   3.840  1.8808  0.8703 -0.5252
 2859SOL     OW20035   0.784   1.813  17.233  0.4478 -0.0036 -0.0663
 2859SOL    HW120036   0.844   1.741  17.252 -0.1927 -0.1136  1.4959
 2859SOL    HW220037   0.712   1.789  17.290 -0.1636 -0.4817 -1.0424
 2860SOL     OW20038   2.930   3.739   1.959 -0.0401 -0.1314 -0.3382
 2860SOL    HW120039   2.937   3.826   1.919 -1.1205  0.4839  0.8022
 2860SOL    HW220040   2.839   3.717   1.940  0.3433  0.9643 -3.3911
 2861SOL     OW20041   0.145   4.572   5.774 -0.0932  0.1545 -0.1911
 2861SOL    HW120042   0.119   4.662   5.794 -1.1474 -0.4805  1.3360
 2861SOL    HW220043   0.215   4.589   5.711 -1.5722 -0.8800 -2.1104
 2862SOL     OW20044   1.272   4.481  16.452  0.0208 -0.1151  0.4493
 2862SOL    HW120045   1.198   4.541  16.440 -0.2379 -0.7404 -1.0187
 2862SOL    HW220046   1.325   4.516  16.381  0.4345 -0.5046  0.5617
 2863SOL     OW20047   1.662   2.698   9.564  0.3320  0.3402  0.6731
 2863SOL    HW120048   1.683   2.672   9.654  2.0349 -1.3229 -0.2227
 2863SOL    HW220049   1.747   2.678   9.525  0.6401  1.2494  0.8622
 2864SOL     OW20050   1.773   3.366   3.527 -0.0806 -0.5232 -0.4382
 2864SOL    HW120051   1.684   3.334   3.542  0.2897 -1.8384 -1.0767
 2864SOL    HW220052   1.813   3.374   3.613  0.7515  0.2025 -0.8894
 2865SOL     OW20053   0.568   4.404  12.140  0.2804  0.0520  0.0957
 2865SOL    HW120054   0.537   4.469  12.203  0.0161 -0.5971  0.6370
 2865SOL    HW220055   0.567   4.460  12.062 -1.2043 -0.0475  0.0602
 2866SOL     OW20056   2.648   2.372   2.562  0.2273 -0.6271  0.0014
 2866SOL    HW120057   2.720   2.397   2.504 -0.7661  2.2150 -0.0030
 2866SOL    HW220058   2.605   2.315   2.498 -1.1942  1.9007 -1.2644
 2867SOL     OW20059   1.508   4.592   7.738  0.3580 -0.3746  0.5718
 2867SOL    HW120060   1.458   4.585   7.819 -0.3106 -0.6784  0.1265
 2867SOL    HW220061   1.598   4.596   7.772  0.8085  0.6643 -0.7559
 2868SOL     OW20062   1.010   0.207   0.331  0.2544 -0.1248  0.0335
 2868SOL    HW120063   0.986   0.261   0.255 -1.7216 -0.2575  0.5772
 2868SOL    HW220064   1.092   0.248   0.359 -0.4048  0.8996  0.4339
 2869SOL     OW20065   1.090   0.767  13.240  0.2706  0.1514  0.6924
 2869SOL    HW120066   1.046   0.822  13.176  2.8434 -1.7994 -2.7500
 2869SOL    HW220067   1.106   0.830  13.311  1.0446  0.2304  0.4419
 2870SOL     OW20068   0.239   1.126   3.918 -0.0078 -0.2399  0.0451
 2870SOL    HW120069   0.185   1.190   3.872 -0.9059 -0.6017  0.5974
 2870SOL    HW220070   0.236   1.047   3.864  1.8586 -0.9076  0.9048
 2871SOL     OW20071   1.484   0.224   6.390 -0.1655 -0.3372 -0.0291
 2871SOL    HW120072   1.473   0.166   6.465 -0.8451  1.3706  1.2033
 2871SOL    HW220073   1.508   0.166   6.318  0.3444  1.5867 -1.4241
 2872SOL     OW20074   2.815   2.470   2.229  0.6610 -0.1960 -0.2392
 2872SOL    HW120075   2.868   2.474   2.150  2.0450 -0.5562  0.6833
 2872SOL    HW220076   2.749   2.405   2.203 -1.2587  0.6327  2.4772
 2873SOL     OW20077   2.028   0.818   8.364  0.0401 -0.0954 -0.5731
 2873SOL    HW120078   2.112   0.828   8.319 -0.3603 -1.0145 -1.5160
 2873SOL    HW220079   1.988   0.901   8.336  0.8547  1.1458  1.9265
 2874SOL     OW20080   3.724   4.358   7.693  0.3086  0.3373  0.0046
 2874SOL    HW120081   3.678   4.360   7.609 -1.3394 -0.6631  0.8790
 2874SOL    HW220082   3.812   4.342   7.658  0.3437  0.8762 -0.1563
 2875SOL     OW20083   3.849   4.322  12.539 -0.3602  0.6918 -0.2741
 2875SOL    HW120084   3.845   4.353  12.449  0.8357 -0.4883 -0.7275
 2875SOL    HW220085   3.890   4.399  12.579  0.6008  1.0755 -2.0095
 2876SOL     OW20086   2.703   1.125   3.607  0.1351  0.1320 -0.6531
 2876SOL    HW120087   2.773   1.102   3.546 -1.3682 -0.9472 -1.9436
 2876SOL    HW220088   2.679   1.039   3.642  0.1103 -0.5447 -2.3530
 2877SOL     OW20089   3.779   2.506   2.656  0.2620  0.2031  0.3539
 2877SOL    HW120090   3.872   2.524   2.642  0.3081  0.9703  1.5909
 2877SOL    HW220091   3.777   2.443   2.728 -1.8413  0.9253  0.9495
 2878SOL     OW20092   4.429   1.499   4.035 -0.6104  0.9540  0.7525
 2878SOL    HW120093   4.433   1.407   4.059  0.8776  0.5495 -1.0843
 2878SOL    HW220094   4.417   1.536   4.123  1.3778 -0.5992  1.6790
 2879SOL     OW20095   0.694   3.774   1.891 -0.0797  0.1004  0.2590
 2879SOL    HW120096   0.742   3.800   1.969  0.5647 -2.3477  0.6752
 2879SOL    HW220097   0.664   3.690   1.925  0.9087 -0.2154  0.3626
 2880SOL     OW20098   1.154   0.985   7.830 -0.3022 -0.5880 -0.2864
 2880SOL    HW120099   1.247   0.974   7.808 -0.5913  0.5509 -2.0825
 2880SOL    HW220100   1.108   0.994   7.747 -0.2431  1.7089 -0.0814
 2881SOL     OW20101   0.742   2.084   0.890 -0.1970 -0.6543 -0.6393
 2881SOL    HW120102   0.756   1.990   0.890 -3.5024 -1.1482 -2.1555
 2881SOL    HW220103   0.820   2.125   0.930 -0.5991  0.9873 -1.5333
 2882SOL     OW20104   4.186   3.304  16.619  0.0098 -0.4272  0.6357
 2882SOL    HW120105   4.190   3.302  16.524 -0.6770  0.0303  0.5938
 2882SOL    HW220106   4.092   3.283  16.616  0.4542 -2.0681 -1.5921
 2883SOL     OW20107   1.528   1.841   5.844  0.4891 -0.1919  0.1048
 2883SOL    HW120108   1.534   1.865   5.751 -0.1679 -0.4278  0.0045
 2883SOL    HW220109   1.497   1.753   5.823  0.6758 -0.6919  1.9690
 2884SOL     OW20110   1.012   2.193  13.659  0.0967  0.4271  0.8754
 2884SOL    HW120111   0.976   2.180  13.747  1.7952  0.8244  1.6342
 2884SOL    HW220112   1.079   2.260  13.674 -1.6141  2.5331 -0.8414
 2885SOL     OW20113   3.309   0.638  16.894 -0.1353  0.6341 -0.1880
 2885SOL    HW120114   3.339   0.729  16.895  1.9877 -0.0348 -1.0851
 2885SOL    HW220115   3.351   0.621  16.809  1.2423 -0.3637  0.6743
 2886SOL     OW20116   4.648   4.306  11.551 -0.5220 -0.4376  0.4130
 2886SOL    HW120117   4.619   4.219  11.578 -1.6132 -0.0252  0.5856
 2886SOL    HW220118   4.702   4.278  11.477  1.0289  0.7448  1.0972
 2887SOL     OW20119   4.617   2.769   3.119 -0.5793  0.4243  0.5461
 2887SOL    HW120120   4.678   2.707   3.158  0.7297  1.0083 -0.5429
 2887SOL    HW220121   4.668   2.849   3.132  2.1499 -1.0821 -0.9634
 2888SOL     OW20122   3.936   4.643   3.343  0.2001  0.0818  0.4043
 2888SOL    HW120123   3.976   4.718   3.299 -1.2941  1.9886  2.3607
 2888SOL    HW220124   3.956   4.669   3.433  1.0611 -0.2628  0.3157
 2889SOL     OW20125   1.813   2.176   5.514 -0.3218 -0.2889 -0.4876
 2889SOL    HW120126   1.822   2.193   5.608 -0.3692 -1.8480 -0.1859
 2889SOL    HW220127   1.895   2.137   5.482  1.3373  0.0198  3.2671
 2890SOL     OW20128   2.831   1.715   1.464 -0.3388 -0.0101  0.3722
 2890SOL    HW120129   2.865   1.735   1.377 -2.0857  1.7429  0.0996
 2890SOL    HW220130   2.897   1.766   1.511  1.3645 -1.6048 -0.2848
 2891SOL     OW20131   2.094   4.537  16.521 -0.5988  0.1711 -0.8024
 2891SOL    HW120132   2.163   4.541  16.588  0.2386 -0.5036 -1.6224
 2891SOL    HW220133   2.018   4.533  16.579 -0.6242  1.9797 -0.7179
 2892SOL     OW20134   0.512   2.315   6.976  0.4517  0.0711 -0.3896
 2892SOL    HW120135   0.549   2.308   6.888  1.1563 -0.8494 -0.0118
 2892SOL    HW220136   0.482   2.406   6.982  0.7201  0.1171  0.2839
 2893SOL     OW20137   2.832   1.639   2.864  0.7024 -0.1608  0.0821
 2893SOL    HW120138   2.882   1.559   2.847 -1.5777 -1.1908 -1.9977
 2893SOL    HW220139   2.878   1.668   2.942  1.1717 -2.0467  0.5046
 2894SOL     OW20140   3.020   1.188  12.877 -0.1420 -1.0696 -0.2096
 2894SOL    HW120141   3.021   1.242  12.798  1.1606  2.1089  1.9637
 2894SOL    HW220142   2.934   1.203  12.917 -0.2597 -1.0445 -0.4717
 2895SOL     OW20143   2.213   4.483  10.880 -0.3967  0.5430 -0.0669
 2895SOL    HW120144   2.176   4.433  10.807 -0.8848 -0.3007  0.7505
 2895SOL    HW220145   2.179   4.426  10.949 -0.3476  0.0984 -0.4053
 2896SOL     OW20146   3.680   4.159   2.973 -0.5347 -0.1332  0.5257
 2896SOL    HW120147   3.667   4.131   3.064 -0.2423 -1.6380  0.0943
 2896SOL    HW220148   3.767   4.199   2.976  0.6573 -2.8203  2.0472
 2897SOL     OW20149   3.433   2.466   2.857  0.2606 -0.2496  0.0410
 2897SOL    HW120150   3.362   2.408   2.830  0.3612 -0.7758  0.8944
 2897SOL    HW220151   3.467   2.504   2.776 -0.2448  0.5086  0.1862
 2898SOL     OW20152   4.634   1.500   8.249  0.2476  0.0081  0.4108
 2898SOL    HW120153   4.554   1.531   8.208 -0.2096 -0.9006  0.6270
 2898SOL    HW220154   4.685   1.486   8.169 -0.4686  1.4977 -0.2968
 2899SOL     OW20155   0.721   1.168   6.763  0.7035 -0.3627 -0.0364
 2899SOL    HW120156   0.809   1.132   6.776 -0.3773 -2.6899  0.9609
 2899SOL    HW220157   0.690   1.132   6.679 -3.6558  2.9266  0.2032
 2900SOL     OW20158   4.589   2.593   8.660 -0.1826  0.3712 -0.1084
 2900SOL    HW120159   4.523   2.537   8.619  0.6777 -1.1541  0.6315
 2900SOL    HW220160   4.611   2.559   8.746  0.1267  0.7748 -0.0270
 2901SOL     OW20161   3.792   3.262   3.956  0.9039  0.1054 -0.0521
 2901SOL    HW120162   3.871   3.293   3.912  0.8038  0.1012 -0.2376
 2901SOL    HW220163   3.766   3.340   4.005  0.7125 -0.1135  0.1977
 2902SOL     OW20164   0.229   2.777   6.883 -0.0988  0.0559  0.0467
 2902SOL    HW120165   0.239   2.719   6.959  2.5011  1.4225  0.7293
 2902SOL    HW220166   0.177   2.843   6.928 -0.8406 -0.7679  0.4019
 2903SOL     OW20167   4.546   1.629   7.702 -0.4953  0.3936 -0.1222
 2903SOL    HW120168   4.468   1.579   7.679 -0.0830 -0.1168 -0.4008
 2903SOL    HW220169   4.586   1.572   7.768  1.4805  0.2334 -1.4664
 2904SOL     OW20170   1.310   3.607  12.046 -0.2028 -0.3001  0.0328
 2904SOL    HW120171   1.286   3.652  11.965  0.8807  1.6977  0.8347
 2904SOL    HW220172   1.329   3.517  12.017  2.4716 -1.0704  4.1973
 2905SOL     OW20173   4.560   0.175   8.824 -0.0030 -0.0678  0.4904
 2905SOL    HW120174   4.578   0.267   8.846 -0.5413  0.7881 -2.5609
 2905SOL    HW220175   4.639   0.129   8.851 -0.8893  0.0864  3.3057
 2906SOL     OW20176   1.951   4.269  16.365 -0.7780  0.0218  0.9727
 2906SOL    HW120177   2.030   4.234  16.406 -0.9136 -0.5132  0.7861
 2906SOL    HW220178   1.913   4.193  16.320 -0.9154 -1.3993  3.4574
 2907SOL     OW20179   2.069   2.570  14.845  0.2696  0.6018 -0.3578
 2907SOL    HW120180   2.092   2.652  14.801  0.7221 -0.1501 -1.5021
 2907SOL    HW220181   2.013   2.526  14.781  2.6680 -0.2169 -1.8549
 2908SOL     OW20182   3.732   1.560  14.861 -0.6578  0.1663  0.0508
 2908SOL    HW120183   3.658   1.614  14.886  1.2825  3.6354 -1.7326
 2908SOL    HW220184   3.727   1.490  14.927 -0.3829 -2.0321 -2.2716
 2909SOL     OW20185   0.518   4.557   4.472  0.3931  0.3392 -0.1999
 2909SOL    HW120186   0.549   4.488   4.530 -0.2468 -0.5199 -0.8756
 2909SOL    HW220187   0.529   4.505   4.392 -1.5627  1.3924 -1.1648
 2910SOL     OW20188   1.306   1.723   3.294  0.4503 -0.2181  0.3482
 2910SOL    HW120189   1.305   1.734   3.389  0.2512 -1.4022  0.4724
 2910SOL    HW220190   1.229   1.778   3.279 -0.0350 -1.2359 -0.7880
 2911SOL     OW20191   1.074   0.973   7.561 -0.2097 -0.6038 -0.3013
 2911SOL    HW120192   1.148   0.986   7.502 -0.4181 -0.2290 -0.4769
 2911SOL    HW220193   1.055   0.879   7.560  0.2262 -0.6799 -1.6590
 2912SOL     OW20194   1.949   4.183   4.599  0.4633 -0.0629  0.3602
 2912SOL    HW120195   1.895   4.223   4.667  1.1540 -1.5578  1.7697
 2912SOL    HW220196   1.944   4.256   4.536  0.6479 -0.8077 -0.5241
 2913SOL     OW20197   1.366   1.738   0.138  0.7704  0.5682  0.1467
 2913SOL    HW120198   1.386   1.771   0.226  1.2105  1.3234 -0.2338
 2913SOL    HW220199   1.322   1.812   0.096  0.1873 -0.3471 -0.8216
 2914SOL     OW20200   0.709   3.491   4.940 -0.2593 -0.4479 -0.0043
 2914SOL    HW120201   0.750   3.544   4.872  0.1596  0.1783  0.7326
 2914SOL    HW220202   0.672   3.549   5.007  0.7294 -0.8762  0.9069
 2915SOL     OW20203   1.805   2.205  14.812  0.1526  0.1743  0.2512
 2915SOL    HW120204   1.756   2.276  14.854  2.1894  2.0758 -0.6223
 2915SOL    HW220205   1.735   2.176  14.754  0.4161  0.2173 -0.0877
 2916SOL     OW20206   2.602   3.110   4.499  0.6181 -0.0883  0.3760
 2916SOL    HW120207   2.508   3.113   4.519  0.7970  2.5264  0.9269
 2916SOL    HW220208   2.602   3.051   4.424 -0.0482 -0.0344  0.3321
 2917SOL     OW20209   1.106   3.469   9.122 -0.1206 -0.1701 -0.3543
 2917SOL    HW120210   1.184   3.440   9.076  0.5908  2.3809 -0.7612
 2917SOL    HW220211   1.138   3.540   9.178  0.4829  0.8520 -1.9870
 2918SOL     OW20212   1.535   0.209  16.668 -0.0047  0.4475  0.3724
 2918SOL    HW120213   1.511   0.193  16.759 -1.2182 -1.5874 -0.3007
 2918SOL    HW220214   1.572   0.297  16.659 -2.4600  1.4485 -0.0266
 2919SOL     OW20215   1.838   3.084  12.291 -0.3289 -0.4048  0.0901
 2919SOL    HW120216   1.894   3.160  12.276 -1.6440  0.7262  0.9302
 2919SOL    HW220217   1.903   3.038  12.343 -0.7757 -0.7850  0.3006
 2920SOL     OW20218   3.837   2.357   9.833  0.0864  0.0274 -0.2992
 2920SOL    HW120219   3.819   2.265   9.853  0.5460  0.2854  1.3383
 2920SOL    HW220220   3.915   2.353   9.778 -1.0048  0.2875 -1.8752
 2921SOL     OW20221   1.606   3.949  14.809 -0.4269 -0.3113 -0.2346
 2921SOL    HW120222   1.658   3.950  14.728  0.3489 -2.5585  0.2276
 2921SOL    HW220223   1.668   3.974  14.877 -1.5741 -1.0041  1.0642
 2922SOL     OW20224   3.853   4.543   2.220  0.4627  0.3905  0.3582
 2922SOL    HW120225   3.941   4.506   2.210 -0.6698 -1.3577 -3.1797
 2922SOL    HW220226   3.826   4.546   2.128  0.9752 -0.1651  0.1876
 2923SOL     OW20227   1.277   4.306  10.605 -0.7850  0.4070  0.0227
 2923SOL    HW120228   1.326   4.385  10.628 -2.3554  0.6708  2.4092
 2923SOL    HW220229   1.256   4.272  10.692  0.1881  0.5482  0.3200
 2924SOL     OW20230   0.402   0.587   2.884  0.2818  0.0636 -0.3274
 2924SOL    HW120231   0.368   0.523   2.822  1.2188 -0.6912 -0.0543
 2924SOL    HW220232   0.487   0.547   2.902  0.0513 -0.7486 -1.0180
 2925SOL     OW20233   0.831   0.388  10.202  0.2495  0.1252  0.1889
 2925SOL    HW120234   0.794   0.356  10.120  0.1100 -0.3289  0.4287
 2925SOL    HW220235   0.921   0.408  10.176  0.9441 -2.2845  0.7076
 2926SOL     OW20236   3.535   3.427   6.170  0.0501  0.5365  0.1307
 2926SOL    HW120237   3.479   3.383   6.235 -0.0750  1.0891  0.3979
 2926SOL    HW220238   3.610   3.465   6.216  1.3550 -0.0752 -1.4947
 2927SOL     OW20239   2.017   0.042  15.377 -0.1728 -0.5978 -0.3675
 2927SOL    HW120240   1.928   0.044  15.344 -0.6693 -0.5509  0.9658
 2927SOL    HW220241   2.055   0.126  15.349  0.0012 -1.0832 -1.5926
 2928SOL     OW20242   0.852   4.148   4.826  0.4781 -0.0374  0.7440
 2928SOL    HW120243   0.927   4.158   4.768  0.7998 -1.1669  0.9658
 2928SOL    HW220244   0.810   4.073   4.785  0.0621  0.6561 -0.0939
 2929SOL     OW20245   3.964   0.037   4.548 -0.1023  0.2403  0.0465
 2929SOL    HW120246   3.976   4.713   4.465 -1.2595  2.2523 -1.2794
 2929SOL    HW220247   4.025   4.710   4.601  0.3062 -0.2608 -0.8902
 2930SOL     OW20248   2.390   2.110   4.725  0.6945  0.0890 -0.6353
 2930SOL    HW120249   2.398   2.191   4.675  0.0395 -1.1159 -2.7135
 2930SOL    HW220250   2.322   2.127   4.790 -0.6198 -0.8020 -1.7755
 2931SOL     OW20251   0.571   3.575   3.669  0.6038  0.0461 -0.4977
 2931SOL    HW120252   0.604   3.657   3.632  1.0165  0.2901  0.4220
 2931SOL    HW220253   0.638   3.565   3.737  0.4269 -5.6144 -1.1604
 2932SOL     OW20254   0.212   2.016   0.744 -0.1829  0.1105 -0.1779
 2932SOL    HW120255   0.224   2.086   0.808  0.6882  0.5457 -0.8122
 2932SOL    HW220256   0.254   1.941   0.786 -0.1078 -0.0163 -0.4788
 2933SOL     OW20257   2.923   4.013   4.647 -0.2179  0.6386  0.3569
 2933SOL    HW120258   2.874   4.031   4.567 -0.4488 -1.3048  0.0592
 2933SOL    HW220259   2.906   3.920   4.662 -1.5200  1.1650  2.1615
 2934SOL     OW20260   1.206   3.059   8.371 -0.1940  0.1266 -0.3975
 2934SOL    HW120261   1.122   3.019   8.347 -1.2107  1.8666  0.2515
 2934SOL    HW220262   1.258   3.031   8.296 -0.6372  2.1691 -1.4710
 2935SOL     OW20263   0.482   0.621  12.343 -0.3526  0.0144 -0.0627
 2935SOL    HW120264   0.517   0.643  12.256  2.7063 -0.5704  1.0301
 2935SOL    HW220265   0.413   0.566  12.306  0.7592 -2.3100  1.3949
 2936SOL     OW20266   3.034   0.238   3.467  0.1231 -0.3631 -0.0786
 2936SOL    HW120267   3.119   0.202   3.490  1.0729  0.4520 -2.3847
 2936SOL    HW220268   3.008   0.274   3.553  0.7339 -1.1954  0.4506
 2937SOL     OW20269   0.103   3.779  12.218  0.3065  0.4588  0.4170
 2937SOL    HW120270   0.115   3.752  12.309 -0.1789  1.8276  0.8846
 2937SOL    HW220271   0.182   3.832  12.205 -0.6464  2.2979  2.1552
 2938SOL     OW20272   1.869   2.510   7.854  0.1133 -0.2004 -0.4282
 2938SOL    HW120273   1.963   2.526   7.847  0.0808 -0.4118 -1.3551
 2938SOL    HW220274   1.851   2.510   7.760 -2.8162 -1.2396  0.1224
 2939SOL     OW20275   1.345   0.840   3.372  0.0273  0.2772 -1.1007
 2939SOL    HW120276   1.312   0.800   3.291  1.6096  1.7476 -2.4709
 2939SOL    HW220277   1.421   0.786   3.392  0.2574  1.8495  2.4154
 2940SOL     OW20278   0.752   1.972   8.708 -0.1924 -0.1554 -0.0484
 2940SOL    HW120279   0.660   1.969   8.681 -0.1988 -2.5759  0.1903
 2940SOL    HW220280   0.781   1.887   8.676 -1.6894 -1.1705  1.2445
 2941SOL     OW20281   2.536   4.145  16.210 -0.4097  0.0180  0.2687
 2941SOL    HW120282   2.485   4.162  16.290 -0.8095  3.1194 -0.6521
 2941SOL    HW220283   2.615   4.105  16.246 -0.5913 -1.8507 -1.4296
 2942SOL     OW20284   2.970   4.423   2.311 -0.2323  0.0588 -0.1950
 2942SOL    HW120285   2.931   4.355   2.366 -2.1086  1.3274  0.0152
 2942SOL    HW220286   2.983   4.375   2.229  0.8184  1.8428 -1.0654
 2943SOL     OW20287   0.588   1.502   6.455 -0.1511  0.2654 -0.3918
 2943SOL    HW120288   0.639   1.582   6.443  0.0670  0.0409 -0.9947
 2943SOL    HW220289   0.648   1.444   6.502 -1.0614 -0.9897 -0.7870
 2944SOL     OW20290   1.677   0.101   8.996 -0.6104  0.1110  0.2466
 2944SOL    HW120291   1.601   0.138   9.041 -0.7588 -0.0894  0.1581
 2944SOL    HW220292   1.643   0.032   8.939  1.0669 -0.3822 -0.1504
 2945SOL     OW20293   4.708   4.404  10.453  0.1358 -0.2049 -0.2989
 2945SOL    HW120294   0.073   4.371  10.468 -0.6090 -1.9228  0.2103
 2945SOL    HW220295   0.012   4.496  10.451 -0.3635 -0.0670 -1.0611
 2946SOL     OW20296   2.126   2.537   7.785 -0.2143 -0.1353  0.3631
 2946SOL    HW120297   2.109   2.462   7.729  0.4365 -1.0345  1.3811
 2946SOL    HW220298   2.189   2.582   7.728 -2.0884 -1.1795 -2.5005
 2947SOL     OW20299   3.791   1.039   2.823  0.0786  0.1757 -0.0294
 2947SOL    HW120300   3.874   1.014   2.863  0.1464 -0.8590 -0.8104
 2947SOL    HW220301   3.803   1.014   2.731 -2.2068 -0.4187 -0.1648
 2948SOL     OW20302   3.816   1.929   1.340 -0.4071 -0.0566  0.3022
 2948SOL    HW120303   3.729   1.970   1.343 -0.1227  0.5454  0.3208
 2948SOL    HW220304   3.810   1.868   1.413 -0.7753 -0.4149 -0.0325
 2949SOL     OW20305   0.467   1.010  17.158  0.2741  0.0020  0.3701
 2949SOL    HW120306   0.405   1.071  17.119  1.7806  1.8122  0.7698
 2949SOL    HW220307   0.520   0.987  17.081 -1.3137 -1.5240 -0.2516
 2950SOL     OW20308   3.608   2.002  14.952 -0.2035  0.6687  0.3128
 2950SOL    HW120309   3.526   1.965  14.919  1.6690 -1.9250 -1.4007
 2950SOL    HW220310   3.664   1.945  14.900 -3.1333 -1.4022 -0.5942
 2951SOL     OW20311   2.270   1.020  11.267 -0.4833  0.2232  0.4067
 2951SOL    HW120312   2.281   1.048  11.359 -0.7708 -0.6079  0.6915
 2951SOL    HW220313   2.290   0.927  11.276  1.7039  0.8105  1.5811
 2952SOL     OW20314   3.219   2.157  11.602 -0.2105 -0.2416 -0.1988
 2952SOL    HW120315   3.239   2.237  11.650  0.9584 -1.7082  1.7688
 2952SOL    HW220316   3.262   2.083  11.645 -2.0963 -1.2209  0.0074
 2953SOL     OW20317   1.370   1.358   6.487 -0.0111 -0.3262 -0.3428
 2953SOL    HW120318   1.290   1.314   6.458 -0.7833  0.3583  0.7291
 2953SOL    HW220319   1.342   1.446   6.514 -1.7331 -0.6076 -1.2102
 2954SOL     OW20320   3.254   3.183   3.801  0.1707 -0.2972  0.5219
 2954SOL    HW120321   3.264   3.212   3.711 -2.7447  1.1108  0.6405
 2954SOL    HW220322   3.344   3.175   3.832  0.3853 -0.2586 -0.1129
 2955SOL     OW20323   2.364   0.215   6.690  0.0396 -0.1650  0.1914
 2955SOL    HW120324   2.303   0.279   6.727  0.5741 -0.3273  1.3732
 2955SOL    HW220325   2.415   0.181   6.764  1.4845 -1.4024 -1.3715
 2956SOL     OW20326   1.469   2.721   3.715 -0.4547  0.6405 -0.0270
 2956SOL    HW120327   1.410   2.720   3.790 -0.1796 -1.9693  0.1573
 2956SOL    HW220328   1.548   2.682   3.753 -1.3049 -1.5451 -0.5150
 2957SOL     OW20329   2.551   0.102   4.394  0.4212  0.2266 -0.0240
 2957SOL    HW120330   2.642   0.123   4.373 -0.6611  2.4923 -2.4080
 2957SOL    HW220331   2.496   0.173   4.361 -0.2137  0.3522  1.3091
 2958SOL     OW20332   3.671   1.821   0.535 -0.0444 -0.2517 -0.2954
 2958SOL    HW120333   3.675   1.773   0.452  0.2418  2.1704 -1.6812
 2958SOL    HW220334   3.761   1.806   0.566 -0.5857 -1.2757  0.7654
 2959SOL     OW20335   3.478   4.116   8.604  0.5718 -0.0819 -0.3582
 2959SOL    HW120336   3.475   4.212   8.599 -1.6897 -0.0243  2.2868
 2959SOL    HW220337   3.497   4.093   8.695  0.6141 -2.8118 -1.0519
 2960SOL     OW20338   3.923   4.105  14.675 -0.3031  0.0284  0.1651
 2960SOL    HW120339   3.895   4.120  14.585 -0.0190  2.8386  0.5373
 2960SOL    HW220340   3.959   4.191  14.695  1.5012 -0.5611 -0.4888
 2961SOL     OW20341   3.437   3.633  10.308 -0.5906  0.0191  0.0181
 2961SOL    HW120342   3.412   3.692  10.379  0.6248  0.2987  0.2160
 2961SOL    HW220343   3.477   3.564  10.362 -0.3642  1.4501  1.6795
 2962SOL     OW20344   0.453   2.830  16.883  0.8611 -0.5167  0.3850
 2962SOL    HW120345   0.508   2.784  16.946 -0.0467 -1.3995  0.5447
 2962SOL    HW220346   0.367   2.823  16.925  0.7093  0.0522  0.1754
 2963SOL     OW20347   4.232   0.685   6.006  0.0896 -0.0417  0.3425
 2963SOL    HW120348   4.281   0.718   6.082  0.4003  1.0917 -0.3422
 2963SOL    HW220349   4.180   0.761   5.980  0.0599 -0.3842 -0.6291
 2964SOL     OW20350   1.794   2.138   5.112  0.4591  0.0179 -0.0684
 2964SOL    HW120351   1.802   2.143   5.017 -0.9276 -1.9059 -0.2897
 2964SOL    HW220352   1.884   2.160   5.136 -0.0183  1.5714  0.2759
 2965SOL     OW20353   1.264   0.977   9.763 -0.1799  0.1017 -0.1374
 2965SOL    HW120354   1.342   1.023   9.795  1.5188 -2.1969 -0.9650
 2965SOL    HW220355   1.192   1.030   9.797  1.4032  1.8032  0.6039
 2966SOL     OW20356   4.698   4.370   2.056  0.8121  0.1684  0.0770
 2966SOL    HW120357   0.029   4.306   2.011 -1.7395 -1.9291 -0.0691
 2966SOL    HW220358   0.021   4.389   2.138  0.0292  0.5012  0.4543
 2967SOL     OW20359   0.956   2.945  11.470 -0.3372  0.3120  0.0743
 2967SOL    HW120360   1.039   2.931  11.517 -1.9383 -0.8696  2.5266
 2967SOL    HW220361   0.922   3.018  11.521 -0.0630  1.1969 -1.0080
 2968SOL     OW20362   3.547   1.489   4.373 -0.1054  0.1476  0.5808
 2968SOL    HW120363   3.523   1.405   4.411  3.4185 -0.6448  1.0647
 2968SOL    HW220364   3.621   1.455   4.322 -1.0996 -1.7324  0.3944
 2969SOL     OW20365   2.145   1.834  12.071  0.2708  0.2189  0.0897
 2969SOL    HW120366   2.061   1.835  12.026  1.3482 -2.9843 -2.0086
 2969SOL    HW220367   2.145   1.914  12.123  0.0977  0.2389  0.0584
 2970SOL     OW20368   2.542   1.143   9.096  0.4334 -0.0611 -0.0143
 2970SOL    HW120369   2.494   1.064   9.123  1.3134  0.2905  2.6065
 2970SOL    HW220370   2.595   1.153   9.175 -2.4505 -1.6263  2.1250
 2971SOL     OW20371   0.224   3.464   6.494 -0.0610 -0.4707 -0.6670
 2971SOL    HW120372   0.186   3.542   6.454  0.2050 -0.5181 -1.0187
 2971SOL    HW220373   0.165   3.443   6.566  1.7251 -0.5882  0.7574
 2972SOL     OW20374   3.889   1.595  14.540  0.1935  0.0249  0.4616
 2972SOL    HW120375   3.856   1.506  14.548  0.8804 -0.3005 -0.3327
 2972SOL    HW220376   3.847   1.619  14.457 -1.0336 -2.1792  0.4431
 2973SOL     OW20377   2.836   2.938   4.664  0.2958  0.5803 -0.0585
 2973SOL    HW120378   2.861   2.874   4.730  0.5105  0.6596 -0.0651
 2973SOL    HW220379   2.820   3.019   4.712  0.2038 -0.6729  2.0063
 2974SOL     OW20380   1.739   1.400   9.207  0.3391 -0.5106 -0.3965
 2974SOL    HW120381   1.732   1.463   9.135  2.7265 -0.6550 -0.7511
 2974SOL    HW220382   1.651   1.414   9.241  1.1089 -0.6834  1.6549
 2975SOL     OW20383   0.363   1.614   4.182  0.1169 -0.2555  0.1980
 2975SOL    HW120384   0.273   1.634   4.158  0.4726 -0.0355 -0.9461
 2975SOL    HW220385   0.377   1.522   4.160 -2.8747 -0.4435 -0.9356
 2976SOL     OW20386   4.668   1.558   1.771 -0.2997  0.7575 -0.0977
 2976SOL    HW120387   4.644   1.481   1.823 -1.6672  1.2840  0.0556
 2976SOL    HW220388   0.017   1.577   1.830  0.1750 -0.0709 -0.4077
 2977SOL     OW20389   2.729   4.053   8.948  0.3031  0.2596  0.5971
 2977SOL    HW120390   2.750   4.090   8.862 -1.0313 -2.3331 -0.8221
 2977SOL    HW220391   2.730   3.958   8.941 -2.6556  0.3217 -0.4110
 2978SOL     OW20392   4.207   1.296   3.679  0.5385 -0.0088 -0.3891
 2978SOL    HW120393   4.112   1.298   3.690  0.3565 -3.6837 -1.3915
 2978SOL    HW220394   4.231   1.208   3.707  0.0841  0.7366  2.3939
 2979SOL     OW20395   2.377   2.211   1.158  0.2027  0.0344 -0.0716
 2979SOL    HW120396   2.291   2.170   1.153  0.1326  0.1905 -0.1520
 2979SOL    HW220397   2.438   2.145   1.125  0.2342  0.5084 -0.9876
 2980SOL     OW20398   3.972   3.392   4.978  0.5201 -0.1121 -0.6592
 2980SOL    HW120399   3.979   3.335   5.054 -0.5915 -1.2685 -1.4403
 2980SOL    HW220400   4.023   3.470   5.000 -1.3869  1.3567 -1.4020
 2981SOL     OW20401   3.013   0.229  14.308 -0.4613  0.0457  0.1510
 2981SOL    HW120402   2.925   0.191  14.309  0.5719 -2.3682 -0.0733
 2981SOL    HW220403   3.014   0.246  14.402 -0.0498  0.3450  0.0932
 2982SOL     OW20404   0.355   1.845   7.623  0.4882  1.0826  0.4912
 2982SOL    HW120405   0.335   1.881   7.537 -0.9511  1.1668  0.8686
 2982SOL    HW220406   0.271   1.858   7.667  0.9387 -0.6351  1.8489
 2983SOL     OW20407   4.641   2.849   2.467  0.0918 -0.0824  0.5631
 2983SOL    HW120408   4.675   2.830   2.555  0.3710 -3.1078 -0.1879
 2983SOL    HW220409   4.643   2.944   2.474  0.9291 -0.0724  0.2561
 2984SOL     OW20410   1.000   1.422   7.307 -0.6580 -0.0248  0.1985
 2984SOL    HW120411   0.953   1.500   7.277  2.9185  2.9575  2.3398
 2984SOL    HW220412   1.070   1.425   7.241 -2.0731 -2.0539 -1.3876
 2985SOL     OW20413   1.564   3.050   8.204 -0.2472  0.0098  1.0637
 2985SOL    HW120414   1.472   3.033   8.185 -0.4926 -0.2242  2.5121
 2985SOL    HW220415   1.575   3.130   8.151 -0.9317 -0.1254  0.7234
 2986SOL     OW20416   3.309   4.511   2.579 -0.0347  0.2466  0.5946
 2986SOL    HW120417   3.253   4.565   2.523  1.2711 -1.4543 -2.2897
 2986SOL    HW220418   3.344   4.450   2.515 -0.7865 -0.3824  0.7747
 2987SOL     OW20419   2.992   2.515  14.366  0.4521  0.4235  0.5430
 2987SOL    HW120420   3.028   2.435  14.401 -1.4988 -0.0751  1.4156
 2987SOL    HW220421   3.047   2.544  14.293  0.4291 -0.9689 -0.0163
 2988SOL     OW20422   2.672   3.331   8.173  0.4517 -0.6462  0.0281
 2988SOL    HW120423   2.736   3.285   8.118  1.0578  0.3553 -0.0992
 2988SOL    HW220424   2.590   3.293   8.141 -0.5346  1.4737  0.0379
 2989SOL     OW20425   3.964   2.956  12.230  0.1959 -0.0832 -0.1054
 2989SOL    HW120426   3.937   2.988  12.144  0.0775 -0.5915 -0.2587
 2989SOL    HW220427   3.907   2.880  12.245 -1.8111  1.3171 -0.5747
 2990SOL     OW20428   3.633   0.123   8.501 -0.2428  0.0685 -0.1801
 2990SOL    HW120429   3.537   0.131   8.497 -0.3634 -2.5998 -2.2528
 2990SOL    HW220430   3.660   0.203   8.455  3.3877 -1.0191  0.0735
 2991SOL     OW20431   4.134   4.320   0.985  0.6784  0.5088  0.0492
 2991SOL    HW120432   4.203   4.264   1.021 -1.2404 -2.0367 -0.2571
 2991SOL    HW220433   4.190   4.397   0.972  1.2192 -0.4719 -3.2418
 2992SOL     OW20434   1.797   0.791   8.627 -0.5582 -0.0001  0.4330
 2992SOL    HW120435   1.789   0.822   8.717 -1.7556  0.1954  0.2661
 2992SOL    HW220436   1.875   0.736   8.622 -0.6004 -0.0502  0.3071
 2993SOL     OW20437   1.252   1.896  17.273 -0.2889  0.1386 -0.2554
 2993SOL    HW120438   1.249   1.962  17.343 -0.9640  1.3323 -1.4234
 2993SOL    HW220439   1.338   1.856  17.285 -1.3571 -2.3034 -0.7984
 2994SOL     OW20440   0.141   0.187   2.291 -0.2101  0.8700  0.2313
 2994SOL    HW120441   0.163   0.200   2.199 -0.9129  0.6909  0.0391
 2994SOL    HW220442   0.215   0.204   2.349  0.0349 -2.5959  0.9451
 2995SOL     OW20443   3.695   2.083   5.016  0.0551  0.8630 -0.4032
 2995SOL    HW120444   3.726   2.008   4.966  1.2126 -0.4162  2.2242
 2995SOL    HW220445   3.606   2.094   4.983  0.1132  0.6446 -0.6343
 2996SOL     OW20446   1.922   3.571  12.504 -0.3692 -0.1329  0.1690
 2996SOL    HW120447   1.882   3.657  12.489 -0.3952 -0.1805 -0.0413
 2996SOL    HW220448   2.010   3.598  12.478  0.4654  0.2770  3.4006
 2997SOL     OW20449   2.744   2.752   4.918 -0.3457 -0.3056  0.0717
 2997SOL    HW120450   2.796   2.672   4.910  0.5459  0.4643 -1.7641
 2997SOL    HW220451   2.657   2.721   4.893 -0.0566  0.1567 -1.4858
 2998SOL     OW20452   3.109   1.434   4.498 -0.6461 -0.5736  0.4997
 2998SOL    HW120453   3.144   1.523   4.498 -2.2364  0.0643  1.6774
 2998SOL    HW220454   3.022   1.445   4.538 -0.0623  2.4207  0.9654
 2999SOL     OW20455   2.510   0.563   4.136  0.1566  0.2280  0.3029
 2999SOL    HW120456   2.497   0.558   4.231  0.8185 -1.2256  0.3142
 2999SOL    HW220457   2.529   0.655   4.114  2.3116 -0.3726 -0.3581
 3000SOL     OW20458   1.732   0.877   5.482  0.2587  0.4612  0.0764
 3000SOL    HW120459   1.817   0.855   5.521  0.2251  0.3736  0.1012
 3000SOL    HW220460   1.733   0.821   5.405  3.2797  3.9738 -2.4161
 3001SOL     OW20461   0.070   1.546   3.143  0.0071 -0.0743  0.2781
 3001SOL    HW120462   4.702   1.517   3.149  1.0747 -2.9704  2.5507
 3001SOL    HW220463   0.095   1.505   3.061  2.5944 -1.3126  1.6774
 3002SOL     OW20464   3.406   2.381   8.377 -0.5913 -0.0581 -0.6030
 3002SOL    HW120465   3.480   2.324   8.356  0.3268 -0.1218  2.8228
 3002SOL    HW220466   3.360   2.377   8.293 -0.8286  1.1219 -0.5247
 3003SOL     OW20467   1.968   1.888   8.472 -0.0273  0.1981 -0.7039
 3003SOL    HW120468   2.061   1.871   8.456  0.3282 -0.7129  2.3252
 3003SOL    HW220469   1.971   1.954   8.541 -2.1018  1.3425 -1.6994
 3004SOL     OW20470   2.619   0.196   7.971 -0.3938 -0.1876  0.3708
 3004SOL    HW120471   2.586   0.106   7.983  0.9584 -0.6070  0.8982
 3004SOL    HW220472   2.669   0.205   8.052  2.6014 -1.3812 -1.3437
 3005SOL     OW20473   4.274   2.407  12.263 -0.4794  0.2816 -0.8955
 3005SOL    HW120474   4.294   2.425  12.355  1.7034 -3.8246 -0.5438
 3005SOL    HW220475   4.224   2.488  12.252  0.0382  0.6975 -0.1553
 3006SOL     OW20476   0.712   2.687   8.218  0.2244 -0.4079 -0.3649
 3006SOL    HW120477   0.697   2.710   8.309 -3.5117 -3.4547 -0.2148
 3006SOL    HW220478   0.621   2.674   8.193 -0.2014 -1.5260  1.8005
 3007SOL     OW20479   2.125   1.674   0.157  0.1157 -0.0096 -0.2913
 3007SOL    HW120480   2.132   1.763   0.122 -1.5399  0.9624  1.8684
 3007SOL    HW220481   2.061   1.683   0.228 -1.5780 -0.4325 -1.7648
 3008SOL     OW20482   1.751   2.976   8.400 -0.0605  0.1133  0.3131
 3008SOL    HW120483   1.796   2.921   8.336  0.9524  1.8667 -0.4704
 3008SOL    HW220484   1.675   2.998   8.345  0.8948 -0.2373 -1.1581
 3009SOL     OW20485   1.214   4.317   7.265 -0.2910  0.7511  0.0267
 3009SOL    HW120486   1.179   4.403   7.242  0.3860  1.3724  1.3199
 3009SOL    HW220487   1.270   4.316   7.188 -0.1839 -0.5751  0.1181
 3010SOL     OW20488   4.059   1.330  12.391 -0.1090  0.7367 -0.4916
 3010SOL    HW120489   3.986   1.326  12.453 -0.3594  0.7866 -0.7811
 3010SOL    HW220490   4.018   1.301  12.309  0.2963 -1.8696  0.2527
 3011SOL     OW20491   3.750   3.497   6.627 -0.3945  0.9184 -0.3024
 3011SOL    HW120492   3.797   3.430   6.677 -0.0163  2.5036  1.4787
 3011SOL    HW220493   3.806   3.574   6.637 -1.4965  1.5155  1.2287
 3012SOL     OW20494   3.146   4.676   5.837  0.4817  0.7794 -0.3687
 3012SOL    HW120495   3.085   0.023   5.860  0.4738  0.3500  0.8870
 3012SOL    HW220496   3.095   4.609   5.792  0.0314 -0.8427  2.5674
 3013SOL     OW20497   1.675   3.652   7.536 -0.4965 -1.2600 -0.3244
 3013SOL    HW120498   1.741   3.637   7.469  0.5098  1.1680  0.1223
 3013SOL    HW220499   1.699   3.743   7.551  3.3233 -2.6926  2.5236
 3014SOL     OW20500   3.738   2.694   2.193 -0.1690  0.0320  0.3721
 3014SOL    HW120501   3.719   2.600   2.194  1.2556 -0.2496  0.1860
 3014SOL    HW220502   3.681   2.712   2.119  1.6692 -1.8315 -1.4833
 3015SOL     OW20503   3.391   3.686  12.214  0.3539 -0.1563  0.5639
 3015SOL    HW120504   3.311   3.732  12.238 -0.2301 -0.9443  0.1240
 3015SOL    HW220505   3.365   3.610  12.162 -0.5760  1.2894 -1.0921
 3016SOL     OW20506   0.235   0.111   7.750  0.6710  0.0118  0.9023
 3016SOL    HW120507   0.273   0.153   7.827  1.2498 -0.0627  0.6512
 3016SOL    HW220508   0.256   0.176   7.683  0.6367 -2.3166 -1.3545
 3017SOL     OW20509   1.225   1.139   6.744 -0.4792 -0.3252  0.9111
 3017SOL    HW120510   1.309   1.104   6.774 -1.1071 -2.0269  0.7040
 3017SOL    HW220511   1.236   1.229   6.774  2.1148 -0.9398  1.8022
 3018SOL     OW20512   1.088   3.055  15.930  0.3459 -0.7046  0.3052
 3018SOL    HW120513   1.001   3.016  15.917 -0.9247  2.1246  0.3559
 3018SOL    HW220514   1.123   3.073  15.843 -2.1891 -1.4802 -0.8769
 3019SOL     OW20515   0.237   1.040   5.055  0.1194  0.0359 -0.2880
 3019SOL    HW120516   0.295   1.060   4.980 -0.8752  2.1065 -0.5074
 3019SOL    HW220517   0.205   0.957   5.021  0.1178 -0.8583  1.9326
 3020SOL     OW20518   0.562   3.051   9.298  0.2432 -0.1049 -0.0383
 3020SOL    HW120519   0.619   3.060   9.374 -0.4030  1.2020  0.2946
 3020SOL    HW220520   0.572   3.138   9.260  0.0629 -0.0266  0.0913
 3021SOL     OW20521   1.001   4.365   7.966  0.2666 -0.2618 -0.0026
 3021SOL    HW120522   0.981   4.443   8.018 -0.9029 -1.1521  0.8871
 3021SOL    HW220523   1.043   4.406   7.890 -1.1878  0.0447 -0.6322
 3022SOL     OW20524   0.725   1.965   9.767 -0.0502  0.2936 -0.0786
 3022SOL    HW120525   0.803   2.015   9.791  0.1633 -0.3235  0.5004
 3022SOL    HW220526   0.674   2.034   9.725  0.3470  1.6907  1.7170
 3023SOL     OW20527   2.085   2.670   8.471 -0.1313  0.1763 -0.1888
 3023SOL    HW120528   2.105   2.746   8.526 -0.7261  0.7523 -0.7697
 3023SOL    HW220529   2.034   2.622   8.537 -0.5598  1.1377  0.1826
 3024SOL     OW20530   4.240   1.686   1.515 -0.1004 -0.3720  0.0271
 3024SOL    HW120531   4.281   1.659   1.432 -1.8864 -1.1013 -0.6221
 3024SOL    HW220532   4.318   1.700   1.569 -0.0797 -1.2435  0.2321
 3025SOL     OW20533   3.830   0.693   4.248 -0.0496  0.5317 -0.3882
 3025SOL    HW120534   3.812   0.774   4.296 -0.4671 -1.1664  2.3572
 3025SOL    HW220535   3.925   0.685   4.247 -0.0309  0.7176 -0.1041
 3026SOL     OW20536   4.561   1.588  16.326  0.1860  0.3073 -0.0874
 3026SOL    HW120537   4.598   1.561  16.242 -1.7207  0.0717 -0.8663
 3026SOL    HW220538   4.529   1.677  16.309  0.3853 -0.0666 -2.4293
 3027SOL     OW20539   2.239   3.182  11.329 -0.3502  0.2188  0.2970
 3027SOL    HW120540   2.314   3.128  11.357  0.6003  0.5395 -1.6068
 3027SOL    HW220541   2.222   3.233  11.408  0.5714  1.0470 -0.0401
 3028SOL     OW20542   3.626   3.056  16.180 -0.0910 -0.0151 -0.0859
 3028SOL    HW120543   3.647   3.051  16.273 -1.3482 -0.3502  0.1784
 3028SOL    HW220544   3.570   3.134  16.177  0.9689  0.8290  1.8489
 3029SOL     OW20545   0.122   2.258   5.596 -0.1722  0.7542 -0.1358
 3029SOL    HW120546   0.159   2.182   5.551 -1.7830 -0.0428 -0.1431
 3029SOL    HW220547   0.133   2.329   5.533 -0.0783  0.7663 -0.1059
 3030SOL     OW20548   3.541   0.097   5.013  0.0507 -0.0934  0.2394
 3030SOL    HW120549   3.552   0.182   5.055  0.2654 -0.4162  0.8454
 3030SOL    HW220550   3.522   0.036   5.084 -1.8178  0.0501 -0.1526
 3031SOL     OW20551   1.376   1.392  12.057 -0.0288  0.6588  0.2359
 3031SOL    HW120552   1.428   1.326  12.103  4.7792  2.4066 -2.5523
 3031SOL    HW220553   1.285   1.363  12.055  0.1373  0.0931  1.5397
 3032SOL     OW20554   0.535   4.679  11.998 -0.4664 -0.1187 -0.0008
 3032SOL    HW120555   0.518   4.611  11.933 -4.0170  0.6382  0.1807
 3032SOL    HW220556   0.448   4.685  12.038 -0.1900  2.2351  0.2396
 3033SOL     OW20557   3.803   1.296  12.503  0.3044  0.0251  0.3218
 3033SOL    HW120558   3.819   1.348  12.581 -0.6286 -1.1404  1.2901
 3033SOL    HW220559   3.749   1.221  12.529  0.4540 -0.3737 -0.5009
 3034SOL     OW20560   4.630   3.023   5.694  0.3818  0.0559 -0.6814
 3034SOL    HW120561   4.599   2.978   5.773 -0.2279 -0.5642 -1.2669
 3034SOL    HW220562   4.723   3.003   5.706  0.2703 -1.3867 -2.3519
 3035SOL     OW20563   3.451   3.175   4.783  0.2279 -0.5309  0.3579
 3035SOL    HW120564   3.541   3.180   4.750 -0.1962 -0.0118 -0.7295
 3035SOL    HW220565   3.450   3.254   4.838 -2.6983 -2.6444  3.3381
 3036SOL     OW20566   0.654   3.310  14.762  0.3152  0.8287 -0.3151
 3036SOL    HW120567   0.558   3.311  14.758  0.2614 -1.4928  0.3251
 3036SOL    HW220568   0.674   3.327  14.670 -0.1267  1.8287 -0.2251
 3037SOL     OW20569   3.032   2.687  10.543  0.3255 -0.2309 -0.3850
 3037SOL    HW120570   3.051   2.630  10.469  1.3562 -0.8134  0.3220
 3037SOL    HW220571   2.975   2.753  10.504  0.9711 -0.2538 -1.3492
 3038SOL     OW20572   0.926   0.985   5.859 -0.2026  1.1313  0.3081
 3038SOL    HW120573   0.973   0.987   5.775 -2.0155 -0.0326 -0.7427
 3038SOL    HW220574   0.845   1.001   5.810 -1.2084  1.1763  1.9789
 3039SOL     OW20575   3.638   2.152   2.997 -0.0838 -0.5513  0.4837
 3039SOL    HW120576   3.548   2.121   3.011 -1.1463  1.5587 -1.7479
 3039SOL    HW220577   3.686   2.162   3.080 -0.3399 -0.6241  0.6408
 3040SOL     OW20578   3.157   0.838   3.416 -0.6687 -0.0190  0.3112
 3040SOL    HW120579   3.169   0.809   3.506 -1.5935 -1.3984 -0.0132
 3040SOL    HW220580   3.097   0.774   3.378 -0.4076  0.3680 -0.7751
 3041SOL     OW20581   0.065   2.584  13.206 -0.1447  0.4218 -0.0755
 3041SOL    HW120582   0.050   2.503  13.157  2.0395  0.0515 -0.1698
 3041SOL    HW220583   0.086   2.539  13.287 -2.2408 -2.5434 -1.1958
 3042SOL     OW20584   4.442   3.105   8.768  0.0208  0.0055  0.0403
 3042SOL    HW120585   4.479   3.097   8.856 -0.2505 -1.7796 -0.0081
 3042SOL    HW220586   4.353   3.077   8.789 -0.2646  0.3724 -0.6796
 3043SOL     OW20587   3.508   2.114   9.463  0.6587 -0.0115  0.2990
 3043SOL    HW120588   3.595   2.140   9.434  0.6040 -0.4916 -0.2992
 3043SOL    HW220589   3.493   2.173   9.537  0.9902  1.6799 -1.0002
 3044SOL     OW20590   1.880   1.739   9.012 -0.2864 -0.1645 -0.3705
 3044SOL    HW120591   1.954   1.684   9.039 -0.4229  1.3615  3.1211
 3044SOL    HW220592   1.889   1.737   8.917 -1.2042  0.1725 -0.4532
 3045SOL     OW20593   0.878   3.254  16.007 -0.5236 -0.2056  0.1601
 3045SOL    HW120594   0.953   3.197  16.026  0.8500  1.5657 -0.0084
 3045SOL    HW220595   0.896   3.277  15.916  0.3023  0.2915  0.4516
 3046SOL     OW20596   4.314   4.248   7.964  0.8158  0.2346 -0.0056
 3046SOL    HW120597   4.395   4.298   7.965  1.5653 -1.0672  2.7753
 3046SOL    HW220598   4.336   4.171   7.911 -0.0131 -0.5701  0.8216
 3047SOL     OW20599   2.185   4.645   5.829 -0.3544  0.1548 -0.1577
 3047SOL    HW120600   2.225   0.005   5.852 -1.2222  1.2345 -2.6016
 3047SOL    HW220601   2.157   4.618   5.917 -1.0217 -0.2017 -0.4723
 3048SOL     OW20602   4.708   2.661   5.903  0.0944 -0.0426 -0.1826
 3048SOL    HW120603   0.038   2.668   5.824 -0.3162 -1.4602 -0.5927
 3048SOL    HW220604   4.666   2.578   5.879 -1.1395 -0.0828  2.1278
 3049SOL     OW20605   2.063   2.398   3.454  0.2220  0.2051  0.2415
 3049SOL    HW120606   2.031   2.370   3.540  1.7801  0.4833  0.9014
 3049SOL    HW220607   1.995   2.365   3.395 -2.1807  2.8251  1.5031
 3050SOL     OW20608   1.454   4.654   9.411 -0.2546 -0.4144 -1.2099
 3050SOL    HW120609   1.523   4.681   9.472 -1.8082 -0.7718  0.6949
 3050SOL    HW220610   1.475   4.562   9.394 -2.0342 -1.0561  0.0582
 3051SOL     OW20611   0.286   1.689   0.266 -0.3978  0.2323  0.2536
 3051SOL    HW120612   0.228   1.618   0.295  1.7353 -2.2330 -1.5286
 3051SOL    HW220613   0.312   1.654   0.180 -1.7984  0.8554 -0.4345
 3052SOL     OW20614   2.674   1.378  13.683 -0.4526  0.0565  0.0137
 3052SOL    HW120615   2.735   1.331  13.739 -1.7548  0.4530  1.7448
 3052SOL    HW220616   2.678   1.463  13.726 -2.8476  0.0436  0.2874
 3053SOL     OW20617   3.187   3.527   4.585  0.0900 -0.1349  0.2203
 3053SOL    HW120618   3.282   3.521   4.581  0.0256 -0.4674 -0.8688
 3053SOL    HW220619   3.153   3.477   4.511  2.8027  0.0511 -1.1251
 3054SOL     OW20620   4.622   0.201   1.614 -0.9075 -0.3564  0.4267
 3054SOL    HW120621   4.653   0.111   1.625 -1.3191 -0.4331  0.9812
 3054SOL    HW220622   4.575   0.197   1.530 -1.5012 -0.3795  0.7543
 3055SOL     OW20623   0.600   4.340   3.949  0.2107 -0.0078 -0.0735
 3055SOL    HW120624   0.635   4.391   4.022  1.0306 -1.6316  0.6575
 3055SOL    HW220625   0.533   4.295   4.000 -1.1168  0.7642 -1.1154
 3056SOL     OW20626   3.112   2.966  16.523 -0.1550 -0.0527  0.0368
 3056SOL    HW120627   3.148   3.051  16.497 -1.2760  0.0106 -1.2598
 3056SOL    HW220628   3.020   2.971  16.496  0.0825  3.1684 -0.1675
 3057SOL     OW20629   2.269   0.765   5.696  0.2816 -0.2556 -0.6491
 3057SOL    HW120630   2.302   0.780   5.608 -1.8547 -1.7879 -1.7079
 3057SOL    HW220631   2.276   0.858   5.719  1.5776 -0.4174 -0.4157
 3058SOL     OW20632   2.445   1.796   9.028  0.8558  0.3983 -0.2115
 3058SOL    HW120633   2.404   1.739   8.963  0.6825  0.4035 -0.1076
 3058SOL    HW220634   2.476   1.872   8.979  1.6040  1.0465  1.2539
 3059SOL     OW20635   4.035   1.324   2.825  0.3265 -0.1148 -0.4698
 3059SOL    HW120636   4.061   1.401   2.876 -1.3729 -1.3937  2.3500
 3059SOL    HW220637   3.994   1.267   2.890  0.7528  1.2401  1.0080
 3060SOL     OW20638   4.454   2.323   6.583  0.4732 -0.2025  0.2890
 3060SOL    HW120639   4.464   2.414   6.557 -1.8677  0.1673  0.7070
 3060SOL    HW220640   4.541   2.290   6.606  0.1130 -1.3239  0.0377
 3061SOL     OW20641   2.892   1.432   8.241  0.0459  0.5294 -0.0832
 3061SOL    HW120642   2.978   1.432   8.200 -0.0187  0.8041 -0.2174
 3061SOL    HW220643   2.894   1.521   8.278 -1.1507 -0.1977  1.7146
 3062SOL     OW20644   4.537   2.132   3.098  0.7188 -0.0328 -0.1402
 3062SOL    HW120645   4.607   2.197   3.109 -0.0828  1.1296 -1.8909
 3062SOL    HW220646   4.504   2.170   3.016 -0.5403 -2.2357 -0.6464
 3063SOL     OW20647   0.362   3.351   3.848 -0.1719 -0.3923 -0.3972
 3063SOL    HW120648   0.314   3.290   3.903 -2.1855 -0.2244 -1.9706
 3063SOL    HW220649   0.449   3.344   3.889 -0.3517  0.3668  0.1192
 3064SOL     OW20650   2.586   0.267   3.738 -0.4131 -0.1996 -0.2500
 3064SOL    HW120651   2.560   0.353   3.771 -1.0618 -0.0248 -1.2442
 3064SOL    HW220652   2.667   0.257   3.789  0.5661 -0.1786 -1.7900
 3065SOL     OW20653   1.144   3.272  13.167  0.0273  0.1101 -0.1272
 3065SOL    HW120654   1.066   3.328  13.168 -0.7010 -0.8999 -1.6338
 3065SOL    HW220655   1.219   3.325  13.196 -0.0467  1.6257 -2.7080
 3066SOL     OW20656   2.924   3.706   7.896 -0.1098  0.3562 -1.1045
 3066SOL    HW120657   2.884   3.678   7.979 -0.0861  0.2760 -1.1193
 3066SOL    HW220658   2.856   3.769   7.872 -1.2250 -0.6158 -0.5304
 3067SOL     OW20659   3.438   4.321   2.440 -0.4104  0.1038  0.9391
 3067SOL    HW120660   3.418   4.256   2.373  1.1657  1.9802 -1.3406
 3067SOL    HW220661   3.527   4.345   2.414 -0.2969  0.6856  1.8555
 3068SOL     OW20662   3.223   1.841   4.254 -0.0265  0.2791 -0.0097
 3068SOL    HW120663   3.267   1.778   4.195 -1.5997 -0.6455 -0.1857
 3068SOL    HW220664   3.154   1.862   4.191 -0.5287 -1.2721  0.0289
 3069SOL     OW20665   3.461   0.821  14.237 -0.4375 -0.3006 -0.1068
 3069SOL    HW120666   3.379   0.778  14.212 -1.1930  0.4795  1.0056
 3069SOL    HW220667   3.425   0.903  14.272  2.0994  0.7995 -0.0713
 3070SOL     OW20668   2.263   2.589   7.549  0.2050 -0.0668 -0.1105
 3070SOL    HW120669   2.341   2.541   7.521 -0.7350 -1.1367 -0.9067
 3070SOL    HW220670   2.306   2.668   7.584 -1.9668  0.7713  0.6624
 3071SOL     OW20671   3.784   2.096   9.370  0.3255  0.1588 -0.4680
 3071SOL    HW120672   3.744   2.023   9.323 -0.2168  1.5414 -2.1404
 3071SOL    HW220673   3.850   2.133   9.312 -0.2635  0.4036 -0.9818
 3072SOL     OW20674   0.818   1.856   5.618 -0.1047 -0.2310 -0.2739
 3072SOL    HW120675   0.817   1.947   5.590  1.8783  1.1869  4.2160
 3072SOL    HW220676   0.904   1.867   5.659 -0.7014 -1.4591  1.3500
 3073SOL     OW20677   0.656   0.171  12.109 -0.1327  0.3409 -0.1451
 3073SOL    HW120678   0.603   0.105  12.065  0.6768 -1.0939  1.0089
 3073SOL    HW220679   0.625   0.152  12.198  1.3290 -1.7253 -0.0714
 3074SOL     OW20680   4.623   0.046  17.142 -0.4729  0.5862 -0.2320
 3074SOL    HW120681   4.572   0.125  17.160 -1.8766 -1.2141  3.5906
 3074SOL    HW220682   4.607   0.033  17.049  0.5554 -0.1212 -0.3064
 3075SOL     OW20683   2.637   1.575  13.870 -0.3130 -0.5677 -0.1420
 3075SOL    HW120684   2.671   1.663  13.856 -2.6978  0.3036 -0.3257
 3075SOL    HW220685   2.546   1.583  13.897  0.0107  0.4355  0.6562
 3076SOL     OW20686   1.671   1.568   9.022  0.0990  0.1403  0.6758
 3076SOL    HW120687   1.719   1.651   9.014  0.8554 -0.1166  2.4666
 3076SOL    HW220688   1.603   1.578   8.955  0.9920 -0.6775 -0.3509
 3077SOL     OW20689   4.109   3.056   7.532 -0.0423  0.0310  0.0141
 3077SOL    HW120690   4.171   3.116   7.573  0.2318 -0.6396  0.6052
 3077SOL    HW220691   4.031   3.063   7.587 -0.5921 -1.5767 -0.5419
 3078SOL     OW20692   3.751   0.414   8.282  1.0242  0.2687 -0.0296
 3078SOL    HW120693   3.785   0.498   8.312  0.3413  0.0548  1.3782
 3078SOL    HW220694   3.819   0.354   8.313  0.6953  0.4503  1.0678
 3079SOL     OW20695   0.321   4.577  16.612  0.4375 -0.6570  0.5550
 3079SOL    HW120696   0.358   4.513  16.551 -1.4992 -0.0460 -1.2738
 3079SOL    HW220697   0.260   4.523  16.661 -1.2720  2.5548  1.9886
 3080SOL     OW20698   2.128   1.011  11.749  0.4580  0.1848  0.4536
 3080SOL    HW120699   2.208   1.021  11.802  0.5783  1.6788 -0.0068
 3080SOL    HW220700   2.090   0.932  11.789 -1.6574  1.0224  0.1168
 3081SOL     OW20701   0.960   2.980   7.935 -0.1613 -0.3547 -0.0090
 3081SOL    HW120702   1.042   3.028   7.922  0.1986 -0.8309  0.4853
 3081SOL    HW220703   0.961   2.987   8.030  1.5189 -0.8160  0.0117
 3082SOL     OW20704   3.687   1.917   9.104 -0.1277  0.1926 -0.1444
 3082SOL    HW120705   3.770   1.962   9.088 -0.8593  2.6061  2.8672
 3082SOL    HW220706   3.716   1.841   9.155 -0.4851 -0.3032 -0.6720
 3083SOL     OW20707   1.553   3.553   6.323 -0.5554  0.1566 -0.0830
 3083SOL    HW120708   1.473   3.507   6.346  0.5228 -1.5621  0.2257
 3083SOL    HW220709   1.541   3.636   6.369  0.1272 -0.3444  0.9881
 3084SOL     OW20710   3.726   1.175   1.299 -0.5290  0.7518  0.1251
 3084SOL    HW120711   3.672   1.131   1.234 -4.0458  1.7879  2.3039
 3084SOL    HW220712   3.722   1.253   1.244 -0.0883  0.7944  0.1575
 3085SOL     OW20713   2.828   3.985   7.199  0.6896  0.0096 -0.2451
 3085SOL    HW120714   2.834   3.975   7.104 -1.3899  2.0165 -0.5956
 3085SOL    HW220715   2.884   3.911   7.223  0.9247  0.1791 -0.2765
 3086SOL     OW20716   2.958   2.079   8.092  0.0387  0.1803  0.4496
 3086SOL    HW120717   2.988   2.090   8.183  0.3849  1.0163  0.2294
 3086SOL    HW220718   3.029   2.021   8.062 -1.9379 -0.9567 -1.9726
 3087SOL     OW20719   2.227   4.152   4.829 -0.1935  0.2021  0.1476
 3087SOL    HW120720   2.278   4.124   4.752  2.1702  1.3018  1.3302
 3087SOL    HW220721   2.184   4.227   4.788  0.0331  0.0740 -0.3268
 3088SOL     OW20722   3.845   2.821   7.540 -0.1338 -0.8479  0.0684
 3088SOL    HW120723   3.840   2.766   7.618 -0.5826  1.1825  1.4588
 3088SOL    HW220724   3.878   2.906   7.569 -0.8315 -0.3082 -0.7369
 3089SOL     OW20725   3.456   0.103   2.391  0.3711  0.3007  0.5383
 3089SOL    HW120726   3.506   0.119   2.471  0.7616  1.3117  0.0921
 3089SOL    HW220727   3.512   0.155   2.333 -0.0445 -2.1463 -2.0755
 3090SOL     OW20728   0.472   2.536   4.255  0.0264  0.1301 -0.1671
 3090SOL    HW120729   0.550   2.497   4.216 -0.4168  0.2136 -1.1362
 3090SOL    HW220730   0.398   2.518   4.197  0.3615  0.5310 -0.7159
 3091SOL     OW20731   1.245   3.423  17.072  0.0158 -0.0015 -0.2074
 3091SOL    HW120732   1.193   3.501  17.052  1.5077  1.4713  1.5569
 3091SOL    HW220733   1.216   3.366  17.001  1.1370 -0.1854 -0.5250
 3092SOL     OW20734   0.897   4.252   6.637  0.1335 -0.2677 -0.2194
 3092SOL    HW120735   0.873   4.345   6.636  1.3056  0.0430  0.1390
 3092SOL    HW220736   0.807   4.222   6.625  0.5407 -1.5826  0.0027
 3093SOL     OW20737   3.410   1.530  15.443  0.1252  0.3115 -0.0477
 3093SOL    HW120738   3.433   1.471  15.515  0.8602  0.2451 -0.3277
 3093SOL    HW220739   3.322   1.563  15.461  0.2927  0.8217 -0.1557
 3094SOL     OW20740   0.264   2.181   0.951  0.1759 -0.1312  0.3359
 3094SOL    HW120741   0.356   2.205   0.952  0.6695 -2.0673  0.5995
 3094SOL    HW220742   0.237   2.256   1.005 -0.1840  0.5681 -0.8091
 3095SOL     OW20743   3.126   1.740  11.747 -0.3096 -0.1323 -0.1252
 3095SOL    HW120744   3.129   1.644  11.743  0.3445 -0.1047 -0.3322
 3095SOL    HW220745   3.140   1.750  11.841 -0.0385 -0.8215 -0.0875
 3096SOL     OW20746   1.136   3.219   0.831  0.5724 -0.0252  0.4546
 3096SOL    HW120747   1.082   3.239   0.755 -0.6653  0.4604  1.4517
 3096SOL    HW220748   1.108   3.284   0.896 -2.3134 -3.0252  2.1845
 3097SOL     OW20749   2.417   2.573   9.438  0.6797  0.1941  0.3472
 3097SOL    HW120750   2.393   2.622   9.517  2.3306 -0.2422  1.1410
 3097SOL    HW220751   2.413   2.482   9.467  0.6888  0.2294  0.4601
 3098SOL     OW20752   0.295   1.520   4.660  0.3897  0.1733  0.4384
 3098SOL    HW120753   0.332   1.565   4.585 -0.6017 -0.9840 -0.7454
 3098SOL    HW220754   0.276   1.596   4.716  0.3826  1.1744 -0.9337
 3099SOL     OW20755   1.887   2.724   5.566  0.1583 -0.0568 -0.1061
 3099SOL    HW120756   1.962   2.767   5.525  1.6639 -1.1938  1.4331
 3099SOL    HW220757   1.863   2.795   5.625 -2.4589 -1.3148  0.3338
 3100SOL     OW20758   1.232   2.468   1.792 -0.3627  0.0808  0.0252
 3100SOL    HW120759   1.269   2.382   1.775  0.4119  0.5527 -0.6792
 3100SOL    HW220760   1.277   2.517   1.723  1.2909 -0.3373  0.8143
 3101SOL     OW20761   1.643   0.157   4.193  0.1868  0.4959 -0.6110
 3101SOL    HW120762   1.647   0.180   4.100 -0.6861 -3.0762 -1.5105
 3101SOL    HW220763   1.567   0.213   4.212 -1.1953 -1.5185 -0.2320
 3102SOL     OW20764   0.670   3.291   9.220  0.2053 -0.5172  0.0331
 3102SOL    HW120765   0.727   3.361   9.186  0.3088 -0.5036  0.2335
 3102SOL    HW220766   0.747   3.247   9.255 -1.3003 -2.0590  1.3442
 3103SOL     OW20767   0.780   0.504   6.511  0.4340 -0.1218  0.3189
 3103SOL    HW120768   0.691   0.526   6.537 -0.2631 -3.1579  0.5242
 3103SOL    HW220769   0.791   0.413   6.539 -1.0352 -1.1378 -2.4471
 3104SOL     OW20770   3.875   0.911  10.302  0.1770 -0.1586  0.1589
 3104SOL    HW120771   3.880   0.995  10.347  0.7507 -0.0416 -0.1235
 3104SOL    HW220772   3.833   0.859  10.370  1.3955 -0.0151  1.0001
 3105SOL     OW20773   2.081   0.669   3.489 -0.0399  0.2182 -0.1360
 3105SOL    HW120774   2.150   0.611   3.457  2.1768  1.0165  3.2469
 3105SOL    HW220775   2.124   0.708   3.565 -0.0046  1.0657 -0.5977
 3106SOL     OW20776   2.015   2.754   3.542 -0.3887 -0.2038 -0.5712
 3106SOL    HW120777   2.100   2.721   3.514 -0.3935 -0.7429  0.0490
 3106SOL    HW220778   1.990   2.782   3.454  0.9237  1.0035 -0.5619
 3107SOL     OW20779   0.611   1.370   3.535 -0.2703  0.1129  0.1137
 3107SOL    HW120780   0.603   1.285   3.578  0.4649 -0.9157 -1.7961
 3107SOL    HW220781   0.536   1.369   3.475 -2.2504  0.3403  2.5738
 3108SOL     OW20782   0.259   4.442  12.588 -0.3568 -0.3064 -0.1366
 3108SOL    HW120783   0.336   4.443  12.645  1.2006 -1.4044 -2.1884
 3108SOL    HW220784   0.254   4.354  12.551 -0.9753  0.3560 -1.6546
 3109SOL     OW20785   3.333   1.840   3.478  0.4841 -0.6024  0.1066
 3109SOL    HW120786   3.363   1.837   3.387 -1.3510  1.6218 -0.5843
 3109SOL    HW220787   3.266   1.771   3.478 -1.0410  0.9001 -0.2579
 3110SOL     OW20788   2.089   0.913   3.007  0.1561 -0.1548 -0.0544
 3110SOL    HW120789   2.160   0.858   3.040  0.1729 -1.6059 -2.5397
 3110SOL    HW220790   2.114   0.923   2.915 -0.9492  1.3842 -0.1902
 3111SOL     OW20791   3.008   1.352  12.655  0.1791 -0.6026 -0.2015
 3111SOL    HW120792   2.930   1.335  12.602 -0.6312  0.8494  0.5098
 3111SOL    HW220793   3.044   1.420  12.598 -0.1923 -1.5774 -1.6026
 3112SOL     OW20794   4.086   1.297   8.936 -0.4354  0.5449 -1.1862
 3112SOL    HW120795   4.098   1.204   8.918  0.1065  0.5839 -1.0468
 3112SOL    HW220796   3.999   1.296   8.974  0.0842  2.4245  0.0341
 3113SOL     OW20797   0.227   1.216  14.064  0.1495 -0.0262 -0.3043
 3113SOL    HW120798   0.139   1.211  14.101  0.9713 -1.5884  1.4327
 3113SOL    HW220799   0.220   1.190  13.972 -0.6756  1.5538 -0.6787
 3114SOL     OW20800   3.308   0.304  15.562  0.0690  0.3618 -0.1479
 3114SOL    HW120801   3.226   0.258  15.541 -0.5755  1.4331  0.0276
 3114SOL    HW220802   3.321   0.260  15.647 -1.1255 -0.8146 -0.5633
 3115SOL     OW20803   0.754   3.791   4.070  0.2187 -0.0745 -0.2583
 3115SOL    HW120804   0.812   3.841   4.128 -1.5905  1.4151  0.2524
 3115SOL    HW220805   0.768   3.701   4.097  1.2105  0.4309  0.9175
 3116SOL     OW20806   1.433   3.264   6.961  0.7977  0.6360 -0.1934
 3116SOL    HW120807   1.429   3.204   6.887  1.2217  0.2224  0.1173
 3116SOL    HW220808   1.340   3.276   6.983  0.0326 -0.5750 -2.8597
 3117SOL     OW20809   1.267   3.205  14.795 -0.1388  0.3481  0.0345
 3117SOL    HW120810   1.353   3.164  14.785 -0.3888 -0.2332  0.2657
 3117SOL    HW220811   1.244   3.196  14.887  0.7492 -2.5153 -0.0205
 3118SOL     OW20812   0.028   0.389   8.031  0.1492  0.4783 -0.7697
 3118SOL    HW120813   0.042   0.397   8.125 -0.2113  2.2483 -0.8615
 3118SOL    HW220814   0.102   0.336   8.001 -0.2036 -0.2466 -0.3709
 3119SOL     OW20815   3.394   0.289   6.839  0.2749 -0.0015 -0.3261
 3119SOL    HW120816   3.299   0.297   6.847  0.0741 -2.7977  0.0130
 3119SOL    HW220817   3.403   0.204   6.797  1.3692 -0.5483  1.0261
 3120SOL     OW20818   3.677   4.355   6.999 -0.0663 -0.6957 -0.0540
 3120SOL    HW120819   3.725   4.324   7.075 -0.8640  2.1602  1.6031
 3120SOL    HW220820   3.593   4.332   7.039  0.9396 -0.9543  1.8855
 3121SOL     OW20821   4.467   3.093   7.475  0.0269  0.2540 -0.1437
 3121SOL    HW120822   4.428   3.045   7.548 -1.1458  2.7822  0.8854
 3121SOL    HW220823   4.553   3.112   7.512  1.2632 -3.5340 -1.0318
 3122SOL     OW20824   0.264   0.652   4.747  0.3345 -0.4936  0.0993
 3122SOL    HW120825   0.304   0.651   4.660  1.0984 -2.3088  0.4665
 3122SOL    HW220826   0.208   0.575   4.748 -0.4176  0.0495 -1.5326
 3123SOL     OW20827   2.612   4.443  13.047 -0.2169  0.5919  0.0552
 3123SOL    HW120828   2.672   4.512  13.019  0.2720  0.1000 -0.1140
 3123SOL    HW220829   2.679   4.378  13.068 -0.9798 -0.0589  0.4450
 3124SOL     OW20830   2.905   3.185   1.662 -0.0151  0.3224 -0.0260
 3124SOL    HW120831   2.851   3.263   1.650  0.1790  0.7618  2.0844
 3124SOL    HW220832   2.987   3.208   1.705 -0.0613  0.0789  0.1953
 3125SOL     OW20833   2.423   2.693   3.621 -0.3856 -0.1691 -0.3594
 3125SOL    HW120834   2.344   2.679   3.569 -0.8254  0.9943  0.0032
 3125SOL    HW220835   2.405   2.648   3.703 -0.6147 -0.3028 -0.4844
 3126SOL     OW20836   0.256   4.010   1.680 -0.1416  0.1018  0.5291
 3126SOL    HW120837   0.243   4.015   1.775 -1.3287  0.1163  0.3669
 3126SOL    HW220838   0.301   4.094   1.672 -0.6508  0.4526  1.3944
 3127SOL     OW20839   3.126   4.551   7.467  0.3199  0.4394  0.0468
 3127SOL    HW120840   3.144   4.587   7.380 -1.6764 -0.4693 -0.7310
 3127SOL    HW220841   3.071   4.621   7.500 -1.3421 -0.1227 -1.5371
 3128SOL     OW20842   3.723   1.974  10.356  0.6768  0.3946  0.1737
 3128SOL    HW120843   3.714   2.070  10.359  1.2273  0.4904 -1.5057
 3128SOL    HW220844   3.772   1.952  10.436 -0.2384 -0.6006  0.4529
 3129SOL     OW20845   2.900   1.549   4.864 -0.2799 -0.6232 -0.6139
 3129SOL    HW120846   2.920   1.548   4.958  1.3262 -1.6099 -0.9648
 3129SOL    HW220847   2.951   1.622   4.829 -0.8290 -0.1458 -0.4170
 3130SOL     OW20848   3.481   2.489   3.644  0.1993  0.1144  0.0475
 3130SOL    HW120849   3.483   2.504   3.739  0.4678  1.6252 -0.2042
 3130SOL    HW220850   3.445   2.567   3.603  0.4283 -0.1370 -0.6357
 3131SOL     OW20851   2.197   2.811   7.197  0.3932 -0.1150  0.1086
 3131SOL    HW120852   2.276   2.806   7.252  0.6391 -0.7173 -0.2962
 3131SOL    HW220853   2.163   2.724   7.217  0.2180 -0.1371 -0.2867
 3132SOL     OW20854   1.115   1.325   5.461  0.4586  0.0929  0.4275
 3132SOL    HW120855   1.203   1.361   5.467 -0.1515  1.5647  0.5804
 3132SOL    HW220856   1.059   1.393   5.500  2.9483  2.2175  0.3269
 3133SOL     OW20857   2.685   3.536  14.802  0.4957  0.3215  0.3492
 3133SOL    HW120858   2.663   3.456  14.849 -0.7361  1.2817  1.4120
 3133SOL    HW220859   2.619   3.595  14.838  0.6692 -1.3086  3.3392
 3134SOL     OW20860   2.757   3.488  11.453 -0.0542 -0.6562 -0.0598
 3134SOL    HW120861   2.833   3.536  11.486 -0.4842 -0.4564  0.6357
 3134SOL    HW220862   2.753   3.529  11.366 -1.0376 -0.4915  0.0566
 3135SOL     OW20863   3.866   2.247   7.965 -0.3994 -0.3803  0.3094
 3135SOL    HW120864   3.850   2.306   8.039  0.0061  1.6524 -1.1958
 3135SOL    HW220865   3.942   2.281   7.917 -1.0053  1.2421  0.5078
 3136SOL     OW20866   4.288   2.387   1.638 -0.2907  0.5947 -0.1001
 3136SOL    HW120867   4.220   2.452   1.653 -2.2292 -1.8563  1.8427
 3136SOL    HW220868   4.299   2.357   1.729  1.2114  1.6606  0.0582
 3137SOL     OW20869   4.315   1.998   4.700  0.1383  0.0384  0.1219
 3137SOL    HW120870   4.296   2.055   4.774  1.1082  1.9957 -1.1343
 3137SOL    HW220871   4.388   2.043   4.656 -0.5692  0.5007 -0.5887
 3138SOL     OW20872   2.120   0.555  16.884 -0.0010  0.0304 -0.0865
 3138SOL    HW120873   2.185   0.504  16.934 -0.1682 -0.6262 -0.5325
 3138SOL    HW220874   2.122   0.500  16.806  0.2099  1.0209 -0.7771
 3139SOL     OW20875   0.551   0.747   6.466 -0.3825 -0.0750 -0.5569
 3139SOL    HW120876   0.458   0.768   6.456 -0.1552  1.6939  1.1147
 3139SOL    HW220877   0.583   0.722   6.379 -0.3094 -1.7079 -0.0719
 3140SOL     OW20878   0.863   0.611  12.989 -0.3695 -0.2573  0.3942
 3140SOL    HW120879   0.804   0.536  12.988 -2.4898  1.4229  0.2486
 3140SOL    HW220880   0.814   0.665  12.927 -1.0320 -1.2575  0.0512
 3141SOL     OW20881   3.111   1.578   7.180  0.4389 -0.2750  0.2392
 3141SOL    HW120882   3.189   1.535   7.146  0.8963 -1.2771  2.5775
 3141SOL    HW220883   3.110   1.562   7.274 -0.1231  0.7782  0.4079
 3142SOL     OW20884   3.932   1.960   7.057 -0.1422 -0.9280 -0.0253
 3142SOL    HW120885   3.972   2.017   6.991  0.9230 -1.7053 -0.0443
 3142SOL    HW220886   3.885   1.896   7.004  1.1598 -2.5823  0.8157
 3143SOL     OW20887   2.125   3.753   6.908  0.2815 -0.4555 -0.0527
 3143SOL    HW120888   2.037   3.728   6.933  0.2715  0.0783  0.4567
 3143SOL    HW220889   2.134   3.837   6.953 -1.6634 -0.1453 -0.2510
 3144SOL     OW20890   3.841   0.866   5.972 -0.0900  0.3464 -0.2174
 3144SOL    HW120891   3.807   0.778   5.955 -0.6388  0.8122 -1.4339
 3144SOL    HW220892   3.825   0.884   6.065  0.8005  3.8555 -0.7466
 3145SOL     OW20893   2.368   2.381   2.060  0.4781 -0.4996 -0.1745
 3145SOL    HW120894   2.403   2.470   2.057  1.1641 -0.7503  0.3986
 3145SOL    HW220895   2.280   2.403   2.091  0.8765  2.7291 -1.2824
 3146SOL     OW20896   3.218   2.445  15.254  0.1827  0.1848 -0.0305
 3146SOL    HW120897   3.306   2.424  15.284 -0.8030 -1.9058  1.4177
 3146SOL    HW220898   3.179   2.371  15.301 -2.3411 -0.0942 -2.6007
 3147SOL     OW20899   1.803   3.276   3.269 -0.5898 -0.3046 -0.1215
 3147SOL    HW120900   1.786   3.261   3.362 -2.1999  3.8013  0.2537
 3147SOL    HW220901   1.772   3.366   3.263 -0.3316 -0.1328  1.1365
 3148SOL     OW20902   1.829   0.778   3.429 -0.6524 -0.4071 -0.1557
 3148SOL    HW120903   1.922   0.757   3.439 -0.7071 -0.6035 -0.0671
 3148SOL    HW220904   1.824   0.823   3.513  1.4607 -0.4381 -0.0065
 3149SOL     OW20905   1.479   4.676   2.163 -0.1590  1.0368  0.2797
 3149SOL    HW120906   1.557   4.679   2.217 -1.5710  0.2955  2.3500
 3149SOL    HW220907   1.444   4.590   2.187  0.7977  0.5386 -0.1312
 3150SOL     OW20908   2.771   0.241   2.787  0.0678  0.3986 -0.1244
 3150SOL    HW120909   2.722   0.308   2.739  1.4227  0.5157 -1.3431
 3150SOL    HW220910   2.803   0.297   2.857 -2.8080  1.0880  0.6100
 3151SOL     OW20911   2.908   3.708   3.329 -0.2721 -0.6559  0.4342
 3151SOL    HW120912   2.919   3.681   3.421  1.5415  0.8965  0.6735
 3151SOL    HW220913   2.832   3.764   3.343 -0.3015 -0.2809 -1.2772
 3152SOL     OW20914   1.706   3.370   8.198  0.3937 -0.3587 -0.0191
 3152SOL    HW120915   1.762   3.383   8.122  0.0539  0.4278 -0.1318
 3152SOL    HW220916   1.622   3.352   8.156  0.5696  0.5876 -0.7607
 3153SOL     OW20917   1.411   2.386   3.112  0.0514 -0.2365 -0.1099
 3153SOL    HW120918   1.356   2.315   3.145  0.3779 -0.2178  0.4723
 3153SOL    HW220919   1.377   2.399   3.023 -2.7682 -2.7232  0.5982
 3154SOL     OW20920   0.186   1.010   6.655  0.4705  0.1664 -0.2055
 3154SOL    HW120921   0.234   0.970   6.582  1.3671 -0.7443  0.8893
 3154SOL    HW220922   0.112   0.958   6.684  0.9842  1.0760  2.7524
 3155SOL     OW20923   1.310   1.070   6.117  0.2949 -0.0503 -0.3080
 3155SOL    HW120924   1.281   1.129   6.047 -0.1877  0.0071 -0.0615
 3155SOL    HW220925   1.270   1.093   6.201  0.2884 -0.8032 -0.1066
 3156SOL     OW20926   1.959   2.867   2.963  1.0240  0.4139  0.5266
 3156SOL    HW120927   2.011   2.837   3.037  0.8436  1.4361  1.0638
 3156SOL    HW220928   1.981   2.960   2.963 -1.0485  0.9123 -0.5670
 3157SOL     OW20929   0.008   3.421  13.014  0.2528 -0.8078  0.5302
 3157SOL    HW120930   0.053   3.433  12.930 -1.8561 -0.7766 -0.5853
 3157SOL    HW220931   0.085   3.430  13.070  1.3574 -0.6142 -1.0282
 3158SOL     OW20932   0.094   3.709   9.827  0.3821  0.2659  0.6797
 3158SOL    HW120933   0.137   3.788   9.794 -1.0366  1.4585  1.6787
 3158SOL    HW220934   0.163   3.650   9.854 -0.1141  0.1660  1.7100
 3159SOL     OW20935   1.580   0.917  17.256  0.6164  0.3853  0.2492
 3159SOL    HW120936   1.547   0.960  17.177 -0.8383 -2.5286 -0.7550
 3159SOL    HW220937   1.655   0.877  17.213 -0.3145  1.1495 -2.0812
 3160SOL     OW20938   2.994   0.947  15.843 -0.1476  0.7038 -0.4492
 3160SOL    HW120939   3.084   0.923  15.824 -0.1556  0.6778 -0.4554
 3160SOL    HW220940   2.965   0.876  15.901 -0.7831  1.7950  0.5675
 3161SOL     OW20941   0.120   0.547   7.305  0.5170 -0.3198 -0.4384
 3161SOL    HW120942   0.099   0.601   7.382  1.7357 -0.2379 -0.1527
 3161SOL    HW220943   0.216   0.538   7.310  0.3249 -1.0858  2.2408
 3162SOL     OW20944   3.076   0.709   2.636  0.6651  0.5060 -0.4053
 3162SOL    HW120945   3.167   0.683   2.642  0.1235 -0.7906  2.3529
 3162SOL    HW220946   3.079   0.775   2.566 -0.3311  1.7133  0.6715
 3163SOL     OW20947   4.010   3.783   2.349  0.4565  0.4597  0.2604
 3163SOL    HW120948   4.027   3.826   2.433  3.5982 -0.3219  0.0027
 3163SOL    HW220949   3.974   3.856   2.298 -2.3991 -1.6454 -0.7329
 3164SOL     OW20950   0.554   0.759  15.267 -0.9344  0.9714  0.6017
 3164SOL    HW120951   0.471   0.759  15.314 -2.6215 -0.9973 -2.3234
 3164SOL    HW220952   0.603   0.841  15.255 -1.1422  0.9019 -0.7113
 3165SOL     OW20953   1.585   3.183   4.971  0.1350 -0.0301  0.4931
 3165SOL    HW120954   1.606   3.237   4.895 -0.4356 -0.9631 -0.3229
 3165SOL    HW220955   1.496   3.209   4.993  0.1540  0.3972  0.0743
 3166SOL     OW20956   2.149   0.911   4.592  0.1414 -0.4312 -0.0490
 3166SOL    HW120957   2.145   0.973   4.519 -3.1104 -1.2949 -0.5686
 3166SOL    HW220958   2.056   0.890   4.597  0.0140  0.3259  0.6918
 3167SOL     OW20959   0.018   3.167   2.714 -0.0051 -0.0018  0.2288
 3167SOL    HW120960   0.009   3.072   2.714  3.9888 -0.4086  1.1258
 3167SOL    HW220961   4.655   3.190   2.745  0.0587  1.0560 -0.3912
 3168SOL     OW20962   2.184   3.588   7.953  0.2059 -0.0250 -0.0022
 3168SOL    HW120963   2.159   3.677   7.978  0.8890  0.2991 -0.4975
 3168SOL    HW220964   2.262   3.571   8.007 -0.2959 -1.2161  0.3459
 3169SOL     OW20965   2.808   1.490   0.513 -0.1523  0.5687 -0.1156
 3169SOL    HW120966   2.728   1.479   0.461  0.2491 -0.1022 -0.5895
 3169SOL    HW220967   2.839   1.553   0.448  0.0840 -1.1052 -1.6081
 3170SOL     OW20968   1.601   2.428  15.905  0.7012 -0.9445 -0.2388
 3170SOL    HW120969   1.515   2.469  15.911 -0.1868 -2.6510 -1.2583
 3170SOL    HW220970   1.607   2.412  15.811  2.9325 -0.4220 -0.1989
 3171SOL     OW20971   4.148   1.249   6.872 -0.0701 -0.0946  0.1077
 3171SOL    HW120972   4.206   1.297   6.814  0.4734  1.0948  1.6305
 3171SOL    HW220973   4.151   1.308   6.947  0.1491 -1.7117  1.3789
 3172SOL     OW20974   4.553   3.192   2.321 -0.1612 -0.2626 -0.5820
 3172SOL    HW120975   4.501   3.131   2.268 -1.2894  1.3796 -1.3940
 3172SOL    HW220976   4.493   3.220   2.391  2.9436 -0.5006  2.1496
 3173SOL     OW20977   0.724   0.659   4.059 -0.8094 -0.1742  0.3144
 3173SOL    HW120978   0.803   0.711   4.071 -1.4382  0.2611  2.5657
 3173SOL    HW220979   0.656   0.724   4.041  0.1564  0.5584 -0.6784
 3174SOL     OW20980   4.501   4.388  13.968  0.3965  0.5316 -0.3194
 3174SOL    HW120981   4.587   4.429  13.968 -0.8165  3.0762 -0.0829
 3174SOL    HW220982   4.513   4.298  13.997  0.5725  1.1335  1.4838
 3175SOL     OW20983   1.029   0.902   1.229 -0.4881 -0.0996  0.0454
 3175SOL    HW120984   1.025   0.941   1.141 -0.5508 -0.4250 -0.0978
 3175SOL    HW220985   1.111   0.938   1.262 -0.9633  1.4725 -0.4906
 3176SOL     OW20986   1.088   1.811  17.551 -0.0853  0.3611  0.3424
 3176SOL    HW120987   1.085   1.907  17.550  1.0185  0.3904  0.2201
 3176SOL    HW220988   1.182   1.794  17.558  0.1718  1.6147 -0.1673
 3177SOL     OW20989   0.480   2.904   6.773  0.3146 -0.1253 -0.2579
 3177SOL    HW120990   0.419   2.834   6.793  0.1677 -0.5536 -2.2438
 3177SOL    HW220991   0.432   2.969   6.824 -0.6557 -2.6146  2.0140
 3178SOL     OW20992   1.821   4.011   9.069 -0.4847 -0.3532 -0.5420
 3178SOL    HW120993   1.835   3.971   8.983 -1.3548 -2.4463  0.2977
 3178SOL    HW220994   1.726   3.999   9.069 -0.8065  2.1871 -2.3070
 3179SOL     OW20995   1.714   4.305  15.632  0.0124  0.1354  0.1133
 3179SOL    HW120996   1.707   4.315  15.727  0.4327 -1.8414  0.3522
 3179SOL    HW220997   1.809   4.318  15.629  0.5110 -4.0274 -1.5721
 3180SOL     OW20998   4.619   2.400   7.226 -0.7853 -0.0367  0.2281
 3180SOL    HW120999   4.679   2.337   7.265 -0.6188 -0.7333 -1.1260
 3180SOL    HW221000   4.535   2.356   7.238 -1.3553  1.0022 -0.0124
 3181SOL     OW21001   3.772   0.172   3.033  0.1222  0.1514  0.1890
 3181SOL    HW121002   3.807   0.237   2.972  0.9524  0.3933  0.9221
 3181SOL    HW221003   3.678   0.189   3.022  0.3128  0.0296 -1.5445
 3182SOL     OW21004   4.217   3.434   3.469 -0.1193  0.3015  0.1408
 3182SOL    HW121005   4.165   3.504   3.428 -0.7806 -1.0474 -1.3339
 3182SOL    HW221006   4.272   3.408   3.395 -0.8316  0.1705 -0.3477
 3183SOL     OW21007   0.308   2.669  14.388 -0.7571 -0.2000  0.2769
 3183SOL    HW121008   0.216   2.653  14.364 -0.4911 -1.0427 -0.1604
 3183SOL    HW221009   0.335   2.578  14.376 -0.9895  0.0321 -2.0551
 3184SOL     OW21010   0.881   1.339   8.410 -0.2054 -0.1739  0.0391
 3184SOL    HW121011   0.949   1.378   8.354 -1.8711  2.0557 -0.4027
 3184SOL    HW221012   0.864   1.405   8.477  1.3988  0.7403 -0.4500
 3185SOL     OW21013   2.540   0.915   8.348  1.0678  0.4582  0.1350
 3185SOL    HW121014   2.527   0.865   8.429  1.0342  2.0170  1.0969
 3185SOL    HW221015   2.632   0.940   8.350  0.7520  1.7051 -0.8179
 3186SOL     OW21016   3.783   3.800  10.341  0.1621  0.4193 -0.1237
 3186SOL    HW121017   3.730   3.804  10.261 -2.2765  0.1994  1.4659
 3186SOL    HW221018   3.833   3.880  10.324  1.2281 -0.4470 -1.0737
 3187SOL     OW21019   1.226   0.678   6.440 -0.5736  0.0933  0.1418
 3187SOL    HW121020   1.157   0.629   6.397 -0.1284 -1.2160  0.9250
 3187SOL    HW221021   1.186   0.695   6.525 -1.5080 -0.7060 -0.1341
 3188SOL     OW21022   3.546   1.835   3.953 -0.4327  0.2279 -0.5620
 3188SOL    HW121023   3.528   1.849   3.860  0.5302 -1.6216 -1.0299
 3188SOL    HW221024   3.637   1.806   3.943 -0.4670 -0.1731  0.2940
 3189SOL     OW21025   3.815   0.308   5.257  0.0821 -0.5428  0.4579
 3189SOL    HW121026   3.783   0.312   5.347  0.0200 -1.0867  0.4609
 3189SOL    HW221027   3.737   0.326   5.204 -0.6241  0.6279  1.9008
 3190SOL     OW21028   3.178   2.318   1.831  0.1963 -0.7449  0.1181
 3190SOL    HW121029   3.253   2.348   1.779 -2.4235 -0.3796 -3.4925
 3190SOL    HW221030   3.102   2.364   1.795  0.5149 -0.0855  0.2814
 3191SOL     OW21031   1.608   1.089   6.260 -0.1142 -0.1109 -0.2869
 3191SOL    HW121032   1.546   1.016   6.256 -2.4385  1.8408  0.4094
 3191SOL    HW221033   1.599   1.113   6.352  0.6075 -0.1376 -0.2084
 3192SOL     OW21034   4.667   0.536   8.438  0.0331 -0.3226 -0.3385
 3192SOL    HW121035   4.621   0.574   8.513 -0.7341  0.3741 -1.1601
 3192SOL    HW221036   0.028   0.526   8.481 -1.7547 -0.6729  3.1341
 3193SOL     OW21037   1.697   0.506  15.871  0.0256  0.4577  0.0467
 3193SOL    HW121038   1.649   0.454  15.936  0.4040  3.0786  2.4281
 3193SOL    HW221039   1.742   0.434  15.827  0.4480  1.2416 -0.7919
 3194SOL     OW21040   1.918   0.278   1.407 -0.5572 -0.3420  0.8684
 3194SOL    HW121041   1.966   0.342   1.459 -0.8201 -0.2697  1.0180
 3194SOL    HW221042   1.838   0.265   1.456 -0.3326  1.2628  1.6622
 3195SOL     OW21043   0.620   0.573  12.100  0.8281  0.5134  0.5811
 3195SOL    HW121044   0.590   0.505  12.040  3.1022  0.1263 -0.1049
 3195SOL    HW221045   0.691   0.533  12.151  1.6232  1.4818  0.2406
 3196SOL     OW21046   2.279   1.735   7.724 -0.1414  0.0151  0.7060
 3196SOL    HW121047   2.245   1.645   7.728  0.2024 -0.1464 -0.0595
 3196SOL    HW221048   2.218   1.789   7.775  0.8033  2.2070 -0.4799
 3197SOL     OW21049   3.454   4.540   8.430 -0.0086 -0.1118 -0.3122
 3197SOL    HW121050   3.548   4.558   8.432  0.3364 -1.7308 -1.7281
 3197SOL    HW221051   3.421   4.611   8.375  1.3991 -0.5080 -1.7018
 3198SOL     OW21052   3.416   0.994   5.470 -0.0234  0.5704 -0.5849
 3198SOL    HW121053   3.393   1.055   5.540 -0.8172 -0.6927  0.2614
 3198SOL    HW221054   3.376   0.909   5.488  2.2196 -0.5050 -0.6265
 3199SOL     OW21055   1.164   2.128  17.417  0.1846 -0.4073 -0.3204
 3199SOL    HW121056   1.125   2.210  17.387 -0.2163 -0.1344  0.9662
 3199SOL    HW221057   1.199   2.165  17.498 -1.0675  1.3674 -0.5911
 3200SOL     OW21058   2.759   0.226   8.282  0.4565  0.4352  0.0677
 3200SOL    HW121059   2.811   0.146   8.281  3.4914  2.3851  0.7043
 3200SOL    HW221060   2.783   0.266   8.366  0.0673  0.3655  0.2148
 3201SOL     OW21061   0.802   4.521   6.620  0.0111  0.9078  0.0853
 3201SOL    HW121062   0.750   4.533   6.541  0.4370 -0.1707 -0.3455
 3201SOL    HW221063   0.792   4.608   6.661  0.4066  2.4336 -3.0699
 3202SOL     OW21064   1.021   0.870   9.118 -0.0433 -0.4113  0.3364
 3202SOL    HW121065   0.952   0.864   9.184 -0.7447 -0.1047 -0.3739
 3202SOL    HW221066   0.999   0.951   9.071  0.4289 -0.5360 -0.1010
 3203SOL     OW21067   1.513   2.961   2.789  0.4785  0.0752  0.8578
 3203SOL    HW121068   1.609   2.954   2.793  0.5483 -0.2997 -1.5048
 3203SOL    HW221069   1.493   2.868   2.779  1.0870  0.1082 -0.7340
 3204SOL     OW21070   0.198   2.571   1.014  0.3466 -0.0964  0.6647
 3204SOL    HW121071   0.276   2.585   1.069  0.1098  1.4416  0.6086
 3204SOL    HW221072   0.171   2.484   1.041 -2.4158  0.6831  0.3716
 3205SOL     OW21073   3.093   3.751   6.487 -0.1776  0.3467 -0.3274
 3205SOL    HW121074   3.142   3.669   6.474 -1.4731 -0.4201 -0.3288
 3205SOL    HW221075   3.077   3.775   6.396  0.1235 -0.7244 -0.6644
 3206SOL     OW21076   0.078   2.370   7.999 -0.1244 -0.0078  0.2798
 3206SOL    HW121077   0.082   2.430   8.074  3.2405 -1.4532  1.2703
 3206SOL    HW221078   0.097   2.425   7.923  2.5414  0.1222  1.0249
 3207SOL     OW21079   4.144   0.028   6.088  0.1804 -0.1672  0.1094
 3207SOL    HW121080   4.178   4.707   6.165  0.6026  1.6956  0.9897
 3207SOL    HW221081   4.122   4.679   6.029 -1.7365  0.9810 -0.5636
 3208SOL     OW21082   3.099   2.974   2.866  0.1811  0.0122 -0.7374
 3208SOL    HW121083   3.173   3.033   2.850 -1.3303  2.3470  0.9007
 3208SOL    HW221084   3.108   2.912   2.794 -0.2857 -1.6510  0.6207
 3209SOL     OW21085   3.557   4.416   3.658 -1.1059 -0.7048 -0.2426
 3209SOL    HW121086   3.582   4.350   3.594 -0.8592 -1.4445  0.6180
 3209SOL    HW221087   3.647   4.427   3.691 -0.8978  0.9448 -1.3470
 3210SOL     OW21088   1.370   4.233   5.240  0.4653  0.6820 -0.0313
 3210SOL    HW121089   1.392   4.146   5.209  0.3054  1.1798 -1.5531
 3210SOL    HW221090   1.284   4.242   5.198 -0.2887  1.3759  1.6556
 3211SOL     OW21091   2.910   4.225   3.239 -0.3957 -0.0664  0.1935
 3211SOL    HW121092   2.995   4.266   3.253 -0.9285  1.1640 -0.1074
 3211SOL    HW221093   2.865   4.240   3.322 -0.2801 -1.4699  0.5001
 3212SOL     OW21094   4.248   0.720   4.747  0.4135 -0.2681  0.2908
 3212SOL    HW121095   4.237   0.626   4.730 -0.6040 -0.1883  0.5006
 3212SOL    HW221096   4.240   0.737   4.841  0.2818 -1.8777  0.5760
 3213SOL     OW21097   1.659   1.866   0.902  0.3347 -0.0404 -0.3478
 3213SOL    HW121098   1.591   1.885   0.838 -0.1729  0.4537  0.3423
 3213SOL    HW221099   1.621   1.890   0.986  3.3295 -1.4234  1.3884
 3214SOL     OW21100   2.984   0.324   5.539  0.0157  0.2786  0.2377
 3214SOL    HW121101   2.924   0.296   5.607  1.4378  1.5043  1.9837
 3214SOL    HW221102   2.948   0.275   5.465  1.8144  1.2127 -1.2527
 3215SOL     OW21103   1.639   3.427   7.011 -0.0873  0.2067  0.0403
 3215SOL    HW121104   1.602   3.495   6.955  0.0179  0.5712  0.4113
 3215SOL    HW221105   1.583   3.354   6.986  0.5468 -0.7096  1.2853
 3216SOL     OW21106   3.314   3.634   3.591  0.0648  0.3573 -0.6474
 3216SOL    HW121107   3.221   3.637   3.613  0.2172 -1.3586  0.1649
 3216SOL    HW221108   3.317   3.659   3.498 -0.1135  1.0781 -0.4579
 3217SOL     OW21109   3.740   0.615  10.326  0.3830  0.1534 -0.3579
 3217SOL    HW121110   3.697   0.643  10.245 -1.7036 -0.2151  0.6525
 3217SOL    HW221111   3.835   0.628  10.317  0.0264  2.6900 -0.5811
 3218SOL     OW21112   3.128   3.352  14.836 -0.1255 -0.4685  0.2928
 3218SOL    HW121113   3.131   3.345  14.931  0.7470 -2.7254  0.0877
 3218SOL    HW221114   3.107   3.262  14.810 -0.9047 -0.8307  2.1615
 3219SOL     OW21115   1.748   3.800   6.046 -0.7817  0.2374 -0.0709
 3219SOL    HW121116   1.792   3.773   6.127 -1.2678 -1.1499 -0.2583
 3219SOL    HW221117   1.669   3.746   6.054  0.1733 -0.8565  1.9210
 3220SOL     OW21118   2.441   4.647   6.451  0.4300  0.4680 -0.1845
 3220SOL    HW121119   2.504   4.696   6.503 -0.3819 -0.2749  1.5216
 3220SOL    HW221120   2.495   4.600   6.387  2.0120 -1.3105  2.4566
 3221SOL     OW21121   0.705   4.464  11.829 -0.1661  0.0667 -0.1247
 3221SOL    HW121122   0.614   4.484  11.848 -0.4962 -1.1938 -0.4336
 3221SOL    HW221123   0.757   4.544  11.843  0.6150 -0.5190  0.3315
 3222SOL     OW21124   0.053   3.727   4.263  0.0541  0.0604  0.5871
 3222SOL    HW121125   0.144   3.701   4.251 -0.8214 -2.9193  0.3709
 3222SOL    HW221126   0.047   3.811   4.217 -0.7056 -0.4388 -0.2347
 3223SOL     OW21127   3.911   4.674   6.953 -0.5336 -0.1575 -0.1626
 3223SOL    HW121128   3.923   4.601   6.892  0.4402 -0.5058  0.4586
 3223SOL    HW221129   3.949   0.025   6.908 -2.0343  0.0148 -1.1755
 3224SOL     OW21130   4.300   4.521   4.475  0.1285  0.1125 -0.0005
 3224SOL    HW121131   4.292   4.475   4.391  2.8636 -2.2320  1.0534
 3224SOL    HW221132   4.393   4.544   4.471 -0.1528  1.5441  1.8434
 3225SOL     OW21133   1.976   4.353  17.650 -0.8689 -0.4792  0.4527
 3225SOL    HW121134   1.970   4.446  17.670 -1.2837 -1.1125  3.3281
 3225SOL    HW221135   1.883   4.340  17.630 -0.9805  0.3252  0.4580
 3226SOL     OW21136   4.213   4.710   7.367 -0.1878  0.7486 -0.0519
 3226SOL    HW121137   4.195   4.621   7.396 -0.9308  1.6965  2.3740
 3226SOL    HW221138   4.308   4.718   7.380 -0.2670 -0.1322  0.9925
 3227SOL     OW21139   4.251   1.379   3.429  0.1661 -0.0564  0.0556
 3227SOL    HW121140   4.167   1.337   3.414  0.9353 -1.9703  0.9977
 3227SOL    HW221141   4.254   1.365   3.524  0.9287  0.1384  0.0623
 3228SOL     OW21142   1.439   1.576   4.485 -0.3413  0.0051  0.1994
 3228SOL    HW121143   1.528   1.552   4.460 -1.3098 -0.9456 -2.2806
 3228SOL    HW221144   1.453   1.648   4.547  2.7629  0.2208 -0.7880
 3229SOL     OW21145   3.030   2.523  15.638  0.0759 -0.3364  0.5153
 3229SOL    HW121146   3.023   2.486  15.550  1.8609 -1.9961  1.0673
 3229SOL    HW221147   2.948   2.495  15.678  0.0188  0.5935  1.0523
 3230SOL     OW21148   4.555   0.931   9.126 -0.5635  0.1724 -0.1468
 3230SOL    HW121149   4.561   1.008   9.070  0.9485  0.2882  0.1900
 3230SOL    HW221150   4.596   0.955   9.209  1.5332 -2.0406 -0.5440
 3231SOL     OW21151   2.553   3.160   1.562 -0.0357 -0.5498  0.6440
 3231SOL    HW121152   2.617   3.231   1.567 -2.7288  1.8828  0.0389
 3231SOL    HW221153   2.475   3.202   1.526 -1.4481 -1.3628  2.7881
 3232SOL     OW21154   3.721   2.438   4.281 -0.6386 -0.3826  0.0658
 3232SOL    HW121155   3.737   2.369   4.217  0.4422  0.0191 -0.1042
 3232SOL    HW221156   3.664   2.398   4.346 -1.1229  1.7289  0.9491
 3233SOL     OW21157   4.569   1.902   6.441 -0.2467  0.5154  0.0236
 3233SOL    HW121158   4.535   1.833   6.384 -0.0291  0.9930 -0.6858
 3233SOL    HW221159   4.490   1.911   6.494 -0.5518  0.6249 -0.4411
 3234SOL     OW21160   0.963   0.944  13.066  0.4849  0.0839 -0.0472
 3234SOL    HW121161   0.978   1.036  13.045  1.6428  0.3667  1.9898
 3234SOL    HW221162   0.872   0.949  13.094  1.2109 -0.1502  2.3032
 3235SOL     OW21163   3.845   1.067   3.552 -0.5384  0.2419  0.3506
 3235SOL    HW121164   3.870   1.102   3.638 -0.6085  0.7470  0.1671
 3235SOL    HW221165   3.931   1.035   3.524 -1.3375 -1.2642 -0.3336
 3236SOL     OW21166   3.435   2.741   3.483  0.3352 -0.1641 -0.0649
 3236SOL    HW121167   3.478   2.744   3.398 -1.8122  0.8538 -1.1304
 3236SOL    HW221168   3.444   2.826   3.527 -1.6902 -1.1328  2.2568
 3237SOL     OW21169   2.025   3.922   8.312  0.0217  0.2438  0.0051
 3237SOL    HW121170   1.973   3.869   8.252  1.9119 -2.4974  0.7668
 3237SOL    HW221171   2.060   3.992   8.257  1.0977  1.0283  1.6556
 3238SOL     OW21172   1.066   3.121   5.791  0.5371  0.5334 -0.5124
 3238SOL    HW121173   1.110   3.106   5.708 -0.9305 -0.4378 -1.1159
 3238SOL    HW221174   1.047   3.213   5.774 -0.0910  0.1254 -2.0163
 3239SOL     OW21175   1.468   1.912   2.625  0.2557  0.4258  0.5384
 3239SOL    HW121176   1.498   1.864   2.548 -0.5754  1.4353 -0.4158
 3239SOL    HW221177   1.410   1.981   2.594 -0.7129 -0.3338  0.6334
 3240SOL     OW21178   0.496   0.303   7.948  0.2933 -0.2100  0.1215
 3240SOL    HW121179   0.404   0.320   7.931  0.3660  0.3019  0.2447
 3240SOL    HW221180   0.538   0.300   7.861 -0.7266 -0.8205 -0.3512
 3241SOL     OW21181   0.886   2.921   5.883  0.0213  0.6006  0.4987
 3241SOL    HW121182   0.840   2.885   5.808  0.0296  2.2346 -0.2630
 3241SOL    HW221183   0.926   2.999   5.845  1.2381 -0.3035 -0.0744
 3242SOL     OW21184   3.177   2.272   3.783  0.4970  1.1659 -0.1744
 3242SOL    HW121185   3.199   2.187   3.746  1.3544  1.0983  0.4965
 3242SOL    HW221186   3.238   2.276   3.856  1.3066  1.7267 -0.8799
 3243SOL     OW21187   1.321   0.265   8.081 -0.0170 -0.5744  0.4655
 3243SOL    HW121188   1.415   0.253   8.069 -0.0871 -0.6135 -0.0395
 3243SOL    HW221189   1.291   0.298   7.997  1.6132 -0.9633 -0.2635
 3244SOL     OW21190   1.073   2.780  13.537 -0.1596 -0.3286 -0.1283
 3244SOL    HW121191   1.035   2.692  13.540  0.0455 -0.4354 -0.6138
 3244SOL    HW221192   1.083   2.789  13.442  0.6828  1.1308  0.1027
 3245SOL     OW21193   2.919   0.990   1.330  0.6464  0.2322  0.3330
 3245SOL    HW121194   2.976   1.060   1.361  1.1184 -0.0625  0.1339
 3245SOL    HW221195   2.837   1.029   1.361  0.1078 -0.8417  0.2724
 3246SOL     OW21196   3.130   2.498  10.374 -0.1128 -0.2274 -0.1963
 3246SOL    HW121197   3.196   2.489  10.443 -0.1680 -0.5802 -0.1896
 3246SOL    HW221198   3.177   2.554  10.313 -2.0287  3.3771  1.6670
 3247SOL     OW21199   2.937   0.611   4.913  0.3882  0.4308  0.3253
 3247SOL    HW121200   2.984   0.568   4.983  1.6295 -0.0218 -0.7797
 3247SOL    HW221201   3.002   0.644   4.850 -0.7745 -0.2696 -1.2548
 3248SOL     OW21202   2.201   3.861   2.067  0.5711 -0.2957  0.7837
 3248SOL    HW121203   2.121   3.888   2.023 -0.1240  1.2764  3.0389
 3248SOL    HW221204   2.251   3.832   1.991  0.1034  1.4304 -0.1790
 3249SOL     OW21205   1.006   3.399   0.996 -0.1458 -0.3316  0.2876
 3249SOL    HW121206   1.002   3.429   1.087 -0.6487  0.0633  0.1416
 3249SOL    HW221207   0.914   3.381   0.978 -0.2940  1.5545 -0.8804
 3250SOL     OW21208   0.405   1.573   9.259 -0.1374  0.0643 -0.2504
 3250SOL    HW121209   0.344   1.540   9.325 -1.9422  0.0667 -1.9025
 3250SOL    HW221210   0.351   1.618   9.193 -0.8332  0.0189  0.2863
 3251SOL     OW21211   4.142   1.215   5.315  0.0615  0.5261 -0.1120
 3251SOL    HW121212   4.166   1.143   5.374  1.3793  0.6561 -0.4842
 3251SOL    HW221213   4.223   1.266   5.316 -0.6570  1.6549 -0.6265
 3252SOL     OW21214   1.898   3.308   6.334 -0.7666  0.0761  0.2567
 3252SOL    HW121215   1.977   3.321   6.282 -0.8342 -0.4688  0.0249
 3252SOL    HW221216   1.842   3.272   6.267 -0.8628  0.5003  0.1069
 3253SOL     OW21217   3.539   1.842   9.819 -0.1761 -0.8279 -0.2743
 3253SOL    HW121218   3.500   1.762   9.854  1.2980 -1.2435  0.4212
 3253SOL    HW221219   3.499   1.838   9.732 -0.2460 -0.3796 -0.2665
 3254SOL     OW21220   1.012   3.480   4.528 -0.2770  0.5726 -0.3128
 3254SOL    HW121221   1.088   3.450   4.577 -1.0439 -1.4978 -0.3687
 3254SOL    HW221222   1.047   3.524   4.451  0.5751  0.2021 -0.1340
 3255SOL     OW21223   1.069   0.247   5.005  0.3504 -0.2811 -0.1120
 3255SOL    HW121224   1.034   0.179   5.062  0.3372 -0.1709  0.0093
 3255SOL    HW221225   1.054   0.209   4.918 -2.1603 -1.0730  0.6649
 3256SOL     OW21226   4.238   2.618   3.624  0.9056 -0.3111 -0.1263
 3256SOL    HW121227   4.285   2.688   3.578  0.3268 -0.7637 -1.3903
 3256SOL    HW221228   4.170   2.659   3.677  1.1971  0.4086 -0.3074
 3257SOL     OW21229   2.037   1.159   8.333 -0.8371 -0.5545 -0.1543
 3257SOL    HW121230   2.110   1.160   8.395 -1.1235  1.1687  0.1545
 3257SOL    HW221231   2.043   1.241   8.285  0.8640 -1.4067 -1.3936
 3258SOL     OW21232   1.616   2.420   1.281 -0.6445  0.2625 -1.3725
 3258SOL    HW121233   1.615   2.341   1.333  0.1241  0.7590 -0.6154
 3258SOL    HW221234   1.525   2.434   1.253 -0.2239  2.5002 -1.6971
 3259SOL     OW21235   1.866   1.945   3.527 -0.2835 -0.0750  0.0714
 3259SOL    HW121236   1.844   2.031   3.491  0.6472  0.2152  0.1925
 3259SOL    HW221237   1.859   1.890   3.449 -0.5944  0.2666 -0.1417
 3260SOL     OW21238   1.503   4.572   4.770  0.0700  0.2143 -0.3266
 3260SOL    HW121239   1.597   4.584   4.759  0.6171 -1.6522  2.2772
 3260SOL    HW221240   1.479   4.568   4.678 -1.6086 -1.4683  0.1854
 3261SOL     OW21241   1.415   3.343   2.990 -0.0972  0.1666 -0.1428
 3261SOL    HW121242   1.484   3.364   2.928  0.5186  0.3692  0.6066
 3261SOL    HW221243   1.407   3.248   2.987 -0.9648  0.3424 -3.2413
 3262SOL     OW21244   1.114   2.875   2.057 -0.4833  0.7074  0.1899
 3262SOL    HW121245   1.147   2.795   2.016 -2.5408  0.5931 -1.2723
 3262SOL    HW221246   1.125   2.848   2.149 -2.0354  1.7660  0.6816
 3263SOL     OW21247   0.577   1.817  16.441  0.3534  0.4723  0.5101
 3263SOL    HW121248   0.597   1.725  16.455  1.8754  0.7999  0.5469
 3263SOL    HW221249   0.520   1.838  16.514  0.1667  0.6920  0.3022
 3264SOL     OW21250   3.457   2.984   3.608 -0.0429  0.2423 -0.3338
 3264SOL    HW121251   3.454   3.066   3.558 -0.8008  1.1927  1.2768
 3264SOL    HW221252   3.546   2.997   3.642  0.1943 -0.3059 -0.7518
 3265SOL     OW21253   2.675   3.384   1.629 -0.3067  0.1490  0.5768
 3265SOL    HW121254   2.658   3.442   1.704 -2.4998 -0.5984  0.6693
 3265SOL    HW221255   2.722   3.442   1.569 -0.3986  0.7421  1.0772
 3266SOL     OW21256   1.313   2.730  15.013 -0.3570  0.0763  0.2535
 3266SOL    HW121257   1.340   2.643  14.981 -1.6805  0.3999 -1.7704
 3266SOL    HW221258   1.381   2.788  14.979 -1.0191  1.4718  1.3363
 3267SOL     OW21259   0.976   0.705   5.694 -0.1024 -0.3284 -0.0650
 3267SOL    HW121260   1.049   0.651   5.666  1.0664  0.8969  0.6238
 3267SOL    HW221261   1.018   0.791   5.694 -1.9416  0.5774  0.1708
 3268SOL     OW21262   2.315   3.605  10.546 -0.1861  0.2567 -0.1917
 3268SOL    HW121263   2.367   3.535  10.507 -0.0686  0.7496 -0.9185
 3268SOL    HW221264   2.279   3.550  10.615  1.3883 -1.0574 -0.4121
 3269SOL     OW21265   1.911   0.570  16.050 -0.1362 -0.1543 -0.2878
 3269SOL    HW121266   1.891   0.591  15.959 -0.2277  2.6082  0.3770
 3269SOL    HW221267   1.848   0.499  16.062  1.2591 -1.5886 -1.3855
 3270SOL     OW21268   0.031   3.065   8.304  0.1078  0.2713  0.0829
 3270SOL    HW121269   0.095   3.126   8.266  0.6373 -0.7597 -0.6702
 3270SOL    HW221270   4.689   3.123   8.344  0.1026  0.3838 -0.0882
 3271SOL     OW21271   3.157   3.222   4.051  0.4901  0.1136 -0.8624
 3271SOL    HW121272   3.183   3.209   3.960  0.5063  0.3019 -0.8840
 3271SOL    HW221273   3.160   3.136   4.094 -0.3033  0.1093 -0.8069
 3272SOL     OW21274   3.469   4.653   1.330 -0.0379 -0.4384  0.0798
 3272SOL    HW121275   3.471   4.559   1.347  2.2779 -0.1665  1.2491
 3272SOL    HW221276   3.389   4.651   1.278  0.4410 -1.7090 -0.6017
 3273SOL     OW21277   0.021   3.460  16.489 -0.2299 -0.2021 -0.1882
 3273SOL    HW121278   0.071   3.472  16.408  0.4973 -0.1591  0.2692
 3273SOL    HW221279   4.698   3.376  16.487  0.4843 -0.5898 -0.8736
 3274SOL     OW21280   4.610   2.521   7.527 -0.2712  0.3081  0.2009
 3274SOL    HW121281   4.675   2.457   7.501  0.3676  0.8291  0.5226
 3274SOL    HW221282   4.558   2.514   7.447 -2.0559 -0.4995  1.4238
 3275SOL     OW21283   1.570   1.938   8.830  0.1179  0.1906 -0.4587
 3275SOL    HW121284   1.639   1.979   8.881 -1.0281 -0.0100  1.2592
 3275SOL    HW221285   1.514   2.016   8.826 -0.5771 -0.2019  1.9111
 3276SOL     OW21286   0.563   0.651   9.289 -0.6730 -0.0778  0.0644
 3276SOL    HW121287   0.614   0.570   9.277  1.0654  1.4918 -3.2158
 3276SOL    HW221288   0.491   0.643   9.226 -1.2980 -0.1422  0.7961
 3277SOL     OW21289   0.162   4.691   6.853  0.8482  0.2040 -0.1242
 3277SOL    HW121290   0.149   4.615   6.910  0.3999 -0.4187 -1.0375
 3277SOL    HW221291   0.074   4.705   6.819  1.3548  1.4562 -0.8875
 3278SOL     OW21292   2.658   3.586   5.081  0.5882  0.5733 -0.1904
 3278SOL    HW121293   2.727   3.609   5.019  1.8195  1.2074  1.4121
 3278SOL    HW221294   2.588   3.648   5.063 -1.1222 -2.3387 -3.4006
 3279SOL     OW21295   0.054   4.230   7.942 -0.0571  0.4633 -0.6563
 3279SOL    HW121296   0.004   4.312   7.937 -0.3316  0.2668 -1.1065
 3279SOL    HW221297   0.107   4.236   7.864 -0.8387  0.9163 -1.1563
 3280SOL     OW21298   2.569   4.403   5.402  0.4349 -1.0309 -0.4234
 3280SOL    HW121299   2.514   4.325   5.408 -1.2884  0.3699  1.5625
 3280SOL    HW221300   2.519   4.456   5.340 -2.0728 -1.9583  0.8012
 3281SOL     OW21301   1.316   1.251   3.719 -0.7450 -0.3978  0.3038
 3281SOL    HW121302   1.401   1.223   3.751 -0.4368  0.2609  0.0678
 3281SOL    HW221303   1.345   1.318   3.657 -0.8469 -0.8786 -0.2679
 3282SOL     OW21304   0.632   3.583   5.678 -0.3275 -0.3807 -0.0345
 3282SOL    HW121305   0.667   3.530   5.750 -0.1026 -0.1621  0.0187
 3282SOL    HW221306   0.543   3.601   5.707 -0.1670 -2.2599  1.6854
 3283SOL     OW21307   3.262   3.820  12.931  0.0538  0.3366 -0.1186
 3283SOL    HW121308   3.244   3.774  13.012  0.4416 -1.7343 -1.2103
 3283SOL    HW221309   3.228   3.908  12.947  1.4473  1.0638 -1.1342
 3284SOL     OW21310   3.335   4.206   6.458  0.6289 -0.3233  0.2567
 3284SOL    HW121311   3.250   4.230   6.420  0.3674  0.6963  1.4631
 3284SOL    HW221312   3.335   4.231   6.551 -1.0656  0.4139  0.0685
 3285SOL     OW21313   0.394   4.023   7.446  0.1195 -0.0179 -0.0677
 3285SOL    HW121314   0.434   3.999   7.362  1.0464 -0.1847  0.4198
 3285SOL    HW221315   0.418   4.115   7.456  2.1929 -0.3676 -1.6309
 3286SOL     OW21316   3.291   3.956   9.177 -0.3173 -0.2051 -0.1032
 3286SOL    HW121317   3.261   3.879   9.225  0.9035 -0.1052  0.7984
 3286SOL    HW221318   3.386   3.955   9.188 -0.2757  0.0527 -0.4392
 3287SOL     OW21319   3.499   2.182   4.820 -0.0080  0.0814 -0.1873
 3287SOL    HW121320   3.552   2.140   4.752 -0.7660  0.4284 -0.9951
 3287SOL    HW221321   3.529   2.273   4.810 -3.0311  1.1971  0.9144
 3288SOL     OW21322   3.922   4.380   4.431  0.1287 -0.3154  0.2295
 3288SOL    HW121323   3.997   4.323   4.415 -0.3290 -1.5126  2.3015
 3288SOL    HW221324   3.902   4.364   4.524  0.2506 -0.3859  0.2430
 3289SOL     OW21325   3.869   0.958   8.232 -0.6800  0.1082 -0.9345
 3289SOL    HW121326   3.826   1.043   8.227  0.6769  0.7974 -0.9451
 3289SOL    HW221327   3.836   0.924   8.315 -3.0046  0.9376 -1.5155
 3290SOL     OW21328   0.417   0.467   7.271 -0.2636 -0.1235 -0.0641
 3290SOL    HW121329   0.378   0.459   7.184  0.0973  1.9225 -0.4033
 3290SOL    HW221330   0.436   0.561   7.270 -1.3601  0.1137  1.7269
 3291SOL     OW21331   2.901   4.697   6.252  0.2695  0.0807  0.3160
 3291SOL    HW121332   2.810   4.684   6.281 -0.1608 -2.3500 -2.0229
 3291SOL    HW221333   2.924   4.608   6.225  2.4351  1.0364 -0.9800
 3292SOL     OW21334   0.614   0.099   2.465  0.0931 -0.0490 -0.0506
 3292SOL    HW121335   0.654   0.017   2.492  1.4201 -0.2521 -2.6201
 3292SOL    HW221336   0.692   0.154   2.464 -1.1581  1.7168 -1.5604
 3293SOL     OW21337   2.830   4.641   2.327  0.2638  0.2838 -0.0738
 3293SOL    HW121338   2.835   4.643   2.231 -2.2023 -0.5458 -0.2297
 3293SOL    HW221339   2.885   4.565   2.345  1.8020  1.1711 -0.9647
 3294SOL     OW21340   1.728   2.863  13.879 -0.1752 -0.3042  0.4802
 3294SOL    HW121341   1.755   2.955  13.872  1.1613 -0.6867  0.6034
 3294SOL    HW221342   1.709   2.849  13.787  0.6707  1.6729 -0.0016
 3295SOL     OW21343   1.207   3.980  14.448 -0.0849 -0.0100 -0.2763
 3295SOL    HW121344   1.143   3.986  14.377 -0.2348 -2.0684 -0.3125
 3295SOL    HW221345   1.190   3.889  14.472 -0.5846 -0.2525 -1.5340
 3296SOL     OW21346   3.030   4.311   4.473 -0.1058 -0.1248 -0.0645
 3296SOL    HW121347   3.058   4.401   4.492  0.5850 -0.2607 -0.4465
 3296SOL    HW221348   3.060   4.260   4.548  1.3238  2.5488  1.1933
 3297SOL     OW21349   0.905   1.531   5.080  0.3508  0.5481  0.6309
 3297SOL    HW121350   0.832   1.561   5.134  0.9864  3.0888  0.0835
 3297SOL    HW221351   0.885   1.583   5.002  0.0616  2.0426  1.7202
 3298SOL     OW21352   2.435   0.783   4.474  0.3544 -0.0555  0.5484
 3298SOL    HW121353   2.455   0.716   4.540  1.1477 -0.6261 -0.2628
 3298SOL    HW221354   2.519   0.802   4.432  0.0057 -1.5252 -0.7993
 3299SOL     OW21355   3.350   2.386  17.202  0.1724  0.1273  0.0506
 3299SOL    HW121356   3.282   2.413  17.140  0.0831  0.1274  0.1477
 3299SOL    HW221357   3.377   2.475  17.224  2.7257 -0.8591  0.8424
 3300SOL     OW21358   3.976   0.914   7.919  0.1239 -0.4031 -0.0675
 3300SOL    HW121359   4.016   0.984   7.970 -0.7814  0.4567 -0.5342
 3300SOL    HW221360   3.886   0.930   7.947 -0.6807  1.7816 -3.8731
 3301SOL     OW21361   1.393   4.061  16.349 -0.2480 -0.0245 -0.5818
 3301SOL    HW121362   1.473   4.109  16.370 -0.6831  0.7157 -0.6233
 3301SOL    HW221363   1.415   3.982  16.300  0.0536 -0.9560  1.0512
 3302SOL     OW21364   3.397   3.442   5.515  0.1662 -0.5053  0.0530
 3302SOL    HW121365   3.487   3.422   5.488 -0.0048  1.4512 -2.0485
 3302SOL    HW221366   3.347   3.402   5.443  0.0863 -1.3033  0.5607
 3303SOL     OW21367   1.473   0.403  14.529 -0.2539 -0.1050 -0.0728
 3303SOL    HW121368   1.520   0.481  14.559  2.6848 -1.2776 -1.5991
 3303SOL    HW221369   1.489   0.350  14.608 -0.2316  0.2945  0.1886
 3304SOL     OW21370   0.443   1.300   9.119  0.6615 -0.1860  0.1392
 3304SOL    HW121371   0.444   1.338   9.206 -2.2068  1.2989 -0.4683
 3304SOL    HW221372   0.452   1.382   9.069 -0.2171 -0.9702 -1.3326
 3305SOL     OW21373   0.512   1.628   2.075  0.0246 -0.4439 -0.1532
 3305SOL    HW121374   0.492   1.711   2.031 -0.5837 -1.3021 -1.4799
 3305SOL    HW221375   0.503   1.577   1.995 -0.3403 -1.0527  0.2726
 3306SOL     OW21376   2.873   1.978   8.797  0.1326 -0.5247  0.3955
 3306SOL    HW121377   2.962   2.000   8.825  0.1486  0.1884 -0.2186
 3306SOL    HW221378   2.824   2.037   8.854 -0.4241 -0.9332  0.3401
 3307SOL     OW21379   0.365   1.075   1.627 -0.1285  0.4298  0.3881
 3307SOL    HW121380   0.357   1.148   1.687  1.2466 -1.6769  3.1352
 3307SOL    HW221381   0.448   1.099   1.584 -0.0460  0.1061  0.3642
 3308SOL     OW21382   2.720   1.069   9.784 -0.1567  0.2541 -0.5961
 3308SOL    HW121383   2.635   1.105   9.809 -0.8396 -1.8156  0.0968
 3308SOL    HW221384   2.737   1.104   9.696 -0.2076  0.4309 -0.5337
 3309SOL     OW21385   3.450   0.426  15.286  0.4402  0.5656  0.1058
 3309SOL    HW121386   3.405   0.495  15.238 -1.1567  1.3799  2.8059
 3309SOL    HW221387   3.472   0.469  15.369  0.9295  0.9027 -0.2000
 3310SOL     OW21388   0.001   3.953   6.970 -0.0943 -0.5285  0.1015
 3310SOL    HW121389   0.056   3.971   7.046 -0.0509  1.2168 -0.3607
 3310SOL    HW221390   0.061   3.891   6.927 -0.3156 -1.8507  1.6883
 3311SOL     OW21391   3.806   1.794   9.727 -0.5853  0.4785 -0.1117
 3311SOL    HW121392   3.711   1.792   9.716 -0.7007  1.3145  0.7344
 3311SOL    HW221393   3.807   1.713   9.779 -0.2308 -0.1807 -1.1553
 3312SOL     OW21394   0.043   0.331   6.036 -0.8487 -0.3334  0.8599
 3312SOL    HW121395   0.116   0.355   5.980 -2.2347 -0.9766 -1.2191
 3312SOL    HW221396   0.023   0.243   6.004  0.1816 -0.0897 -0.4540
 3313SOL     OW21397   3.154   0.366   6.273  0.0480 -0.2541 -0.0174
 3313SOL    HW121398   3.080   0.313   6.245  0.9021 -1.6439  0.3207
 3313SOL    HW221399   3.218   0.296   6.287 -1.2000 -1.1997  0.9475
 3314SOL     OW21400   2.895   0.663  15.328 -0.1262 -0.6814 -0.0420
 3314SOL    HW121401   2.883   0.758  15.330  0.6805 -0.6270  2.1770
 3314SOL    HW221402   2.947   0.652  15.408  0.1417 -0.2371 -0.1576
 3315SOL     OW21403   0.649   2.341   8.023  0.2708 -0.0786 -0.1463
 3315SOL    HW121404   0.572   2.398   8.024 -0.7897 -1.5110  0.2394
 3315SOL    HW221405   0.718   2.408   8.025 -0.3388  0.4837  1.9227
 3316SOL     OW21406   2.226   4.340   5.464  0.5742  0.0694  0.0278
 3316SOL    HW121407   2.178   4.415   5.500  0.9028  0.4215 -0.2710
 3316SOL    HW221408   2.295   4.331   5.530  0.0052  0.4809  0.6797
 3317SOL     OW21409   4.137   0.257   3.547  0.1684  0.1146 -0.2682
 3317SOL    HW121410   4.217   0.214   3.516 -0.9906 -1.7911 -0.6325
 3317SOL    HW221411   4.098   0.292   3.467  0.5503 -0.9924 -0.9535
 3318SOL     OW21412   3.547   3.493   2.053  0.2195  0.7044 -0.0826
 3318SOL    HW121413   3.542   3.410   2.101  2.6343  2.2316  2.8685
 3318SOL    HW221414   3.642   3.506   2.063 -0.1252  2.8242  0.4242
 3319SOL     OW21415   3.811   1.984  12.514  0.0378 -0.3120  0.3292
 3319SOL    HW121416   3.809   1.904  12.463  0.4542 -0.2680  0.2446
 3319SOL    HW221417   3.739   1.956  12.571 -0.5571 -0.0586 -0.2889
 3320SOL     OW21418   2.618   2.434  10.067  0.2160  0.2259  0.6026
 3320SOL    HW121419   2.690   2.432  10.004  0.0940 -0.0787  0.4733
 3320SOL    HW221420   2.618   2.342  10.092 -0.0906  0.2382  0.6514
 3321SOL     OW21421   0.311   1.484  13.006 -0.2309  0.1480  0.3972
 3321SOL    HW121422   0.294   1.392  12.988 -0.2902  0.0214  1.1234
 3321SOL    HW221423   0.326   1.498  13.099 -0.2015  2.1058  0.0945
 3322SOL     OW21424   0.341   2.765   7.904 -0.2326  0.8901 -0.1616
 3322SOL    HW121425   0.412   2.789   7.964 -1.5933  1.2578  1.2776
 3322SOL    HW221426   0.402   2.768   7.830  0.7589  0.3464  0.6407
 3323SOL     OW21427   3.155   0.604   4.676  0.3415 -0.1327 -0.1138
 3323SOL    HW121428   3.124   0.694   4.666  1.3525  0.1286 -0.8461
 3323SOL    HW221429   3.242   0.624   4.710  0.9725  0.6243 -2.1878
 3324SOL     OW21430   1.479   0.478   8.400 -0.5725 -0.3795  0.5542
 3324SOL    HW121431   1.532   0.522   8.467 -0.3131 -0.1604  0.2030
 3324SOL    HW221432   1.536   0.487   8.324 -0.8493  1.8305  0.6031
 3325SOL     OW21433   2.553   0.925   9.560 -0.1697  0.4242 -0.2080
 3325SOL    HW121434   2.618   0.855   9.558  0.5277  1.0599  0.4016
 3325SOL    HW221435   2.525   0.905   9.650 -1.8582  1.7641 -0.4226
 3326SOL     OW21436   2.799   0.196   4.419  0.4162 -0.1773 -0.1848
 3326SOL    HW121437   2.806   0.142   4.498 -0.8668 -1.1629 -0.7359
 3326SOL    HW221438   2.838   0.278   4.447 -0.3151  0.3914 -0.8290
 3327SOL     OW21439   1.139   3.417  15.589  0.3171 -0.4429 -0.0987
 3327SOL    HW121440   1.093   3.424  15.673  0.4824 -0.1551 -0.0316
 3327SOL    HW221441   1.102   3.342  15.542 -0.1631 -0.4682  0.3216
 3328SOL     OW21442   4.193   1.902   3.202 -0.7616 -0.0328  0.7607
 3328SOL    HW121443   4.250   1.976   3.225 -0.2771  0.4365 -1.9522
 3328SOL    HW221444   4.114   1.943   3.237  0.0374  2.1104  0.1284
 3329SOL     OW21445   1.450   1.007   6.889  0.5569 -0.4235  0.2864
 3329SOL    HW121446   1.431   1.040   6.977 -3.0138 -0.7436 -0.3657
 3329SOL    HW221447   1.425   0.916   6.904  0.5155 -0.5023 -0.2715
 3330SOL     OW21448   2.385   2.169   1.902  0.7865  0.5487  0.0257
 3330SOL    HW121449   2.358   2.250   1.946 -0.1944  0.8335 -1.1039
 3330SOL    HW221450   2.444   2.197   1.832  0.9230  0.2265  0.0138
 3331SOL     OW21451   2.831   1.367   5.490  0.1438 -0.1929 -0.5046
 3331SOL    HW121452   2.779   1.350   5.412  0.4621  1.8561 -1.1621
 3331SOL    HW221453   2.764   1.401   5.549 -0.4668 -2.1318 -0.1013
 3332SOL     OW21454   0.762   2.465   5.957  0.2382  0.3546 -0.1768
 3332SOL    HW121455   0.677   2.433   5.988  0.5211 -1.1648 -0.9652
 3332SOL    HW221456   0.822   2.407   6.003 -0.5592 -1.6008 -1.5867
 3333SOL     OW21457   4.453   1.965   5.778  0.5871  0.9219  0.1527
 3333SOL    HW121458   4.513   1.910   5.828  0.5816  0.6203 -0.1687
 3333SOL    HW221459   4.391   1.899   5.746  0.0640  1.5531 -0.1367
 3334SOL     OW21460   1.172   2.527   3.304 -0.5578 -0.2668 -0.8483
 3334SOL    HW121461   1.265   2.546   3.312 -1.0150  0.6813  2.2940
 3334SOL    HW221462   1.181   2.457   3.238  2.4744 -1.3391  0.7090
 3335SOL     OW21463   4.615   0.124  14.951  0.0252 -0.2734  0.2291
 3335SOL    HW121464   4.620   0.146  15.044 -0.9063  1.4441 -0.1314
 3335SOL    HW221465   4.695   0.174  14.933  0.6137 -1.6419 -0.9793
 3336SOL     OW21466   3.808   4.448   3.758  0.3010  0.4155 -0.7618
 3336SOL    HW121467   3.846   4.402   3.832  2.5641  1.8751 -1.0298
 3336SOL    HW221468   3.889   4.463   3.710  1.4224 -0.1218  0.9985
 3337SOL     OW21469   2.695   3.376  10.681  0.3316  0.4352 -0.0045
 3337SOL    HW121470   2.756   3.389  10.754  0.6581 -0.9288 -0.0345
 3337SOL    HW221471   2.613   3.349  10.723 -0.1850  0.6403 -0.8806
 3338SOL     OW21472   3.135   0.599   0.867 -0.1766  0.1333 -0.2666
 3338SOL    HW121473   3.212   0.544   0.878 -0.5435 -0.1388  0.9220
 3338SOL    HW221474   3.111   0.613   0.958  1.0304 -0.4671  0.1311
 3339SOL     OW21475   3.434   1.289   8.134 -0.2557  0.1528 -0.1272
 3339SOL    HW121476   3.487   1.338   8.071  0.5408  0.0086  0.4299
 3339SOL    HW221477   3.485   1.283   8.214  0.1693  0.6043 -0.3668
 3340SOL     OW21478   4.610   1.185   7.333  0.4340 -0.0179 -0.0995
 3340SOL    HW121479   4.621   1.090   7.340  1.2177  0.1729  1.2674
 3340SOL    HW221480   4.592   1.215   7.422 -0.2160  0.6865 -0.4733
 3341SOL     OW21481   3.902   3.733  16.101 -1.1345  0.4294  0.3634
 3341SOL    HW121482   3.900   3.663  16.165  0.1303 -0.7304 -0.8770
 3341SOL    HW221483   3.921   3.684  16.021 -1.5357 -2.8347  2.2778
 3342SOL     OW21484   4.716   0.382   1.793 -0.2277  0.3456  0.3065
 3342SOL    HW121485   0.086   0.378   1.779 -0.0681  0.4143  1.3099
 3342SOL    HW221486   4.681   0.309   1.743  0.4039 -1.0990  2.0044
 3343SOL     OW21487   2.121   2.392   5.750 -0.4193 -0.0067  0.1422
 3343SOL    HW121488   2.105   2.374   5.657 -0.9849  0.3553  0.1738
 3343SOL    HW221489   2.100   2.306   5.786  1.3009 -0.7940 -0.7454
 3344SOL     OW21490   0.317   0.864   2.427 -0.0686  0.4526  0.0610
 3344SOL    HW121491   0.411   0.884   2.429 -0.1810  0.7366  1.9377
 3344SOL    HW221492   0.297   0.847   2.518 -0.7439 -0.1508 -0.2052
 3345SOL     OW21493   4.660   1.496   6.026  0.4050 -0.3462  0.3471
 3345SOL    HW121494   4.717   1.440   6.079  0.5006  0.2390  0.8524
 3345SOL    HW221495   4.642   1.571   6.082 -2.6204 -0.5822 -0.3363
 3346SOL     OW21496   1.729   0.749   7.021  0.0441  0.0219 -0.0246
 3346SOL    HW121497   1.661   0.684   7.037 -0.5417  0.2749 -1.5233
 3346SOL    HW221498   1.776   0.725   6.941 -0.5501 -2.3835  0.3381
 3347SOL     OW21499   1.175   0.834   2.712 -0.3859  0.1326  0.2726
 3347SOL    HW121500   1.253   0.779   2.709 -1.2394 -1.0122 -1.1857
 3347SOL    HW221501   1.218   0.910   2.750 -1.2463  1.7851 -2.0232
 3348SOL     OW21502   2.958   4.624   1.546  0.3685  0.0200 -0.3553
 3348SOL    HW121503   2.870   4.636   1.511 -0.8529 -1.1069  2.3617
 3348SOL    HW221504   2.982   4.703   1.595 -0.8899  0.5378 -0.5780
 3349SOL     OW21505   1.517   2.017   7.810  0.2850  0.4599  0.1733
 3349SOL    HW121506   1.429   2.055   7.812  0.1478  0.1659 -0.5619
 3349SOL    HW221507   1.521   1.981   7.899  1.3291  0.1442 -0.0068
 3350SOL     OW21508   1.924   2.333   3.730 -0.1243  0.2513  0.1937
 3350SOL    HW121509   1.946   2.288   3.811  0.0350 -0.0754 -0.0299
 3350SOL    HW221510   1.840   2.287   3.720  0.1632 -1.0501  3.5471
 3351SOL     OW21511   4.009   2.570   2.216 -0.0975  0.1709 -0.0596
 3351SOL    HW121512   3.994   2.501   2.151 -1.0228 -0.9325  1.3410
 3351SOL    HW221513   3.934   2.629   2.206 -1.5834 -1.5288  1.0270
 3352SOL     OW21514   2.927   2.058  15.468 -0.2470 -1.1528 -0.4586
 3352SOL    HW121515   2.850   2.045  15.413 -0.3094  0.0010 -0.6520
 3352SOL    HW221516   2.998   2.076  15.407  0.7794  1.3520  1.4479
 3353SOL     OW21517   0.775   2.169   0.612  0.4454 -0.1586 -0.5323
 3353SOL    HW121518   0.787   2.197   0.703 -1.6837 -1.8548  0.2756
 3353SOL    HW221519   0.725   2.088   0.618  0.2204 -0.0168 -0.4948
 3354SOL     OW21520   0.064   0.988   2.638  0.1071 -0.2449 -0.3815
 3354SOL    HW121521   4.713   1.040   2.611  0.8360  1.2988  0.5867
 3354SOL    HW221522   0.037   0.947   2.720 -2.4749  1.7730 -0.2602
 3355SOL     OW21523   3.471   3.604   8.041  0.1186  0.0592 -0.3583
 3355SOL    HW121524   3.556   3.630   8.077  1.3294  0.3551 -3.4237
 3355SOL    HW221525   3.471   3.511   8.065  0.9075  0.7360  2.2311
 3356SOL     OW21526   4.716   2.790   6.687 -0.1472 -0.0074 -0.3544
 3356SOL    HW121527   0.026   2.783   6.597  0.9040  1.0928 -0.0526
 3356SOL    HW221528   0.073   2.823   6.726  0.6582 -2.6895  0.2676
 3357SOL     OW21529   0.630   0.829  16.069  0.3021 -0.1351 -0.2443
 3357SOL    HW121530   0.641   0.810  15.975 -0.6404 -0.1211 -0.3526
 3357SOL    HW221531   0.544   0.789  16.084  0.3013 -0.1088 -0.1808
 3358SOL     OW21532   3.604   4.009   4.081  0.2953 -0.4795  0.4673
 3358SOL    HW121533   3.665   4.010   4.007  0.0488  1.5410  0.2888
 3358SOL    HW221534   3.525   3.973   4.042  0.8783 -0.4169 -0.7910
 3359SOL     OW21535   2.448   0.232   6.435  0.7950 -0.5226  0.1959
 3359SOL    HW121536   2.434   0.243   6.529 -1.2795 -0.5021 -0.1110
 3359SOL    HW221537   2.543   0.228   6.425  0.5762 -0.9139 -1.9033
 3360SOL     OW21538   2.977   2.369   0.085  0.2725 -0.0844  0.0236
 3360SOL    HW121539   3.034   2.328   0.020 -0.9847  1.0135 -1.7908
 3360SOL    HW221540   3.005   2.328   0.166  1.1086  1.1358  0.3555
 3361SOL     OW21541   0.102   2.561   3.147  0.2217 -0.6904  0.1864
 3361SOL    HW121542   0.133   2.582   3.059  1.0660  1.2682  0.9596
 3361SOL    HW221543   0.189   2.541   3.182  1.2954  1.4509 -1.2678
 3362SOL     OW21544   3.137   1.503  15.560 -0.0134 -0.2753  0.5290
 3362SOL    HW121545   3.101   1.502  15.471  1.5150 -1.3103 -0.0750
 3362SOL    HW221546   3.097   1.571  15.614 -0.8712 -0.0237 -0.4046
 3363SOL     OW21547   4.074   4.588  17.626 -0.0480 -0.7727 -0.0779
 3363SOL    HW121548   4.102   4.497  17.621  2.3107  0.1002 -2.5384
 3363SOL    HW221549   4.050   4.605  17.535 -0.3472 -1.7429 -0.1806
 3364SOL     OW21550   2.869   0.143   1.659 -0.2461  0.1284 -0.5586
 3364SOL    HW121551   2.793   0.100   1.699 -1.1336  0.5346 -1.8186
 3364SOL    HW221552   2.827   0.205   1.600  0.5644 -0.3305 -1.6082
 3365SOL     OW21553   0.914   3.199  15.500 -0.0084 -0.1319 -0.0692
 3365SOL    HW121554   0.937   3.198  15.407 -0.9774 -1.5150 -0.2949
 3365SOL    HW221555   0.848   3.130  15.506  0.4316 -0.7368 -2.0354
 3366SOL     OW21556   2.328   0.254   4.310  0.0508  0.0507 -0.3606
 3366SOL    HW121557   2.325   0.266   4.215 -0.4429  0.0866 -0.3362
 3366SOL    HW221558   2.273   0.176   4.311 -4.0793  2.9905 -0.2713
 3367SOL     OW21559   2.628   1.626   7.407  0.1949  0.0271 -0.0490
 3367SOL    HW121560   2.715   1.622   7.367 -0.6321 -3.8432 -1.4313
 3367SOL    HW221561   2.571   1.667   7.341 -0.6910 -1.6455 -0.3131
 3368SOL     OW21562   0.499   0.608  17.583 -0.5861 -0.1055 -0.0622
 3368SOL    HW121563   0.542   0.667  17.646 -0.4626  1.4440 -1.6007
 3368SOL    HW221564   0.574   0.573  17.535 -1.0392 -0.8938 -0.1991
 3369SOL     OW21565   1.165   2.644   5.646 -0.5663 -0.7514  0.6926
 3369SOL    HW121566   1.230   2.582   5.612 -0.9922  0.3402 -2.0923
 3369SOL    HW221567   1.092   2.585   5.664 -1.1903 -0.5452 -1.1162
 3370SOL     OW21568   0.865   3.247   8.809 -0.0068 -0.1911  0.7317
 3370SOL    HW121569   0.854   3.241   8.714  0.6113  0.3678  0.6232
 3370SOL    HW221570   0.862   3.155   8.833 -0.3749 -1.0884 -2.6567
 3371SOL     OW21571   2.164   3.106  14.350 -0.0802  0.3670 -0.2276
 3371SOL    HW121572   2.131   3.016  14.351  0.3362  0.2314  2.0693
 3371SOL    HW221573   2.248   3.089  14.392 -0.1691 -0.3505 -0.3327
 3372SOL     OW21574   1.442   1.384   1.608  0.0213 -0.0540 -0.2695
 3372SOL    HW121575   1.355   1.417   1.583  0.3879  0.6225 -0.6460
 3372SOL    HW221576   1.505   1.455   1.602 -0.0114 -0.1333 -1.4031
 3373SOL     OW21577   1.227   2.864  13.760  0.1488  0.1098 -0.9373
 3373SOL    HW121578   1.161   2.815  13.711 -0.7912 -0.3414  0.7775
 3373SOL    HW221579   1.251   2.926  13.691  2.1370  0.2158 -0.1576
 3374SOL     OW21580   3.091   2.474  17.044  0.7186 -0.1696  0.2165
 3374SOL    HW121581   3.047   2.490  16.961  0.8150 -1.0266 -0.0057
 3374SOL    HW221582   3.118   2.561  17.073 -1.3346  0.3828  0.4581
 3375SOL     OW21583   2.315   0.609   6.744  0.0329 -0.0008 -0.4282
 3375SOL    HW121584   2.295   0.694   6.784  0.4466  1.1178 -2.5924
 3375SOL    HW221585   2.403   0.601   6.779 -1.2134 -0.2664  2.6943
 3376SOL     OW21586   4.309   2.656   6.985 -0.4490  0.2856 -0.0656
 3376SOL    HW121587   4.352   2.741   6.973 -1.9418  0.8908 -1.1738
 3376SOL    HW221588   4.369   2.596   6.940 -0.7401  0.2624 -0.4275
 3377SOL     OW21589   1.580   0.250   6.729  0.2230 -0.0592  0.2661
 3377SOL    HW121590   1.652   0.304   6.762  1.9096 -1.7467 -0.6915
 3377SOL    HW221591   1.623   0.187   6.672 -0.5978 -2.3671  2.1986
 3378SOL     OW21592   3.201   2.608   3.521 -0.0087 -0.0299  0.2879
 3378SOL    HW121593   3.275   2.666   3.505 -0.2952 -0.0486 -1.0883
 3378SOL    HW221594   3.138   2.670   3.559 -1.2497 -1.3290  0.3599
 3379SOL     OW21595   4.342   3.783   8.820 -0.6486 -0.0284 -0.4223
 3379SOL    HW121596   4.265   3.733   8.793 -0.3730 -0.6076 -0.1390
 3379SOL    HW221597   4.337   3.786   8.915  1.8390 -0.1197 -0.2731
 3380SOL     OW21598   2.664   1.568   8.573  0.9294 -0.0712 -0.3655
 3380SOL    HW121599   2.698   1.479   8.567  2.4207  0.7257 -3.2649
 3380SOL    HW221600   2.732   1.609   8.626  2.1473 -1.7178 -0.6612
 3381SOL     OW21601   2.067   1.957  13.049  0.2399 -0.1269 -0.3033
 3381SOL    HW121602   2.120   1.974  13.127  0.4195  3.1527 -1.1083
 3381SOL    HW221603   1.983   1.995  13.075 -0.3519 -0.4973 -1.6819
 3382SOL     OW21604   3.497   4.453   7.844  0.1798 -0.6766 -0.0345
 3382SOL    HW121605   3.580   4.410   7.824 -1.9026 -5.1300  1.0051
 3382SOL    HW221606   3.444   4.431   7.767 -0.8095 -0.2550  0.5238
 3383SOL     OW21607   2.017   1.861  11.192  0.2737  0.1414  0.2338
 3383SOL    HW121608   1.951   1.793  11.207 -1.2930  1.5932 -0.0443
 3383SOL    HW221609   2.087   1.818  11.144 -1.2979 -1.7131 -0.3926
 3384SOL     OW21610   0.542   1.743  17.337 -0.4733  0.4485 -0.5708
 3384SOL    HW121611   0.477   1.674  17.350 -2.0512  1.2414 -4.0498
 3384SOL    HW221612   0.475   1.801  17.299 -1.2362 -0.2164 -0.2380
 3385SOL     OW21613   2.664   1.650   1.673  0.5521 -0.2466 -0.2930
 3385SOL    HW121614   2.687   1.669   1.582  0.5877 -0.7608 -0.3923
 3385SOL    HW221615   2.754   1.643   1.704 -0.3584 -0.1159  2.3724
 3386SOL     OW21616   2.049   2.373   8.043 -0.0329 -0.2088 -0.2163
 3386SOL    HW121617   2.112   2.437   8.074  1.2404 -1.6141  0.0943
 3386SOL    HW221618   2.036   2.394   7.950  0.2775  0.4939 -0.0963
 3387SOL     OW21619   4.136   1.494   3.041 -0.2535 -0.5952  0.4753
 3387SOL    HW121620   4.131   1.589   3.029 -1.5285 -0.6801  0.3440
 3387SOL    HW221621   4.125   1.479   3.135 -1.4409 -0.4530  0.3629
 3388SOL     OW21622   0.134   0.501  12.518 -0.0929 -0.1244 -0.3574
 3388SOL    HW121623   0.222   0.473  12.542 -1.1110 -2.5823  0.4324
 3388SOL    HW221624   0.077   0.442  12.567  1.8679 -0.4168  1.5760
 3389SOL     OW21625   2.966   1.653   8.380 -0.1623  0.3736 -0.1345
 3389SOL    HW121626   3.055   1.685   8.366 -0.4236  0.9443 -0.4818
 3389SOL    HW221627   2.936   1.708   8.452 -0.2278 -0.3098  0.3677
 3390SOL     OW21628   2.327   2.720   1.580  0.5059  0.0229  0.6689
 3390SOL    HW121629   2.267   2.694   1.649 -0.6848  2.0839  0.4197
 3390SOL    HW221630   2.408   2.710   1.630  2.6831  2.2589 -2.3666
 3391SOL     OW21631   2.133   4.087   3.367  0.1896  0.0998  0.3296
 3391SOL    HW121632   2.184   4.168   3.376  1.6494 -1.0067  1.9328
 3391SOL    HW221633   2.055   4.115   3.415 -0.4864  1.8713 -1.7749
 3392SOL     OW21634   0.018   2.639   4.690  0.2847 -0.3641 -0.6377
 3392SOL    HW121635   0.104   2.671   4.662 -0.6303  1.1948 -1.6740
 3392SOL    HW221636   4.702   2.725   4.707  1.5387  0.2626 -0.8536
 3393SOL     OW21637   1.215   4.581  12.172 -0.2038  0.1166 -0.0066
 3393SOL    HW121638   1.234   4.675  12.165  1.6260 -0.2962 -0.8314
 3393SOL    HW221639   1.300   4.557  12.208 -0.4466  1.0145  1.1678
 3394SOL     OW21640   3.936   4.576   7.371 -0.5888  0.5252  0.3353
 3394SOL    HW121641   3.859   4.598   7.318  0.3192  0.0026 -1.1975
 3394SOL    HW221642   4.004   4.615   7.316 -0.0476 -0.4621  0.3069
 3395SOL     OW21643   2.189   0.528   6.329 -0.3156 -0.1961 -0.5813
 3395SOL    HW121644   2.269   0.537   6.381 -1.6293  1.7095  1.1210
 3395SOL    HW221645   2.195   0.579   6.249 -0.1955 -0.0521 -0.4811
 3396SOL     OW21646   3.185   1.939   9.084 -0.6277 -0.3316  0.3054
 3396SOL    HW121647   3.156   1.935   9.175  0.0221 -0.5707  0.5004
 3396SOL    HW221648   3.276   1.955   9.105 -1.1714 -0.7707  3.0119
 3397SOL     OW21649   2.531   2.922   6.224 -0.0704  0.3899 -0.2574
 3397SOL    HW121650   2.519   2.844   6.278 -0.2126  1.7379  1.6477
 3397SOL    HW221651   2.456   2.975   6.252 -0.2349 -0.3232  0.6466
 3398SOL     OW21652   0.668   0.841   3.588 -0.5861 -0.2413 -0.3808
 3398SOL    HW121653   0.616   0.765   3.564 -1.2867  0.3697 -0.7986
 3398SOL    HW221654   0.713   0.877   3.511  0.8771 -0.3083  0.4316
 3399SOL     OW21655   1.340   1.648   6.284  0.2389  0.3280 -0.0750
 3399SOL    HW121656   1.371   1.581   6.223  3.1019  0.5296  1.1173
 3399SOL    HW221657   1.262   1.606   6.319  0.4388 -1.0181 -1.2319
 3400SOL     OW21658   3.917   0.814  17.498  0.0035  0.1205  0.2453
 3400SOL    HW121659   3.896   0.873  17.427  0.3433  0.1144  0.1377
 3400SOL    HW221660   4.005   0.779  17.485 -0.2679 -0.9247  1.2181
 3401SOL     OW21661   2.085   1.631   4.376 -0.1039  0.2010 -0.4198
 3401SOL    HW121662   2.066   1.547   4.335 -0.5631 -0.0919  0.3924
 3401SOL    HW221663   2.106   1.685   4.300  4.0013  1.0142  1.2593
 3402SOL     OW21664   0.709   1.583  14.705  0.3280  0.3575  0.3937
 3402SOL    HW121665   0.679   1.529  14.631  0.5483  1.6233 -0.6167
 3402SOL    HW221666   0.627   1.604  14.748 -0.5229  0.6770 -1.3906
 3403SOL     OW21667   0.955   0.046   5.155 -0.7351 -0.2078 -0.9577
 3403SOL    HW121668   0.862   0.025   5.152 -0.8880  0.1939  0.8781
 3403SOL    HW221669   0.996   4.684   5.143  0.9237  0.3853  0.3894
 3404SOL     OW21670   3.688   1.272   2.146 -0.0168  0.9477  0.4374
 3404SOL    HW121671   3.781   1.280   2.124 -0.6998  0.3364 -2.7869
 3404SOL    HW221672   3.656   1.232   2.065 -2.3269  0.4047  1.6097
 3405SOL     OW21673   4.451   1.678  16.677  0.0797 -0.1947 -0.4160
 3405SOL    HW121674   4.420   1.676  16.586  0.8687  0.3734 -0.6974
 3405SOL    HW221675   4.515   1.748  16.664  0.5311 -0.8147 -1.5624
 3406SOL     OW21676   2.841   2.623   3.532  0.0654 -0.1917 -0.2318
 3406SOL    HW121677   2.879   2.554   3.586  0.5685 -0.8987 -1.4752
 3406SOL    HW221678   2.901   2.690   3.564 -1.3841  1.7640 -1.5608
 3407SOL     OW21679   3.805   4.231   7.201  0.3575  0.8311 -0.3281
 3407SOL    HW121680   3.879   4.189   7.158 -0.8667 -1.1655 -0.4868
 3407SOL    HW221681   3.842   4.271   7.280 -1.8667  1.8678  0.1746
 3408SOL     OW21682   4.040   1.500  16.657 -0.2311 -0.1549 -0.0958
 3408SOL    HW121683   4.097   1.450  16.716  1.1357  1.1037 -0.3312
 3408SOL    HW221684   3.978   1.438  16.619 -1.5922  1.9974 -1.4041
 3409SOL     OW21685   0.431   1.266   9.432  0.0929  0.2760 -0.0102
 3409SOL    HW121686   0.418   1.180   9.471  1.2506  0.3079  0.4273
 3409SOL    HW221687   0.497   1.301   9.492 -0.1185 -0.3135  0.5682
 3410SOL     OW21688   2.593   0.819   4.098 -0.0567  0.1795  0.1825
 3410SOL    HW121689   2.547   0.870   4.030 -0.0863  0.5324  0.4690
 3410SOL    HW221690   2.607   0.885   4.166  0.4404  2.6916 -2.3097
 3411SOL     OW21691   0.999   3.974   2.845  0.5068  0.4100  0.5517
 3411SOL    HW121692   0.946   3.967   2.766  0.5452  1.3668  0.4416
 3411SOL    HW221693   1.059   4.046   2.823 -1.3998  1.2747 -1.8011
 3412SOL     OW21694   1.962   4.504   0.251 -0.8603 -0.0110 -0.5413
 3412SOL    HW121695   2.024   4.519   0.180  0.3744  0.6476  0.6810
 3412SOL    HW221696   1.903   4.440   0.212  0.8261 -0.4270 -2.4018
 3413SOL     OW21697   2.776   3.709  13.655  0.1097 -0.1541  0.1455
 3413SOL    HW121698   2.809   3.767  13.586  1.0847  0.9183  1.4999
 3413SOL    HW221699   2.681   3.713  13.643 -0.1374  0.4130  2.3933
 3414SOL     OW21700   4.606   2.381   4.746 -0.4417  0.1556  0.3063
 3414SOL    HW121701   4.677   2.341   4.796  1.8211  3.2542 -0.4663
 3414SOL    HW221702   4.649   2.462   4.719  0.7345 -0.5401  0.0791
 3415SOL     OW21703   2.975   3.214   9.579  0.2891  0.4829 -0.7178
 3415SOL    HW121704   2.912   3.168   9.523  1.3955  0.4658 -1.9573
 3415SOL    HW221705   3.025   3.257   9.509 -0.3913  1.1882 -0.7686
 3416SOL     OW21706   1.846   1.738   7.190  0.1974 -0.2708  0.5770
 3416SOL    HW121707   1.932   1.704   7.213  0.2701 -1.1708 -1.0735
 3416SOL    HW221708   1.786   1.703   7.257 -0.9394 -1.1289 -0.8982
 3417SOL     OW21709   0.392   0.194   2.986  0.1909  0.4015  0.2904
 3417SOL    HW121710   0.486   0.197   2.969  0.0252 -0.0271 -0.6751
 3417SOL    HW221711   0.374   0.118   2.930 -1.0258  0.5912  0.4168
 3418SOL     OW21712   2.607   1.248   3.362  0.9362  0.7994  0.2691
 3418SOL    HW121713   2.625   1.188   3.434 -1.7737  0.3001  0.5209
 3418SOL    HW221714   2.519   1.230   3.331  1.7625  0.9399 -2.1975
 3419SOL     OW21715   3.205   1.695   2.481 -0.5412 -0.3069  0.3264
 3419SOL    HW121716   3.167   1.781   2.500 -0.1806  0.0771 -0.7021
 3419SOL    HW221717   3.284   1.695   2.535  0.0569 -0.8652 -0.5662
 3420SOL     OW21718   1.516   2.429   2.798 -0.2786  0.0956  0.3787
 3420SOL    HW121719   1.535   2.510   2.750  0.3710  0.1253  0.6787
 3420SOL    HW221720   1.429   2.397   2.775  0.5933 -0.6815 -1.8899
 3421SOL     OW21721   1.951   4.581   5.130 -0.9292 -0.1577 -0.1135
 3421SOL    HW121722   1.973   4.622   5.213 -1.1603 -1.0119  0.3775
 3421SOL    HW221723   2.024   4.618   5.082 -0.3866 -1.2847 -0.1638
 3422SOL     OW21724   0.060   1.338   2.767 -0.1502 -0.1985 -0.0978
 3422SOL    HW121725   0.031   1.427   2.748 -0.9101 -0.3933  0.1231
 3422SOL    HW221726   0.155   1.341   2.757  0.1393 -0.2320  2.4858
 3423SOL     OW21727   1.982   4.233   1.841 -0.9691 -0.0751  0.2890
 3423SOL    HW121728   1.978   4.138   1.853 -3.0446  0.0384  0.6060
 3423SOL    HW221729   2.076   4.252   1.841 -1.3150  1.6731 -0.9104
 3424SOL     OW21730   1.504   1.787   5.054 -0.5571  0.4824  0.2121
 3424SOL    HW121731   1.588   1.747   5.031 -1.6443 -1.9719  0.4615
 3424SOL    HW221732   1.446   1.739   4.996 -0.1669  0.1247  0.1138
 3425SOL     OW21733   2.674   1.385  17.267 -0.0076 -0.2835 -0.3989
 3425SOL    HW121734   2.746   1.442  17.295 -0.2986  2.4506 -5.1349
 3425SOL    HW221735   2.609   1.453  17.249 -0.5538  0.2436  3.6397
 3426SOL     OW21736   3.923   0.269  15.453 -0.1792 -0.1298  0.3494
 3426SOL    HW121737   3.944   0.177  15.439 -1.0296 -0.3361  0.4396
 3426SOL    HW221738   3.929   0.304  15.364  0.3438  1.0009  0.8198
 3427SOL     OW21739   0.899   2.954   7.372  0.0464  0.3401  0.4651
 3427SOL    HW121740   0.972   2.989   7.423 -0.4076  0.3384  1.1253
 3427SOL    HW221741   0.884   3.032   7.318 -1.4474 -0.9897 -1.0251
 3428SOL     OW21742   1.387   3.482  13.128 -0.0137  0.6283  0.2618
 3428SOL    HW121743   1.350   3.464  13.041  1.0627  0.0874 -0.0850
 3428SOL    HW221744   1.450   3.411  13.141  0.8361  0.8440 -2.6537
 3429SOL     OW21745   4.586   0.518   6.071  0.1862 -0.1216 -0.1290
 3429SOL    HW121746   4.636   0.585   6.117 -0.6128 -0.5766  1.3919
 3429SOL    HW221747   4.653   0.450   6.074 -2.1575 -2.5114 -2.5011
 3430SOL     OW21748   4.670   1.693   0.273  0.3801  0.2933 -0.0134
 3430SOL    HW121749   4.699   1.769   0.323 -0.0974  0.0057  0.6922
 3430SOL    HW221750   4.584   1.667   0.305  1.0629 -0.5377  1.1257
 3431SOL     OW21751   0.592   1.782   5.988  0.0724 -0.0687 -0.4730
 3431SOL    HW121752   0.569   1.689   5.982 -1.5633  0.2841  0.2363
 3431SOL    HW221753   0.555   1.814   5.905  1.0782  1.5842 -0.2921
 3432SOL     OW21754   2.749   0.404   4.878 -0.5800 -0.1750 -0.1191
 3432SOL    HW121755   2.791   0.483   4.844  0.9192 -1.2570 -0.7787
 3432SOL    HW221756   2.811   0.365   4.939 -1.0122 -1.0245 -0.2195
 3433SOL     OW21757   4.509   3.883  17.146  0.2096  0.6743 -0.5649
 3433SOL    HW121758   4.487   3.899  17.238  2.3896 -0.0265  0.0658
 3433SOL    HW221759   4.555   3.800  17.157  1.7762  1.7158  0.7673
 3434SOL     OW21760   0.526   0.410  14.825 -0.2581  0.1159  0.1043
 3434SOL    HW121761   0.523   0.450  14.912  1.1644 -0.1272  0.2680
 3434SOL    HW221762   0.613   0.370  14.822  0.3099  1.4664 -1.1932
 3435SOL     OW21763   3.578   2.929  17.522  0.1812 -0.4605 -0.1447
 3435SOL    HW121764   3.628   2.939  17.441 -2.2910 -0.6981 -1.7259
 3435SOL    HW221765   3.632   2.867  17.571  2.3375  0.4024 -1.4494
 3436SOL     OW21766   0.638   4.203   3.557 -0.4153 -0.0801 -0.8843
 3436SOL    HW121767   0.715   4.159   3.522  0.4137  0.7477 -0.0961
 3436SOL    HW221768   0.654   4.202   3.651 -0.3853 -1.6226 -0.9082
 3437SOL     OW21769   1.623   2.925   5.345  0.0682  0.3298  0.1913
 3437SOL    HW121770   1.666   2.866   5.283  0.0403 -0.7600  1.2088
 3437SOL    HW221771   1.690   2.989   5.367 -1.7111  1.2593  2.9471
 3438SOL     OW21772   2.169   3.118   5.287  0.2062 -0.0797  0.2373
 3438SOL    HW121773   2.247   3.066   5.270  0.8132  0.6222  0.8906
 3438SOL    HW221774   2.209   3.189   5.337  0.1940  1.0920 -1.4155
 3439SOL     OW21775   1.397   3.599   8.294  0.0323 -0.3924  0.1953
 3439SOL    HW121776   1.446   3.596   8.376 -0.9671 -2.0505  0.7396
 3439SOL    HW221777   1.336   3.528   8.316 -0.6844 -0.0607 -0.7130
 3440SOL     OW21778   0.364   2.353   6.233  0.5765 -0.0275 -0.6731
 3440SOL    HW121779   0.324   2.401   6.306 -0.0994 -0.5246 -0.7176
 3440SOL    HW221780   0.291   2.295   6.210  0.9994 -0.3431 -1.2252
 3441SOL     OW21781   2.063   1.240  11.223  0.2276 -0.1434 -0.0388
 3441SOL    HW121782   2.095   1.151  11.208  0.7154 -0.1431  0.9754
 3441SOL    HW221783   2.125   1.276  11.287  1.3159 -0.4277 -0.9228
 3442SOL     OW21784   1.212   1.884   3.911  0.1705  0.3158  0.3362
 3442SOL    HW121785   1.173   1.805   3.949 -0.9682  1.1753  0.9643
 3442SOL    HW221786   1.156   1.907   3.837  2.8422  3.3054 -0.7519
 3443SOL     OW21787   0.481   4.533   3.115  0.6550 -0.1217 -0.1480
 3443SOL    HW121788   0.459   4.445   3.084  2.2366 -0.7305  0.4857
 3443SOL    HW221789   0.421   4.536   3.190  0.2661  0.4494 -0.4813
 3444SOL     OW21790   3.368   2.219   8.990 -0.3296  0.3707  0.3113
 3444SOL    HW121791   3.462   2.211   9.004 -0.4675 -0.7036  0.6312
 3444SOL    HW221792   3.333   2.225   9.079  2.0874 -3.7641  1.5308
 3445SOL     OW21793   3.691   1.062   7.960 -0.1240 -0.6776 -0.1242
 3445SOL    HW121794   3.631   1.016   8.019 -0.5739 -2.2346 -1.8027
 3445SOL    HW221795   3.721   1.136   8.013  1.3168 -0.7198 -0.8978
 3446SOL     OW21796   1.527   0.652  12.393 -0.3946 -0.4867  0.0007
 3446SOL    HW121797   1.482   0.735  12.400 -2.7303 -1.8386  1.0406
 3446SOL    HW221798   1.478   0.589  12.446 -0.1779  0.0025  0.7776
 3447SOL     OW21799   0.554   3.025   3.427  0.1278  0.4163 -0.3995
 3447SOL    HW121800   0.581   3.117   3.420 -0.2448  0.4830 -0.9280
 3447SOL    HW221801   0.494   3.012   3.354 -1.3167  1.6674  0.5617
 3448SOL     OW21802   2.160   1.097  16.220 -0.2224 -0.7856 -0.0910
 3448SOL    HW121803   2.237   1.055  16.258  0.0685 -0.4943 -0.3598
 3448SOL    HW221804   2.114   1.020  16.187 -0.6763  0.2387 -1.8403
 3449SOL     OW21805   3.784   0.721   8.078  0.1234 -0.3944  0.0474
 3449SOL    HW121806   3.869   0.761   8.095 -0.4996  0.2909  1.5691
 3449SOL    HW221807   3.795   0.631   8.108  1.0660  0.1044  1.2044
 3450SOL     OW21808   3.457   4.029   5.513 -0.2258  0.5785 -0.3098
 3450SOL    HW121809   3.537   4.069   5.547 -0.8727  0.1046  1.7635
 3450SOL    HW221810   3.472   4.030   5.418  0.4717  0.5737 -0.2002
 3451SOL     OW21811   1.714   2.703   3.040  0.3451  0.0606  0.0731
 3451SOL    HW121812   1.775   2.760   2.993 -1.0227  1.4573 -0.0261
 3451SOL    HW221813   1.747   2.707   3.130 -1.5978  1.8792  0.6854
 3452SOL     OW21814   2.341   2.719   5.932 -0.2787 -0.0180  0.1232
 3452SOL    HW121815   2.367   2.666   6.007  1.0519  3.0885  1.8540
 3452SOL    HW221816   2.249   2.699   5.919 -0.5691  1.5628 -0.2586
 3453SOL     OW21817   4.620   0.783   2.120  0.3430  0.0689 -0.1523
 3453SOL    HW121818   4.632   0.835   2.200 -2.7737  3.4266 -1.8796
 3453SOL    HW221819   4.711   0.758   2.105  0.2155 -0.2881 -0.3427
 3454SOL     OW21820   0.771   3.513   3.879 -0.1454 -0.5121  0.4151
 3454SOL    HW121821   0.846   3.538   3.825  1.5807 -1.0898  2.5315
 3454SOL    HW221822   0.796   3.540   3.967 -0.7822 -1.1041  0.7724
 3455SOL     OW21823   2.130   1.011   1.403  0.2775  0.6068 -0.3224
 3455SOL    HW121824   2.135   0.943   1.471  0.9208  0.4964 -0.4778
 3455SOL    HW221825   2.045   1.048   1.426 -0.2328 -0.8675  0.2143
 3456SOL     OW21826   0.667   2.259   3.237 -0.1302  0.3339  0.6377
 3456SOL    HW121827   0.603   2.273   3.306  0.0657 -1.4794  1.1981
 3456SOL    HW221828   0.604   2.243   3.167  2.3366  1.2123 -1.7925
 3457SOL     OW21829   1.896   1.861  12.232  0.1601  0.6400 -0.0485
 3457SOL    HW121830   1.927   1.783  12.278  0.1426  0.9801  0.5394
 3457SOL    HW221831   1.939   1.933  12.279  0.8598  1.8416 -2.5281
 3458SOL     OW21832   0.592   1.363  14.901  0.1187 -0.3154  0.6606
 3458SOL    HW121833   0.530   1.401  14.963 -0.0986  1.9609 -0.9518
 3458SOL    HW221834   0.583   1.428  14.831  1.1788  1.2049  1.9489
 3459SOL     OW21835   3.770   0.057  15.154 -0.3459  0.1209 -0.2188
 3459SOL    HW121836   3.735   0.068  15.242 -0.1939  1.6015 -0.3570
 3459SOL    HW221837   3.684   0.052  15.113 -1.1841  2.0440  1.2771
 3460SOL     OW21838   2.890   1.705   3.682  0.3436  0.2010 -0.3617
 3460SOL    HW121839   2.939   1.650   3.621 -0.2538 -0.6505 -0.0611
 3460SOL    HW221840   2.917   1.791   3.649  0.2740  1.5218  3.0300
 3461SOL     OW21841   2.137   0.612   4.219  0.1342 -0.1576 -0.4505
 3461SOL    HW121842   2.176   0.699   4.222  2.0213 -0.9953 -0.7322
 3461SOL    HW221843   2.168   0.568   4.139 -0.3259  0.4799 -0.9796
 3462SOL     OW21844   0.023   2.257   5.089 -0.1663  0.5350  0.4546
 3462SOL    HW121845   0.015   2.207   5.170 -0.4027 -0.8075 -0.3936
 3462SOL    HW221846   4.657   2.247   5.056 -0.3444  1.5277  0.6579
 3463SOL     OW21847   4.626   3.069  10.233  0.1891 -0.0002  0.2011
 3463SOL    HW121848   4.541   3.075  10.190 -0.4266 -0.0451  1.4083
 3463SOL    HW221849   4.602   3.009  10.304  0.8343 -1.0158 -0.4449
 3464SOL     OW21850   0.309   4.588   1.919 -0.4414  0.6946 -0.3943
 3464SOL    HW121851   0.360   4.608   1.841  1.3622  0.0570  0.6130
 3464SOL    HW221852   0.233   4.644   1.904 -1.5869 -0.1320  2.3333
 3465SOL     OW21853   3.044   3.947   2.521 -0.9056  0.1945  0.3350
 3465SOL    HW121854   3.109   4.014   2.541 -2.6000  1.8909  0.1580
 3465SOL    HW221855   2.980   3.971   2.588 -0.2847 -1.1931  1.4138
 3466SOL     OW21856   2.354   2.353   4.613  0.3170 -0.1806  0.5915
 3466SOL    HW121857   2.420   2.413   4.580 -0.3797 -0.3060 -1.0372
 3466SOL    HW221858   2.314   2.403   4.684  4.2503 -0.3586  2.8785
 3467SOL     OW21859   0.512   3.345   8.589 -0.2304  0.2736 -0.1573
 3467SOL    HW121860   0.577   3.290   8.633  2.3809  1.1294 -2.9050
 3467SOL    HW221861   0.431   3.325   8.636  1.1205  1.1147  2.4829
 3468SOL     OW21862   0.295   0.235   6.730  0.6399  0.2509  0.2422
 3468SOL    HW121863   0.288   0.209   6.638  2.4355 -0.4532  0.3055
 3468SOL    HW221864   0.203   0.258   6.738  0.8398  0.9473  0.5731
 3469SOL     OW21865   0.402   4.461   4.858 -0.3374  0.0529  0.2368
 3469SOL    HW121866   0.372   4.370   4.848  0.8894 -0.3023 -0.2515
 3469SOL    HW221867   0.318   4.505   4.871 -1.1489 -1.2680 -0.5498
 3470SOL     OW21868   2.663   3.111  14.771  0.4666  0.6252 -1.1150
 3470SOL    HW121869   2.617   3.029  14.756 -2.0140  1.9262 -0.6177
 3470SOL    HW221870   2.647   3.169  14.696 -0.6965  1.9986  0.1729
 3471SOL     OW21871   4.235   2.584   4.691 -0.1715 -0.3287  0.3647
 3471SOL    HW121872   4.149   2.544   4.675 -1.5371  2.0393  1.7833
 3471SOL    HW221873   4.213   2.665   4.736  1.9483 -0.2151  1.1855
 3472SOL     OW21874   3.911   0.587   7.002 -0.1089  0.4923  0.6239
 3472SOL    HW121875   3.933   0.680   7.011  2.2912  0.1236 -1.1432
 3472SOL    HW221876   3.837   0.579   6.942  0.2618 -0.2562  0.2609
 3473SOL     OW21877   3.955   1.899   3.826 -0.0393 -0.0784 -0.0513
 3473SOL    HW121878   4.034   1.849   3.842 -0.7562 -0.9108  0.8507
 3473SOL    HW221879   3.996   1.967   3.772 -0.8303  0.8537  0.5043
 3474SOL     OW21880   2.133   0.455   4.444  0.2694 -0.4046 -0.0185
 3474SOL    HW121881   2.145   0.515   4.371 -1.0340  0.5773  0.5549
 3474SOL    HW221882   2.165   0.375   4.404 -4.0716 -1.2244 -1.9234
 3475SOL     OW21883   3.592   3.090  15.317 -0.3465 -0.0573  0.2165
 3475SOL    HW121884   3.522   3.150  15.344  0.2967  0.0985  1.5902
 3475SOL    HW221885   3.646   3.089  15.397  0.2799  3.5142 -0.1548
 3476SOL     OW21886   1.184   2.706   4.287 -0.2661  0.4251 -0.0682
 3476SOL    HW121887   1.233   2.693   4.206 -2.2010 -0.8369 -1.0343
 3476SOL    HW221888   1.242   2.767   4.333  1.3074  0.5240 -2.2074
 3477SOL     OW21889   4.392   3.292   0.246 -0.0844 -0.3977  0.1180
 3477SOL    HW121890   4.387   3.360   0.312 -0.4494 -0.1232 -0.1920
 3477SOL    HW221891   4.418   3.344   0.169  1.3101 -0.8082  0.3061
 3478SOL     OW21892   0.542   0.481   5.709  0.0644  0.8531  0.4433
 3478SOL    HW121893   0.511   0.558   5.757 -1.7230  0.8081 -0.6420
 3478SOL    HW221894   0.629   0.488   5.748  0.7287  0.1230 -0.8905
 3479SOL     OW21895   4.410   0.782   6.681  0.1870  0.3405 -0.4282
 3479SOL    HW121896   4.480   0.727   6.715  0.5051  0.7442 -0.4325
 3479SOL    HW221897   4.453   0.798   6.597  0.9534  1.4350  0.1811
 3480SOL     OW21898   1.139   0.517   3.743  0.4545 -0.1656  0.3961
 3480SOL    HW121899   1.059   0.504   3.693 -0.0873 -0.1170  1.2592
 3480SOL    HW221900   1.125   0.598   3.793 -1.1651 -0.3681  0.2369
 3481SOL     OW21901   0.442   0.764  12.769  0.0752 -0.4511 -0.2982
 3481SOL    HW121902   0.382   0.837  12.784 -1.4155 -1.5803 -0.7822
 3481SOL    HW221903   0.476   0.793  12.684  0.4506 -0.9940 -0.3331
 3482SOL     OW21904   0.827   0.039  14.043  0.3799  0.3199 -0.5377
 3482SOL    HW121905   0.732   0.047  14.052  0.3222 -0.8647  0.0516
 3482SOL    HW221906   0.860   0.107  14.102 -0.1048  1.0076 -1.0636
 3483SOL     OW21907   1.908   2.407   4.406 -0.4179  0.0382  0.0182
 3483SOL    HW121908   1.907   2.347   4.481  0.9139 -0.6823 -0.5407
 3483SOL    HW221909   1.949   2.484   4.445  1.2935 -0.8042 -0.1360
 3484SOL     OW21910   3.047   3.315   6.463  0.0700  0.1495  0.5332
 3484SOL    HW121911   3.052   3.259   6.386  2.8560 -0.3909  1.0866
 3484SOL    HW221912   2.990   3.262   6.520  0.3103  0.5294  1.1274
 3485SOL     OW21913   4.408   3.682   2.433 -0.0868  0.2792  0.2855
 3485SOL    HW121914   4.476   3.634   2.481  0.0619 -0.9793 -1.1679
 3485SOL    HW221915   4.435   3.772   2.450 -0.6143  0.1135  2.0064
 3486SOL     OW21916   2.369   3.329   2.183 -0.7312 -0.1376  0.1223
 3486SOL    HW121917   2.295   3.275   2.211 -1.4105  2.6078  3.5270
 3486SOL    HW221918   2.327   3.414   2.196  1.0292  0.6465  0.6423
 3487SOL     OW21919   3.165   4.282   7.944  0.2303  0.3194 -0.2391
 3487SOL    HW121920   3.112   4.360   7.923 -1.8923 -1.1701 -0.3500
 3487SOL    HW221921   3.104   4.215   7.914 -1.6515  1.9156 -0.0418
 3488SOL     OW21922   1.384   2.649   9.669  0.2512  0.0818 -0.2584
 3488SOL    HW121923   1.378   2.708   9.594  0.7533 -0.4735 -0.7314
 3488SOL    HW221924   1.463   2.682   9.712  1.0655 -0.8352 -1.0557
 3489SOL     OW21925   2.308   3.036   6.315 -0.3750  0.0770 -0.2214
 3489SOL    HW121926   2.229   3.068   6.359  0.8563  2.3449  0.3137
 3489SOL    HW221927   2.269   2.969   6.259 -3.3500  1.5803  0.0513
 3490SOL     OW21928   4.195   2.512   6.723  0.6149  0.3328 -0.1095
 3490SOL    HW121929   4.212   2.428   6.766 -0.3759  0.0457 -0.2886
 3490SOL    HW221930   4.100   2.520   6.724  0.6376  0.7113 -1.8918
 3491SOL     OW21931   2.903   1.949   7.250  0.6707 -0.3428  0.2993
 3491SOL    HW121932   2.852   1.870   7.231  0.6932 -0.3034  0.0828
 3491SOL    HW221933   2.838   2.016   7.274 -0.8974 -1.9199  0.4599
 3492SOL     OW21934   1.866   3.425   7.981  0.8770 -0.0030  0.1899
 3492SOL    HW121935   1.940   3.406   7.923 -0.4661  1.7299 -2.0513
 3492SOL    HW221936   1.805   3.468   7.922 -0.4060 -0.8735  0.8811
 3493SOL     OW21937   2.090   2.107   5.134  0.0495  0.0998 -0.2965
 3493SOL    HW121938   2.174   2.150   5.117  0.5435 -1.3439 -1.5201
 3493SOL    HW221939   2.109   2.023   5.092  0.9018 -1.3960  3.0544
 3494SOL     OW21940   4.656   0.317  15.170  0.0634 -0.1197 -0.2857
 3494SOL    HW121941   4.658   0.383  15.101  0.4343  1.1928  0.9697
 3494SOL    HW221942   4.663   0.375  15.246 -2.3772  1.9479 -1.6833
 3495SOL     OW21943   1.141   4.531   5.154 -0.0879 -0.0062 -0.0614
 3495SOL    HW121944   1.156   4.524   5.248  0.0866 -2.3484 -0.2622
 3495SOL    HW221945   1.224   4.537   5.105  0.2359 -0.0417  0.4830
 3496SOL     OW21946   3.358   4.561   5.005 -0.5486 -0.5286 -0.0388
 3496SOL    HW121947   3.373   4.473   5.038  1.6898 -0.2951 -0.4364
 3496SOL    HW221948   3.403   4.614   5.071 -1.0346 -0.4163  0.1998
 3497SOL     OW21949   3.695   3.184  16.843  0.8008 -0.1265 -0.0130
 3497SOL    HW121950   3.615   3.231  16.869  1.1623  0.3365  0.2511
 3497SOL    HW221951   3.751   3.192  16.920  2.1665  1.2090 -1.1712
 3498SOL     OW21952   2.942   3.200  13.620  0.3432  0.2332 -0.1470
 3498SOL    HW121953   2.908   3.130  13.564  0.9100 -0.5460  0.4660
 3498SOL    HW221954   2.863   3.209  13.673  0.5817 -2.8399  0.7522
 3499SOL     OW21955   1.856   2.737   6.139  0.0762  0.2482  0.2110
 3499SOL    HW121956   1.835   2.715   6.048  1.4528 -4.1909  0.9483
 3499SOL    HW221957   1.768   2.761   6.168 -0.9575 -1.9831 -1.0528
 3500SOL     OW21958   3.510   0.191   2.993 -0.0148 -0.2286  0.1555
 3500SOL    HW121959   3.505   0.272   2.943 -1.0013 -1.7000 -2.1216
 3500SOL    HW221960   3.476   0.125   2.933  2.7265  0.5229 -2.1661
 3501SOL     OW21961   4.133   4.292   2.975  0.4667 -0.0408 -0.4224
 3501SOL    HW121962   4.156   4.362   3.037  0.6082 -0.8613  0.4576
 3501SOL    HW221963   4.210   4.235   2.970  0.7268  0.4208 -1.5991
 3502SOL     OW21964   0.742   4.701   5.805 -0.1844 -0.2442 -0.8407
 3502SOL    HW121965   0.650   4.685   5.788 -0.6619  2.2306 -0.5225
 3502SOL    HW221966   0.770   0.003   5.717  1.5800 -1.6948 -0.7221
 3503SOL     OW21967   2.290   0.202   9.752 -0.0608 -0.4086 -0.8447
 3503SOL    HW121968   2.381   0.203   9.721  1.4410 -0.2859  3.6023
 3503SOL    HW221969   2.249   0.218   9.667  1.9989  2.2498 -1.3350
 3504SOL     OW21970   0.029   3.599  15.800 -0.3478 -0.1384  0.0271
 3504SOL    HW121971   0.079   3.646  15.867 -3.2363  1.5614  1.0044
 3504SOL    HW221972   0.076   3.516  15.801  2.3780  1.3956 -0.4661
 3505SOL     OW21973   2.327   1.036  12.171 -0.1824  0.4669  0.1908
 3505SOL    HW121974   2.246   1.073  12.206  0.5096  1.6673  0.5064
 3505SOL    HW221975   2.328   0.954  12.220 -1.2040 -0.7307 -1.8203
 3506SOL     OW21976   3.315   1.306  12.106  0.0966  0.6198 -0.0014
 3506SOL    HW121977   3.263   1.370  12.057 -1.6220 -0.2198  0.7385
 3506SOL    HW221978   3.329   1.247  12.031 -1.3423 -0.1348  0.3254
 3507SOL     OW21979   3.571   3.924   0.173  0.9915 -0.2897  0.0527
 3507SOL    HW121980   3.634   3.856   0.154 -0.3180 -1.8463  1.2712
 3507SOL    HW221981   3.531   3.889   0.253  0.5494 -0.9196 -0.4467
 3508SOL     OW21982   0.623   3.548   5.216 -0.5737  0.2911 -0.0383
 3508SOL    HW121983   0.558   3.491   5.258  0.8374 -0.9637  0.4589
 3508SOL    HW221984   0.595   3.636   5.238  1.2639  0.6586  0.8386
 3509SOL     OW21985   1.389   2.770   7.925 -0.2549 -0.2229  0.2484
 3509SOL    HW121986   1.464   2.765   7.984  0.7566 -0.8119 -1.0979
 3509SOL    HW221987   1.438   2.758   7.844 -0.3269 -1.4638  0.3796
 3510SOL     OW21988   1.654   0.420   6.107  0.1186  0.0379 -0.1984
 3510SOL    HW121989   1.634   0.505   6.145  0.3203 -0.3774  0.8327
 3510SOL    HW221990   1.581   0.360   6.124 -0.8827  0.7456 -1.9795
 3511SOL     OW21991   0.626   2.220   2.408 -0.4090  0.1712 -0.2430
 3511SOL    HW121992   0.672   2.261   2.335 -1.9852  4.1912  0.9774
 3511SOL    HW221993   0.539   2.261   2.408 -0.5063 -0.0384 -0.6090
 3512SOL     OW21994   4.174   2.141   1.061 -0.6044 -0.0041 -0.5884
 3512SOL    HW121995   4.089   2.175   1.032 -0.3273  0.8539 -0.3781
 3512SOL    HW221996   4.167   2.129   1.155 -0.3238 -1.6243 -0.7674
 3513SOL     OW21997   0.982   1.103   4.176  0.5582  0.4250 -0.2447
 3513SOL    HW121998   0.945   1.101   4.265  0.6685 -0.4391 -0.2264
 3513SOL    HW221999   1.038   1.181   4.176 -1.0564  1.5689 -2.6150
 3514SOL     OW22000   3.949   1.996   5.466 -0.2007  0.2145  0.0772
 3514SOL    HW122001   4.025   2.054   5.456 -1.1548  1.0648 -2.1966
 3514SOL    HW222002   3.894   2.053   5.412  2.3433  2.5305 -0.0730
 3515SOL     OW22003   0.347   1.913  14.761 -0.4784 -0.3874 -0.2991
 3515SOL    HW122004   0.307   1.843  14.711 -0.3875 -0.0558 -0.8358
 3515SOL    HW222005   0.419   1.938  14.703 -0.6274  0.8859  0.0540
 3516SOL     OW22006   4.250   0.651   7.177  0.6294  0.1471 -0.1930
 3516SOL    HW122007   4.164   0.674   7.212 -0.1783 -0.9783 -1.4400
 3516SOL    HW222008   4.250   0.561   7.208  0.0994 -0.5447 -2.1912
 3517SOL     OW22009   1.812   1.623   6.955 -0.5832  0.6517  0.1874
 3517SOL    HW122010   1.731   1.642   6.909 -1.2104 -0.7803  0.7056
 3517SOL    HW222011   1.794   1.650   7.045 -1.5374 -0.3109  0.2942
 3518SOL     OW22012   4.298   2.398   3.497 -0.0266  0.1194 -0.0125
 3518SOL    HW122013   4.284   2.485   3.536 -1.7231 -0.7338  1.2943
 3518SOL    HW222014   4.238   2.343   3.547  1.6097 -1.8206 -0.1741
 3519SOL     OW22015   2.988   0.331   2.569 -0.3504 -0.1740 -0.3693
 3519SOL    HW122016   2.989   0.267   2.498 -0.1344 -1.2595  0.6071
 3519SOL    HW222017   2.897   0.361   2.575  0.1391  0.8410  1.9255
 3520SOL     OW22018   3.081   4.356   6.613 -0.0065  0.0438 -0.1822
 3520SOL    HW122019   3.077   4.330   6.521  2.8399  1.3694 -0.6797
 3520SOL    HW222020   3.062   4.271   6.652  1.4539  0.2798  1.0533
 3521SOL     OW22021   4.014   2.416   5.426  0.1928 -0.2244 -0.0140
 3521SOL    HW122022   4.102   2.434   5.459  0.7882 -0.9842 -1.2006
 3521SOL    HW222023   4.035   2.347   5.363  0.8504 -0.7452  0.7724
 3522SOL     OW22024   0.720   1.923   6.182  0.0957 -0.3847 -0.1588
 3522SOL    HW122025   0.679   1.879   6.108  2.8581 -1.1156 -1.2436
 3522SOL    HW222026   0.690   2.013   6.174  2.5103  0.5861  1.5818
 3523SOL     OW22027   0.421   1.218  10.865  0.2625 -0.1688  0.0821
 3523SOL    HW122028   0.505   1.210  10.820 -0.2813 -2.7538 -0.4673
 3523SOL    HW222029   0.410   1.313  10.869 -0.7109 -0.2457 -1.0326
 3524SOL     OW22030   3.171   0.868   7.572  0.3156 -0.3035 -0.0142
 3524SOL    HW122031   3.097   0.883   7.631  0.0799 -0.6701 -0.2103
 3524SOL    HW222032   3.203   0.954   7.548  0.0418  0.1292  1.1498
 3525SOL     OW22033   1.175   2.071   4.138 -0.4380 -0.2296 -0.3762
 3525SOL    HW122034   1.214   2.020   4.209 -2.0782 -0.2075  0.5458
 3525SOL    HW222035   1.182   2.019   4.057  0.9331  0.4491 -0.6787
 3526SOL     OW22036   1.115   2.822   2.325  0.4203 -0.1980 -0.6281
 3526SOL    HW122037   1.112   2.726   2.324 -0.4820 -0.1683 -1.1392
 3526SOL    HW222038   1.095   2.839   2.417  0.2954 -4.0975  0.0385
 3527SOL     OW22039   2.607   2.232   6.519 -0.0720 -0.1779 -0.7891
 3527SOL    HW122040   2.618   2.197   6.431  0.5085  1.0369 -1.2123
 3527SOL    HW222041   2.693   2.274   6.530 -0.7374  1.2188 -0.8202
 3528SOL     OW22042   4.646   0.262   6.295 -0.5905 -0.3289  0.4779
 3528SOL    HW122043   4.601   0.190   6.250 -1.1506  1.6843 -2.1701
 3528SOL    HW222044   4.664   0.325   6.225 -1.6418  0.2516  0.7260
 3529SOL     OW22045   4.550   0.491   2.433 -0.2463 -0.1751  0.1645
 3529SOL    HW122046   4.621   0.555   2.439  1.1255 -1.7921  1.3828
 3529SOL    HW222047   4.473   0.545   2.453  0.9825  0.1241  4.0999
 3530SOL     OW22048   1.466   4.490  12.337  0.3577 -0.0809 -0.1416
 3530SOL    HW122049   1.446   4.420  12.398  0.9316 -0.2909 -0.1926
 3530SOL    HW222050   1.545   4.453  12.297  2.0373  1.0527  2.1022
 3531SOL     OW22051   0.372   2.887   4.128 -0.2191 -0.5978 -0.3428
 3531SOL    HW122052   0.422   2.844   4.059 -0.6666 -2.2273  0.3716
 3531SOL    HW222053   0.436   2.954   4.154 -1.5466  0.0838  1.2276
 3532SOL     OW22054   2.127   2.568   7.275  0.1661  0.4775  0.3806
 3532SOL    HW122055   2.135   2.483   7.231  1.4780  2.5242 -3.2893
 3532SOL    HW222056   2.123   2.542   7.367 -1.8012  0.6548  0.3333
 3533SOL     OW22057   4.555   3.835   7.846  0.2318 -0.4809 -0.3320
 3533SOL    HW122058   4.518   3.774   7.909  1.3768 -0.2839  0.5244
 3533SOL    HW222059   4.644   3.846   7.879 -0.2815  0.4985  0.7258
 3534SOL     OW22060   2.341   0.345   3.052 -0.1715 -0.6136 -0.4798
 3534SOL    HW122061   2.422   0.326   3.099 -0.4161 -0.5086 -0.0112
 3534SOL    HW222062   2.350   0.301   2.968 -2.2978 -2.9114  0.4655
 3535SOL     OW22063   1.469   2.454   6.819  0.4228 -0.4550 -0.0807
 3535SOL    HW122064   1.507   2.506   6.748 -0.4980  0.7154  0.2723
 3535SOL    HW222065   1.429   2.527   6.866 -1.4533 -0.4834 -1.6307
 3536SOL     OW22066   2.200   3.065   5.987 -0.1266 -0.4092  0.2148
 3536SOL    HW122067   2.177   3.020   6.069  0.1596  0.3268  0.7030
 3536SOL    HW222068   2.172   3.003   5.920 -1.8961  0.0521  0.5272
 3537SOL     OW22069   2.003   3.103   9.437 -0.6091 -0.0502 -0.2018
 3537SOL    HW122070   2.001   3.010   9.415  0.0762 -0.5306  1.7586
 3537SOL    HW222071   1.992   3.150   9.354  1.7438  0.5349 -0.1726
 3538SOL     OW22072   3.968   1.211   7.762  0.0428 -0.5196  0.5803
 3538SOL    HW122073   3.875   1.211   7.782 -0.7113  0.2857 -2.9195
 3538SOL    HW222074   3.998   1.131   7.804  0.1174 -1.4757 -1.2855
 3539SOL     OW22075   2.101   0.783  10.142 -0.0210 -0.0692 -0.4524
 3539SOL    HW122076   2.018   0.799  10.097 -0.6634  0.7673  1.0367
 3539SOL    HW222077   2.062   0.738  10.217  1.6466 -0.8531 -0.0771
 3540SOL     OW22078   3.527   3.485   2.952  0.5198  0.2242  0.0338
 3540SOL    HW122079   3.618   3.454   2.949  0.5696  0.6302 -2.1562
 3540SOL    HW222080   3.480   3.410   2.990 -1.7518  1.1792 -0.9217
 3541SOL     OW22081   0.522   0.567   9.830 -0.1335  0.0328 -0.2539
 3541SOL    HW122082   0.536   0.600   9.741 -0.6430  3.1354  0.7817
 3541SOL    HW222083   0.462   0.495   9.812 -1.1562  0.5443  1.0930
 3542SOL     OW22084   4.292   4.487   4.103  0.1705  0.5451  0.1586
 3542SOL    HW122085   4.311   4.574   4.069 -0.6262  0.1430 -1.3164
 3542SOL    HW222086   4.273   4.447   4.018 -1.7436  2.9443 -0.5285
 3543SOL     OW22087   3.936   0.087   4.045 -0.3447  0.0841 -0.0741
 3543SOL    HW122088   3.876   0.105   3.973 -0.2299  0.9849  0.0499
 3543SOL    HW222089   3.929   0.156   4.111 -0.0322  0.3831 -0.3532
 3544SOL     OW22090   1.242   1.517  16.409  0.7610  0.4396 -0.3452
 3544SOL    HW122091   1.190   1.499  16.331  2.8290  0.5095 -1.7480
 3544SOL    HW222092   1.270   1.609  16.401 -2.0042  1.2172 -1.2437
 3545SOL     OW22093   3.803   0.911  13.383  0.0403  0.5525 -0.3082
 3545SOL    HW122094   3.761   0.837  13.341  0.5797  1.4665 -2.4367
 3545SOL    HW222095   3.830   0.870  13.465 -0.1728  1.9768  0.4854
 3546SOL     OW22096   0.523   4.662   7.115  0.6200  0.4058 -0.6537
 3546SOL    HW122097   0.504   0.031   7.130  1.1958  0.4494 -0.1924
 3546SOL    HW222098   0.616   4.656   7.136  0.2162 -1.0678  0.7726
 3547SOL     OW22099   4.302   0.329   1.136 -0.0168 -0.5129  0.8635
 3547SOL    HW122100   4.242   0.397   1.168 -1.1899  0.1173 -2.5980
 3547SOL    HW222101   4.331   0.362   1.051  1.1261  1.4882  2.0452
 3548SOL     OW22102   4.151   2.584   6.387  0.0194  0.2455  0.5098
 3548SOL    HW122103   4.141   2.578   6.483 -0.6209 -2.2495  0.2712
 3548SOL    HW222104   4.187   2.499   6.365 -0.2266  0.3504 -0.2761
 3549SOL     OW22105   1.588   1.227  10.341 -0.1464  0.1776 -0.3880
 3549SOL    HW122106   1.635   1.307  10.364 -0.9516  1.2487 -2.5257
 3549SOL    HW222107   1.557   1.195  10.426  0.5493 -1.7838 -0.8740
 3550SOL     OW22108   2.165   1.730   9.787 -0.3000 -0.0398  0.2838
 3550SOL    HW122109   2.225   1.805   9.792  0.6297 -0.7099 -0.9359
 3550SOL    HW222110   2.095   1.759   9.846  0.5466 -1.5248  2.0222
 3551SOL     OW22111   1.674   3.646   4.351 -0.1545 -0.1848  0.1192
 3551SOL    HW122112   1.613   3.689   4.291  2.0925  1.8288 -0.7450
 3551SOL    HW222113   1.679   3.554   4.325 -2.4448  0.1636 -1.5612
 3552SOL     OW22114   4.301   0.385  16.661  0.5972  0.2130 -0.3772
 3552SOL    HW122115   4.376   0.370  16.718  0.0898  0.8280  0.4637
 3552SOL    HW222116   4.297   0.309  16.604  1.1704 -0.5258  0.5715
 3553SOL     OW22117   4.313   4.576   8.256  0.3012 -0.4258 -0.5484
 3553SOL    HW122118   4.393   4.542   8.295 -0.1865 -0.0266  0.7938
 3553SOL    HW222119   4.274   4.491   8.235 -1.7399  0.2857  0.2965
 3554SOL     OW22120   2.820   2.676   8.447 -0.5553  0.1780 -0.3385
 3554SOL    HW122121   2.785   2.598   8.403  1.2264 -2.3914  2.8937
 3554SOL    HW222122   2.750   2.684   8.511  0.0535 -1.7488  0.5584
 3555SOL     OW22123   0.536   2.953   3.695  0.2624  0.6369  0.4090
 3555SOL    HW122124   0.539   2.963   3.600 -0.2173 -2.5870  0.0450
 3555SOL    HW222125   0.453   2.997   3.713 -0.9316 -0.7088 -1.7623
 3556SOL     OW22126   4.358   1.834   2.764 -0.1634 -0.3112  0.4830
 3556SOL    HW122127   4.288   1.837   2.699 -0.0707  5.2279  0.6294
 3556SOL    HW222128   4.428   1.783   2.723 -0.3953 -1.3509  1.3837
 3557SOL     OW22129   0.537   2.811   3.914 -0.3471 -0.7022 -0.1830
 3557SOL    HW122130   0.610   2.809   3.976 -0.7939 -1.8413  0.3004
 3557SOL    HW222131   0.559   2.871   3.842 -1.6756 -0.0201 -0.0231
 3558SOL     OW22132   1.751   2.187  10.169  0.1597  0.0831  0.0570
 3558SOL    HW122133   1.729   2.254  10.104  0.8615 -1.0717 -1.3681
 3558SOL    HW222134   1.659   2.162  10.164  0.2217 -0.0373 -0.4223
 3559SOL     OW22135   1.697   4.320  17.569 -0.4607 -0.1198 -0.5143
 3559SOL    HW122136   1.728   4.236  17.533  2.5938  1.4150 -1.4467
 3559SOL    HW222137   1.620   4.325  17.513 -1.0570 -4.0422 -0.0519
 3560SOL     OW22138   0.164   3.379  12.792 -0.5427  0.3743  0.5137
 3560SOL    HW122139   0.255   3.365  12.768 -0.4349  0.1069  1.0816
 3560SOL    HW222140   0.131   3.290  12.779 -1.6262  0.4946  2.4320
 3561SOL     OW22141   0.066   0.237  12.123 -0.3354 -0.1197 -0.6657
 3561SOL    HW122142   4.717   0.208  12.068 -1.2534  0.2399  0.3791
 3561SOL    HW222143   0.025   0.282  12.196 -1.1040  2.6131 -2.7618
 3562SOL     OW22144   1.756   0.685  12.285  0.1940 -0.0418  0.3859
 3562SOL    HW122145   1.746   0.650  12.196 -0.0214  2.3129 -0.5004
 3562SOL    HW222146   1.668   0.674  12.322  0.4076  0.1503  0.9561
 3563SOL     OW22147   2.836   2.309  12.354 -0.2968 -0.0973  0.1895
 3563SOL    HW122148   2.799   2.231  12.396  0.9541  0.1695  1.8143
 3563SOL    HW222149   2.834   2.377  12.422  0.0291  0.3454 -0.2530
 3564SOL     OW22150   4.655   4.390   5.951  0.1929 -0.1298  0.1812
 3564SOL    HW122151   4.651   4.355   5.862 -0.2245  0.7300 -0.1391
 3564SOL    HW222152   0.015   4.435   5.937 -0.3396  0.3306 -1.3959
 3565SOL     OW22153   3.895   0.737   5.198  0.9276 -0.2444 -0.0513
 3565SOL    HW122154   3.858   0.817   5.236  0.5835 -0.3396 -0.1918
 3565SOL    HW222155   3.934   0.685   5.269 -1.7919 -0.5672  1.1765
 3566SOL     OW22156   3.017   3.934   4.033 -0.1144 -0.1600  0.0608
 3566SOL    HW122157   2.941   3.965   4.082 -0.4852 -0.4284 -0.3440
 3566SOL    HW222158   2.990   3.844   4.019 -1.4131  0.2876 -0.2916
 3567SOL     OW22159   3.578   2.260   6.138 -0.2956 -0.0003  0.2275
 3567SOL    HW122160   3.627   2.343   6.139  0.8849 -0.7064  0.9723
 3567SOL    HW222161   3.644   2.192   6.124 -0.2834  0.5334 -2.1658
 3568SOL     OW22162   0.944   2.498  16.422  0.1623  0.5882  0.3047
 3568SOL    HW122163   0.958   2.520  16.330 -0.3260 -1.2311 -0.1969
 3568SOL    HW222164   0.981   2.410  16.420 -0.4444  0.3508 -0.4732
 3569SOL     OW22165   2.921   0.836  14.669 -0.2288 -0.2948 -0.4278
 3569SOL    HW122166   2.847   0.797  14.623  1.4312  0.6863 -3.9365
 3569SOL    HW222167   2.884   0.922  14.689 -0.7607 -1.2015  2.4988
 3570SOL     OW22168   4.043   3.599   4.670 -0.3405 -0.0040 -0.1124
 3570SOL    HW122169   4.015   3.684   4.703  2.1597  0.6294  0.4285
 3570SOL    HW222170   4.067   3.633   4.584  0.1397 -0.3604 -0.1202
 3571SOL     OW22171   4.162   3.812   1.177 -0.4379 -0.6673  0.1021
 3571SOL    HW122172   4.172   3.844   1.087  0.7146 -0.7499  0.1930
 3571SOL    HW222173   4.165   3.716   1.174 -1.6842 -0.7300  0.9384
 3572SOL     OW22174   2.250   2.119   7.962 -0.0769 -0.0012 -0.7085
 3572SOL    HW122175   2.326   2.117   7.904  1.0169  0.8244  0.6794
 3572SOL    HW222176   2.244   2.210   7.991  1.8247 -1.3695  3.9583
 3573SOL     OW22177   0.693   4.225   8.455 -0.0958  0.0300 -0.2864
 3573SOL    HW122178   0.618   4.183   8.413  0.1166 -1.8901  1.2687
 3573SOL    HW222179   0.653   4.253   8.538 -0.3960 -0.5457 -0.2374
 3574SOL     OW22180   4.510   4.036   7.224 -0.4069  0.4394  0.5197
 3574SOL    HW122181   4.495   4.053   7.317  2.5666 -1.4421  1.3522
 3574SOL    HW222182   4.593   3.989   7.227 -0.4048  0.2948 -2.1634
 3575SOL     OW22183   3.565   2.037   6.922 -0.1592  0.1276 -0.5953
 3575SOL    HW122184   3.528   1.951   6.943 -0.2782  0.6852  1.4815
 3575SOL    HW222185   3.492   2.074   6.872 -0.2013  1.4770  0.4806
 3576SOL     OW22186   4.264   3.645   5.782 -0.1007 -0.6390  0.1620
 3576SOL    HW122187   4.269   3.623   5.875  1.4768  0.8615  0.4199
 3576SOL    HW222188   4.170   3.657   5.764  0.1731 -0.3093 -1.0778
 3577SOL     OW22189   4.399   4.482   6.864 -0.3842 -0.7634  0.1744
 3577SOL    HW122190   4.490   4.464   6.885 -0.4551  0.0298  1.1412
 3577SOL    HW222191   4.388   4.557   6.923 -0.1750 -1.6777  1.3696
 3578SOL     OW22192   2.541   2.835   9.237 -0.5767  0.1167 -0.0675
 3578SOL    HW122193   2.463   2.856   9.185  1.1756 -0.9675 -3.0928
 3578SOL    HW222194   2.518   2.886   9.315 -0.4370  0.5871 -0.3400
 3579SOL     OW22195   2.201   4.013   6.673 -0.1125 -0.4682 -0.2924
 3579SOL    HW122196   2.280   4.066   6.667  0.2879 -1.0224 -0.0290
 3579SOL    HW222197   2.236   3.932   6.635  0.1911 -0.6047  0.2690
 3580SOL     OW22198   1.816   4.196  16.022  0.0619  0.3101 -0.5354
 3580SOL    HW122199   1.877   4.138  16.069 -0.2104  0.8379  0.4678
 3580SOL    HW222200   1.818   4.160  15.934 -0.1275 -1.4894  0.2001
 3581SOL     OW22201   2.186   4.476   8.819 -0.1659  0.4682 -0.2927
 3581SOL    HW122202   2.197   4.512   8.731 -1.0185  1.9272  0.2094
 3581SOL    HW222203   2.195   4.554   8.872  1.3645 -0.4861  0.8263
 3582SOL     OW22204   1.246   4.585   5.421  0.2035 -0.1919  0.3388
 3582SOL    HW122205   1.271   4.493   5.429 -2.1987 -0.8095  0.6568
 3582SOL    HW222206   1.211   4.601   5.509 -0.4504 -0.2187  0.0797
 3583SOL     OW22207   1.730   2.157   0.439 -0.1279  0.7274  0.3140
 3583SOL    HW122208   1.724   2.072   0.395 -4.1950  1.2131 -0.0444
 3583SOL    HW222209   1.741   2.127   0.530 -0.3620 -0.2296  0.0336
 3584SOL     OW22210   0.104   0.328  14.925  0.5978 -0.0996 -0.5161
 3584SOL    HW122211   0.044   0.400  14.945 -0.4961 -1.4519  1.0540
 3584SOL    HW222212   0.151   0.334  15.008  0.7355 -2.1794 -0.4578
 3585SOL     OW22213   0.234   1.756  12.478 -0.3726 -0.2689  0.2377
 3585SOL    HW122214   0.144   1.788  12.485 -0.3933 -0.7402  2.0914
 3585SOL    HW222215   0.236   1.747  12.383  0.0574 -0.7897  0.2932
 3586SOL     OW22216   2.189   1.882  14.646  0.5420 -0.0094  0.1427
 3586SOL    HW122217   2.239   1.868  14.727  2.4501  0.9196 -0.8648
 3586SOL    HW222218   2.259   1.872  14.581  0.5483  0.5128  0.0635
 3587SOL     OW22219   2.273   0.835   6.892 -0.3763 -0.0078  0.1347
 3587SOL    HW122220   2.197   0.812   6.945  0.0506 -1.9278 -0.0543
 3587SOL    HW222221   2.325   0.866   6.966  0.0249 -0.7012  0.1454
 3588SOL     OW22222   3.818   0.563   7.497  0.4010  0.2812 -0.2857
 3588SOL    HW122223   3.897   0.510   7.493  1.2377  1.6765 -2.4440
 3588SOL    HW222224   3.754   0.500   7.529 -0.4568  1.6396  0.6821
 3589SOL     OW22225   0.760   2.735   6.083  0.1899  0.1070 -0.3465
 3589SOL    HW122226   0.672   2.767   6.063  0.9023  0.9702 -2.0738
 3589SOL    HW222227   0.775   2.669   6.014 -0.2359 -0.1918 -0.1557
 3590SOL     OW22228   3.110   2.872   2.607  0.2251  0.4862  0.0235
 3590SOL    HW122229   3.027   2.919   2.613 -0.7554 -1.3129  0.5929
 3590SOL    HW222230   3.155   2.937   2.553  0.6291 -1.6309 -2.1934
 3591SOL     OW22231   1.660   0.133   8.045 -0.3587  0.2478  0.3607
 3591SOL    HW122232   1.731   0.111   7.985  0.9175  2.2252  1.1618
 3591SOL    HW222233   1.661   0.053   8.098 -5.0377 -0.0193  0.0630
 3592SOL     OW22234   2.968   2.998   5.012 -0.5621  0.6724  0.6700
 3592SOL    HW122235   3.014   2.923   5.049 -0.2079 -0.4639 -2.0843
 3592SOL    HW222236   3.020   3.010   4.932  0.1247  0.2520  1.0526
 3593SOL     OW22237   2.569   2.951   9.503 -0.1872 -0.3113  0.1052
 3593SOL    HW122238   2.513   2.935   9.579  0.5971  0.2364  0.7893
 3593SOL    HW222239   2.651   2.922   9.542 -0.0666 -0.4141 -0.2184
 3594SOL     OW22240   0.454   4.711   0.190 -0.4913 -0.0569 -0.6597
 3594SOL    HW122241   0.508   0.057   0.226  1.5814 -2.1987  0.3415
 3594SOL    HW222242   0.477   4.626   0.227  1.4694  0.1328 -1.4452
 3595SOL     OW22243   0.705   0.813   2.641  0.1683 -0.2736 -0.7046
 3595SOL    HW122244   0.788   0.861   2.639  0.5149 -0.7197  2.1777
 3595SOL    HW222245   0.735   0.758   2.713  0.2838  1.0104  0.2318
 3596SOL     OW22246   1.947   3.145   4.161  0.4097 -0.8196  0.7716
 3596SOL    HW122247   1.989   3.199   4.095  0.0952 -0.6611  0.7024
 3596SOL    HW222248   1.982   3.060   4.134  0.8728  0.2250 -1.9173
 3597SOL     OW22249   2.245   2.577   8.073  0.4340  0.1498 -0.2498
 3597SOL    HW122250   2.190   2.649   8.106  0.4845  0.6308 -1.2114
 3597SOL    HW222251   2.292   2.629   8.008  0.6460 -2.7072 -2.3549
 3598SOL     OW22252   2.820   1.857   4.225 -0.0657  0.2303  0.0596
 3598SOL    HW122253   2.829   1.803   4.146  0.7898  0.8728 -0.2757
 3598SOL    HW222254   2.866   1.931   4.186  0.0132  0.7382  1.0947
 3599SOL     OW22255   2.400   1.211   6.264 -0.2471  0.1601 -0.6123
 3599SOL    HW122256   2.441   1.231   6.348  1.1406  2.1229 -1.7482
 3599SOL    HW222257   2.307   1.224   6.286 -0.0957  1.0971 -0.5074
 3600SOL     OW22258   2.037   3.087   6.390  0.2713  0.0044  0.5347
 3600SOL    HW122259   1.991   3.166   6.361  0.1859  0.1647  1.1142
 3600SOL    HW222260   1.999   3.080   6.477  0.8310  2.0908  0.9514
 3601SOL     OW22261   1.390   0.574   3.585 -0.1228  0.1964 -0.0539
 3601SOL    HW122262   1.361   0.626   3.510 -0.3564 -0.3591 -0.3446
 3601SOL    HW222263   1.307   0.531   3.606  0.0165 -0.7830 -1.5855
 3602SOL     OW22264   4.021   1.624  14.781  0.6034  0.3593 -0.4279
 3602SOL    HW122265   4.008   1.688  14.711 -0.3830  0.3310 -0.2770
 3602SOL    HW222266   3.954   1.556  14.770  1.3881 -0.5867  0.6101
 3603SOL     OW22267   2.305   2.874  16.307 -0.7427 -0.0268 -0.9824
 3603SOL    HW122268   2.371   2.941  16.286 -0.2086 -0.7333 -1.5613
 3603SOL    HW222269   2.226   2.924  16.330  0.3273  2.8984 -3.5891
 3604SOL     OW22270   0.182   2.163   8.149  0.4035 -0.1819 -0.1526
 3604SOL    HW122271   0.135   2.229   8.099 -0.6743 -2.1195 -1.6934
 3604SOL    HW222272   0.169   2.203   8.235  1.1733 -0.4365  0.0855
 3605SOL     OW22273   2.869   1.525   4.298  0.1071 -0.1106 -0.0247
 3605SOL    HW122274   2.857   1.613   4.262  1.8722  0.2656  0.2823
 3605SOL    HW222275   2.855   1.539   4.391 -0.6149  2.5437 -0.5238
 3606SOL     OW22276   2.020   2.149   4.242 -0.1405 -0.1824 -0.0803
 3606SOL    HW122277   2.074   2.216   4.200 -0.8012  1.2213  1.3146
 3606SOL    HW222278   2.044   2.071   4.192 -0.3142 -1.3229  1.6198
 3607SOL     OW22279   0.936   0.709   7.589 -0.3306 -0.4015 -0.1270
 3607SOL    HW122280   0.915   0.696   7.496  2.4881 -0.3534 -0.7534
 3607SOL    HW222281   1.022   0.670   7.603 -0.0827  0.3477  0.4063
 3608SOL     OW22282   3.031   2.006   4.039 -0.2546 -0.1380 -0.1649
 3608SOL    HW122283   3.029   2.098   4.067  2.1717 -0.7648  2.1319
 3608SOL    HW222284   3.122   1.993   4.010 -0.6692 -2.2919 -0.4624
 3609SOL     OW22285   0.576   3.610   4.415  0.2151 -0.4601 -0.5278
 3609SOL    HW122286   0.544   3.549   4.347  0.6535 -1.9313  0.5889
 3609SOL    HW222287   0.519   3.685   4.401  2.0914  0.6978 -1.9505
 3610SOL     OW22288   0.816   3.131   1.298  0.1505  0.0864 -0.1425
 3610SOL    HW122289   0.795   3.218   1.265  2.3543  1.2856  1.5920
 3610SOL    HW222290   0.790   3.132   1.390 -0.7442 -0.8769 -0.3928
 3611SOL     OW22291   0.656   2.486   2.885  0.7572 -0.8020  0.8992
 3611SOL    HW122292   0.717   2.498   2.958  1.7898 -0.6300  0.0043
 3611SOL    HW222293   0.708   2.528   2.816  3.2237 -3.3196  1.2373
 3612SOL     OW22294   3.528   0.481   2.989 -0.4586 -0.0737  0.3769
 3612SOL    HW122295   3.534   0.437   3.074 -2.3181 -0.9418  0.0591
 3612SOL    HW222296   3.495   0.568   3.010 -3.9150 -0.6035 -2.7783
 3613SOL     OW22297   4.020   1.746  15.432  0.0766 -0.4334 -0.6369
 3613SOL    HW122298   3.959   1.673  15.445 -1.0795  0.5280 -0.6066
 3613SOL    HW222299   4.097   1.713  15.477  0.4631 -1.1527 -1.8108
 3614SOL     OW22300   0.237   2.876  17.060  0.2174  0.1788  0.8840
 3614SOL    HW122301   0.300   2.831  17.117  1.2952 -0.9665 -1.2329
 3614SOL    HW222302   0.154   2.888  17.106  0.6231 -2.4238  2.3385
 3615SOL     OW22303   2.642   3.847   9.793 -0.0775 -0.7283  0.3478
 3615SOL    HW122304   2.562   3.797   9.802 -1.4564  1.1420 -1.3031
 3615SOL    HW222305   2.633   3.870   9.700 -0.0497  1.4174  0.8773
 3616SOL     OW22306   3.558   3.250   3.345 -0.2629  0.4251  0.9401
 3616SOL    HW122307   3.632   3.190   3.354 -1.4765 -0.6643  3.5721
 3616SOL    HW222308   3.612   3.329   3.348  0.1025  0.1647  1.2715
 3617SOL     OW22309   0.127   4.660   4.258  0.2970 -0.1153 -0.5458
 3617SOL    HW122310   0.196   4.603   4.223 -0.9596 -0.8736 -1.7633
 3617SOL    HW222311   0.176   4.692   4.334  1.3652 -0.9463 -0.8835
 3618SOL     OW22312   0.903   1.277   3.128 -0.4253 -0.2711 -0.2588
 3618SOL    HW122313   0.826   1.294   3.074  1.1480  2.2110 -1.7581
 3618SOL    HW222314   0.946   1.363   3.128  0.0962 -0.5369  0.6361
 3619SOL     OW22315   1.996   1.059  14.739  0.3118 -0.3010  0.1657
 3619SOL    HW122316   2.039   1.044  14.823  0.6661 -0.8802 -0.1149
 3619SOL    HW222317   2.021   0.987  14.681 -0.3033 -0.1840 -0.2526
 3620SOL     OW22318   1.581   3.154  11.535  0.2552 -0.3894  0.3403
 3620SOL    HW122319   1.639   3.083  11.560  0.0747 -1.1774 -1.4803
 3620SOL    HW222320   1.529   3.113  11.465 -0.0046 -0.5478  0.6242
 3621SOL     OW22321   3.370   3.565   2.721  0.2505  0.6151 -0.9165
 3621SOL    HW122322   3.414   3.520   2.793 -1.1286  1.0883  0.2251
 3621SOL    HW222323   3.284   3.565   2.764  1.0748 -1.9760  0.7373
 3622SOL     OW22324   2.996   0.965   2.893  0.2774  0.0095 -0.8893
 3622SOL    HW122325   2.955   1.049   2.872  0.9247  0.5495  0.0111
 3622SOL    HW222326   3.035   0.947   2.807  0.8366 -2.4968 -0.1078
 3623SOL     OW22327   0.273   3.990   2.309 -0.4991  0.3344 -0.2054
 3623SOL    HW122328   0.340   4.049   2.273 -0.6494 -0.3804 -1.6639
 3623SOL    HW222329   0.199   4.046   2.331 -1.2703  0.2582 -2.5758
 3624SOL     OW22330   1.752   2.976  11.961  0.0139  0.0000  0.1394
 3624SOL    HW122331   1.844   2.955  11.948  0.0510  1.2702 -1.5979
 3624SOL    HW222332   1.708   2.953  11.879  0.6633 -0.9027  0.0413
 3625SOL     OW22333   3.892   3.206   0.455  0.6142  0.2156 -0.2257
 3625SOL    HW122334   3.957   3.215   0.525 -0.8044  3.0398  0.7157
 3625SOL    HW222335   3.945   3.161   0.389 -0.4350  0.5851 -1.3191
 3626SOL     OW22336   3.674   2.599   9.941  0.0382 -0.4301 -0.2307
 3626SOL    HW122337   3.723   2.516   9.936 -0.3178 -0.7963  2.2134
 3626SOL    HW222338   3.747   2.660   9.945 -0.6626  0.5417 -2.2965
 3627SOL     OW22339   0.568   4.309  15.895 -0.0038 -0.0842 -0.3408
 3627SOL    HW122340   0.478   4.326  15.868 -0.5689  0.0799  1.6302
 3627SOL    HW222341   0.576   4.215  15.880  2.6638  0.1365 -0.3796
 3628SOL     OW22342   3.944   1.783   1.155  0.0528 -0.4276  0.0615
 3628SOL    HW122343   3.889   1.829   1.218  0.6536 -1.5117  1.3852
 3628SOL    HW222344   3.954   1.708   1.213 -0.3383 -0.8483 -0.4143
 3629SOL     OW22345   2.018   2.560   6.251 -0.9368 -0.6968  0.0908
 3629SOL    HW122346   1.953   2.620   6.215 -0.1585 -0.4134 -0.8602
 3629SOL    HW222347   2.012   2.596   6.339  0.2426 -0.7368  0.1869
 3630SOL     OW22348   4.102   0.904  15.736 -0.1604 -0.3160  0.0966
 3630SOL    HW122349   4.134   0.939  15.653 -1.6857  0.4231 -0.1821
 3630SOL    HW222350   4.016   0.867  15.718 -0.2785  0.2494 -0.5310
 3631SOL     OW22351   3.346   2.792   8.489  0.2137 -0.3734  0.2637
 3631SOL    HW122352   3.323   2.717   8.544  0.1875 -1.2435 -0.9356
 3631SOL    HW222353   3.287   2.787   8.413  0.6407 -1.1818 -0.0180
 3632SOL     OW22354   2.329   4.074   0.165 -0.4666  0.4700  0.2995
 3632SOL    HW122355   2.420   4.064   0.191 -0.6949  0.1762  0.9947
 3632SOL    HW222356   2.305   3.995   0.117  1.5628 -1.7030  2.8640
 3633SOL     OW22357   3.472   3.879   2.531 -1.1004  0.0750  0.1917
 3633SOL    HW122358   3.544   3.929   2.493 -0.1097 -1.9953 -0.6727
 3633SOL    HW222359   3.440   3.817   2.466 -2.0760  0.8792 -0.1018
 3634SOL     OW22360   3.398   0.458   0.547  0.0723  0.1176  0.7101
 3634SOL    HW122361   3.427   0.539   0.505  0.1721 -0.8213 -1.0308
 3634SOL    HW222362   3.306   0.479   0.566 -0.1166  0.6747 -0.7772
 3635SOL     OW22363   4.664   3.601  17.599  0.0421  0.7947 -0.1363
 3635SOL    HW122364   0.034   3.582  17.606 -0.2605 -0.1243  1.4461
 3635SOL    HW222365   4.650   3.655  17.677 -0.1158 -0.2463  0.5596
 3636SOL     OW22366   2.685   3.598   9.448 -0.4493 -0.0586 -0.3281
 3636SOL    HW122367   2.692   3.532   9.517  2.4147  1.0435  0.4502
 3636SOL    HW222368   2.604   3.637   9.479  0.3552  2.6476 -1.6707
 3637SOL     OW22369   0.903   2.778   2.765  0.4961 -0.2912 -0.0253
 3637SOL    HW122370   0.831   2.725   2.731 -0.2873  1.8008 -1.5919
 3637SOL    HW222371   0.933   2.827   2.689  3.3683 -1.1378  0.5705
 3638SOL     OW22372   2.599   1.576   4.877  0.0969 -0.4275 -0.6004
 3638SOL    HW122373   2.580   1.629   4.799  1.1401  0.3511 -0.3151
 3638SOL    HW222374   2.694   1.573   4.876  0.0725 -1.1101 -0.8475
 3639SOL     OW22375   4.096   3.352   1.424 -0.2985 -0.0569 -0.3934
 3639SOL    HW122376   4.168   3.303   1.463 -0.4371  0.0534 -0.0069
 3639SOL    HW222377   4.075   3.408   1.498  2.0657 -0.8269  0.8583
 3640SOL     OW22378   2.487   2.072   0.301  0.1990 -0.1674  0.4839
 3640SOL    HW122379   2.540   2.009   0.350  0.2037 -1.3940 -1.0749
 3640SOL    HW222380   2.399   2.036   0.304  1.1728 -2.6858 -1.1335
 3641SOL     OW22381   1.924   2.804   3.275 -0.2398  1.0618  0.0150
 3641SOL    HW122382   1.848   2.861   3.285  0.8145  2.4212  0.2034
 3641SOL    HW222383   1.990   2.873   3.267  0.3509  0.7743  2.3815
 3642SOL     OW22384   0.577   1.141   5.153  0.2151  0.2066  0.2620
 3642SOL    HW122385   0.643   1.073   5.139  0.1877  0.6966 -2.2375
 3642SOL    HW222386   0.499   1.097   5.119 -0.0954 -0.3228  1.6617
 3643SOL     OW22387   0.034   1.937   7.036 -0.1520 -0.1037 -0.5419
 3643SOL    HW122388   0.071   1.909   7.120  0.5120 -0.0408 -0.8140
 3643SOL    HW222389   4.666   1.950   7.062  0.5906 -0.3053  2.1118
 3644SOL     OW22390   1.530   2.550  17.417  0.4716  0.4745 -0.3760
 3644SOL    HW122391   1.557   2.557  17.508  1.3099  0.8303 -0.6490
 3644SOL    HW222392   1.535   2.456  17.398  2.6525  1.0082 -2.3902
 3645SOL     OW22393   4.667   3.939   4.123  0.3994 -0.0624  0.2889
 3645SOL    HW122394   4.579   3.902   4.133 -1.3728  3.2635 -3.1362
 3645SOL    HW222395   4.681   3.948   4.029 -0.2582  1.8916  0.3751
 3646SOL     OW22396   3.418   3.890   2.231  0.2336  0.1847  0.8025
 3646SOL    HW122397   3.349   3.831   2.260 -0.5832  0.3860 -0.6901
 3646SOL    HW222398   3.495   3.839   2.256  0.3574 -0.1649 -0.2554
 3647SOL     OW22399   2.349   3.180   6.688  0.2354  0.0997  0.0360
 3647SOL    HW122400   2.338   3.091   6.721  0.8464  0.8802  2.3039
 3647SOL    HW222401   2.262   3.206   6.718  0.9634  1.2871  1.1355
 3648SOL     OW22402   3.951   0.236   4.746  0.1952 -0.6289  0.2209
 3648SOL    HW122403   3.917   0.180   4.676 -3.8952  0.4420  1.3692
 3648SOL    HW222404   4.039   0.245   4.709  0.1126  3.7423  1.1416
 3649SOL     OW22405   2.565   2.399   0.678 -0.2454 -0.0815  0.0262
 3649SOL    HW122406   2.611   2.326   0.638 -0.0770 -0.7154  1.4006
 3649SOL    HW222407   2.475   2.370   0.664 -0.1133  0.3383 -1.7599
 3650SOL     OW22408   1.790   4.188   6.313 -0.7066 -0.4497  0.2632
 3650SOL    HW122409   1.706   4.151   6.285 -0.5349 -0.8913  0.3215
 3650SOL    HW222410   1.853   4.116   6.318  0.6301  0.6178 -1.0859
 3651SOL     OW22411   0.487   1.425   0.857 -0.0819  0.2938  0.0290
 3651SOL    HW122412   0.579   1.453   0.856 -0.1967  0.6613 -0.4247
 3651SOL    HW222413   0.505   1.339   0.820  0.8702 -0.3597  1.9988
 3652SOL     OW22414   1.445   0.708   2.814  0.2946 -0.3429  0.2079
 3652SOL    HW122415   1.487   0.623   2.804  1.1586  0.3092 -1.5795
 3652SOL    HW222416   1.527   0.755   2.832 -2.3068  3.8437  1.0681
 3653SOL     OW22417   1.990   0.513  15.775 -0.1280 -0.1443  0.2643
 3653SOL    HW122418   2.046   0.471  15.841  0.6323  0.8695  0.2583
 3653SOL    HW222419   1.968   0.435  15.723 -2.0161  0.0514  0.7516
 3654SOL     OW22420   1.614   3.189   9.798 -0.0041 -0.0677 -0.3032
 3654SOL    HW122421   1.669   3.151   9.866  0.6954  1.4137 -0.0326
 3654SOL    HW222422   1.668   3.171   9.721  1.3486 -2.6529  1.2681
 3655SOL     OW22423   3.303   0.936   4.381 -0.6633 -0.4808 -0.4438
 3655SOL    HW122424   3.382   0.989   4.385 -0.4884 -0.8653  1.0285
 3655SOL    HW222425   3.276   0.948   4.290  2.0820  0.3896 -1.1273
 3656SOL     OW22426   2.162   0.834   1.586  0.2037 -0.6760 -0.0315
 3656SOL    HW122427   2.237   0.804   1.638  0.9305  0.0740 -0.6309
 3656SOL    HW222428   2.109   0.874   1.655 -1.5433  0.4969 -2.0345
 3657SOL     OW22429   0.178   1.267   8.661  0.0260  0.2705  0.3156
 3657SOL    HW122430   0.231   1.190   8.642  0.3624  0.1782  1.6405
 3657SOL    HW222431   0.183   1.251   8.755 -0.5523 -1.8157 -0.0124
 3658SOL     OW22432   0.129   4.019   3.873 -0.0937 -0.3918 -0.3492
 3658SOL    HW122433   0.157   4.093   3.927  1.3359 -1.8943  1.0125
 3658SOL    HW222434   0.216   3.995   3.840 -1.2423  0.1365 -3.7201
 3659SOL     OW22435   4.518   3.022   9.961  0.4491  0.2143  0.1803
 3659SOL    HW122436   4.612   3.029   9.977  0.5144 -1.1426  0.4187
 3659SOL    HW222437   4.510   2.927   9.948 -0.8820  0.5717 -1.6642
 3660SOL     OW22438   1.728   0.899   5.096  0.0270  0.7883  0.1553
 3660SOL    HW122439   1.818   0.929   5.113  0.6454 -2.2912  2.2739
 3660SOL    HW222440   1.701   0.837   5.163 -1.9342 -0.1325 -1.4802
 3661SOL     OW22441   3.054   4.278   6.354  0.4387 -0.3881  0.2887
 3661SOL    HW122442   2.960   4.260   6.363  0.0820  1.6476  0.5346
 3661SOL    HW222443   3.073   4.217   6.283  0.0846 -0.2991  0.1152
 3662SOL     OW22444   4.278   2.307   2.526  0.7580 -0.0020 -0.7698
 3662SOL    HW122445   4.245   2.355   2.451  1.5690  1.1005 -0.4216
 3662SOL    HW222446   4.320   2.235   2.479 -0.7390 -0.7252 -1.0068
 3663SOL     OW22447   3.386   0.635   1.155 -0.8090 -0.1225 -0.3350
 3663SOL    HW122448   3.384   0.635   1.251  0.1288 -0.2814 -0.3162
 3663SOL    HW222449   3.422   0.723   1.144 -0.4682 -0.3351 -0.8661
 3664SOL     OW22450   2.887   3.190   4.385 -0.6028 -0.4003  0.0308
 3664SOL    HW122451   2.858   3.104   4.414  0.7235 -0.0430  2.3479
 3664SOL    HW222452   2.872   3.184   4.290  1.0828 -3.2041 -0.0557
 3665SOL     OW22453   4.376   3.854  12.919 -0.4560 -0.0456 -0.4405
 3665SOL    HW122454   4.386   3.806  12.837 -1.8486  0.0120 -0.6531
 3665SOL    HW222455   4.466   3.865  12.950 -0.0115  0.6495 -1.9608
 3666SOL     OW22456   3.120   1.046   0.629  0.3005  0.6330 -0.4251
 3666SOL    HW122457   3.069   1.114   0.671 -1.5926 -0.7590 -0.4767
 3666SOL    HW222458   3.079   0.968   0.667  0.5393  0.0609 -1.3214
 3667SOL     OW22459   3.212   3.074   2.400  0.1395 -0.0863  0.6646
 3667SOL    HW122460   3.242   3.161   2.428 -0.4230  1.0622 -2.2385
 3667SOL    HW222461   3.122   3.102   2.382  0.2376 -0.4877 -0.4509
 3668SOL     OW22462   2.312   3.050   3.711 -0.3172 -0.3459 -0.0009
 3668SOL    HW122463   2.282   3.078   3.625 -1.8228 -0.7969  0.3662
 3668SOL    HW222464   2.327   3.133   3.757  0.0460  0.1092 -0.9589
 3669SOL     OW22465   2.769   0.625  14.156  0.1023 -0.5087 -0.1412
 3669SOL    HW122466   2.817   0.682  14.216  0.3783 -1.6725  0.7657
 3669SOL    HW222467   2.827   0.549  14.155  0.6996 -0.0419 -0.8481
 3670SOL     OW22468   3.486   1.974   1.039 -0.0530 -0.3002  0.7094
 3670SOL    HW122469   3.502   1.960   0.946 -0.2875  0.0902  0.6092
 3670SOL    HW222470   3.438   2.057   1.039 -0.4988 -0.5527 -1.3831
 3671SOL     OW22471   4.576   3.044   6.891  0.0773 -0.3617  0.2310
 3671SOL    HW122472   4.555   3.055   6.798 -1.9099  0.1118  0.7391
 3671SOL    HW222473   4.497   3.029   6.943  0.3378  0.9839  1.0130
 3672SOL     OW22474   1.168   1.187   2.423 -0.1725 -0.0833  0.1900
 3672SOL    HW122475   1.079   1.221   2.432  0.3664  0.4222  3.5745
 3672SOL    HW222476   1.219   1.247   2.477  1.6301 -0.3180 -1.2637
 3673SOL     OW22477   0.778   1.267   7.321  0.1400 -0.2077 -0.1495
 3673SOL    HW122478   0.865   1.302   7.344  0.6627 -2.4258  1.2025
 3673SOL    HW222479   0.742   1.275   7.409  1.5615  1.0903  0.3310
 3674SOL     OW22480   4.151   0.683  13.128  0.0905 -0.1410 -0.4147
 3674SOL    HW122481   4.097   0.664  13.051 -2.9146 -0.4396  1.8062
 3674SOL    HW222482   4.086   0.684  13.198 -1.4884  1.4855 -1.8767
 3675SOL     OW22483   3.913   2.201   2.572  0.2595  0.2673  0.7770
 3675SOL    HW122484   3.836   2.242   2.532  1.2534 -0.7501 -2.2031
 3675SOL    HW222485   3.904   2.110   2.543  2.2559 -0.1268  1.4401
 3676SOL     OW22486   3.416   0.633  12.244  0.6489 -0.1386  0.0050
 3676SOL    HW122487   3.415   0.576  12.167 -0.2025  1.6505 -1.3124
 3676SOL    HW222488   3.325   0.663  12.253  1.4491  2.4359 -0.6022
 3677SOL     OW22489   4.492   3.305  16.160  0.4455 -0.1911 -0.6826
 3677SOL    HW122490   4.512   3.269  16.074  1.6839 -1.2826  0.0466
 3677SOL    HW222491   4.546   3.252  16.220 -2.6698 -1.5744  0.8970
 3678SOL     OW22492   1.439   3.301  16.176 -0.3818 -0.8338 -0.3061
 3678SOL    HW122493   1.509   3.238  16.192 -0.2581 -1.1018 -1.9358
 3678SOL    HW222494   1.396   3.254  16.105  3.5037 -1.8791 -1.9643
 3679SOL     OW22495   4.053   3.446   3.984 -0.4249  0.2329  0.3540
 3679SOL    HW122496   4.029   3.469   4.074  0.0722 -1.2318  0.8640
 3679SOL    HW222497   4.141   3.412   4.000  0.4353  2.4320  0.2863
 3680SOL     OW22498   2.683   3.147   5.150 -0.1314 -0.2092  0.2491
 3680SOL    HW122499   2.685   3.128   5.244 -1.3912  0.8311  0.5003
 3680SOL    HW222500   2.614   3.213   5.138  1.1611  0.3369 -4.1830
 3681SOL     OW22501   0.416   3.729   9.363 -0.2826 -0.1920 -0.1840
 3681SOL    HW122502   0.508   3.710   9.381 -0.0472  2.1300  1.1162
 3681SOL    HW222503   0.387   3.669   9.294 -0.7312 -0.5725  0.3337
 3682SOL     OW22504   1.526   1.553   5.839 -0.2227  0.0152  0.1272
 3682SOL    HW122505   1.621   1.542   5.841 -0.5178 -2.6013 -0.2883
 3682SOL    HW222506   1.511   1.544   5.933  1.3786  0.0564  0.3917
 3683SOL     OW22507   4.363   4.445   7.610 -0.1581  0.2846 -0.2945
 3683SOL    HW122508   4.433   4.380   7.618 -1.2092 -0.8063 -0.0467
 3683SOL    HW222509   4.381   4.478   7.522 -0.4177 -0.6087 -0.6799
 3684SOL     OW22510   4.113   2.192   5.598  0.4460  0.4860  0.1526
 3684SOL    HW122511   4.108   2.255   5.670 -0.5598  1.7743 -1.0516
 3684SOL    HW222512   4.147   2.239   5.523  0.0255  0.1762 -0.2320
 3685SOL     OW22513   2.034   1.527   2.056  0.2383  0.2850 -0.2761
 3685SOL    HW122514   2.113   1.577   2.077  0.0392 -0.5040  2.4120
 3685SOL    HW222515   2.017   1.477   2.136  2.6494  0.1740  0.1883
 3686SOL     OW22516   1.275   1.562  11.564  0.3298 -0.4789  0.6566
 3686SOL    HW122517   1.311   1.506  11.496  2.0260  0.5286  0.7388
 3686SOL    HW222518   1.357   1.599  11.597 -0.3057  1.3356  0.2264
 3687SOL     OW22519   3.621   3.060   3.956 -0.2225 -0.0241  0.0137
 3687SOL    HW122520   3.591   3.081   3.868 -0.6802 -0.8943 -0.0447
 3687SOL    HW222521   3.691   3.124   3.965 -1.5708  1.4069  0.2623
 3688SOL     OW22522   3.597   1.342   2.549  0.7172  0.1013  0.0522
 3688SOL    HW122523   3.533   1.327   2.480 -0.3922  0.9820  0.8630
 3688SOL    HW222524   3.667   1.284   2.520 -0.0166  0.5867 -2.6525
 3689SOL     OW22525   4.217   0.281   2.320 -0.8100  0.0692  0.1564
 3689SOL    HW122526   4.174   0.199   2.297 -0.5930 -0.3946  1.4019
 3689SOL    HW222527   4.309   0.269   2.296 -0.4933 -1.0715  1.9576
 3690SOL     OW22528   4.570   3.422   7.775  0.2021 -0.1050 -0.2311
 3690SOL    HW122529   4.540   3.332   7.760 -1.9573  1.0079 -2.7813
 3690SOL    HW222530   4.487   3.443   7.818  0.5482 -0.2518  0.5046
 3691SOL     OW22531   4.038   3.648   6.213 -0.3263  0.7527 -0.7148
 3691SOL    HW122532   4.040   3.742   6.232 -0.5794  0.8116 -0.9817
 3691SOL    HW222533   4.048   3.596   6.293 -0.3858  0.5838 -0.8180
 3692SOL     OW22534   3.111   0.951  15.568 -0.0337  0.7252  0.1142
 3692SOL    HW122535   3.149   0.939  15.655 -4.4045 -0.1223  1.9024
 3692SOL    HW222536   3.093   1.045  15.568 -1.6796  0.4010  2.3446
 3693SOL     OW22537   3.763   2.236   0.598 -0.2911 -0.3320  0.9125
 3693SOL    HW122538   3.692   2.274   0.649  0.8707  2.4218  0.4706
 3693SOL    HW222539   3.835   2.244   0.661 -0.8329  1.7702  1.2615
 3694SOL     OW22540   4.240   3.215   2.020 -0.2233  0.0560 -0.1484
 3694SOL    HW122541   4.291   3.296   2.021 -1.4655  0.8295  0.6549
 3694SOL    HW222542   4.303   3.156   2.061 -0.9418 -0.3307  0.4012
 3695SOL     OW22543   4.269   2.744  10.351  0.0480  0.2634 -0.1764
 3695SOL    HW122544   4.255   2.798  10.273 -0.2452 -0.6019 -0.7156
 3695SOL    HW222545   4.357   2.709  10.344  0.8518  2.2128  0.1166
 3696SOL     OW22546   0.758   4.190   7.594  0.0737  0.4719  0.1169
 3696SOL    HW122547   0.824   4.237   7.543 -2.1584  1.5566 -1.7781
 3696SOL    HW222548   0.808   4.179   7.675 -2.0591  2.5058  1.7272
 3697SOL     OW22549   2.681   0.385  14.438  0.5304  0.4131  0.5821
 3697SOL    HW122550   2.738   0.325  14.487  0.4793  0.5665  0.8303
 3697SOL    HW222551   2.745   0.427  14.381 -0.0602 -0.2297 -0.5533
 3698SOL     OW22552   2.758   2.423   9.811  0.4024  0.3114  0.3339
 3698SOL    HW122553   2.713   2.493   9.764 -0.0374  0.0201  0.3170
 3698SOL    HW222554   2.812   2.476   9.870  1.8830 -0.2270 -0.5354
 3699SOL     OW22555   1.660   1.688   7.859 -0.1729 -0.2706  0.4193
 3699SOL    HW122556   1.712   1.671   7.781 -1.5048 -2.2556 -0.0321
 3699SOL    HW222557   1.585   1.632   7.842  0.1140 -0.4805 -0.1470
 3700SOL     OW22558   1.689   3.818   8.877 -0.3695  0.4804 -0.4378
 3700SOL    HW122559   1.682   3.891   8.816 -0.3850  0.2082 -0.7600
 3700SOL    HW222560   1.637   3.847   8.951 -0.7286  0.0847 -0.5342
 3701SOL     OW22561   1.351   2.490   0.134 -0.4134 -0.6838  0.0681
 3701SOL    HW122562   1.307   2.438   0.200  1.6393 -0.4393  1.6291
 3701SOL    HW222563   1.319   2.577   0.154  2.9948  0.7758 -0.7137
 3702SOL     OW22564   2.404   1.863   6.630 -0.2680 -0.0223  0.1601
 3702SOL    HW122565   2.420   1.768   6.629 -1.4888 -0.2142 -1.6844
 3702SOL    HW222566   2.321   1.872   6.583  1.3234 -1.2395 -2.9210
 3703SOL     OW22567   0.837   0.395   5.578 -0.3214 -0.1294 -0.2757
 3703SOL    HW122568   0.805   0.366   5.663 -2.3640  0.7745 -0.7362
 3703SOL    HW222569   0.794   0.478   5.558  0.6125  0.7171  1.2316
 3704SOL     OW22570   4.430   3.011   9.396 -0.3266 -0.3045  0.3348
 3704SOL    HW122571   4.514   2.993   9.354 -0.3714  0.6298 -0.1463
 3704SOL    HW222572   4.457   2.994   9.487 -1.1309 -2.3017  0.2135
 3705SOL     OW22573   0.211   1.971   7.961  0.2524  1.0249  0.4298
 3705SOL    HW122574   0.294   1.945   8.001  0.0818 -0.7246 -0.4015
 3705SOL    HW222575   0.189   2.033   8.031 -0.5938  1.3090 -0.0894
 3706SOL     OW22576   2.692   3.005   8.170 -0.6966  0.0419  0.0285
 3706SOL    HW122577   2.639   3.008   8.091  1.0280 -0.3992 -1.1431
 3706SOL    HW222578   2.779   3.019   8.134 -0.8572  3.4952  0.9770
 3707SOL     OW22579   3.486   1.962   8.087  0.4239  0.3030  0.3078
 3707SOL    HW122580   3.539   2.003   8.018  1.4781  0.2244  1.0822
 3707SOL    HW222581   3.545   1.954   8.162  1.5318  0.1786 -0.5706
 3708SOL     OW22582   0.762   3.937   4.666 -0.2403 -0.2250 -0.1161
 3708SOL    HW122583   0.764   3.846   4.636 -0.6981  0.9194 -3.5237
 3708SOL    HW222584   0.724   3.971   4.585 -2.0355 -0.0414  0.7947
 3709SOL     OW22585   0.130   2.102  12.606  0.0869  0.2954 -0.3979
 3709SOL    HW122586   0.072   2.041  12.561  0.7273 -1.3777  1.0879
 3709SOL    HW222587   0.200   2.118  12.542  0.1036  2.3192  0.1215
 3710SOL     OW22588   3.107   0.801   0.163  0.0012 -0.1006  0.2696
 3710SOL    HW122589   3.162   0.861   0.214 -1.3951  0.2388  1.3683
 3710SOL    HW222590   3.170   0.732   0.141  0.6561  0.1070  1.4871
 3711SOL     OW22591   4.180   0.228   8.650  0.8816 -0.2973  0.2120
 3711SOL    HW122592   4.223   0.169   8.588  2.0210  0.6335  0.1236
 3711SOL    HW222593   4.227   0.207   8.730  0.4285 -2.2274 -0.0227
 3712SOL     OW22594   0.775   3.813   2.368  0.3447 -0.1401  0.1339
 3712SOL    HW122595   0.721   3.736   2.352  0.4922  0.2490 -2.2398
 3712SOL    HW222596   0.826   3.813   2.287 -2.7585  1.5449 -1.7907
 3713SOL     OW22597   1.329   0.319   6.781 -0.6448 -0.2268  0.9016
 3713SOL    HW122598   1.417   0.288   6.761 -1.0883 -1.6850  1.2098
 3713SOL    HW222599   1.335   0.403   6.736  2.6152 -0.5373  0.7611
 3714SOL     OW22600   3.645   2.277   8.526  0.6643  0.0113 -0.0342
 3714SOL    HW122601   3.612   2.219   8.595  0.6915  0.1485  0.0963
 3714SOL    HW222602   3.739   2.263   8.536  0.4000 -1.3637  0.4945
 3715SOL     OW22603   4.146   0.732   3.103 -0.2045 -0.1699 -0.4105
 3715SOL    HW122604   4.134   0.729   3.198  0.1707 -0.5002 -0.3735
 3715SOL    HW222605   4.241   0.738   3.097 -0.0275 -0.1116  2.8265
 3716SOL     OW22606   2.157   1.203   5.928 -0.8461  0.0932  0.7351
 3716SOL    HW122607   2.204   1.141   5.873 -0.9441 -0.7532  1.6057
 3716SOL    HW222608   2.069   1.170   5.910 -0.5571 -1.5853  2.4288
 3717SOL     OW22609   2.092   3.580   3.910 -0.0474  0.2019  0.1115
 3717SOL    HW122610   2.141   3.657   3.880 -0.4634  1.3685  2.3835
 3717SOL    HW222611   2.096   3.605   4.003 -0.0613 -2.5005  0.8282
 3718SOL     OW22612   0.491   1.148  15.180  0.9574  0.0959  0.3560
 3718SOL    HW122613   0.409   1.134  15.133  1.2168  2.2694 -0.7522
 3718SOL    HW222614   0.478   1.233  15.222  2.6070  0.8453 -0.6611
 3719SOL     OW22615   4.422   3.299   5.905 -0.1730 -0.1026  0.5354
 3719SOL    HW122616   4.483   3.319   5.976 -0.5146 -1.7180  1.2878
 3719SOL    HW222617   4.427   3.204   5.909 -0.1103 -0.0318  2.0606
 3720SOL     OW22618   1.281   2.062   9.002  0.1011 -0.2570 -0.1797
 3720SOL    HW122619   1.356   2.118   9.020  2.4475 -2.0100 -4.3792
 3720SOL    HW222620   1.299   2.038   8.911  0.2162 -0.4322 -0.1107
 3721SOL     OW22621   1.990   1.755   5.427  0.2664 -0.0038 -0.0349
 3721SOL    HW122622   1.979   1.821   5.495  0.4256  1.1983 -1.1645
 3721SOL    HW222623   1.950   1.802   5.353 -0.0232 -0.8872 -0.4441
 3722SOL     OW22624   3.404   3.235   0.210  0.6387  0.0444 -0.0302
 3722SOL    HW122625   3.441   3.188   0.135  1.1094  2.4002 -1.2562
 3722SOL    HW222626   3.456   3.202   0.283  0.6763  0.2402  0.0314
 3723SOL     OW22627   0.865   0.229   2.442  0.1336 -0.0464  0.4765
 3723SOL    HW122628   0.878   0.318   2.408 -2.3122  0.2794  0.4116
 3723SOL    HW222629   0.955   0.197   2.431  0.3208  1.2469 -1.8153
 3724SOL     OW22630   4.371   0.685   2.138 -0.7789 -0.0117 -0.8268
 3724SOL    HW122631   4.460   0.713   2.118 -0.9602 -0.1042 -1.7495
 3724SOL    HW222632   4.380   0.595   2.168  1.7811  0.3759 -0.4108
 3725SOL     OW22633   3.000   1.862   9.999  0.2648  0.1594 -0.1260
 3725SOL    HW122634   3.049   1.813  10.065 -1.0741 -2.3444 -0.9821
 3725SOL    HW222635   3.068   1.922   9.970  0.4222 -0.4430 -1.0020
 3726SOL     OW22636   3.700   0.014  13.013  0.3070  0.0191 -0.0879
 3726SOL    HW122637   3.671   4.658  13.058 -0.2044 -0.7358 -1.7524
 3726SOL    HW222638   3.715   4.705  12.924  0.0653 -0.0436 -0.1055
 3727SOL     OW22639   3.934   4.408  10.827  0.6213  0.6103 -0.2494
 3727SOL    HW122640   3.921   4.434  10.918  0.1635  1.5880 -0.5999
 3727SOL    HW222641   3.903   4.318  10.834  2.1149  0.2706  2.0267
 3728SOL     OW22642   4.479   3.530  10.019  0.6078  0.1084  0.1703
 3728SOL    HW122643   4.560   3.478  10.021  0.2912 -0.4087 -0.4136
 3728SOL    HW222644   4.507   3.621  10.028 -1.7273  0.8390  0.0777
 3729SOL     OW22645   1.504   0.779   8.932 -0.0193 -0.4395  0.3618
 3729SOL    HW122646   1.480   0.869   8.955 -0.6671 -0.6273  0.4139
 3729SOL    HW222647   1.581   0.769   8.989  0.7753  0.6566 -0.5169
 3730SOL     OW22648   0.613   3.872   8.136  0.0596 -0.1864  0.7145
 3730SOL    HW122649   0.689   3.814   8.135  0.6055  0.5347  0.5695
 3730SOL    HW222650   0.656   3.956   8.117 -1.0129  0.3905  0.8708
 3731SOL     OW22651   4.054   0.207   5.881 -0.0292 -0.0888 -0.8430
 3731SOL    HW122652   4.117   0.145   5.919 -1.8224 -0.1794  1.9565
 3731SOL    HW222653   3.984   0.200   5.945  0.7328  2.2302  0.2514
 3732SOL     OW22654   0.601   4.131  13.635 -0.6753 -0.3058  0.7289
 3732SOL    HW122655   0.554   4.141  13.553  1.5523  2.0279 -0.2654
 3732SOL    HW222656   0.656   4.058  13.609  0.8625  0.2381  2.3773
 3733SOL     OW22657   0.060   1.279   2.112 -0.2314 -0.4382  0.0210
 3733SOL    HW122658   0.049   1.203   2.168  1.0460  0.5436  1.6075
 3733SOL    HW222659   0.154   1.286   2.098 -0.0562 -1.5952  0.6740
 3734SOL     OW22660   0.592   1.475  16.470 -0.2553  0.0336 -0.1926
 3734SOL    HW122661   0.682   1.496  16.445 -0.5676  3.7582  1.7820
 3734SOL    HW222662   0.540   1.474  16.390 -3.4445  0.3595  1.8634
 3735SOL     OW22663   1.189   2.500  16.923  0.9011 -0.1057 -0.5450
 3735SOL    HW122664   1.118   2.558  16.896  0.1173 -0.7232  0.1746
 3735SOL    HW222665   1.260   2.539  16.873 -0.2689  1.0744 -1.2572
 3736SOL     OW22666   2.844   4.163   6.517 -0.4823 -0.1899  0.4463
 3736SOL    HW122667   2.759   4.170   6.559 -1.1287 -0.7681 -0.7468
 3736SOL    HW222668   2.877   4.084   6.561  2.2982  1.2223  0.8910
 3737SOL     OW22669   1.299   0.727  12.901  0.6343 -0.2773  0.5923
 3737SOL    HW122670   1.223   0.767  12.858  1.2325 -0.2341 -0.4353
 3737SOL    HW222671   1.344   0.807  12.931 -0.1684 -0.6609  2.8360
 3738SOL     OW22672   3.274   2.152   7.748 -0.9700  0.5048 -0.0612
 3738SOL    HW122673   3.196   2.203   7.728 -1.2409 -0.0899 -0.5310
 3738SOL    HW222674   3.311   2.122   7.665  3.5086  1.3896  1.5983
 3739SOL     OW22675   1.863   0.229   6.706  0.3217 -0.7826 -0.8153
 3739SOL    HW122676   1.907   0.243   6.623  1.2730  0.0086 -0.1728
 3739SOL    HW222677   1.843   0.321   6.724  0.4432 -0.8271 -0.4480
 3740SOL     OW22678   4.428   3.443  16.578 -0.2810 -0.2110 -0.2311
 3740SOL    HW122679   4.359   3.394  16.622 -0.6917 -0.2637 -0.9401
 3740SOL    HW222680   4.478   3.369  16.542  2.1311  0.9659  0.7154
 3741SOL     OW22681   1.655   3.497   6.036 -0.3712 -0.0003  0.2155
 3741SOL    HW122682   1.614   3.411   6.035 -0.5674  0.1098 -1.7383
 3741SOL    HW222683   1.621   3.537   6.116  1.3199  0.9809  0.4488
 3742SOL     OW22684   4.323   2.487   8.803  0.0899 -0.0810 -0.3208
 3742SOL    HW122685   4.334   2.438   8.722  1.8677 -1.0632  0.5267
 3742SOL    HW222686   4.358   2.422   8.865 -0.9956 -0.6129 -0.2586
 3743SOL     OW22687   1.795   2.539   3.612 -0.4775  0.1483 -0.2023
 3743SOL    HW122688   1.831   2.485   3.682 -0.7907 -1.1096 -1.0100
 3743SOL    HW222689   1.861   2.606   3.597 -0.5592  0.7923  2.2478
 3744SOL     OW22690   1.236   1.385  12.633  0.1748  0.0128 -0.1077
 3744SOL    HW122691   1.248   1.409  12.541  1.5300 -1.5195 -0.3329
 3744SOL    HW222692   1.141   1.373  12.644  0.1831 -0.2598 -0.3442
 3745SOL     OW22693   3.612   2.419   9.233 -0.5295  0.0523  0.4940
 3745SOL    HW122694   3.633   2.492   9.176 -1.6681 -1.5892 -2.0323
 3745SOL    HW222695   3.528   2.445   9.272 -1.1608 -1.5779  0.2532
 3746SOL     OW22696   4.393   4.451  16.681  0.2374  0.3158  0.1918
 3746SOL    HW122697   4.389   4.357  16.698 -2.9883  0.4534  0.2675
 3746SOL    HW222698   4.326   4.439  16.614  2.2602  0.0188 -1.7643
 3747SOL     OW22699   0.911   3.799  11.717 -0.4233  0.6724  0.1216
 3747SOL    HW122700   0.904   3.852  11.638  1.0726  1.7746  0.7304
 3747SOL    HW222701   0.841   3.737  11.699 -0.3285  1.1687 -1.9176
 3748SOL     OW22702   0.353   2.247   5.094 -0.0446  0.0990 -0.7384
 3748SOL    HW122703   0.258   2.250   5.086 -0.0664 -0.4066 -0.6448
 3748SOL    HW222704   0.380   2.235   5.003 -0.0760 -1.5249 -0.5249
 3749SOL     OW22705   2.404   2.352  12.183 -0.3584  0.2474  0.5979
 3749SOL    HW122706   2.488   2.364  12.139 -1.3398  1.5336 -0.9082
 3749SOL    HW222707   2.425   2.265  12.217  0.8438  0.7351  1.1078
 3750SOL     OW22708   1.220   1.314   9.597 -0.5368  0.3850 -0.3280
 3750SOL    HW122709   1.219   1.336   9.691 -0.1651  1.2874 -0.5314
 3750SOL    HW222710   1.314   1.327   9.586 -0.1956 -2.6238 -0.8594
 3751SOL     OW22711   3.094   0.952  15.058  0.4324  0.6133 -0.0679
 3751SOL    HW122712   3.116   0.899  14.981 -0.9818 -0.1331  0.0394
 3751SOL    HW222713   3.181   0.966  15.096  0.1390 -0.0560  0.8505
 3752SOL     OW22714   3.373   3.278   6.368 -0.1622  0.1169  0.1385
 3752SOL    HW122715   3.343   3.189   6.351 -0.8704  0.0428  1.7689
 3752SOL    HW222716   3.441   3.261   6.433 -0.3848 -0.7359  0.1479
 3753SOL     OW22717   1.759   3.631   5.814  0.1466 -0.2882 -0.0168
 3753SOL    HW122718   1.772   3.706   5.873  1.6027 -1.9673  1.7722
 3753SOL    HW222719   1.713   3.568   5.870 -2.4938  2.0669  0.4647
 3754SOL     OW22720   2.913   3.905  12.524  0.3450 -0.4136 -0.2123
 3754SOL    HW122721   3.009   3.908  12.530  0.3012  1.8352 -0.4754
 3754SOL    HW222722   2.884   3.996  12.519  0.7458 -0.3311 -1.0649
 3755SOL     OW22723   0.931   0.283   4.656  0.1136  0.1177  0.7316
 3755SOL    HW122724   0.858   0.273   4.594  1.4395  2.1779 -1.1491
 3755SOL    HW222725   0.994   0.222   4.616  0.3355  0.2097  0.9437
 3756SOL     OW22726   3.123   4.347  16.152 -0.2172 -0.3431 -0.0091
 3756SOL    HW122727   3.131   4.435  16.190  1.2872 -0.0712 -0.9463
 3756SOL    HW222728   3.066   4.308  16.218  0.6123 -0.1835  0.7954
 3757SOL     OW22729   0.696   2.094   4.051 -0.4951 -0.3447 -0.1236
 3757SOL    HW122730   0.625   2.032   4.067 -0.4435 -0.9409 -2.2793
 3757SOL    HW222731   0.651   2.151   3.989 -0.1803 -1.6348 -1.5407
 3758SOL     OW22732   0.715   1.802   0.910  0.3107  0.4271  0.0204
 3758SOL    HW122733   0.655   1.838   0.975  0.0095 -0.3529  0.1766
 3758SOL    HW222734   0.783   1.783   0.974  0.1019 -1.6584 -0.3680
 3759SOL     OW22735   2.438   2.726   7.957  0.0595 -0.0492  0.5993
 3759SOL    HW122736   2.531   2.713   7.976  0.5317 -0.4618 -1.9044
 3759SOL    HW222737   2.415   2.803   8.009  0.5853  0.6619 -0.2107
 3760SOL     OW22738   3.319   4.633   9.289 -0.0763 -0.4131 -0.4263
 3760SOL    HW122739   3.302   4.569   9.220 -0.5355  0.5791 -1.2467
 3760SOL    HW222740   3.414   4.632   9.303 -0.0629  0.0975 -0.4540
 3761SOL     OW22741   4.633   0.269   4.282 -0.1097  0.3397 -0.7933
 3761SOL    HW122742   4.718   0.294   4.320 -0.4048  0.4176 -0.1809
 3761SOL    HW222743   4.641   0.226   4.197 -0.4940 -0.0352 -0.6344
 3762SOL     OW22744   3.223   0.492   1.360  0.5088 -0.0212 -0.1154
 3762SOL    HW122745   3.150   0.484   1.298  1.2004 -1.4458 -0.7581
 3762SOL    HW222746   3.181   0.542   1.430  0.3991  0.6817 -0.6850
 3763SOL     OW22747   4.163   0.814   8.672  0.1320  0.6092  0.2719
 3763SOL    HW122748   4.117   0.881   8.723  0.9100 -0.1926  2.0375
 3763SOL    HW222749   4.145   0.850   8.585 -0.3245  0.3335  0.2530
 3764SOL     OW22750   1.760   4.226   3.676 -0.1200 -0.3604 -0.1287
 3764SOL    HW122751   1.681   4.172   3.684 -0.0980 -0.3569  0.1402
 3764SOL    HW222752   1.765   4.237   3.581  1.7953 -0.4578 -0.0381
 3765SOL     OW22753   1.631   2.932  17.677  0.0609  0.6013 -0.2562
 3765SOL    HW122754   1.653   2.842   0.006  0.8604  1.0199  0.5531
 3765SOL    HW222755   1.659   2.984   0.056  0.4043  1.4861 -0.9918
 3766SOL     OW22756   2.704   2.615  13.919 -0.9525 -0.7659 -0.0515
 3766SOL    HW122757   2.729   2.608  14.011 -0.5926 -1.8516 -0.2333
 3766SOL    HW222758   2.639   2.546  13.914  0.2969 -1.7844 -1.9932
 3767SOL     OW22759   4.162   1.783   6.907 -1.2260  0.4561  0.4550
 3767SOL    HW122760   4.231   1.771   6.841 -1.6962  2.9557 -0.4685
 3767SOL    HW222761   4.120   1.697   6.918  1.0692 -0.6641  0.3951
 3768SOL     OW22762   2.044   1.982   9.598 -0.3724 -0.7054  0.0940
 3768SOL    HW122763   2.137   1.975   9.574 -0.4939 -0.5888 -0.4110
 3768SOL    HW222764   2.011   2.031   9.522 -0.1717 -0.2156  0.3217
 3769SOL     OW22765   4.565   4.645   4.673 -0.0732  0.8878 -0.0487
 3769SOL    HW122766   4.550   4.669   4.581  0.9308 -1.7260 -0.8995
 3769SOL    HW222767   4.561   0.009   4.710 -0.0479  0.5825  0.6620
 3770SOL     OW22768   2.335   2.231   0.643  0.4224  0.0305 -0.0760
 3770SOL    HW122769   2.321   2.184   0.561  1.6186  1.3175 -1.0306
 3770SOL    HW222770   2.251   2.208   0.681  1.4787 -2.4637  0.7535
 3771SOL     OW22771   1.376   3.837   7.634  0.1053 -0.4512 -0.6524
 3771SOL    HW122772   1.298   3.892   7.648 -1.3103 -2.6909  0.2287
 3771SOL    HW222773   1.420   3.834   7.719 -0.6404 -0.1181 -0.2423
 3772SOL     OW22774   0.496   2.309   3.023  0.3686 -0.3354  0.4271
 3772SOL    HW122775   0.408   2.299   2.987 -0.6637  0.3261  2.7742
 3772SOL    HW222776   0.539   2.358   2.953  0.7028 -0.5955  0.4521
 3773SOL     OW22777   4.053   1.811   4.399 -0.2455 -0.4717  0.4595
 3773SOL    HW122778   4.135   1.762   4.409  0.4294  0.3868 -0.9040
 3773SOL    HW222779   4.061   1.888   4.455  0.9812 -0.1814 -0.1180
 3774SOL     OW22780   1.634   2.468   9.045 -0.3379 -0.4361 -0.7046
 3774SOL    HW122781   1.618   2.558   9.018  0.4454  0.3829  1.5727
 3774SOL    HW222782   1.545   2.437   9.025 -0.2407 -1.2957  0.1843
 3775SOL     OW22783   0.824   0.441   4.258 -0.0303 -0.2586  0.1112
 3775SOL    HW122784   0.816   0.506   4.188  0.0249 -0.1389  0.2175
 3775SOL    HW222785   0.740   0.455   4.302  0.1763 -0.6626  0.6289
 3776SOL     OW22786   0.237   0.218  16.919  0.3302 -0.1427  0.0391
 3776SOL    HW122787   0.216   0.221  17.012 -1.9888 -0.6460 -0.4523
 3776SOL    HW222788   0.249   0.124  16.910 -0.9716 -0.2738 -0.3552
 3777SOL     OW22789   1.509   1.310   9.887 -0.3402  0.3452  0.0437
 3777SOL    HW122790   1.511   1.392   9.837  0.0784 -1.2609 -2.5901
 3777SOL    HW222791   1.481   1.339   9.974 -0.9414 -0.8767  0.2603
 3778SOL     OW22792   1.506   4.710  16.478  0.4017  0.0982  0.0743
 3778SOL    HW122793   1.569   4.639  16.484 -0.9641 -1.2891 -2.1856
 3778SOL    HW222794   1.548   0.052  16.534 -0.2109 -0.3566  1.0613
 3779SOL     OW22795   4.068   0.475  14.903 -0.2044  0.3313 -0.3190
 3779SOL    HW122796   4.141   0.413  14.903 -1.1731 -0.8232  0.2802
 3779SOL    HW222797   4.106   0.546  14.954 -0.3482 -0.5942  1.0885
 3780SOL     OW22798   3.583   2.246   1.432 -0.0816 -0.5115  0.5017
 3780SOL    HW122799   3.518   2.268   1.499  0.0645  1.8095 -0.1133
 3780SOL    HW222800   3.548   2.166   1.393 -0.4586 -0.6002  1.0215
 3781SOL     OW22801   1.011   3.043   9.508  0.1426  0.1587 -0.5747
 3781SOL    HW122802   0.967   2.993   9.577  1.2374  1.5363  1.1190
 3781SOL    HW222803   1.103   3.027   9.528 -0.5363 -1.2612  1.3200
 3782SOL     OW22804   0.116   2.266   9.321 -0.0200 -0.3513 -0.5647
 3782SOL    HW122805   0.146   2.349   9.357 -1.0959 -1.9439  4.0191
 3782SOL    HW222806   0.187   2.231   9.267 -0.2057 -1.6105 -0.0128
 3783SOL     OW22807   4.350   1.684   1.243 -0.9188  0.0989  0.1206
 3783SOL    HW122808   4.297   1.720   1.171 -1.6032 -0.1580  0.5037
 3783SOL    HW222809   4.400   1.610   1.209 -0.4229  0.2483  0.5280
 3784SOL     OW22810   0.133   3.040   4.501  0.2155 -0.1524 -1.0701
 3784SOL    HW122811   0.145   2.946   4.499  0.4391 -0.1203 -1.2394
 3784SOL    HW222812   0.049   3.042   4.455  0.9174  0.0701 -2.3320
 3785SOL     OW22813   1.901   3.585   5.507 -0.1598 -0.1327  0.1289
 3785SOL    HW122814   1.935   3.656   5.452  1.6235 -0.1071  1.2347
 3785SOL    HW222815   1.979   3.573   5.562 -0.7345 -0.7091  0.8292
 3786SOL     OW22816   0.019   2.932   3.332 -0.5216  0.0684 -1.0187
 3786SOL    HW122817   0.035   2.861   3.394 -3.5885 -0.6116 -1.0012
 3786SOL    HW222818   0.093   2.988   3.353 -0.2972 -0.3942 -0.5633
 3787SOL     OW22819   3.494   0.101   0.788 -0.2586 -0.5439  0.2542
 3787SOL    HW122820   3.578   0.127   0.827 -0.2288 -1.1493  0.5837
 3787SOL    HW222821   3.491   0.138   0.700 -1.2000  3.6296  2.0314
 3788SOL     OW22822   2.531   1.097   5.158 -0.7423  0.1155  0.5349
 3788SOL    HW122823   2.578   1.162   5.211  2.8903  0.2721 -2.9117
 3788SOL    HW222824   2.571   1.017   5.192  1.4795  0.8890 -0.2292
 3789SOL     OW22825   1.348   2.898   1.823 -0.0374 -0.1762  0.1765
 3789SOL    HW122826   1.323   2.820   1.774  0.2201 -0.7787  0.9933
 3789SOL    HW222827   1.429   2.922   1.779 -1.5134  3.0325 -0.7581
 3790SOL     OW22828   3.712   1.934  11.343  0.0582  0.2640  0.0703
 3790SOL    HW122829   3.668   1.889  11.416 -2.3733  1.5407 -0.5926
 3790SOL    HW222830   3.660   2.014  11.347  1.0890  0.8595  1.3221
 3791SOL     OW22831   0.511   3.516  17.202  0.6426  1.0089 -0.3614
 3791SOL    HW122832   0.512   3.440  17.260  1.1229 -0.4686 -2.2647
 3791SOL    HW222833   0.530   3.472  17.119 -0.6506  0.9064 -0.6149
 3792SOL     OW22834   0.291   3.004   4.986 -0.1081 -0.0990 -0.1143
 3792SOL    HW122835   0.377   3.001   4.944  0.8830 -1.7797  2.0277
 3792SOL    HW222836   0.313   2.933   5.046 -0.4767  0.6097  0.8708
 3793SOL     OW22837   3.320   3.136   8.251  0.2776  0.4550 -0.1603
 3793SOL    HW122838   3.231   3.172   8.256  0.7402  1.4380  0.9392
 3793SOL    HW222839   3.330   3.116   8.344 -0.7308  1.0700  0.0888
 3794SOL     OW22840   3.829   2.892   6.896 -0.4557 -0.5769 -0.4445
 3794SOL    HW122841   3.794   2.892   6.986 -1.2189 -0.4332 -0.7381
 3794SOL    HW222842   3.746   2.864   6.858 -0.8908 -0.9154  0.7318
 3795SOL     OW22843   1.465   4.511  14.885  0.2871  0.2771 -0.6103
 3795SOL    HW122844   1.369   4.503  14.878  0.1011 -0.6694  2.8713
 3795SOL    HW222845   1.501   4.429  14.852  0.3181  0.3519 -0.7629
 3796SOL     OW22846   2.930   4.365   1.441 -0.3155 -0.0387 -0.5891
 3796SOL    HW122847   2.947   4.430   1.509  1.0912  1.0685 -2.0021
 3796SOL    HW222848   2.912   4.282   1.486  2.7373 -0.5236 -0.2639
 3797SOL     OW22849   4.159   0.138   6.670 -0.6789 -0.0022  0.5134
 3797SOL    HW122850   4.188   0.049   6.652  1.5960  0.8388 -0.0684
 3797SOL    HW222851   4.067   0.121   6.688 -0.5702 -1.3160 -0.1933
 3798SOL     OW22852   0.138   2.309   8.418 -0.2389 -0.0787 -0.3423
 3798SOL    HW122853   0.143   2.321   8.512 -0.7369  1.0501 -0.4668
 3798SOL    HW222854   0.048   2.338   8.402  0.1844  0.7319 -1.2147
 3799SOL     OW22855   2.340   4.251   3.272  0.1930 -0.0593 -0.3370
 3799SOL    HW122856   2.303   4.339   3.263 -0.6998 -0.2683  1.3285
 3799SOL    HW222857   2.380   4.245   3.185 -0.6524 -1.6600 -0.6177
 3800SOL     OW22858   4.148   1.941   5.095  0.0328  0.4279 -0.0160
 3800SOL    HW122859   4.240   1.960   5.114 -0.5292  3.2074 -0.0923
 3800SOL    HW222860   4.127   1.884   5.169  0.1174  1.7178  1.0056
 3801SOL     OW22861   1.770   1.485   5.697  0.1240 -0.1858 -0.1533
 3801SOL    HW122862   1.720   1.547   5.645 -1.0947 -0.8273  0.2346
 3801SOL    HW222863   1.853   1.530   5.685 -0.3552  0.8446  0.3948
 3802SOL     OW22864   2.666   1.033   6.666  0.6641  0.3825  0.3497
 3802SOL    HW122865   2.675   1.122   6.632 -0.9169  1.6402  3.1877
 3802SOL    HW222866   2.678   1.052   6.759 -0.2160  1.6580  0.2116
 3803SOL     OW22867   1.399   0.108  16.260 -0.2526  0.5648 -0.2162
 3803SOL    HW122868   1.454   0.044  16.216 -1.5645 -0.0706 -0.9166
 3803SOL    HW222869   1.441   0.094  16.345 -0.7525  0.6080  0.0351
 3804SOL     OW22870   2.895   1.177   7.366 -0.1669 -0.0738 -0.0280
 3804SOL    HW122871   2.952   1.194   7.441 -0.7264  0.5278  0.2585
 3804SOL    HW222872   2.807   1.192   7.402 -1.5991  2.2287 -4.5571
 3805SOL     OW22873   0.611   2.319   7.728  0.1504  0.2187  0.0311
 3805SOL    HW122874   0.590   2.338   7.819  1.4615 -0.6639  0.5207
 3805SOL    HW222875   0.581   2.228   7.729  1.8939 -0.3443  2.1276
 3806SOL     OW22876   2.258   4.488   3.986 -0.2488 -0.1244  0.2247
 3806SOL    HW122877   2.201   4.412   3.982 -2.0680  1.2980 -1.1246
 3806SOL    HW222878   2.196   4.560   3.997 -3.2990 -2.7815  0.1500
 3807SOL     OW22879   1.179   3.245  16.885  0.5501 -0.0588  0.2522
 3807SOL    HW122880   1.196   3.308  16.815 -1.8118 -0.4738 -0.6839
 3807SOL    HW222881   1.092   3.222  16.852  1.0112 -1.0320 -0.2762
 3808SOL     OW22882   4.652   2.083   6.093 -0.2173 -0.1273 -0.4265
 3808SOL    HW122883   4.697   2.001   6.071  0.5954 -0.1632  1.3555
 3808SOL    HW222884   4.601   2.063   6.171 -1.7206  0.3399 -1.2859
 3809SOL     OW22885   2.741   1.900   6.475 -0.3297 -0.4130 -0.1017
 3809SOL    HW122886   2.650   1.901   6.444 -0.1215 -0.6457 -0.7304
 3809SOL    HW222887   2.731   1.893   6.569 -0.8782 -1.8847 -0.2713
 3810SOL     OW22888   3.199   2.844   4.748  0.4855 -0.4133 -0.4568
 3810SOL    HW122889   3.185   2.936   4.770  0.6124  0.1769 -2.8689
 3810SOL    HW222890   3.289   2.835   4.779  0.9310  0.7469 -1.4223
 3811SOL     OW22891   0.159   0.545  10.797  0.2813 -0.6667  0.2527
 3811SOL    HW122892   0.203   0.624  10.766 -0.1214 -0.9005 -0.9110
 3811SOL    HW222893   0.103   0.525  10.722  0.8810 -0.1246 -0.3395
 3812SOL     OW22894   3.766   4.587   1.699  0.0936  0.1905 -1.0327
 3812SOL    HW122895   3.766   4.607   1.605  0.0215 -1.3600 -1.3655
 3812SOL    HW222896   3.729   4.499   1.697 -2.4897  1.2656 -0.5384
 3813SOL     OW22897   4.505   2.109   4.582  0.1054 -0.0280  0.0130
 3813SOL    HW122898   4.485   2.096   4.489 -0.4261 -0.9687  0.2576
 3813SOL    HW222899   4.544   2.196   4.589  0.7379 -0.3510  0.5263
 3814SOL     OW22900   0.766   3.639   7.757  0.0593 -0.2261  0.0443
 3814SOL    HW122901   0.695   3.689   7.797  0.3740 -0.6406  1.1406
 3814SOL    HW222902   0.844   3.692   7.776  2.1380 -3.0386 -0.5633
 3815SOL     OW22903   3.402   1.106   9.174 -0.3411 -0.1480 -0.0740
 3815SOL    HW122904   3.430   1.124   9.264  2.5051 -2.7830 -0.4439
 3815SOL    HW222905   3.313   1.074   9.190 -0.7250  1.0144  0.1160
 3816SOL     OW22906   3.350   4.327   0.013  0.7178 -0.3586 -0.2538
 3816SOL    HW122907   3.360   4.423   0.015  2.8269 -0.5324 -2.2925
 3816SOL    HW222908   3.266   4.334  17.664  1.7655 -1.4501 -2.3361
 3817SOL     OW22909   1.914   3.642   0.479 -0.2273 -0.0562 -0.3414
 3817SOL    HW122910   1.876   3.730   0.474 -0.2896 -0.0546  0.1907
 3817SOL    HW222911   1.837   3.585   0.476 -0.6727  0.5123  0.6004
 3818SOL     OW22912   1.603   0.874   6.715 -0.0776 -0.0566 -0.8171
 3818SOL    HW122913   1.676   0.911   6.665 -0.0269  0.9845  0.0307
 3818SOL    HW222914   1.577   0.948   6.770  3.4823  0.4166  0.2424
 3819SOL     OW22915   2.329   3.835   9.762  0.0739 -0.0655  0.4736
 3819SOL    HW122916   2.243   3.820   9.722  0.6658  1.3686 -1.3492
 3819SOL    HW222917   2.365   3.901   9.702  1.3294  1.3052  2.7365
 3820SOL     OW22918   1.334   2.554   4.784  0.4049  0.1637  0.1953
 3820SOL    HW122919   1.356   2.601   4.864 -0.3959  0.7771  0.0456
 3820SOL    HW222920   1.383   2.477   4.814 -0.2913 -1.1449 -1.9821
 3821SOL     OW22921   0.303   4.681   8.464  0.5816  0.5479 -0.3613
 3821SOL    HW122922   0.273   4.596   8.430  1.5026  0.3603 -0.7007
 3821SOL    HW222923   0.218   0.003   8.466  1.1424  1.5107  1.3283
 3822SOL     OW22924   1.711   2.911  14.301 -0.4203 -0.3291  1.0651
 3822SOL    HW122925   1.641   2.942  14.244  1.4992  0.5149 -0.8290
 3822SOL    HW222926   1.671   2.836  14.345 -0.2943  0.8098  3.1148
 3823SOL     OW22927   1.835   3.115   2.483 -0.5655  0.2378 -0.0991
 3823SOL    HW122928   1.861   3.036   2.531  1.8559  0.8465 -0.4113
 3823SOL    HW222929   1.855   3.178   2.552  0.8678 -0.4145  0.1044
 3824SOL     OW22930   1.542   2.717   7.717 -0.3707 -0.4455 -0.3462
 3824SOL    HW122931   1.621   2.716   7.772  0.1974 -1.9198 -1.1953
 3824SOL    HW222932   1.571   2.779   7.651 -0.8683 -1.8480 -1.8713
 3825SOL     OW22933   4.260   3.203   4.943  0.3632  0.2451 -0.5759
 3825SOL    HW122934   4.267   3.274   4.881 -3.5615  2.2163  1.2164
 3825SOL    HW222935   4.214   3.242   5.018 -0.2236 -0.2643 -0.6663
 3826SOL     OW22936   2.004   0.643   8.148  0.4697 -0.1701 -0.1907
 3826SOL    HW122937   1.978   0.718   8.095  0.8352 -1.3013 -1.9667
 3826SOL    HW222938   2.002   0.681   8.236 -3.1266  0.1612 -0.4199
 3827SOL     OW22939   1.196   1.360  14.121  0.2513 -0.2708  0.2993
 3827SOL    HW122940   1.174   1.269  14.140  0.1475 -0.3568 -0.2332
 3827SOL    HW222941   1.128   1.385  14.058  0.7051 -0.7491 -0.3751
 3828SOL     OW22942   1.645   3.154  16.249 -0.0859  0.1615 -0.4557
 3828SOL    HW122943   1.731   3.175  16.213  1.4296 -1.3338  2.2878
 3828SOL    HW222944   1.639   3.060  16.264  0.7215  0.0944 -0.5649
 3829SOL     OW22945   1.001   2.471   0.796 -0.2784 -0.1053 -0.4335
 3829SOL    HW122946   0.994   2.541   0.861 -2.0418  0.3594 -1.1216
 3829SOL    HW222947   0.997   2.393   0.851 -2.0912 -0.5651 -1.2164
 3830SOL     OW22948   1.333   2.609  13.837 -0.3776  0.6179  0.4119
 3830SOL    HW122949   1.297   2.697  13.847 -0.2234  0.4426  2.6800
 3830SOL    HW222950   1.379   2.612  13.921 -1.6306 -0.3798  1.1341
 3831SOL     OW22951   2.914   0.901   5.048  0.8178 -0.0178 -0.4131
 3831SOL    HW122952   2.992   0.947   5.079  0.3743  0.3227  0.2125
 3831SOL    HW222953   2.940   0.810   5.032  1.8650 -0.0656  1.4746
 3832SOL     OW22954   1.308   1.813   9.067 -0.3449  0.0415 -0.3544
 3832SOL    HW122955   1.260   1.799   9.149 -0.1799  0.3886 -0.1991
 3832SOL    HW222956   1.323   1.907   9.076 -0.9385  0.0728  0.3673
 3833SOL     OW22957   2.147   1.359   4.015 -0.0407  0.4405  0.8635
 3833SOL    HW122958   2.241   1.343   4.022  0.4815  2.7340 -0.8951
 3833SOL    HW222959   2.145   1.297   3.942  1.3965 -0.1450  1.3196
 3834SOL     OW22960   1.446   2.452   1.564 -0.3237 -0.0234 -0.1801
 3834SOL    HW122961   1.496   2.372   1.548 -0.7353  0.0874 -2.0601
 3834SOL    HW222962   1.499   2.517   1.518  3.7227 -2.8837  0.4306
 3835SOL     OW22963   4.332   3.686  16.455  0.0893 -0.5636  0.0077
 3835SOL    HW122964   4.378   3.677  16.372 -1.3202  3.5106 -1.2300
 3835SOL    HW222965   4.362   3.608  16.501  0.0944 -0.1927  0.6319
 3836SOL     OW22966   3.318   1.480   2.290  0.1430  0.1221 -0.1591
 3836SOL    HW122967   3.356   1.545   2.230  2.3075 -1.4205 -0.4430
 3836SOL    HW222968   3.233   1.519   2.313  2.8210  3.8285  3.4254
 3837SOL     OW22969   4.381   0.008   1.391 -0.6477 -0.4916 -0.0129
 3837SOL    HW122970   4.316   0.073   1.417 -0.5051 -0.5080  0.3878
 3837SOL    HW222971   4.442   0.067   1.348 -1.9128  1.3413  0.7232
 3838SOL     OW22972   0.249   2.899  15.052 -0.8492 -0.2898 -0.0457
 3838SOL    HW122973   0.298   2.887  15.134 -1.6664 -0.5818  0.3909
 3838SOL    HW222974   0.316   2.942  14.999 -1.2859  2.2015  1.4495
 3839SOL     OW22975   0.345   1.522   8.248 -0.6275  0.2624  0.4071
 3839SOL    HW122976   0.305   1.454   8.303  1.5949 -0.2966  1.3344
 3839SOL    HW222977   0.401   1.564   8.313  0.3797  0.2769 -0.4639
 3840SOL     OW22978   1.531   4.160   2.207 -0.1984 -0.0159 -0.2974
 3840SOL    HW122979   1.520   4.167   2.302 -0.7454  1.1758 -0.4573
 3840SOL    HW222980   1.520   4.064   2.205 -4.2140  0.3930  1.0674
 3841SOL     OW22981   3.261   0.842   4.956  0.0460  0.1928 -0.4782
 3841SOL    HW122982   3.343   0.842   4.906 -0.3397 -1.4886 -1.0870
 3841SOL    HW222983   3.208   0.871   4.882  1.4248  0.6499 -1.2828
 3842SOL     OW22984   2.507   0.492   9.707 -0.2232 -0.2537 -0.0538
 3842SOL    HW122985   2.418   0.511   9.737  0.8207  0.3493  2.6678
 3842SOL    HW222986   2.510   0.398   9.720  0.2339 -0.2246  0.0446
 3843SOL     OW22987   3.708   2.329   6.597  0.4214 -0.3994  0.8622
 3843SOL    HW122988   3.774   2.353   6.531 -1.8283  2.4491 -0.3847
 3843SOL    HW222989   3.671   2.246   6.566  0.5411 -0.3417  0.5532
 3844SOL     OW22990   3.488   3.811  17.504  0.2266 -0.0114 -1.1763
 3844SOL    HW122991   3.419   3.788  17.566  1.4505 -2.1514 -0.6226
 3844SOL    HW222992   3.553   3.853  17.560 -1.9356 -0.3168  1.6019
 3845SOL     OW22993   1.800   2.737   0.023  0.0887  0.0474  0.3661
 3845SOL    HW122994   1.770   2.695  17.639  2.2981 -0.5382 -0.1375
 3845SOL    HW222995   1.781   2.666   0.084  0.5803  1.1703  1.8146
 3846SOL     OW22996   0.042   0.983  17.367  0.0414 -0.3125  0.2380
 3846SOL    HW122997   4.715   1.064  17.378  0.1310 -0.3868  1.2096
 3846SOL    HW222998   0.130   1.020  17.370 -1.3634  3.0427  1.0661
 3847SOL     OW22999   4.265   2.294   4.358 -0.0121  0.1778 -0.0365
 3847SOL    HW123000   4.340   2.319   4.412 -0.0941  1.7561 -0.6373
 3847SOL    HW223001   4.280   2.200   4.350  0.1539  0.0215  2.1272
 3848SOL     OW23002   3.914   2.384   3.064  0.3047  0.3353 -0.0659
 3848SOL    HW123003   3.885   2.335   2.987  0.7177  0.9370 -0.5957
 3848SOL    HW223004   4.008   2.378   3.052  0.1251  1.6305 -2.0531
 3849SOL     OW23005   1.887   3.717  13.505  0.6345 -0.4423 -0.0909
 3849SOL    HW123006   1.868   3.796  13.554  3.0266  0.6024 -0.8417
 3849SOL    HW223007   1.978   3.727  13.476  0.8748  1.1465  1.2592
 3850SOL     OW23008   4.698   3.407   8.810 -0.1638  0.0462  0.2924
 3850SOL    HW123009   4.604   3.424   8.810 -0.3035 -0.7317 -0.4553
 3850SOL    HW223010   0.010   3.475   8.752  0.5841 -0.5922 -0.0067
 3851SOL     OW23011   3.211   0.099   6.203  0.3651 -0.2209 -0.1957
 3851SOL    HW123012   3.284   0.065   6.152 -0.2597  0.9130 -1.8256
 3851SOL    HW223013   3.143   0.034   6.187  0.6297 -0.7387  0.7679
 3852SOL     OW23014   0.820   3.089  14.829  0.2247  0.3702  0.1374
 3852SOL    HW123015   0.773   3.172  14.839  0.2173  0.7112 -2.8289
 3852SOL    HW223016   0.802   3.058  14.741  3.6291 -0.1105 -0.3510
 3853SOL     OW23017   3.713   4.074   4.803 -0.1540  0.3673  0.0011
 3853SOL    HW123018   3.727   4.020   4.725 -3.6291 -0.2620 -0.1433
 3853SOL    HW223019   3.623   4.047   4.817  0.1778 -0.7325  0.0390
 3854SOL     OW23020   0.433   1.141   5.515  0.2359  0.4352 -0.2386
 3854SOL    HW123021   0.360   1.086   5.487 -1.0527  2.6067 -1.0888
 3854SOL    HW223022   0.507   1.090   5.480  1.5154  1.0225  1.6170
 3855SOL     OW23023   0.102   0.305  17.451 -0.6739  0.3340 -0.2994
 3855SOL    HW123024   0.019   0.352  17.454 -0.5024  0.4358  2.5049
 3855SOL    HW223025   0.161   0.378  17.469 -1.0880  1.7940 -4.8304
 3856SOL     OW23026   0.247   0.426   8.387 -0.1745 -0.4671  0.0059
 3856SOL    HW123027   0.301   0.377   8.448 -0.8544  0.0196  1.0025
 3856SOL    HW223028   0.179   0.361   8.372 -0.8223 -0.2600  1.9944
 3857SOL     OW23029   1.789   0.372   0.601  0.4742 -0.2846  0.3161
 3857SOL    HW123030   1.790   0.378   0.505  1.2679  1.1817  0.4106
 3857SOL    HW223031   1.697   0.372   0.627 -0.1587 -1.0042 -1.9640
 3858SOL     OW23032   2.315   2.000   9.496  0.1886 -0.2559 -0.0541
 3858SOL    HW123033   2.330   1.931   9.431  0.5118  1.6592 -2.0242
 3858SOL    HW223034   2.405   2.005   9.528 -0.2116 -0.1578  1.0452
 3859SOL     OW23035   0.719   3.938  12.813  0.9379  0.6991 -0.3426
 3859SOL    HW123036   0.813   3.954  12.817  0.9676  0.3494  0.4692
 3859SOL    HW223037   0.679   4.024  12.825 -2.2411 -1.1383  2.3096
 3860SOL     OW23038   4.030   1.124   4.784 -0.4472 -0.4976 -0.2588
 3860SOL    HW123039   4.102   1.103   4.843  0.7328 -0.5792 -1.7269
 3860SOL    HW223040   4.018   1.216   4.809 -0.3660 -0.5140 -0.1589
 3861SOL     OW23041   3.004   4.498   5.119  0.4004 -0.1338  0.7426
 3861SOL    HW123042   3.053   4.418   5.136  0.0231 -0.4502  0.3331
 3861SOL    HW223043   2.974   4.518   5.208 -2.4856  0.6721 -0.3933
 3862SOL     OW23044   4.032   4.652   1.792  0.9432  0.0084  0.2419
 3862SOL    HW123045   3.942   4.622   1.777  0.0310  2.4417  0.9072
 3862SOL    HW223046   4.084   4.600   1.730  1.2966  2.5347 -1.5614
 3863SOL     OW23047   2.107   2.394   2.986  0.0150 -0.5551  0.1163
 3863SOL    HW123048   2.076   2.484   2.976 -1.7868 -1.1287  0.5304
 3863SOL    HW223049   2.200   2.398   2.963  0.3641  0.6911  1.6810
 3864SOL     OW23050   1.994   1.452   6.402  0.2304  0.3556  0.4521
 3864SOL    HW123051   2.020   1.373   6.355 -0.8013  1.5486 -2.1051
 3864SOL    HW223052   2.028   1.530   6.359  2.4579  0.2408  2.0208
 3865SOL     OW23053   2.212   2.792   4.843  0.0142  0.4136 -0.0424
 3865SOL    HW123054   2.301   2.808   4.811 -0.6183  2.9758 -0.5423
 3865SOL    HW223055   2.181   2.875   4.807 -1.0455  0.0985  0.1317
 3866SOL     OW23056   2.801   4.054   4.170  0.6102 -0.6247 -0.4057
 3866SOL    HW123057   2.730   4.103   4.210 -0.4319 -2.3927 -0.0860
 3866SOL    HW223058   2.832   4.004   4.245 -0.2568 -2.0881 -1.0077
 3867SOL     OW23059   2.847   1.030   2.307  0.0266  0.4307 -0.4603
 3867SOL    HW123060   2.899   0.978   2.368 -0.7123 -0.1395 -0.3165
 3867SOL    HW223061   2.860   1.121   2.335 -2.6846  1.0190 -1.0930
 3868SOL     OW23062   2.354   1.498   9.767  0.1908  0.2521 -0.0829
 3868SOL    HW123063   2.307   1.550   9.832  0.9792  1.0565 -0.1590
 3868SOL    HW223064   2.297   1.421   9.765  0.1724  0.1950  2.8481
 3869SOL     OW23065   3.169   3.946   8.063  0.2317 -0.0811 -0.4184
 3869SOL    HW123066   3.245   3.998   8.089 -0.2610  0.7453 -0.6460
 3869SOL    HW223067   3.189   3.873   8.122 -0.6669  0.0683  0.0771
 3870SOL     OW23068   1.078   1.400  15.731  0.0470  0.3133  0.1942
 3870SOL    HW123069   1.128   1.461  15.677 -0.5176 -0.6106 -1.3806
 3870SOL    HW223070   0.995   1.446  15.741  0.4766  1.3005 -0.7858
 3871SOL     OW23071   2.843   2.850  10.956  0.0197 -0.1566 -0.0675
 3871SOL    HW123072   2.838   2.910  10.881 -0.9035 -0.7934 -0.5149
 3871SOL    HW223073   2.939   2.841  10.961 -0.0694  0.2453  2.4309
 3872SOL     OW23074   3.818   1.596   5.586  0.3879  0.5175  0.2195
 3872SOL    HW123075   3.849   1.676   5.627  0.8189  0.5844 -0.2379
 3872SOL    HW223076   3.725   1.617   5.578 -0.2860 -2.1090  1.2222
 3873SOL     OW23077   3.784   2.581   6.963  0.4077  0.2039  0.1156
 3873SOL    HW123078   3.693   2.552   6.956  0.2859  0.1002  2.1437
 3873SOL    HW223079   3.780   2.641   7.037  3.5993  0.0659  0.4250
 3874SOL     OW23080   1.028   4.216   0.546  0.4728 -0.0300  0.5232
 3874SOL    HW123081   1.029   4.237   0.452  0.3432 -0.9994  0.3054
 3874SOL    HW223082   0.978   4.135   0.551  1.7776 -0.7831  1.1411
 3875SOL     OW23083   1.272   3.104   0.426  0.0072 -0.0518 -0.3489
 3875SOL    HW123084   1.191   3.137   0.464 -0.2150  1.2176 -1.9063
 3875SOL    HW223085   1.286   3.021   0.471  0.9030 -0.5348 -1.4943
 3876SOL     OW23086   4.442   2.996   0.515  0.3194  0.3291 -0.1702
 3876SOL    HW123087   4.453   2.914   0.563  1.0635  0.0179 -0.8843
 3876SOL    HW223088   4.475   3.056   0.582  2.1366  1.6334 -2.1949
 3877SOL     OW23089   2.076   4.045   7.713  0.0214 -0.3098  0.2191
 3877SOL    HW123090   2.060   4.115   7.650 -2.7116 -1.1555 -0.0346
 3877SOL    HW223091   1.996   4.028   7.763 -0.9024  0.2550 -1.0760
 3878SOL     OW23092   0.053   0.409   3.419 -0.0142  0.3181  0.3396
 3878SOL    HW123093   0.044   0.385   3.327 -0.6573  0.0376  0.4776
 3878SOL    HW223094   0.060   0.505   3.414  0.2486  0.2461 -0.8353
 3879SOL     OW23095   2.806   4.054  12.838  0.5686  0.2421 -0.6768
 3879SOL    HW123096   2.829   4.099  12.920  2.4697 -0.9200 -0.5721
 3879SOL    HW223097   2.742   4.113  12.798 -0.2923  0.3265  0.8143
 3880SOL     OW23098   3.595   1.291   5.175 -0.3595  0.0601 -0.0693
 3880SOL    HW123099   3.655   1.280   5.101 -2.6511  0.0464 -1.9465
 3880SOL    HW223100   3.536   1.215   5.173  0.6437 -0.6862 -1.0200
 3881SOL     OW23101   4.249   0.568   1.362  0.2463 -0.0238  0.0520
 3881SOL    HW123102   4.208   0.557   1.448 -3.7921  0.2108 -1.8514
 3881SOL    HW223103   4.180   0.611   1.311 -1.3427 -2.0460  0.5147
 3882SOL     OW23104   3.312   0.470  17.132  0.7391 -0.0239 -0.3920
 3882SOL    HW123105   3.272   0.511  17.055 -1.5017 -1.3526  0.0631
 3882SOL    HW223106   3.245   0.412  17.167  1.2289 -0.0590  0.4819
 3883SOL     OW23107   1.562   2.965   1.577 -0.1768  0.3590 -0.7067
 3883SOL    HW123108   1.615   2.956   1.497  0.8946  0.7534 -0.0422
 3883SOL    HW223109   1.529   3.051   1.552  1.5982  1.3592  0.3575
 3884SOL     OW23110   0.505   4.229   2.479 -0.4208 -0.1371 -0.7821
 3884SOL    HW123111   0.599   4.246   2.477 -0.4796  0.4588  1.1799
 3884SOL    HW223112   0.509   4.155   2.540  2.3947  1.6700  1.2055
 3885SOL     OW23113   2.683   1.520   9.542 -0.2135 -0.4533  0.0941
 3885SOL    HW123114   2.773   1.513   9.511  0.1527 -0.8615  1.2203
 3885SOL    HW223115   2.703   1.533   9.635  1.5640  0.7410 -0.4610
 3886SOL     OW23116   2.277   3.432   7.542  0.0644  0.5090 -0.4462
 3886SOL    HW123117   2.276   3.415   7.448  1.1046  1.3907 -0.6218
 3886SOL    HW223118   2.223   3.511   7.546 -1.1674 -0.3311 -0.5820
 3887SOL     OW23119   4.443   3.002   8.364  0.6062 -0.4877 -0.1341
 3887SOL    HW123120   4.437   2.925   8.421 -1.7782  0.1694  0.4808
 3887SOL    HW223121   4.385   3.059   8.414 -0.5093 -1.3082 -0.4938
 3888SOL     OW23122   4.152   2.261  16.398  0.3569  0.1994 -0.5058
 3888SOL    HW123123   4.125   2.288  16.486 -0.6665  1.3467 -1.1566
 3888SOL    HW223124   4.240   2.298  16.390  0.5033 -0.3218 -1.2972
 3889SOL     OW23125   4.064   0.534   2.931  0.1004  0.4240 -0.0374
 3889SOL    HW123126   4.130   0.562   2.868  0.2642 -0.2952 -0.1932
 3889SOL    HW223127   4.082   0.599   2.998  0.0062  0.6265 -0.2089
 3890SOL     OW23128   0.561   0.840   5.442  0.4989  0.0633  0.4058
 3890SOL    HW123129   0.634   0.896   5.419  0.8806 -0.8264 -0.5441
 3890SOL    HW223130   0.509   0.884   5.374  0.1951 -0.4102  0.3334
 3891SOL     OW23131   3.855   2.219  10.146 -0.3317 -0.1258 -0.2734
 3891SOL    HW123132   3.762   2.213  10.165 -0.6819 -2.2205 -2.5473
 3891SOL    HW223133   3.851   2.180  10.058  0.6599 -1.0609  0.0857
 3892SOL     OW23134   2.023   2.611   8.714  0.2544 -0.4868  0.3316
 3892SOL    HW123135   2.112   2.593   8.743  0.0574 -0.5444  0.9072
 3892SOL    HW223136   2.034   2.704   8.736  2.0310 -0.2560 -1.5657
 3893SOL     OW23137   4.043   0.408   7.517 -0.1982 -0.4771  0.2755
 3893SOL    HW123138   4.080   0.383   7.602 -1.0105  0.1783  0.8260
 3893SOL    HW223139   4.120   0.448   7.477 -2.1566  2.6299 -0.4173
 3894SOL     OW23140   3.016   0.277  11.949 -0.0415 -0.4738  0.4666
 3894SOL    HW123141   2.996   0.275  12.042 -0.1672 -1.4353  0.4203
 3894SOL    HW223142   3.009   0.371  11.930 -0.6357 -0.8801 -1.4048
 3895SOL     OW23143   3.929   3.366  10.548 -0.2152  0.2751  0.3982
 3895SOL    HW123144   3.852   3.388  10.496  0.0449  1.7708  0.6507
 3895SOL    HW223145   3.899   3.292  10.600 -1.3771  0.8552  0.5518
 3896SOL     OW23146   3.462   1.631   2.586 -0.2900 -0.0552 -0.1628
 3896SOL    HW123147   3.497   1.681   2.512 -0.3651 -1.0378 -0.8619
 3896SOL    HW223148   3.509   1.548   2.579  2.0787  1.2834 -0.5023
 3897SOL     OW23149   4.113   2.962  12.446 -0.2950  0.3142 -0.0274
 3897SOL    HW123150   4.047   2.949  12.514  0.2535 -0.1979  0.4087
 3897SOL    HW223151   4.055   2.943  12.373 -2.7787  0.4378  1.9201
 3898SOL     OW23152   2.464   1.114   7.797  0.5325 -0.4407  0.2203
 3898SOL    HW123153   2.491   1.174   7.867  1.0789  0.2198 -0.5500
 3898SOL    HW223154   2.406   1.056   7.846  0.1667 -0.5276 -0.3130
 3899SOL     OW23155   3.338   4.110  14.852  0.0371  0.5764  0.2156
 3899SOL    HW123156   3.307   4.145  14.768 -1.6225  0.1268  0.6409
 3899SOL    HW223157   3.402   4.046  14.823 -0.0106 -0.0745  1.5383
 3900SOL     OW23158   0.717   2.341   5.625 -0.5316 -0.5773  0.0522
 3900SOL    HW123159   0.681   2.413   5.573 -0.2639  0.0577  0.7455
 3900SOL    HW223160   0.640   2.311   5.673  0.9484 -3.7580  0.3939
 3901SOL     OW23161   4.362   1.963   6.620 -0.8554  0.3587 -0.3925
 3901SOL    HW123162   4.282   1.967   6.568 -1.2379  3.3006  0.3921
 3901SOL    HW223163   4.354   1.876   6.659 -0.1530  1.5658  2.4507
 3902SOL     OW23164   3.679   1.519   8.413  0.0504 -0.0768 -0.3243
 3902SOL    HW123165   3.590   1.487   8.420  0.1152 -0.1842  0.0099
 3902SOL    HW223166   3.681   1.569   8.495 -0.7018 -0.6791  0.0559
 3903SOL     OW23167   0.004   0.557  10.557  0.0902  0.1742  0.4021
 3903SOL    HW123168   0.030   0.631  10.501 -0.6193  0.3696  0.3350
 3903SOL    HW223169   4.640   0.538  10.526 -0.2923 -0.0502  1.6138
 3904SOL     OW23170   4.121   1.762   4.822 -0.0479  0.4945  0.8051
 3904SOL    HW123171   4.041   1.727   4.785  0.7712  1.1733 -1.6160
 3904SOL    HW223172   4.095   1.853   4.835 -0.0221  0.6475 -0.2470
 3905SOL     OW23173   0.255   1.950   5.692 -1.1912  0.4593  0.3850
 3905SOL    HW123174   0.267   2.012   5.764  0.5477  1.3609 -0.6812
 3905SOL    HW223175   0.236   1.864   5.730 -0.8265 -0.4460 -1.4480
 3906SOL     OW23176   4.562   2.487   5.351 -0.4961 -0.7933  0.9934
 3906SOL    HW123177   4.656   2.489   5.333 -0.9810  1.3812 -1.2617
 3906SOL    HW223178   4.554   2.545   5.427  2.1669  2.1408 -0.9854
 3907SOL     OW23179   1.859   1.767   2.945 -0.2490  0.3124  0.1693
 3907SOL    HW123180   1.954   1.778   2.946 -0.6721  3.4541  2.7684
 3907SOL    HW223181   1.861   1.726   2.858 -2.8452  0.3272  0.1023
 3908SOL     OW23182   4.052   3.060   4.657  0.1731  0.0453  0.1882
 3908SOL    HW123183   4.014   3.147   4.664 -0.0814  0.0879 -1.7661
 3908SOL    HW223184   4.030   3.017   4.739  0.9679  1.4237  1.1107
 3909SOL     OW23185   3.299   0.861   6.649  0.2962  0.1979 -0.1612
 3909SOL    HW123186   3.374   0.822   6.604 -0.8526 -1.2042 -0.8455
 3909SOL    HW223187   3.273   0.932   6.591  1.7922  1.0019  0.1474
 3910SOL     OW23188   1.815   1.392   3.461 -0.0208  0.0707  0.5917
 3910SOL    HW123189   1.736   1.341   3.480  0.6146 -0.0610  2.9257
 3910SOL    HW223190   1.791   1.414   3.371  1.3218 -2.4186 -0.3665
 3911SOL     OW23191   2.366   2.301  10.181  0.2211  0.2445  0.2704
 3911SOL    HW123192   2.408   2.221  10.148 -0.9054  0.2950 -1.3050
 3911SOL    HW223193   2.332   2.265  10.264 -0.0267  0.2677  0.1790
 3912SOL     OW23194   3.474   1.799   3.706 -0.5607 -0.6148 -0.1177
 3912SOL    HW123195   3.555   1.777   3.661 -1.0971 -1.1610 -0.8066
 3912SOL    HW223196   3.423   1.840   3.636  2.1214  2.1434 -0.4331
 3913SOL     OW23197   1.879   2.583  13.171  0.8606  0.7048  0.0067
 3913SOL    HW123198   1.800   2.617  13.213  0.4589 -0.5903  0.2834
 3913SOL    HW223199   1.949   2.631  13.217  3.2561 -1.2838 -1.5705
 3914SOL     OW23200   1.394   3.873   3.376  0.9413 -0.1427 -0.1977
 3914SOL    HW123201   1.469   3.923   3.408 -1.2147  1.2570  2.5920
 3914SOL    HW223202   1.386   3.923   3.294 -0.7431 -2.5839 -1.5068
 3915SOL     OW23203   0.254   1.058   4.530  0.0368 -0.0600 -0.1324
 3915SOL    HW123204   0.338   1.099   4.512  0.5777 -1.3951 -0.7110
 3915SOL    HW223205   0.260   0.967   4.499 -1.3984 -0.8457  1.8623
 3916SOL     OW23206   3.425   0.191   0.522  0.4480  0.2085  0.1886
 3916SOL    HW123207   3.448   0.282   0.544 -2.4923  0.9707  0.0962
 3916SOL    HW223208   3.340   0.195   0.479  0.0584  1.0504  1.0255
 3917SOL     OW23209   4.022   2.009   6.648  0.1060 -0.4149  0.2141
 3917SOL    HW123210   4.056   2.022   6.736  0.0264  2.5865 -0.2145
 3917SOL    HW223211   4.051   2.088   6.603  0.2968 -0.8625 -0.4458
 3918SOL     OW23212   1.414   2.919   8.614 -0.3549  0.3020  0.0648
 3918SOL    HW123213   1.416   2.862   8.537  2.2413  0.5928 -0.0904
 3918SOL    HW223214   1.404   2.854   8.684  0.9371 -0.6111 -0.5786
 3919SOL     OW23215   0.170   2.432   6.407  0.0851 -0.2774 -0.6559
 3919SOL    HW123216   0.097   2.486   6.436 -0.2319 -0.5803 -0.9064
 3919SOL    HW223217   0.141   2.347   6.440  1.6743 -0.2945  0.7565
 3920SOL     OW23218   2.919   3.358   9.799  0.3143 -0.0380 -0.4459
 3920SOL    HW123219   2.836   3.312   9.795  0.4287 -0.2234 -0.7081
 3920SOL    HW223220   2.969   3.327   9.723  0.7194  0.5518 -0.4286
 3921SOL     OW23221   0.513   3.740   5.405  0.2555 -0.4485  0.2767
 3921SOL    HW123222   0.548   3.817   5.449  0.1618 -1.3824  1.9959
 3921SOL    HW223223   0.523   3.683   5.481 -0.5534 -1.4481 -0.3671
 3922SOL     OW23224   4.619   3.451   8.347 -0.6154 -0.3102 -0.2865
 3922SOL    HW123225   4.617   3.507   8.425 -0.6574  0.9399 -1.1818
 3922SOL    HW223226   4.602   3.364   8.383 -2.3072  0.3865  0.6095
 3923SOL     OW23227   0.819   0.804   8.406  0.0542 -0.3982  0.6696
 3923SOL    HW123228   0.875   0.881   8.395 -0.5894  0.2217  1.7035
 3923SOL    HW223229   0.887   0.738   8.396 -0.3136 -0.0139 -4.5715
 3924SOL     OW23230   1.561   4.517   4.066  0.4156  0.1605  0.2333
 3924SOL    HW123231   1.483   4.535   4.013  0.0917 -0.5772  0.4576
 3924SOL    HW223232   1.634   4.545   4.011 -0.3190 -1.3857 -1.5519
 3925SOL     OW23233   2.667   2.652   1.992 -0.3249 -0.7728 -0.0487
 3925SOL    HW123234   2.680   2.736   1.948  0.1961 -1.1552 -0.6258
 3925SOL    HW223235   2.754   2.633   2.027 -0.8352 -0.7183  1.2561
 3926SOL     OW23236   3.723   3.531   5.787  0.2738 -0.4709 -0.0035
 3926SOL    HW123237   3.630   3.509   5.795 -0.0619  1.6396  1.8252
 3926SOL    HW223238   3.739   3.558   5.878  0.6815 -1.2947  0.1759
 3927SOL     OW23239   0.599   0.573   8.059  0.0441  0.6582  0.8295
 3927SOL    HW123240   0.585   0.602   7.968 -0.6195 -1.1982  0.3352
 3927SOL    HW223241   0.522   0.524   8.088 -0.8501  1.1888 -0.6074
 3928SOL     OW23242   3.547   1.815   1.903  0.6766  0.4821  0.2542
 3928SOL    HW123243   3.641   1.811   1.884  0.5376  3.0713 -0.9587
 3928SOL    HW223244   3.507   1.779   1.824  0.5819 -0.3265  0.6687
 3929SOL     OW23245   3.974   4.279  15.133  0.4177  0.0342 -0.8680
 3929SOL    HW123246   4.024   4.201  15.156  0.2157  0.5733  1.4259
 3929SOL    HW223247   4.047   4.341  15.144  0.3718  0.3319 -2.1929
 3930SOL     OW23248   1.369   2.601  16.751  0.0453  0.6693 -0.1425
 3930SOL    HW123249   1.425   2.553  16.811 -0.2289  0.4157 -0.0910
 3930SOL    HW223250   1.414   2.685  16.745  0.5851  0.5051  1.5848
 3931SOL     OW23251   4.650   3.803   5.301  0.5774  0.2105  0.1296
 3931SOL    HW123252   4.634   3.723   5.251 -0.0266  1.6329 -1.9763
 3931SOL    HW223253   4.592   3.853   5.243  1.3266  0.8937 -0.0238
 3932SOL     OW23254   0.767   0.387   2.722  0.1564  0.0279  1.4281
 3932SOL    HW123255   0.846   0.346   2.758  0.7962  0.5033  0.5478
 3932SOL    HW223256   0.735   0.309   2.676  1.3325 -0.2310  1.0532
 3933SOL     OW23257   0.181   3.908   9.040  0.1086  0.0189  0.0049
 3933SOL    HW123258   0.160   3.852   9.115  0.7177  0.7633  0.7323
 3933SOL    HW223259   0.266   3.945   9.064 -0.2500  0.5547  0.4585
 3934SOL     OW23260   0.132   2.574   7.805 -0.0758  0.6894 -0.1115
 3934SOL    HW123261   0.182   2.512   7.752  0.3163  0.8080  0.1176
 3934SOL    HW223262   0.197   2.629   7.850  0.9387 -0.9059  0.3578
 3935SOL     OW23263   4.681   0.902   5.407  0.5222 -0.1824  0.0048
 3935SOL    HW123264   4.688   0.862   5.494 -2.2543 -1.9442 -0.5775
 3935SOL    HW223265   0.010   0.852   5.345 -0.6223 -1.9422  0.4453
 3936SOL     OW23266   3.210   2.221   6.232  0.1967  0.7108 -0.3731
 3936SOL    HW123267   3.215   2.277   6.155  0.0861 -1.9511 -2.2954
 3936SOL    HW223268   3.296   2.212   6.271 -1.0584  0.5823  2.3821
 3937SOL     OW23269   0.258   4.272   8.128 -0.8006  0.1954 -0.0142
 3937SOL    HW123270   0.185   4.238   8.076  0.4488 -0.5618 -1.2749
 3937SOL    HW223271   0.337   4.249   8.079 -0.9911  1.4876 -0.9246
 3938SOL     OW23272   2.244   0.397   6.040 -0.3399 -0.2586  0.6201
 3938SOL    HW123273   2.309   0.450   6.087  1.5713  0.2221 -2.5470
 3938SOL    HW223274   2.174   0.395   6.105  1.3118 -1.0137  2.3645
 3939SOL     OW23275   2.321   3.982   5.608  0.4347  0.2715  0.3403
 3939SOL    HW123276   2.230   3.979   5.578 -0.7669 -0.3187  4.0007
 3939SOL    HW223277   2.361   4.047   5.550  2.3355  1.3746  2.8864
 3940SOL     OW23278   4.073   3.497  15.580  0.0633 -0.1063 -0.6807
 3940SOL    HW123279   4.023   3.579  15.575  1.4485  0.8482  1.1639
 3940SOL    HW223280   4.034   3.460  15.659  1.0832 -0.2652 -0.2556
 3941SOL     OW23281   3.703   1.638   7.475 -0.5798  0.2479 -0.6142
 3941SOL    HW123282   3.691   1.690   7.395 -0.0810  1.8035  0.3181
 3941SOL    HW223283   3.716   1.712   7.534 -0.1926 -0.1470 -0.2024
 3942SOL     OW23284   2.768   2.917  11.916  0.0681 -0.0732  0.0793
 3942SOL    HW123285   2.772   2.995  11.971 -1.8442 -0.5766  0.9221
 3942SOL    HW223286   2.762   2.962  11.832  1.7088 -1.2305 -0.6671
 3943SOL     OW23287   4.599   0.712   8.625 -0.1024  0.0227 -0.3398
 3943SOL    HW123288   4.607   0.774   8.698  1.5389  1.9877 -2.1829
 3943SOL    HW223289   4.625   0.767   8.551  0.8409 -0.5039 -0.3888
 3944SOL     OW23290   3.064   2.258   4.102  0.1228 -0.0825  0.0328
 3944SOL    HW123291   3.020   2.343   4.106 -0.6442 -0.4096 -1.5145
 3944SOL    HW223292   3.115   2.272   4.022  0.2852 -0.1798  0.1200
 3945SOL     OW23293   2.425   1.018   7.312 -0.1547  0.0568  0.1428
 3945SOL    HW123294   2.490   1.071   7.359 -1.7438  0.9005  1.3657
 3945SOL    HW223295   2.476   0.939   7.295 -1.4655 -0.3577 -1.8461
 3946SOL     OW23296   2.173   3.668   1.638 -0.1756  0.2284  0.1730
 3946SOL    HW123297   2.224   3.726   1.581 -0.7580  0.7554  0.1908
 3946SOL    HW223298   2.081   3.687   1.624 -0.1470 -0.2964 -0.7640
 3947SOL     OW23299   3.065   4.155   2.885  0.4956 -0.2460 -0.1452
 3947SOL    HW123300   2.975   4.157   2.854  0.9715 -1.4265 -1.6305
 3947SOL    HW223301   3.114   4.178   2.806  1.5121 -0.7500  0.3358
 3948SOL     OW23302   0.813   3.504   6.059  0.1137  0.1305  0.3786
 3948SOL    HW123303   0.852   3.421   6.086  1.1501  1.0506  1.7697
 3948SOL    HW223304   0.840   3.553   6.137  1.3327  1.5432 -0.9262
 3949SOL     OW23305   2.962   4.063  10.208 -0.6933 -0.1529  0.3934
 3949SOL    HW123306   2.905   4.065  10.131 -0.8844  1.8402  0.5995
 3949SOL    HW223307   3.006   4.148  10.212  1.4445 -1.2494 -0.0218
 3950SOL     OW23308   2.910   2.692   6.215  0.0007 -0.1902 -0.6526
 3950SOL    HW123309   2.901   2.759   6.147  0.1830 -0.9367 -1.4228
 3950SOL    HW223310   2.962   2.735   6.283 -0.3781 -0.9548  0.1023
 3951SOL     OW23311   1.137   3.942   8.311 -0.2845  0.0993 -0.3521
 3951SOL    HW123312   1.076   3.983   8.250  0.1988 -0.4370 -1.1915
 3951SOL    HW223313   1.084   3.883   8.364 -0.2534 -0.9629 -1.5147
 3952SOL     OW23314   3.894   4.025  16.508 -0.2859 -0.2536 -0.6811
 3952SOL    HW123315   3.969   4.056  16.559 -0.4264  0.1704 -0.7383
 3952SOL    HW223316   3.923   3.936  16.489  1.6856  0.6514 -1.9754
 3953SOL     OW23317   3.156   3.260   1.792  0.0082  0.1806 -0.1517
 3953SOL    HW123318   3.205   3.191   1.836 -0.1510 -0.5247 -1.0794
 3953SOL    HW223319   3.222   3.322   1.761 -0.1176 -0.0984 -1.0001
 3954SOL     OW23320   4.076   1.583   8.633  0.1737 -0.2062  0.0022
 3954SOL    HW123321   4.005   1.520   8.647  0.9760 -0.9922  0.4608
 3954SOL    HW223322   4.135   1.544   8.697  1.3716 -0.3051 -1.1601
 3955SOL     OW23323   1.098   2.107   0.085 -0.3071  0.9405  0.2984
 3955SOL    HW123324   1.064   2.021   0.112 -0.2537  0.9899  0.5208
 3955SOL    HW223325   1.166   2.130   0.148  1.0300 -1.6066 -0.1934
 3956SOL     OW23326   4.462   3.261  14.612 -0.3813 -0.0140  0.6881
 3956SOL    HW123327   4.476   3.327  14.544  2.9429  0.4202  1.7584
 3956SOL    HW223328   4.414   3.305  14.682 -0.0590  0.4907  0.5959
 3957SOL     OW23329   3.985   1.673   9.404 -0.3162  0.6645 -0.1650
 3957SOL    HW123330   3.966   1.761   9.437  2.5374  1.1634  0.1403
 3957SOL    HW223331   4.057   1.692   9.344 -2.7731  0.7609 -3.1137
 3958SOL     OW23332   2.596   1.779   2.192 -0.4151  0.0777 -0.2332
 3958SOL    HW123333   2.613   1.809   2.281 -1.1633  3.7933 -1.3373
 3958SOL    HW223334   2.598   1.858   2.138  0.9627 -0.2747 -0.7110
 3959SOL     OW23335   3.559   3.833   1.073  0.0602  0.2217 -0.6478
 3959SOL    HW123336   3.545   3.881   1.155 -0.1772  0.3117 -0.7416
 3959SOL    HW223337   3.480   3.854   1.023 -0.4616 -1.3198 -0.4848
 3960SOL     OW23338   0.733   1.496   0.898 -0.1899  0.3037  0.1431
 3960SOL    HW123339   0.696   1.525   0.981 -1.9394  0.0335 -0.5470
 3960SOL    HW223340   0.815   1.467   0.938  0.7581  0.9895 -1.3077
 3961SOL     OW23341   4.050   0.740   7.330  0.2589  0.2811 -0.2690
 3961SOL    HW123342   4.039   0.834   7.315 -0.4878  0.2673  0.1572
 3961SOL    HW223343   3.982   0.720   7.394 -0.3574  1.6298 -0.5029
 3962SOL     OW23344   3.923   2.127  13.124  0.6349 -0.2551  0.4185
 3962SOL    HW123345   3.925   2.072  13.203  1.3655 -0.6467  0.1236
 3962SOL    HW223346   3.996   2.083  13.081  1.1801  1.9722 -0.9046
 3963SOL     OW23347   0.017   3.098   9.351 -0.2558 -0.0643  0.0444
 3963SOL    HW123348   4.709   3.187   9.337  2.1345  1.1521  2.2877
 3963SOL    HW223349   0.110   3.109   9.328 -0.3286 -0.6901 -0.5434
 3964SOL     OW23350   2.122   0.776   8.623 -0.6405 -0.4307  0.1708
 3964SOL    HW123351   2.180   0.705   8.595 -0.7380  0.4563 -2.2743
 3964SOL    HW223352   2.060   0.776   8.550 -0.0182  0.1488 -0.3518
 3965SOL     OW23353   3.057   0.487   2.348  0.2666 -0.1881  0.2418
 3965SOL    HW123354   2.966   0.516   2.353  0.6175  1.1793 -1.1885
 3965SOL    HW223355   3.057   0.429   2.424  1.6801 -1.6655 -0.8746
 3966SOL     OW23356   3.348   1.323  16.689 -0.6535 -0.0215  0.2484
 3966SOL    HW123357   3.363   1.417  16.693  0.5117 -0.1089 -1.8238
 3966SOL    HW223358   3.420   1.304  16.629 -2.0374 -3.6414 -0.2966
 3967SOL     OW23359   1.274   4.265   5.472 -0.0928 -0.3429 -0.3734
 3967SOL    HW123360   1.318   4.271   5.387  0.8974  0.1187  0.1733
 3967SOL    HW223361   1.341   4.229   5.530 -0.4199  0.6993  0.6325
 3968SOL     OW23362   1.123   3.578   7.713  0.5879  0.0263 -0.1418
 3968SOL    HW123363   1.082   3.664   7.725 -1.5854 -0.7331 -2.0257
 3968SOL    HW223364   1.215   3.596   7.696  0.5991  0.3537  0.2428
 3969SOL     OW23365   3.906   1.147   5.999 -0.6790 -0.4450  0.5835
 3969SOL    HW123366   3.945   1.138   5.912  0.4419  2.6823  0.7668
 3969SOL    HW223367   3.897   1.052   6.011 -1.3229 -0.3269  1.0550
 3970SOL     OW23368   0.961   4.335  15.215 -0.5660 -0.3770  0.3635
 3970SOL    HW123369   0.874   4.350  15.251 -1.2007  0.8310 -1.6529
 3970SOL    HW223370   0.916   4.311  15.134  1.1017 -1.4014 -0.2661
 3971SOL     OW23371   1.289   3.778   5.301  0.3830 -0.7406  0.2810
 3971SOL    HW123372   1.228   3.841   5.339 -1.3632 -1.1271 -1.8432
 3971SOL    HW223373   1.353   3.842   5.269  0.2803  0.1813  1.9509
 3972SOL     OW23374   1.090   1.630   3.635 -0.5080 -0.3795 -0.2826
 3972SOL    HW123375   1.002   1.651   3.664  0.1644  0.6374  0.9732
 3972SOL    HW223376   1.118   1.551   3.682 -1.9444  0.9290  2.7459
 3973SOL     OW23377   4.186   2.051   7.654 -0.3463  0.1262 -0.4826
 3973SOL    HW123378   4.265   1.997   7.665  0.0942  1.3399  2.3135
 3973SOL    HW223379   4.152   2.020   7.570 -0.2987  0.6534 -0.6910
 3974SOL     OW23380   2.947   0.239   5.017  0.4123  0.0886  0.4241
 3974SOL    HW123381   2.980   0.151   5.033 -2.1554 -1.0936 -0.7168
 3974SOL    HW223382   3.032   0.278   4.999  0.3620 -0.3459 -0.7636
 3975SOL     OW23383   1.545   2.445   7.796 -0.0898  0.3543 -0.2509
 3975SOL    HW123384   1.549   2.537   7.767  0.7950  0.5221  0.4030
 3975SOL    HW223385   1.482   2.408   7.735  0.9526  2.5715 -2.6998
 3976SOL     OW23386   3.396   3.587   1.474  0.8527  0.0151  0.1119
 3976SOL    HW123387   3.408   3.682   1.468 -0.6949  0.1304 -1.0319
 3976SOL    HW223388   3.447   3.570   1.395 -1.4087  0.6037 -1.4622
 3977SOL     OW23389   2.711   0.656   3.326  0.4286  0.5663  0.4763
 3977SOL    HW123390   2.663   0.588   3.374  1.0184 -0.3800 -0.2559
 3977SOL    HW223391   2.692   0.638   3.234  1.9167 -0.2560  0.3300
 3978SOL     OW23392   2.148   3.824   4.835 -0.8835  0.0417 -0.2790
 3978SOL    HW123393   2.129   3.790   4.923 -2.3354  1.0555 -0.1923
 3978SOL    HW223394   2.191   3.908   4.848 -1.0156  0.3271 -1.7431
 3979SOL     OW23395   3.009   3.459  15.550  0.1677 -0.4210 -0.3698
 3979SOL    HW123396   2.914   3.470  15.546  0.4823  1.7773 -1.4844
 3979SOL    HW223397   3.009   3.379  15.602  0.0616  0.5478  1.1003
 3980SOL     OW23398   0.245   1.397   3.634 -0.1600 -0.1647  0.6808
 3980SOL    HW123399   0.195   1.464   3.587  1.3542 -0.3070 -1.1207
 3980SOL    HW223400   0.306   1.371   3.566  1.3550  0.1118  1.9316
 3981SOL     OW23401   4.658   0.460   5.622 -0.1102  0.7252  0.3095
 3981SOL    HW123402   4.631   0.493   5.707 -1.2981  0.5738 -0.0114
 3981SOL    HW223403   4.580   0.485   5.573  0.0573  0.7819  0.0709
 3982SOL     OW23404   3.274   3.478  13.128 -0.0755 -0.3950 -0.0928
 3982SOL    HW123405   3.258   3.571  13.143  1.7019 -0.1294  0.1928
 3982SOL    HW223406   3.224   3.462  13.048 -0.8329  0.3466  0.2343
 3983SOL     OW23407   2.986   1.356  11.997 -0.5115  0.0986 -0.3604
 3983SOL    HW123408   2.998   1.275  12.047  0.1847  0.9445  0.8683
 3983SOL    HW223409   2.904   1.326  11.958 -0.5875 -2.0375  1.4646
 3984SOL     OW23410   1.841   0.056   8.674  0.7575 -0.1999  0.0817
 3984SOL    HW123411   1.751   0.067   8.705  1.1974  2.0130  0.6047
 3984SOL    HW223412   1.824   0.031   8.584  3.0885  1.5065 -0.8141
 3985SOL     OW23413   0.978   3.582   3.728 -0.2226 -0.3442  0.0457
 3985SOL    HW123414   1.048   3.523   3.698  1.0646 -0.4402  3.1868
 3985SOL    HW223415   0.924   3.592   3.650 -0.3780  0.6647  0.2925
 3986SOL     OW23416   1.525   3.368  11.731  0.6531 -0.0309 -0.2732
 3986SOL    HW123417   1.562   3.281  11.711 -0.4846 -0.8234  1.0967
 3986SOL    HW223418   1.607   3.416  11.742  1.0971 -0.4103 -1.8418
 3987SOL     OW23419   3.334   3.900   3.996  0.0489 -0.2963  0.5803
 3987SOL    HW123420   3.266   3.832   3.994 -0.9495  0.7510 -0.9680
 3987SOL    HW223421   3.352   3.912   3.902 -1.2685 -2.0040  0.1205
 3988SOL     OW23422   0.319   0.122   5.238 -0.5619 -0.2101  0.3033
 3988SOL    HW123423   0.398   0.069   5.235  0.9616  1.9862  1.3939
 3988SOL    HW223424   0.277   0.083   5.314 -0.5650 -2.4338 -0.8563
 3989SOL     OW23425   2.566   2.253  17.146 -0.3013 -0.0207  0.4382
 3989SOL    HW123426   2.525   2.292  17.069  0.7186  0.9271  0.3752
 3989SOL    HW223427   2.545   2.322  17.209 -0.0226 -1.3980  2.0370
 3990SOL     OW23428   4.451   1.840  16.323  0.2309 -0.5912  0.1049
 3990SOL    HW123429   4.482   1.925  16.291  0.1987 -0.5888  0.0793
 3990SOL    HW223430   4.363   1.872  16.344  0.0209 -1.9202  1.2907
 3991SOL     OW23431   2.902   1.817   6.757  0.6441  0.4668 -0.2469
 3991SOL    HW123432   2.835   1.771   6.707  1.0839  0.5329 -0.8954
 3991SOL    HW223433   2.922   1.758   6.830 -0.8341  0.7352  0.3865
 3992SOL     OW23434   4.070   2.797  11.433 -0.1461 -0.7380 -0.4702
 3992SOL    HW123435   4.061   2.888  11.407 -0.3810 -0.3489  1.0070
 3992SOL    HW223436   4.003   2.794  11.501 -0.8517  1.0645 -1.1004
 3993SOL     OW23437   2.033   4.210   6.851 -0.6722  0.2948  0.3400
 3993SOL    HW123438   2.073   4.197   6.765 -2.1681 -1.7306 -0.0572
 3993SOL    HW223439   2.110   4.182   6.902 -0.0022 -0.1367 -0.8885
 3994SOL     OW23440   1.268   0.345   2.923  0.6862  0.4532  0.4453
 3994SOL    HW123441   1.335   0.319   2.860 -1.0150 -2.5698 -0.1200
 3994SOL    HW223442   1.315   0.419   2.962  0.0169  1.0217  0.1800
 3995SOL     OW23443   1.532   4.583   0.224  0.3639 -0.6279 -0.0044
 3995SOL    HW123444   1.522   4.488   0.213 -4.1706 -0.1270 -0.2138
 3995SOL    HW223445   1.573   4.600   0.139 -1.0037  1.4285 -0.2504
 3996SOL     OW23446   2.420   4.692  15.683 -0.3262  0.3934  0.3204
 3996SOL    HW123447   2.401   4.615  15.630  1.4793  0.1686 -0.0007
 3996SOL    HW223448   2.371   0.034  15.635 -0.7853 -0.0704  0.1577
 3997SOL     OW23449   0.966   2.262   3.842  0.1146 -0.1946 -1.2970
 3997SOL    HW123450   1.002   2.177   3.868 -1.0745 -0.0039  0.9264
 3997SOL    HW223451   0.975   2.304   3.927  1.1040 -1.4517 -0.7845
 3998SOL     OW23452   1.598   3.773   2.591  0.5010  0.2713 -0.1526
 3998SOL    HW123453   1.590   3.710   2.662  0.5456 -0.6803 -0.9856
 3998SOL    HW223454   1.563   3.855   2.625  0.4744  0.2783 -0.1960
 3999SOL     OW23455   4.558   1.146   7.824 -0.2097  0.0154 -0.5814
 3999SOL    HW123456   4.506   1.127   7.902 -1.4435  2.1688 -0.8551
 3999SOL    HW223457   4.644   1.117   7.854 -0.3597 -0.9791 -1.1037
 4000SOL     OW23458   0.411   4.222   1.628 -0.4830  0.2202  0.0783
 4000SOL    HW123459   0.399   4.288   1.560 -1.7788 -0.6648 -0.5475
 4000SOL    HW223460   0.431   4.275   1.706 -1.7526  0.2286  0.3890
 4001SOL     OW23461   3.592   3.625   6.800  0.3764  0.2840  0.2723
 4001SOL    HW123462   3.618   3.592   6.886 -0.5792 -1.1312  0.0163
 4001SOL    HW223463   3.652   3.581   6.741 -1.5930 -0.9512 -0.8212
 4002SOL     OW23464   1.548   4.294  16.244  0.2015 -0.6172  0.0641
 4002SOL    HW123465   1.496   4.307  16.323 -0.3618  1.6808 -0.7022
 4002SOL    HW223466   1.499   4.351  16.184  0.9740 -0.4584 -0.4144
 4003SOL     OW23467   4.164   1.902   0.522  0.4460  0.5795 -0.6741
 4003SOL    HW123468   4.151   1.997   0.528  0.7093  0.5451  0.4881
 4003SOL    HW223469   4.113   1.876   0.598  2.2448  1.4382  0.8309
 4004SOL     OW23470   1.023   2.875  17.252 -0.1144  0.3367  0.4802
 4004SOL    HW123471   1.075   2.901  17.176 -0.9279  0.8491  0.0969
 4004SOL    HW223472   1.073   2.913  17.323 -0.5927  1.3877  0.2543
 4005SOL     OW23473   0.742   0.213  10.001 -0.5246  0.1986  0.1396
 4005SOL    HW123474   0.751   0.155   9.926  0.3920  1.2747 -0.5870
 4005SOL    HW223475   0.724   0.144  10.065  1.0242 -0.0397  0.3250
 4006SOL     OW23476   0.782   3.565  15.510 -0.2180  0.3033  0.2771
 4006SOL    HW123477   0.732   3.546  15.431  1.6476 -2.5986 -0.1885
 4006SOL    HW223478   0.846   3.630  15.480  1.4777 -2.2151 -1.5756
 4007SOL     OW23479   2.835   2.561   3.219 -0.1048  0.0700  0.4385
 4007SOL    HW123480   2.910   2.620   3.223 -1.7740  2.3248 -1.2476
 4007SOL    HW223481   2.828   2.537   3.311  0.8892  0.9873  0.7569
 4008SOL     OW23482   2.079   1.045   2.137 -0.1165  0.0621  0.2540
 4008SOL    HW123483   2.159   1.003   2.106  0.3843  2.5918 -1.9297
 4008SOL    HW223484   2.093   1.131   2.098  1.0159  0.0535  0.6590
 4009SOL     OW23485   0.303   1.074   2.723 -0.2626  0.5643 -0.3531
 4009SOL    HW123486   0.217   1.045   2.691 -1.4576  1.9011  1.6119
 4009SOL    HW223487   0.330   1.156   2.680  0.2565  0.9087  0.6451
 4010SOL     OW23488   3.750   3.636   4.796 -0.4745 -0.9606  0.3901
 4010SOL    HW123489   3.817   3.704   4.789  0.6398 -2.1069 -0.0907
 4010SOL    HW223490   3.715   3.661   4.882  3.0955  1.6888  1.0640
 4011SOL     OW23491   1.951   2.036   0.592  0.1292 -0.2979  0.1643
 4011SOL    HW123492   1.945   1.963   0.653  2.5038 -0.2032  0.4916
 4011SOL    HW223493   1.966   2.105   0.656  0.6457  0.3866 -0.6957
 4012SOL     OW23494   2.726   0.263   2.245  0.6801 -0.0496 -0.2090
 4012SOL    HW123495   2.693   0.348   2.274 -1.1511 -1.0302  0.6128
 4012SOL    HW223496   2.649   0.210   2.223  0.2260  1.5868 -2.6183
 4013SOL     OW23497   0.868   4.603   8.870  0.0108  0.3464  0.3941
 4013SOL    HW123498   0.929   4.530   8.860  0.1551  0.6826 -1.1255
 4013SOL    HW223499   0.907   4.682   8.834 -2.5270  0.7857 -1.3280
 4014SOL     OW23500   2.385   4.446   8.236  0.0364 -0.0193 -0.5535
 4014SOL    HW123501   2.375   4.443   8.331 -1.9084  1.5438 -0.7031
 4014SOL    HW223502   2.436   4.367   8.218  0.3708 -0.3695  1.9175
 4015SOL     OW23503   1.946   1.293   2.216 -0.1546  0.0881  0.1875
 4015SOL    HW123504   1.959   1.201   2.239 -1.8902 -1.3461 -4.6626
 4015SOL    HW223505   1.908   1.279   2.130 -0.3379 -0.2655  0.3280
 4016SOL     OW23506   0.415   0.798   4.523  0.3194 -0.1544  0.1995
 4016SOL    HW123507   0.461   0.787   4.607 -1.1589  2.6929  1.3689
 4016SOL    HW223508   0.485   0.822   4.463 -2.6229  2.0585 -2.3052
 4017SOL     OW23509   2.629   3.472  13.302  0.3265  0.4587  0.0447
 4017SOL    HW123510   2.716   3.487  13.265  0.1378  0.9799 -0.1802
 4017SOL    HW223511   2.575   3.550  13.290 -1.0976 -0.4617  0.4648
 4018SOL     OW23512   3.275   0.966   8.374 -0.8242 -0.1766  0.3264
 4018SOL    HW123513   3.226   0.901   8.425 -3.5942 -0.4117 -2.6485
 4018SOL    HW223514   3.325   0.902   8.323 -0.6547 -1.2767  1.8515
 4019SOL     OW23515   2.531   2.249   3.589 -0.5260  0.4983 -0.2062
 4019SOL    HW123516   2.436   2.260   3.594 -0.7352 -0.9492 -0.7819
 4019SOL    HW223517   2.561   2.317   3.529  0.1505 -0.7155 -1.2664
 4020SOL     OW23518   1.337   3.137   4.755  0.1482 -0.2070 -0.0366
 4020SOL    HW123519   1.281   3.214   4.765  0.8526  0.3017  0.0054
 4020SOL    HW223520   1.425   3.171   4.741 -0.5674  1.8325  0.3713
 4021SOL     OW23521   1.077   3.657   6.728  0.6493 -0.1222 -0.0869
 4021SOL    HW123522   1.120   3.743   6.727  0.2047  0.1181  2.2292
 4021SOL    HW223523   1.037   3.650   6.814  0.0651  1.4236 -0.2334
 4022SOL     OW23524   4.140   1.740  14.270  0.1834 -0.4785  0.1968
 4022SOL    HW123525   4.121   1.783  14.187  0.1900 -0.0580  0.4092
 4022SOL    HW223526   4.227   1.781  14.273  1.3424 -3.0062  1.4384
 4023SOL     OW23527   0.844   3.467   9.099 -0.2926  0.1900 -0.0392
 4023SOL    HW123528   0.852   3.562   9.089 -1.3855  0.6077  2.8895
 4023SOL    HW223529   0.938   3.448   9.099 -0.1123  1.0580  1.8487
 4024SOL     OW23530   1.351   2.366   8.338 -0.2113 -0.2113 -0.7035
 4024SOL    HW123531   1.259   2.372   8.312 -0.2996 -0.6583 -0.4943
 4024SOL    HW223532   1.373   2.303   8.269  2.5929 -0.8654  0.7699
 4025SOL     OW23533   4.429   1.620   8.767 -0.4077  0.0293  0.2015
 4025SOL    HW123534   4.488   1.547   8.747 -0.5063 -0.3282  1.1725
 4025SOL    HW223535   4.352   1.572   8.798 -0.7090  0.1811 -0.3209
 4026SOL     OW23536   3.491   2.024  14.336  0.2284 -0.2181 -0.3366
 4026SOL    HW123537   3.411   2.076  14.341  3.0229  4.0671  0.1276
 4026SOL    HW223538   3.501   2.019  14.241  0.4684 -0.4528 -0.2976
 4027SOL     OW23539   4.164   0.841   8.969  0.0414 -0.8707  0.0635
 4027SOL    HW123540   4.119   0.921   8.944  0.8260 -0.3984  0.1503
 4027SOL    HW223541   4.091   0.780   8.979 -0.0263 -1.1386 -1.9686
 4028SOL     OW23542   1.506   1.072   8.382 -0.2738 -0.8740  0.1248
 4028SOL    HW123543   1.436   1.020   8.344 -1.5664  0.2370  0.9716
 4028SOL    HW223544   1.499   1.047   8.474  0.5653 -2.3418 -0.2279
 4029SOL     OW23545   0.247   3.849  16.916 -0.0725 -0.0043  0.0907
 4029SOL    HW123546   0.199   3.841  16.998 -0.0151 -2.4319 -0.1351
 4029SOL    HW223547   0.315   3.910  16.946 -1.9818  1.4680  1.4232
 4030SOL     OW23548   0.573   4.038  10.600  0.3220 -0.1258  0.0698
 4030SOL    HW123549   0.489   4.051  10.644  0.3463 -1.5955  0.5616
 4030SOL    HW223550   0.592   3.945  10.588  0.0704 -0.4356  2.0815
 4031SOL     OW23551   4.137   0.389   2.597 -0.1895 -0.0775  0.3998
 4031SOL    HW123552   4.155   0.350   2.512 -3.5050  0.2346 -0.4427
 4031SOL    HW223553   4.042   0.379   2.591 -0.1325 -1.1361  1.1692
 4032SOL     OW23554   2.158   3.266   2.684 -0.5076 -0.3731  0.4499
 4032SOL    HW123555   2.249   3.285   2.664  0.2680 -2.4879  1.9625
 4032SOL    HW223556   2.161   3.174   2.659  0.7219 -0.2296  0.0875
 4033SOL     OW23557   1.236   2.571   3.845  0.5722  0.7030  0.0478
 4033SOL    HW123558   1.240   2.481   3.815  0.9719  0.7235  0.0418
 4033SOL    HW223559   1.143   2.580   3.868  0.2849  0.7881 -1.1597
 4034SOL     OW23560   2.240   3.581   4.147 -0.0118 -0.0747  0.1215
 4034SOL    HW123561   2.235   3.671   4.116 -0.0053 -0.4392 -0.9446
 4034SOL    HW223562   2.176   3.575   4.218 -2.0968  4.1421 -1.4125
 4035SOL     OW23563   4.397   1.518   4.336  0.1213 -0.4942  0.2842
 4035SOL    HW123564   4.352   1.445   4.378  1.2830 -2.0456 -1.1800
 4035SOL    HW223565   4.352   1.585   4.387 -0.3391  1.2790 -2.4413
 4036SOL     OW23566   0.974   2.216  16.401  0.1939  0.2423 -0.0565
 4036SOL    HW123567   0.929   2.133  16.416 -0.8561  1.1282  1.7129
 4036SOL    HW223568   1.065   2.188  16.412  0.5588  0.7101 -1.9958
 4037SOL     OW23569   0.691   1.902   8.380  0.5499 -0.0039 -0.4723
 4037SOL    HW123570   0.710   1.837   8.313 -1.9721 -0.0243 -1.1755
 4037SOL    HW223571   0.610   1.872   8.423  0.5440  0.2315 -0.3178
 4038SOL     OW23572   3.390   2.946   3.051 -0.6245  0.6875 -0.1687
 4038SOL    HW123573   3.305   2.902   3.042 -0.6354  0.2407  2.2034
 4038SOL    HW223574   3.427   2.886   3.115 -1.6912 -0.4507 -0.6193
 4039SOL     OW23575   1.960   2.128   9.395  0.0762  0.4157  0.2661
 4039SOL    HW123576   2.051   2.157   9.386  0.0123  0.6747  0.4587
 4039SOL    HW223577   1.914   2.137   9.311  0.5246 -1.6131 -0.2012
 4040SOL     OW23578   4.608   1.087   4.008 -0.0876  0.0393  0.4136
 4040SOL    HW123579   4.577   1.164   3.959  2.0966 -0.8186 -2.3778
 4040SOL    HW223580   4.665   1.122   4.076 -0.7052  3.5102 -0.8084
 4041SOL     OW23581   3.618   4.273  11.759  0.0276 -0.1697 -0.7153
 4041SOL    HW123582   3.548   4.284  11.824 -0.8492  0.2029 -1.7126
 4041SOL    HW223583   3.700   4.270  11.808 -0.6924 -0.0633  0.4935
 4042SOL     OW23584   3.020   2.665   7.175  0.2999  0.6571  0.1609
 4042SOL    HW123585   3.033   2.660   7.080 -0.6342  0.7457  0.0248
 4042SOL    HW223586   2.953   2.733   7.179 -0.2425  0.2407 -1.4484
 4043SOL     OW23587   3.223   0.023   4.410 -0.2154  0.2025  0.0435
 4043SOL    HW123588   3.229   0.093   4.474  1.5110  1.5287 -1.5569
 4043SOL    HW223589   3.168   0.073   4.349  1.6735  1.6367 -0.4935
 4044SOL     OW23590   2.732   3.770   8.323 -0.3738 -0.3208  0.5953
 4044SOL    HW123591   2.792   3.699   8.344  0.7280  0.3456 -0.3447
 4044SOL    HW223592   2.757   3.801   8.236  1.9152  0.9268  1.6851
 4045SOL     OW23593   1.127   1.133   9.417  0.4021 -0.0569 -0.2188
 4045SOL    HW123594   1.154   1.195   9.485 -2.8028  0.6405  0.4271
 4045SOL    HW223595   1.209   1.100   9.380  1.8481  0.5303  2.4154
 4046SOL     OW23596   1.597   0.608   6.634  0.4396 -0.3892 -0.3228
 4046SOL    HW123597   1.558   0.683   6.679  1.1448 -0.2128 -0.0048
 4046SOL    HW223598   1.524   0.558   6.599  0.1022  0.0583 -0.2495
 4047SOL     OW23599   1.218   1.111  12.335  0.2596  0.8008  0.1928
 4047SOL    HW123600   1.226   1.148  12.423 -0.8890  2.0208 -0.2131
 4047SOL    HW223601   1.228   1.016  12.348 -1.0239  0.7296  0.6385
 4048SOL     OW23602   0.999   2.169   7.535 -0.2639  0.0921  0.0465
 4048SOL    HW123603   0.933   2.137   7.474 -1.3440  0.4689  1.0136
 4048SOL    HW223604   1.082   2.128   7.512  0.5579  3.1628 -2.4467
 4049SOL     OW23605   2.239   4.185   5.232  0.0085  0.6215 -0.2413
 4049SOL    HW123606   2.231   4.239   5.311  1.9589  0.9105 -0.2417
 4049SOL    HW223607   2.180   4.111   5.249  1.3749 -1.0673 -2.8851
 4050SOL     OW23608   4.532   0.027   3.150  0.2518  0.8048 -0.0960
 4050SOL    HW123609   4.468   0.094   3.176 -2.1114 -0.7401 -2.0316
 4050SOL    HW223610   4.525   0.045   3.056  0.1043 -0.9481 -0.4143
 4051SOL     OW23611   0.105   2.971   3.713 -0.0702  0.1762  0.1824
 4051SOL    HW123612   0.174   2.911   3.744 -0.6738  0.7109  2.5726
 4051SOL    HW223613   0.106   2.949   3.620 -0.2769  2.8992 -0.4630
 4052SOL     OW23614   1.989   3.531   3.443 -0.3487  0.5684  0.0045
 4052SOL    HW123615   1.910   3.477   3.439 -1.2619  1.7687  2.1615
 4052SOL    HW223616   1.992   3.562   3.533 -1.8653 -0.9036  0.5582
 4053SOL     OW23617   1.078   2.946   9.794  0.3987 -0.1387  0.4083
 4053SOL    HW123618   1.026   2.869   9.770 -0.6620  0.6279  0.2541
 4053SOL    HW223619   1.133   2.905   9.861 -0.6940 -1.9398  0.1972
 4054SOL     OW23620   1.213   0.601   0.674 -0.0052 -0.4049  0.1472
 4054SOL    HW123621   1.249   0.638   0.755  0.2550 -1.0873  0.3398
 4054SOL    HW223622   1.201   0.507   0.683 -1.4590 -0.3161 -0.8917
 4055SOL     OW23623   1.858   2.742   8.282  0.5448  0.4284  0.2594
 4055SOL    HW123624   1.889   2.702   8.363  1.1855  0.1442 -0.1182
 4055SOL    HW223625   1.848   2.665   8.227 -1.1545 -0.2039  1.5006
 4056SOL     OW23626   2.205   3.339  11.555  0.2604 -0.1965 -0.2603
 4056SOL    HW123627   2.273   3.383  11.504 -0.8484 -0.2335 -1.7629
 4056SOL    HW223628   2.243   3.368  11.638  0.4461  0.9627 -0.7456
 4057SOL     OW23629   0.752   4.210   9.664 -0.3333 -0.7351  0.5066
 4057SOL    HW123630   0.678   4.265   9.638  2.3888  1.6976 -2.1182
 4057SOL    HW223631   0.742   4.208   9.759  0.7681 -1.8674  0.5865
 4058SOL     OW23632   3.698   3.819  16.843  0.3624 -0.3427 -0.1716
 4058SOL    HW123633   3.733   3.731  16.851 -0.3000 -0.7151 -1.2925
 4058SOL    HW223634   3.780   3.853  16.809  0.6291  0.1415  0.9674
 4059SOL     OW23635   1.709   2.420   0.446 -0.3280  0.4099 -0.8000
 4059SOL    HW123636   1.794   2.433   0.489 -0.1011 -0.4327 -0.9964
 4059SOL    HW223637   1.710   2.324   0.441 -1.4903  0.4207 -1.2252
 4060SOL     OW23638   4.711   4.684   9.416 -0.8348  0.5102  0.5109
 4060SOL    HW123639   4.636   4.627   9.432  0.7814 -2.1435 -1.3037
 4060SOL    HW223640   4.678   0.050   9.407 -0.0677  0.4190 -3.5195
 4061SOL     OW23641   1.340   1.010   3.992 -0.1574  0.0704 -0.7148
 4061SOL    HW123642   1.421   1.032   3.946 -0.0557  0.8243 -0.1759
 4061SOL    HW223643   1.371   0.965   4.070 -0.1666  0.3867 -0.5277
 4062SOL     OW23644   0.840   4.470  12.224  0.3531  0.5090 -0.1260
 4062SOL    HW123645   0.796   4.386  12.211  3.3356 -1.3425  1.7683
 4062SOL    HW223646   0.813   4.498  12.312 -1.2345 -0.5855 -0.2607
 4063SOL     OW23647   4.441   4.485  13.422 -0.4676 -0.4172  0.3905
 4063SOL    HW123648   4.443   4.559  13.361 -0.7325  0.6795  1.7273
 4063SOL    HW223649   4.533   4.487  13.446 -0.2498 -0.5477 -0.4344
 4064SOL     OW23650   2.331   4.024   9.518  0.6221 -0.3218  0.2281
 4064SOL    HW123651   2.242   4.037   9.486  0.7841 -0.1198 -0.1326
 4064SOL    HW223652   2.368   4.112   9.509  0.0392 -0.2475 -1.3749
 4065SOL     OW23653   1.089   1.757   5.339 -0.1128 -0.1353  0.1830
 4065SOL    HW123654   1.175   1.723   5.362  0.4112  2.6342  2.3968
 4065SOL    HW223655   1.100   1.773   5.246  0.4268  1.4411  0.5129
 4066SOL     OW23656   4.551   1.487   3.029 -0.3050  0.5697 -0.6648
 4066SOL    HW123657   4.499   1.408   3.044 -0.4511  0.7506 -0.2146
 4066SOL    HW223658   4.491   1.561   3.034 -1.9363 -0.8559  1.2197
 4067SOL     OW23659   4.547   3.916   2.489 -0.3427 -0.1388  0.2014
 4067SOL    HW123660   4.511   4.003   2.472  0.4466  0.4637  1.5552
 4067SOL    HW223661   4.628   3.937   2.537  0.6509  0.7046 -1.8470
 4068SOL     OW23662   0.972   2.114   8.768 -0.0704 -0.1367 -0.0893
 4068SOL    HW123663   0.908   2.044   8.762 -1.2077  0.9651 -0.6974
 4068SOL    HW223664   1.003   2.123   8.677 -1.4818 -1.9236 -0.7315
 4069SOL     OW23665   2.050   3.246   5.059  0.0175 -0.1800 -0.8184
 4069SOL    HW123666   2.113   3.213   5.122  0.6965 -0.1855 -1.5035
 4069SOL    HW223667   2.062   3.336   5.088  1.2842 -0.2652 -1.0733
 4070SOL     OW23668   4.298   3.639   0.177 -0.4835 -0.2642  0.2703
 4070SOL    HW123669   4.322   3.593   0.257 -0.9282 -0.2746  0.4014
 4070SOL    HW223670   4.242   3.709   0.211  0.9446  1.0935 -0.1972
 4071SOL     OW23671   2.478   0.803  16.049  0.2491 -0.0007 -0.2718
 4071SOL    HW123672   2.485   0.846  15.963 -2.4953  0.6545 -0.1876
 4071SOL    HW223673   2.390   0.769  16.035 -0.6218  1.3559  1.9197
 4072SOL     OW23674   3.144   4.180   9.145 -0.3527 -0.1230  0.0422
 4072SOL    HW123675   3.205   4.113   9.176  0.0870  1.3949  2.3892
 4072SOL    HW223676   3.065   4.141   9.184 -0.4556 -0.0911 -0.1353
 4073SOL     OW23677   1.768   2.983   2.769  0.3506 -0.0424 -0.1054
 4073SOL    HW123678   1.804   2.938   2.693  1.4829  2.2474 -0.9386
 4073SOL    HW223679   1.838   2.965   2.832  2.1022  0.0405 -2.0132
 4074SOL     OW23680   0.196   1.075   7.679  0.8548  0.7469 -0.1286
 4074SOL    HW123681   0.223   1.110   7.593  1.8154  1.3632  0.4206
 4074SOL    HW223682   0.254   1.001   7.663  0.9034  0.5040  1.2484
 4075SOL     OW23683   0.040   2.557  14.372 -0.4261 -0.3760  0.1242
 4075SOL    HW123684   0.060   2.464  14.371  1.6927  0.0811 -0.4108
 4075SOL    HW223685   0.010   2.563  14.281  1.5763  0.3636 -0.4878
 4076SOL     OW23686   2.067   2.080   5.399  0.2286  0.2052 -0.1515
 4076SOL    HW123687   2.050   2.080   5.305  3.0824 -0.8374 -0.6774
 4076SOL    HW223688   2.149   2.031   5.397 -0.6018 -1.1330 -1.2073
 4077SOL     OW23689   2.010   1.525  17.663  0.1750  0.1563  0.6461
 4077SOL    HW123690   2.028   1.433  17.683  2.3624  0.8198  1.7590
 4077SOL    HW223691   2.066   1.559   0.037 -0.4981  1.2033  0.6680
 4078SOL     OW23692   1.810   1.163   8.531  0.4299  0.1756 -0.1547
 4078SOL    HW123693   1.879   1.131   8.590 -0.2378 -1.3624 -0.2024
 4078SOL    HW223694   1.854   1.149   8.447 -2.1481  2.1306 -1.8038
 4079SOL     OW23695   2.700   4.412   1.083  0.2089  0.7944 -0.0186
 4079SOL    HW123696   2.694   4.503   1.113 -0.1311  0.4565  0.9327
 4079SOL    HW223697   2.628   4.374   1.134  0.7916 -0.4479 -0.1057
 4080SOL     OW23698   2.765   3.910   7.795  0.1099 -0.8119 -0.0957
 4080SOL    HW123699   2.698   3.849   7.828  0.1631 -0.7691  0.0924
 4080SOL    HW223700   2.713   3.947   7.724  1.8008  0.8754 -0.4324
 4081SOL     OW23701   2.883   1.476   7.730  0.3920 -0.4993  0.3493
 4081SOL    HW123702   2.914   1.491   7.820 -0.2285  1.0771  0.3069
 4081SOL    HW223703   2.917   1.553   7.684  0.4598 -1.5734 -1.3816
 4082SOL     OW23704   1.694   2.045   3.908  0.1928  0.1062 -0.2942
 4082SOL    HW123705   1.616   2.007   3.949 -0.3364  1.8653  0.3032
 4082SOL    HW223706   1.724   1.968   3.859 -1.2133  0.3593 -1.5643
 4083SOL     OW23707   0.443   2.082   6.034  0.3136 -0.7011  0.3530
 4083SOL    HW123708   0.390   2.092   5.955 -2.2190  1.8221  2.3683
 4083SOL    HW223709   0.389   2.118   6.104 -1.2636  0.0551 -1.2592
 4084SOL     OW23710   2.415   3.440  15.039 -0.3789 -0.1006 -0.4313
 4084SOL    HW123711   2.498   3.394  15.027 -0.6281 -1.0027  1.3124
 4084SOL    HW223712   2.432   3.508  14.974  0.5923  1.7588  1.7948
 4085SOL     OW23713   2.556   3.694   5.957 -0.2617 -0.2250 -0.1440
 4085SOL    HW123714   2.462   3.684   5.974 -0.1447  0.5904  0.9464
 4085SOL    HW223715   2.550   3.729   5.868  1.5038 -0.8980 -0.5325
 4086SOL     OW23716   1.098   3.064   7.503 -0.1772  0.0252  0.1464
 4086SOL    HW123717   1.156   3.099   7.435  1.5053 -2.0449  0.5268
 4086SOL    HW223718   1.120   3.125   7.574  0.8537 -0.8249  0.5510
 4087SOL     OW23719   3.226   3.503   6.460  0.6019 -0.4149  0.0843
 4087SOL    HW123720   3.143   3.458   6.472  0.1907  0.8659  2.1314
 4087SOL    HW223721   3.286   3.429   6.448  0.0528 -0.8098 -0.2079
 4088SOL     OW23722   2.264   3.838   7.712  0.2063  0.2645  0.1436
 4088SOL    HW123723   2.215   3.916   7.685 -0.8567 -1.9768 -4.4791
 4088SOL    HW223724   2.260   3.856   7.806 -0.0739 -0.2979  0.2363
 4089SOL     OW23725   4.665   4.002   8.137  0.0290  0.6467  0.2418
 4089SOL    HW123726   4.672   3.917   8.094 -3.1791  0.8037 -0.6150
 4089SOL    HW223727   4.716   4.049   8.071  0.1759 -0.2251 -0.2611
 4090SOL     OW23728   3.665   3.347   0.431 -0.2734 -0.0395 -0.2045
 4090SOL    HW123729   3.739   3.288   0.445 -0.3129 -0.3725 -1.3865
 4090SOL    HW223730   3.596   3.282   0.445  0.4039 -0.9441 -1.0598
 4091SOL     OW23731   3.513   0.682   5.141  0.4615 -0.2082  0.0360
 4091SOL    HW123732   3.581   0.654   5.079 -0.8867  0.8373 -1.8942
 4091SOL    HW223733   3.450   0.724   5.083  1.2783  0.7194 -0.1915
 4092SOL     OW23734   1.293   0.600   0.397  0.2998 -0.2823  0.0534
 4092SOL    HW123735   1.258   0.683   0.365 -0.8650 -0.3335  1.1711
 4092SOL    HW223736   1.266   0.612   0.488  0.2424  0.9319 -0.1266
 4093SOL     OW23737   4.566   0.533  15.281  0.1133  0.7839 -0.2083
 4093SOL    HW123738   4.475   0.520  15.306  0.1245 -0.8911 -1.0943
 4093SOL    HW223739   4.548   0.589  15.206 -2.2113 -1.3590 -1.2535
 4094SOL     OW23740   2.811   0.311  13.043  0.0671 -0.5519  0.0427
 4094SOL    HW123741   2.747   0.359  12.990 -0.4612  0.8044  1.8997
 4094SOL    HW223742   2.877   0.379  13.053  0.0643 -0.2249 -2.0667
 4095SOL     OW23743   4.437   0.392   3.209 -0.0905  0.3358  0.2919
 4095SOL    HW123744   4.348   0.375   3.238 -0.1088 -0.1240 -0.0136
 4095SOL    HW223745   4.435   0.452   3.135  0.2352 -1.4294 -1.1673
 4096SOL     OW23746   3.349   4.148   8.090  0.0177 -0.1583  0.0944
 4096SOL    HW123747   3.351   4.210   8.162 -1.3007  0.0218 -0.0141
 4096SOL    HW223748   3.299   4.199   8.026  2.0782  0.3227 -1.1256
 4097SOL     OW23749   4.203   1.294  11.571  0.1309  0.0599  0.6127
 4097SOL    HW123750   4.185   1.259  11.658 -0.8754  1.5568  1.0138
 4097SOL    HW223751   4.281   1.347  11.585 -0.0528  0.4616  0.1226
 4098SOL     OW23752   3.543   0.175   4.329 -0.0029 -0.1779 -0.7442
 4098SOL    HW123753   3.501   0.099   4.289  0.3500 -0.2147 -1.0433
 4098SOL    HW223754   3.518   0.237   4.262 -0.4728  0.2574 -0.1673
 4099SOL     OW23755   2.442   4.214   2.959 -0.7477 -0.0868  0.4277
 4099SOL    HW123756   2.456   4.128   2.919 -3.7568 -0.8751  1.0985
 4099SOL    HW223757   2.357   4.237   2.921 -1.3516 -3.9670 -0.5998
 4100SOL     OW23758   0.265   4.670  14.835  0.3314  0.3112  0.1864
 4100SOL    HW123759   0.360   4.665  14.845  0.2527 -0.0025  0.7407
 4100SOL    HW223760   0.241   4.613  14.907 -2.4218  2.2120  0.7384
 4101SOL     OW23761   1.077   3.932   5.414 -0.8431 -0.2584 -0.1068
 4101SOL    HW123762   1.021   3.957   5.488  0.3822  0.0182  0.7328
 4101SOL    HW223763   1.016   3.917   5.342 -1.7278  2.4724  0.0787
 4102SOL     OW23764   3.176   3.519   2.318  0.0135 -0.3598  0.1732
 4102SOL    HW123765   3.178   3.453   2.387 -1.2854 -2.9219 -2.2013
 4102SOL    HW223766   3.267   3.547   2.324 -0.6377  1.8558 -0.1679
 4103SOL     OW23767   2.648   0.588   0.093 -0.1020 -0.3239  0.1612
 4103SOL    HW123768   2.563   0.624   0.066  0.4445  1.3362  0.6803
 4103SOL    HW223769   2.704   0.661   0.066 -1.3269  0.4786 -0.2216
 4104SOL     OW23770   0.020   3.055  14.323 -0.8049 -0.0716  0.0741
 4104SOL    HW123771   0.067   3.050  14.406 -2.1848  0.9178  0.9205
 4104SOL    HW223772   0.004   3.149  14.309  3.2413  0.2383 -2.1515
 4105SOL     OW23773   0.502   2.583   7.542 -0.1485  0.2915 -0.0010
 4105SOL    HW123774   0.462   2.639   7.608 -2.6233 -0.3301 -0.9866
 4105SOL    HW223775   0.562   2.522   7.585  1.2567  1.2708 -0.5777
 4106SOL     OW23776   3.695   0.420   6.132 -0.1341 -0.3270  0.2906
 4106SOL    HW123777   3.651   0.337   6.114 -0.4545  0.1686 -1.1888
 4106SOL    HW223778   3.740   0.387   6.210 -1.0693  0.5271  1.1929
 4107SOL     OW23779   2.348   0.832   6.440 -0.0694 -0.0012  0.0749
 4107SOL    HW123780   2.355   0.816   6.346 -0.4780  1.4189 -0.1990
 4107SOL    HW223781   2.266   0.881   6.447 -0.2769 -0.4420  0.7856
 4108SOL     OW23782   0.282   1.754   0.848 -0.3292 -0.0039  0.0391
 4108SOL    HW123783   0.302   1.687   0.783  1.9235 -1.3435  2.1112
 4108SOL    HW223784   0.321   1.714   0.925 -1.5846 -0.5495  0.3874
 4109SOL     OW23785   3.340   3.164  10.808 -0.5440 -0.4169  0.2941
 4109SOL    HW123786   3.252   3.129  10.813 -0.4077 -0.6140  1.2356
 4109SOL    HW223787   3.336   3.228  10.736  2.9340 -0.7096 -0.1934
 4110SOL     OW23788   0.192   4.304   7.250  0.1878 -0.2650 -0.0894
 4110SOL    HW123789   0.271   4.348   7.217 -0.8248  0.6644 -1.2451
 4110SOL    HW223790   0.180   4.354   7.331  1.7224 -0.7957  0.4734
 4111SOL     OW23791   1.275   4.037   6.988 -0.1187 -0.4102 -0.2006
 4111SOL    HW123792   1.246   4.127   7.004  2.8394  0.6533 -0.7399
 4111SOL    HW223793   1.361   4.053   6.950 -0.1583 -1.0156 -0.5407
 4112SOL     OW23794   3.710   4.323   4.704 -0.4843  0.2758 -0.5298
 4112SOL    HW123795   3.750   4.254   4.756  0.2682  0.3323 -1.0434
 4112SOL    HW223796   3.616   4.315   4.723 -0.4198 -0.7950 -0.6652
 4113SOL     OW23797   0.636   2.318   6.680  0.5209 -0.2308 -0.1622
 4113SOL    HW123798   0.541   2.315   6.674  0.3845  3.6248 -0.4325
 4113SOL    HW223799   0.660   2.389   6.620  1.0819  0.5170  0.9361
 4114SOL     OW23800   3.961   1.107   6.712  0.3496 -0.4234  0.9020
 4114SOL    HW123801   3.893   1.111   6.779  0.6484  0.7873  1.1387
 4114SOL    HW223802   4.032   1.163   6.744  2.7494 -3.1203  0.3804
 4115SOL     OW23803   3.949   2.651   6.220  0.3133 -0.3666 -0.4102
 4115SOL    HW123804   3.873   2.615   6.264 -0.3753  1.1735 -0.3522
 4115SOL    HW223805   4.019   2.618   6.277 -0.1223  0.8665  0.8298
 4116SOL     OW23806   1.265   3.467   3.161 -0.0097 -0.0109  0.3323
 4116SOL    HW123807   1.332   3.443   3.097 -2.3034 -1.6868 -1.4718
 4116SOL    HW223808   1.215   3.532   3.112  1.0854  0.4048 -0.2419
 4117SOL     OW23809   1.970   0.263   3.956 -0.2908  0.1063 -0.3841
 4117SOL    HW123810   1.952   0.269   3.863 -0.0848 -2.2834 -0.5675
 4117SOL    HW223811   1.913   0.336   3.981 -0.9180 -0.8412  1.0059
 4118SOL     OW23812   0.424   0.934   6.806  0.2422 -0.7767  0.1799
 4118SOL    HW123813   0.395   0.965   6.720 -0.8082  1.0179  1.1787
 4118SOL    HW223814   0.349   0.877   6.824  0.3012 -1.6534 -2.4345
 4119SOL     OW23815   2.443   1.487   8.317 -0.2978  0.3351 -0.3468
 4119SOL    HW123816   2.388   1.511   8.243  1.6616 -1.5789 -2.4249
 4119SOL    HW223817   2.515   1.551   8.318  0.8446 -0.9405 -0.0035
 4120SOL     OW23818   2.671   3.278   7.321  0.2097  0.0007 -0.1801
 4120SOL    HW123819   2.739   3.294   7.386 -0.2486 -1.2830  0.6166
 4120SOL    HW223820   2.661   3.365   7.282  1.1509  0.2155  0.0629
 4121SOL     OW23821   0.344   2.133  11.627  0.1434 -0.4093 -0.1934
 4121SOL    HW123822   0.257   2.138  11.667  0.4797 -0.2515  0.5168
 4121SOL    HW223823   0.349   2.212  11.572 -1.5413 -0.7231 -0.8058
 4122SOL     OW23824   0.459   1.977   4.912 -0.3178 -0.4143 -0.5738
 4122SOL    HW123825   0.464   2.068   4.883  1.6698 -0.7513 -1.2482
 4122SOL    HW223826   0.369   1.977   4.945 -0.9707  0.3694 -2.3635
 4123SOL     OW23827   4.316   0.827   6.380  0.2539 -0.0177 -0.0581
 4123SOL    HW123828   4.402   0.784   6.378  0.0505 -0.2899 -2.8581
 4123SOL    HW223829   4.253   0.755   6.383  1.6002 -1.1084  1.8431
 4124SOL     OW23830   0.834   1.468   4.353 -0.6829 -0.1424 -0.2086
 4124SOL    HW123831   0.866   1.551   4.319  1.4433 -1.3688 -1.2538
 4124SOL    HW223832   0.896   1.399   4.329 -0.7374 -0.3827  0.3367
 4125SOL     OW23833   4.408   2.103  13.747  0.3129  0.3560  0.1078
 4125SOL    HW123834   4.465   2.176  13.723 -2.2874  1.9870 -1.1817
 4125SOL    HW223835   4.435   2.051  13.672  2.3041  0.8141  0.5007
 4126SOL     OW23836   1.597   3.533   5.151 -0.8570 -0.0381  0.0104
 4126SOL    HW123837   1.640   3.614   5.176  0.9860 -1.3570  1.1457
 4126SOL    HW223838   1.590   3.497   5.240 -0.1137 -0.7265 -0.2105
 4127SOL     OW23839   3.379   4.721   3.828  0.7395 -0.0050  0.3005
 4127SOL    HW123840   3.443   0.053   3.873 -0.0416  0.3455  0.9739
 4127SOL    HW223841   3.392   4.640   3.879  3.0874 -0.8311 -1.6188
 4128SOL     OW23842   3.986   2.537   8.313  0.0676 -0.0526  0.0889
 4128SOL    HW123843   3.930   2.515   8.239  0.3150 -0.6275  0.0704
 4128SOL    HW223844   4.001   2.630   8.297  0.8170 -0.3184 -0.8010
 4129SOL     OW23845   0.978   0.549   6.329 -0.0502 -0.3632 -0.1771
 4129SOL    HW123846   1.002   0.467   6.285 -0.1140  0.1209 -1.1187
 4129SOL    HW223847   0.906   0.520   6.384  0.3536  0.5403  0.8262
 4130SOL     OW23848   1.762   1.473   6.540  0.1156  0.2301 -0.2425
 4130SOL    HW123849   1.809   1.484   6.623 -2.5374 -1.5883  1.4813
 4130SOL    HW223850   1.833   1.456   6.478 -2.2081 -0.0913 -2.7815
 4131SOL     OW23851   1.197   3.167   5.563  0.4036  0.2902  0.3005
 4131SOL    HW123852   1.233   3.254   5.546  2.4674 -0.2975  1.5673
 4131SOL    HW223853   1.277   3.114   5.563  0.0687 -0.2206  1.3137
 4132SOL     OW23854   2.856   0.630  17.430 -0.7773  0.5708 -0.0937
 4132SOL    HW123855   2.855   0.712  17.480  1.8101  0.0062  0.9263
 4132SOL    HW223856   2.933   0.588  17.469 -0.3694  0.7204 -0.7439
 4133SOL     OW23857   1.537   3.180   1.871 -0.0402  0.1951 -0.1693
 4133SOL    HW123858   1.604   3.248   1.862 -1.3267  1.3474 -1.2586
 4133SOL    HW223859   1.514   3.166   1.780  0.9378  0.3638 -0.4434
 4134SOL     OW23860   3.087   0.128  10.955 -0.7893 -0.5768 -0.3911
 4134SOL    HW123861   3.013   0.151  11.012 -0.7504 -0.6345 -0.3169
 4134SOL    HW223862   3.076   0.204  10.899  2.6881  0.0401 -0.2397
 4135SOL     OW23863   0.252   4.176  14.291 -0.0607  0.3209  0.5444
 4135SOL    HW123864   0.244   4.093  14.339 -0.3049  1.5858  2.6414
 4135SOL    HW223865   0.216   4.235  14.356 -2.7940  0.6780 -1.2827
 4136SOL     OW23866   2.500   0.477   8.821 -0.0097 -0.3629 -0.2131
 4136SOL    HW123867   2.539   0.399   8.781  1.8754  0.7483 -0.5063
 4136SOL    HW223868   2.479   0.535   8.748  1.7866  1.5681  0.8114
 4137SOL     OW23869   4.248   2.888   5.508  0.6593  0.1525  0.5522
 4137SOL    HW123870   4.244   2.913   5.600 -0.2338  1.8798  0.0413
 4137SOL    HW223871   4.340   2.891   5.481  1.4079 -0.5277  3.0740
 4138SOL     OW23872   1.242   1.188   5.878 -0.0236  0.1688 -0.2405
 4138SOL    HW123873   1.159   1.210   5.837 -0.3665 -0.1756  0.2679
 4138SOL    HW223874   1.266   1.274   5.912 -1.7342  0.5072  0.0967
 4139SOL     OW23875   4.063   2.757   9.441  0.0052 -0.0011  0.0349
 4139SOL    HW123876   3.985   2.763   9.496 -0.0443  0.7932 -0.1224
 4139SOL    HW223877   4.136   2.720   9.490 -0.7240 -0.0115  1.1101
 4140SOL     OW23878   3.985   1.510   2.509  0.1699  0.0708  0.4542
 4140SOL    HW123879   3.969   1.423   2.473 -0.7716 -0.9190  3.3358
 4140SOL    HW223880   4.078   1.501   2.528  0.1632 -0.9516 -0.0233
 4141SOL     OW23881   2.240   3.187   8.001 -0.1163  0.2373 -0.5009
 4141SOL    HW123882   2.257   3.244   8.076 -1.3197  0.1248 -0.1442
 4141SOL    HW223883   2.163   3.138   8.028 -2.3386  2.9545 -1.8269
 4142SOL     OW23884   1.226   2.439   7.051  0.1229  0.2908  0.3610
 4142SOL    HW123885   1.223   2.425   7.146 -4.6364  0.7694  0.2655
 4142SOL    HW223886   1.255   2.358   7.009 -1.7952  1.4091 -3.1010
 4143SOL     OW23887   1.968   2.828   9.336  0.3108 -0.0500 -0.0634
 4143SOL    HW123888   1.878   2.832   9.304  0.3533  1.9106  0.0289
 4143SOL    HW223889   2.005   2.761   9.278  2.2913  0.1643  0.9566
 4144SOL     OW23890   3.237   0.670   6.040 -0.2300 -0.1924 -0.0730
 4144SOL    HW123891   3.188   0.726   6.100  1.1596  1.0322 -0.0952
 4144SOL    HW223892   3.168   0.615   6.002 -0.9959 -0.1954  1.3385
 4145SOL     OW23893   4.066   0.542   1.965  0.3785  0.1521  0.3138
 4145SOL    HW123894   3.989   0.597   1.969 -0.4492 -1.2122  3.3310
 4145SOL    HW223895   4.046   0.485   2.040 -0.6691  0.5964  0.3625
 4146SOL     OW23896   0.661   0.745   6.738  0.2294  0.6965 -0.3700
 4146SOL    HW123897   0.591   0.794   6.781 -1.5808 -1.1446 -1.1795
 4146SOL    HW223898   0.644   0.754   6.644  1.7571  1.6825 -0.5449
 4147SOL     OW23899   1.426   2.298   2.291  0.1654 -0.7145 -0.2787
 4147SOL    HW123900   1.482   2.371   2.261  1.0700 -1.3114 -0.0579
 4147SOL    HW223901   1.338   2.333   2.283 -0.0866 -0.7317  2.6597
 4148SOL     OW23902   0.063   0.370   8.634  0.4186 -0.2585  1.0844
 4148SOL    HW123903   4.712   0.319   8.603  0.5029 -0.2172  0.8175
 4148SOL    HW223904   0.122   0.308   8.678  0.7532  0.5633  1.7849
 4149SOL     OW23905   0.098   3.391   5.742  0.0251 -0.4338 -0.2813
 4149SOL    HW123906   0.018   3.405   5.690 -0.1142 -0.4005 -0.0576
 4149SOL    HW223907   0.141   3.322   5.692  0.3035 -0.5161  0.0774
 4150SOL     OW23908   2.988   4.003   3.765  0.1269  0.6507  0.0879
 4150SOL    HW123909   2.995   4.015   3.860  0.5882  0.7469  0.0403
 4150SOL    HW223910   3.062   4.056   3.735  3.2230 -2.9552  1.3957
 4151SOL     OW23911   2.526   4.639   8.049  0.5237  0.0339 -0.1620
 4151SOL    HW123912   2.486   4.590   7.978  0.9860  0.1236 -0.4826
 4151SOL    HW223913   2.488   4.608   8.131  0.2818  1.1727  0.1545
 4152SOL     OW23914   2.567   3.469  11.146  0.3927  0.7488 -0.5994
 4152SOL    HW123915   2.638   3.533  11.155  0.2640  0.5263  2.0231
 4152SOL    HW223916   2.616   3.396  11.109 -2.1810 -0.8993 -0.7116
 4153SOL     OW23917   3.714   2.010   7.922  0.2312  0.4781 -0.3526
 4153SOL    HW123918   3.764   2.073   7.974 -0.1893 -1.8892  2.8644
 4153SOL    HW223919   3.713   1.940   7.987 -0.8158  0.9307  0.1173
 4154SOL     OW23920   2.174   4.042   8.937 -0.0747  0.0665  0.2033
 4154SOL    HW123921   2.265   4.042   8.968 -0.4509  2.5022  1.3076
 4154SOL    HW223922   2.135   4.026   9.023 -0.9309  0.8533 -0.0368
 4155SOL     OW23923   4.004   2.669   9.139  0.7087 -0.1809  0.3854
 4155SOL    HW123924   4.091   2.683   9.101  1.0337 -1.5192  0.6066
 4155SOL    HW223925   4.022   2.681   9.232  0.8425 -1.2208  0.4976
 4156SOL     OW23926   1.046   1.808   8.192  0.4298 -0.1346 -0.1410
 4156SOL    HW123927   1.116   1.862   8.227  0.2607  0.0726 -0.1240
 4156SOL    HW223928   1.010   1.871   8.129  1.9506 -0.7296 -1.5918
 4157SOL     OW23929   3.695   2.282   8.243  0.7976  0.5636  0.2264
 4157SOL    HW123930   3.680   2.276   8.337 -1.2366  0.6824 -0.0877
 4157SOL    HW223931   3.787   2.256   8.249  1.0626  1.0228 -1.8270
 4158SOL     OW23932   2.934   0.560   9.595 -0.2382  0.0336 -0.8624
 4158SOL    HW123933   3.016   0.521   9.563  0.1256  0.9965 -1.1250
 4158SOL    HW223934   2.952   0.577   9.687  0.4488 -2.1619 -0.5819
 4159SOL     OW23935   4.381   4.263   8.528 -0.0756  0.1654 -0.1348
 4159SOL    HW123936   4.402   4.174   8.502  2.4836  0.0391  2.3921
 4159SOL    HW223937   4.349   4.306   8.448  0.2341  1.4973  0.4601
 4160SOL     OW23938   4.247   1.130   8.457  0.7084 -0.2309  0.0897
 4160SOL    HW123939   4.294   1.193   8.403 -1.9228  0.0910 -1.8516
 4160SOL    HW223940   4.292   1.140   8.541  2.0356 -1.0155 -0.5315
 4161SOL     OW23941   3.383   0.248   5.291  0.2200  0.3054 -0.3861
 4161SOL    HW123942   3.316   0.194   5.333 -2.2974  2.9016 -1.0604
 4161SOL    HW223943   3.434   0.282   5.365 -3.3832 -1.9442  3.1508
 4162SOL     OW23944   1.957   4.231   7.937  0.0307  0.4523 -0.1352
 4162SOL    HW123945   1.907   4.307   7.965 -0.2456 -0.4433  1.8404
 4162SOL    HW223946   2.027   4.271   7.885  1.6915 -1.2958  0.7233
 4163SOL     OW23947   4.621   3.704   8.246 -0.1110  0.0227  0.1654
 4163SOL    HW123948   4.705   3.746   8.267 -0.6867  0.6575  1.1636
 4163SOL    HW223949   4.650   3.614   8.260 -1.5779 -0.6475 -1.0350
 4164SOL     OW23950   0.346   4.019   5.873  0.7582  0.1560 -0.6398
 4164SOL    HW123951   0.293   4.020   5.793 -0.7242  2.3401  0.3431
 4164SOL    HW223952   0.275   4.024   5.938  1.6975  0.1939  0.3901
 4165SOL     OW23953   1.338   2.732  17.271 -0.1087 -0.5654 -0.3160
 4165SOL    HW123954   1.402   2.799  17.247 -0.1891  0.0155  1.0767
 4165SOL    HW223955   1.396   2.656  17.272  0.4836 -0.1048  1.4877
 4166SOL     OW23956   3.965   3.031   2.076 -0.3440 -0.0202 -0.1902
 4166SOL    HW123957   4.002   3.029   1.988 -0.7605  1.5846 -0.4047
 4166SOL    HW223958   3.949   3.125   2.083 -0.9150 -0.2413  1.4001
 4167SOL     OW23959   3.154   0.632   7.384 -0.0604 -0.4025 -0.0708
 4167SOL    HW123960   3.242   0.594   7.391 -0.6943 -2.0416 -0.9189
 4167SOL    HW223961   3.169   0.717   7.425  1.7459 -0.3705 -0.7929
 4168SOL     OW23962   0.518   3.197  12.846  0.2014  1.3052  0.0841
 4168SOL    HW123963   0.561   3.114  12.827 -1.1594  0.9827 -1.6999
 4168SOL    HW223964   0.484   3.211  12.757 -0.7035  0.5603  0.3080
 4169SOL     OW23965   1.136   0.001   4.859  0.7339  0.2352  0.2900
 4169SOL    HW123966   1.199   0.010   4.788  0.5733  0.0198  0.1181
 4169SOL    HW223967   1.183   4.672   4.924 -0.9113 -1.9061 -0.2223
 4170SOL     OW23968   4.506   3.475  10.799 -0.3564  0.6229  0.2342
 4170SOL    HW123969   4.517   3.560  10.759 -1.2129  0.2112 -0.8680
 4170SOL    HW223970   4.447   3.504  10.869  0.3868  0.2135  1.0267
 4171SOL     OW23971   0.169   4.476   7.499  0.0626 -1.0093 -0.4076
 4171SOL    HW123972   0.104   4.536   7.534 -0.2526 -0.5062 -1.8888
 4171SOL    HW223973   0.247   4.529   7.482 -0.3867 -0.0752  0.4101
 4172SOL     OW23974   4.532   0.085   2.890 -0.1504  0.0603 -0.4540
 4172SOL    HW123975   4.601   0.145   2.861  0.3131 -1.2686 -2.0787
 4172SOL    HW223976   4.490   0.069   2.806 -1.3110 -0.1318  0.1593
 4173SOL     OW23977   3.989   3.513   4.237  0.1027 -0.0755 -0.0415
 4173SOL    HW123978   3.900   3.502   4.270 -0.5402  0.2366 -1.6834
 4173SOL    HW223979   4.030   3.458   4.304  0.9382 -0.9854 -1.2954
 4174SOL     OW23980   0.052   4.456   9.734 -0.3830  0.2166 -0.3523
 4174SOL    HW123981   0.061   4.377   9.680 -1.8293 -0.5695  0.5622
 4174SOL    HW223982   4.685   4.452   9.766 -0.0284  0.3252  0.6584
 4175SOL     OW23983   4.442   4.083   8.830 -0.3159 -0.1710  0.1489
 4175SOL    HW123984   4.528   4.045   8.850 -0.6552 -1.0051  0.0200
 4175SOL    HW223985   4.387   4.005   8.835  0.7293 -0.7496  2.4857
 4176SOL     OW23986   4.154   0.359   4.180  0.2192 -0.6560  0.0567
 4176SOL    HW123987   4.149   0.416   4.103  1.1312 -0.8536 -0.1503
 4176SOL    HW223988   4.062   0.352   4.205  0.2000  0.7995  0.3755
 4177SOL     OW23989   0.281   2.738   6.266 -0.0083  0.7412 -0.2903
 4177SOL    HW123990   0.271   2.652   6.224  1.3861  0.1349  0.6275
 4177SOL    HW223991   0.333   2.716   6.343  1.1180 -1.3807 -1.6584
 4178SOL     OW23992   4.536   3.745   9.742  0.4916 -0.3612  0.1952
 4178SOL    HW123993   4.616   3.692   9.741 -0.1821 -1.3251 -2.2353
 4178SOL    HW223994   4.515   3.731   9.834 -0.6391  2.2743  0.3258
 4179SOL     OW23995   2.234   0.914   2.763  0.3459 -0.3107 -0.5358
 4179SOL    HW123996   2.288   0.977   2.716 -0.1951 -1.0021 -2.0910
 4179SOL    HW223997   2.305   0.860   2.798 -0.6268 -0.9697  0.4003
 4180SOL     OW23998   2.835   0.157   6.606  0.5305 -0.1349 -0.3544
 4180SOL    HW123999   2.923   0.154   6.569  0.9661  1.3138  0.5685
 4180SOL    HW224000   2.790   0.212   6.542 -1.3617 -1.3577 -0.1128
 4181SOL     OW24001   2.282   4.599   3.666  0.0673 -0.2692  0.1994
 4181SOL    HW124002   2.365   4.635   3.635 -0.6030  1.5446  0.4904
 4181SOL    HW224003   2.282   4.653   3.745 -0.8124  0.4976 -0.3309
 4182SOL     OW24004   0.705   1.373   2.965 -0.1075 -0.5211 -0.0598
 4182SOL    HW124005   0.639   1.401   2.902  0.8314 -2.5175 -1.9330
 4182SOL    HW224006   0.708   1.459   3.007  1.6805 -1.4677  1.7227
 4183SOL     OW24007   0.741   1.590   8.547 -0.2204 -1.0844  0.6176
 4183SOL    HW124008   0.796   1.645   8.491 -0.1623  0.5486  2.2594
 4183SOL    HW224009   0.759   1.626   8.634  1.1348  2.0950 -0.9730
 4184SOL     OW24010   4.698   2.678   6.177  0.0151 -0.6879  0.7499
 4184SOL    HW124011   4.607   2.648   6.182 -0.1908 -0.1262  0.3033
 4184SOL    HW224012   4.706   2.675   6.082 -0.5372  0.2744  0.6742
 4185SOL     OW24013   0.701   0.944  16.990  0.1452  0.3550  0.1106
 4185SOL    HW124014   0.789   0.911  17.006 -0.1131 -0.5977 -0.3793
 4185SOL    HW224015   0.689   0.932  16.896  0.0878  2.2710 -0.1283
 4186SOL     OW24016   4.384   4.136  16.371 -0.1952 -0.1012  0.2500
 4186SOL    HW124017   4.324   4.064  16.389 -0.1424 -0.1627  0.1825
 4186SOL    HW224018   4.446   4.091  16.313 -0.4052  2.3843 -1.9162
 4187SOL     OW24019   1.715   0.560   4.571 -0.3885 -0.0839  0.1549
 4187SOL    HW124020   1.680   0.607   4.646 -0.2109  0.6399 -0.2130
 4187SOL    HW224021   1.642   0.511   4.535  0.1449 -1.5243  1.0609
 4188SOL     OW24022   4.703   4.031   6.553 -0.4343  0.5045 -0.8135
 4188SOL    HW124023   0.027   3.961   6.596 -0.8355  1.5366  1.3137
 4188SOL    HW224024   4.715   4.020   6.459 -0.2047  0.2465 -0.7530
 4189SOL     OW24025   2.896   1.153   8.073 -0.6432  0.3589  0.2788
 4189SOL    HW124026   2.952   1.149   8.151 -1.9699 -2.4174  1.0780
 4189SOL    HW224027   2.905   1.063   8.042  1.0251 -0.2243  2.4402
 4190SOL     OW24028   4.449   0.357   5.003  0.2626 -0.3849 -0.8724
 4190SOL    HW124029   4.484   0.357   4.913  3.3365 -0.3514  0.3292
 4190SOL    HW224030   4.398   0.276   4.996 -1.9825  0.8456  1.2062
 4191SOL     OW24031   3.667   1.854   4.577  0.3753  0.2833 -0.5425
 4191SOL    HW124032   3.677   1.944   4.605 -0.4674 -0.5839  2.4963
 4191SOL    HW224033   3.755   1.817   4.589  0.0695  0.1262  1.1867
 4192SOL     OW24034   1.132   4.705   7.652 -0.1111  0.4659 -0.0957
 4192SOL    HW124035   1.119   0.043   7.724 -1.2221 -1.4618  1.3640
 4192SOL    HW224036   1.222   4.711   7.622 -0.2039  1.7706 -0.1347
 4193SOL     OW24037   1.703   1.492   4.454  0.0316 -0.0134 -0.1621
 4193SOL    HW124038   1.739   1.551   4.389  1.0463 -0.5169 -0.0734
 4193SOL    HW224039   1.699   1.409   4.407 -0.8091  0.6702 -1.2875
 4194SOL     OW24040   0.938   0.935  10.532 -0.2428 -0.0569  0.0757
 4194SOL    HW124041   0.941   0.900  10.443 -1.6087 -1.2099  0.4917
 4194SOL    HW224042   0.911   1.026  10.516  0.1649 -0.1434 -1.0995
 4195SOL     OW24043   0.084   1.767   8.355 -0.6946  0.0861  0.6107
 4195SOL    HW124044   0.043   1.786   8.271 -0.3293 -2.0133 -0.0487
 4195SOL    HW224045   0.168   1.744   8.316 -0.0959 -0.2175  2.0776
 4196SOL     OW24046   4.152   2.982   5.163 -0.7339 -0.6606 -0.0528
 4196SOL    HW124047   4.246   2.972   5.150 -0.3071  1.2895  1.5537
 4196SOL    HW224048   4.147   3.041   5.238 -0.6007 -1.1456  0.3327
 4197SOL     OW24049   0.044   3.957   2.637  0.0755 -0.8479 -0.2868
 4197SOL    HW124050   0.114   3.928   2.696 -0.7624  2.5240  2.3160
 4197SOL    HW224051   0.082   4.032   2.593  1.8611 -0.4804  1.8805
 4198SOL     OW24052   4.362   3.063   2.990  0.0772  0.2899  0.6903
 4198SOL    HW124053   4.274   3.099   2.980  0.3339  0.1477 -2.1038
 4198SOL    HW224054   4.366   3.031   3.080 -2.0473 -0.4480  0.5287
 4199SOL     OW24055   3.309   1.827   4.869 -0.1023 -0.4499 -0.3643
 4199SOL    HW124056   3.350   1.913   4.879 -0.6431 -0.2525  0.1498
 4199SOL    HW224057   3.224   1.861   4.842  0.2439  1.3945  0.8270
 4200SOL     OW24058   4.625   1.276   4.473  0.4828 -0.1101 -0.4067
 4200SOL    HW124059   4.672   1.309   4.550 -1.6954  0.6582  0.5723
 4200SOL    HW224060   4.538   1.249   4.502  0.4035  2.1639  1.3759
 4201SOL     OW24061   2.010   1.389   4.255  0.1577  0.4527  0.1814
 4201SOL    HW124062   1.943   1.321   4.249 -1.0255  1.7089 -0.9004
 4201SOL    HW224063   2.048   1.392   4.167 -1.3748 -1.0943 -0.5180
 4202SOL     OW24064   4.706   3.496   1.895 -0.0061 -0.0452  0.6558
 4202SOL    HW124065   4.708   3.444   1.975  1.8057 -0.7705  0.1603
 4202SOL    HW224066   4.642   3.564   1.911 -0.3623 -0.7105  2.0854
 4203SOL     OW24067   1.573   2.612  11.601 -0.1364  0.2762  0.0672
 4203SOL    HW124068   1.484   2.598  11.635 -0.0944  0.4341  0.2474
 4203SOL    HW224069   1.563   2.672  11.526 -1.7804 -0.5614 -0.3864
 4204SOL     OW24070   1.290   2.957   4.136  0.2634 -0.6422 -0.2659
 4204SOL    HW124071   1.281   2.872   4.094  0.4240  0.4913 -2.5684
 4204SOL    HW224072   1.374   2.951   4.182 -0.2373  0.1242  0.7764
 4205SOL     OW24073   4.129   3.507   7.942 -0.6447 -0.0522  0.0666
 4205SOL    HW124074   4.131   3.589   7.992 -0.3391  0.4715 -0.8095
 4205SOL    HW224075   4.153   3.541   7.856 -0.8247 -1.0538 -0.3683
 4206SOL     OW24076   1.045   3.959  11.922  0.3117 -0.1352  0.1698
 4206SOL    HW124077   1.121   3.940  11.867 -0.7057 -2.1545 -0.5195
 4206SOL    HW224078   0.981   3.927  11.860  1.2659  0.3786 -1.0891
 4207SOL     OW24079   3.846   3.345   3.608  0.1514  0.0277  0.4644
 4207SOL    HW124080   3.928   3.348   3.559 -0.0504 -0.2610  0.1098
 4207SOL    HW224081   3.784   3.359   3.536  0.3934 -0.4351  0.1659
 4208SOL     OW24082   0.527   2.440  10.904 -0.3820  0.0659  0.4966
 4208SOL    HW124083   0.439   2.463  10.932 -1.3665 -0.7633 -1.9376
 4208SOL    HW224084   0.571   2.405  10.982 -0.8896 -1.9815 -0.1408
 4209SOL     OW24085   1.358   2.697   4.087 -0.3057 -0.5077 -0.2728
 4209SOL    HW124086   1.341   2.625   4.027 -0.1582 -1.5822  0.9680
 4209SOL    HW224087   1.443   2.734   4.062  0.1879 -1.4018  0.1068
 4210SOL     OW24088   4.329   1.040   1.263 -0.1011 -0.0361  0.1264
 4210SOL    HW124089   4.380   1.029   1.343 -0.8680  0.0085  0.6206
 4210SOL    HW224090   4.350   1.129   1.235 -0.0457 -0.1199 -0.0994
 4211SOL     OW24091   0.940   4.309   7.422  0.2457 -0.1439  0.3904
 4211SOL    HW124092   0.965   4.240   7.360 -0.4605 -1.4721  1.5668
 4211SOL    HW224093   1.026   4.328   7.459  0.7171  1.5436 -1.5711
 4212SOL     OW24094   4.087   0.677   4.189  0.2700  0.4897 -0.2335
 4212SOL    HW124095   4.047   0.639   4.111 -0.9718  1.7902 -0.2361
 4212SOL    HW224096   4.179   0.672   4.163  0.1380 -0.1929 -0.5516
 4213SOL     OW24097   0.348   1.470   6.555 -0.2280  0.3096 -0.4040
 4213SOL    HW124098   0.434   1.480   6.515  0.5285  0.0415  1.1650
 4213SOL    HW224099   0.363   1.484   6.648  1.8107  0.6107 -0.7704
 4214SOL     OW24100   2.809   2.381  15.722 -0.1605  0.1685 -0.2191
 4214SOL    HW124101   2.770   2.299  15.753  0.7822 -0.5850 -1.0417
 4214SOL    HW224102   2.756   2.392  15.643  1.1138  0.3816 -1.0394
 4215SOL     OW24103   0.714   2.829   5.409  0.6372 -0.7148 -0.0300
 4215SOL    HW124104   0.676   2.868   5.330  2.4157 -0.9448 -1.0090
 4215SOL    HW224105   0.802   2.807   5.377  0.6723 -0.9761  0.2466
 4216SOL     OW24106   3.949   4.646  11.301 -0.1476  0.2790  0.2775
 4216SOL    HW124107   4.023   4.652  11.361  1.3389 -1.6266 -1.3710
 4216SOL    HW224108   3.872   4.649  11.359  0.0203 -1.5236  0.5806
 4217SOL     OW24109   4.492   3.744   5.906 -0.4154  0.3479  0.1647
 4217SOL    HW124110   4.415   3.719   5.855 -1.4847 -4.1195  3.9294
 4217SOL    HW224111   4.555   3.686   5.863  1.3609  2.8998 -0.6797
 4218SOL     OW24112   3.516   3.768   4.524 -0.3633 -0.2379 -0.2042
 4218SOL    HW124113   3.510   3.769   4.429 -3.9563 -1.6698  0.0362
 4218SOL    HW224114   3.580   3.838   4.541 -2.6917  1.3763  1.9023
 4219SOL     OW24115   2.526   3.771   7.231 -0.5323 -0.1171  0.1381
 4219SOL    HW124116   2.482   3.781   7.316 -0.5566  2.8633 -0.2336
 4219SOL    HW224117   2.474   3.702   7.189 -0.3889  1.4936 -2.6661
 4220SOL     OW24118   1.216   2.854   6.344 -0.2369 -0.0464 -0.3172
 4220SOL    HW124119   1.225   2.946   6.367 -2.4088 -0.2509  1.4055
 4220SOL    HW224120   1.125   2.847   6.314 -0.2329  1.3397 -0.6575
 4221SOL     OW24121   0.502   4.463   3.657 -0.1856  0.2339  0.3481
 4221SOL    HW124122   0.426   4.406   3.641  0.3948  0.2176 -2.2884
 4221SOL    HW224123   0.539   4.426   3.738  0.7045  0.6824  0.1438
 4222SOL     OW24124   2.394   2.634   3.187  0.0417 -0.6143  0.3175
 4222SOL    HW124125   2.459   2.666   3.249 -1.3851  2.2278  0.3488
 4222SOL    HW224126   2.444   2.577   3.130  2.0825  0.3118  1.2070
 4223SOL     OW24127   0.522   1.785   2.861 -0.5631  0.4424  0.0220
 4223SOL    HW124128   0.563   1.852   2.915  1.8673  0.0330 -1.2960
 4223SOL    HW224129   0.520   1.821   2.773  1.0183 -2.8683 -1.3858
 4224SOL     OW24130   3.446   4.678  13.291 -0.3251  0.0552  0.2514
 4224SOL    HW124131   3.418   4.612  13.228  0.7883 -0.9034  0.7582
 4224SOL    HW224132   3.541   4.665  13.285 -0.1206  0.0134  3.9602
 4225SOL     OW24133   2.016   1.908   4.605 -0.0264 -0.3476 -0.6205
 4225SOL    HW124134   2.087   1.942   4.550  0.8053 -0.4778  0.3618
 4225SOL    HW224135   2.012   1.817   4.574  0.0954 -1.3327  2.2279
 4226SOL     OW24136   0.584   3.190   3.021 -0.3116  0.1847  0.3099
 4226SOL    HW124137   0.511   3.143   3.062 -0.1608  0.3880  0.8031
 4226SOL    HW224138   0.639   3.210   3.097  1.4880  2.8683 -1.7018
 4227SOL     OW24139   0.407   2.999   8.139  0.4247  0.4171  0.4075
 4227SOL    HW124140   0.438   2.911   8.117  0.4006  0.8353 -1.3281
 4227SOL    HW224141   0.419   2.997   8.234 -2.4633  2.0592  0.8102
 4228SOL     OW24142   0.067   4.441   2.584 -0.0685 -0.1985 -0.1340
 4228SOL    HW124143   0.005   4.480   2.646  0.8877  0.6389  0.2870
 4228SOL    HW224144   0.148   4.489   2.599  1.2260 -2.3032 -0.2855
 4229SOL     OW24145   1.776   0.362   6.412 -0.4556 -0.3220 -0.0398
 4229SOL    HW124146   1.750   0.288   6.357  2.0120 -0.0281 -1.6183
 4229SOL    HW224147   1.689   0.395   6.434  0.4467  2.4717 -0.6940
 4230SOL     OW24148   0.168   0.577   0.528 -0.3307  0.2644  0.3853
 4230SOL    HW124149   0.131   0.664   0.543 -0.3148 -0.1027  2.4969
 4230SOL    HW224150   0.253   0.586   0.486 -1.2550 -0.9971 -1.7343
 4231SOL     OW24151   2.270   4.492   3.116  0.5022 -0.7230 -0.0584
 4231SOL    HW124152   2.192   4.548   3.110  1.9169  1.4389  1.7343
 4231SOL    HW224153   2.279   4.469   3.024  0.8540  0.9353 -0.4432
 4232SOL     OW24154   1.667   1.513  15.484 -0.0615  0.4709  0.2464
 4232SOL    HW124155   1.698   1.599  15.511  2.6023 -0.2775 -0.4818
 4232SOL    HW224156   1.574   1.534  15.479  0.1717  1.8146  1.3802
 4233SOL     OW24157   0.649   0.607   8.320  0.0409  0.0014 -0.0123
 4233SOL    HW124158   0.713   0.675   8.338 -0.4699  0.5221 -0.1698
 4233SOL    HW224159   0.665   0.588   8.227  0.5561 -0.2072  0.1241
 4234SOL     OW24160   4.407   3.321  17.513  0.3766 -0.2725  0.2778
 4234SOL    HW124161   4.442   3.370  17.588  0.0581 -2.6046  1.9880
 4234SOL    HW224162   4.411   3.387  17.445 -0.3345 -1.1530 -0.6135
 4235SOL     OW24163   0.965   0.176   5.379 -0.5584  0.1445  0.4821
 4235SOL    HW124164   0.963   0.126   5.298  1.3864 -0.8696  1.0355
 4235SOL    HW224165   0.903   0.241   5.347  0.4387 -0.9991 -3.7037
 4236SOL     OW24166   3.667   4.669   3.920  0.0071  0.4902 -0.0031
 4236SOL    HW124167   3.687   4.590   3.869  0.8581 -0.0779  1.1941
 4236SOL    HW224168   3.708   0.010   3.863  1.1821 -1.6371 -1.5962
 4237SOL     OW24169   1.169   4.224  16.286 -0.6437 -0.6256 -1.0584
 4237SOL    HW124170   1.243   4.164  16.298  1.8496  2.1343 -2.6253
 4237SOL    HW224171   1.181   4.280  16.363 -2.8016 -1.6471  0.0380
 4238SOL     OW24172   2.020   2.266  12.830 -0.4262  0.0747  0.2735
 4238SOL    HW124173   2.002   2.268  12.924 -0.4092 -0.4353  0.2886
 4238SOL    HW224174   2.048   2.358  12.826 -2.1304  0.6281  1.0046
 4239SOL     OW24175   0.088   0.370  14.535  0.0839  0.1463 -0.0885
 4239SOL    HW124176   0.146   0.310  14.583 -0.0890  0.5711  0.6663
 4239SOL    HW224177   0.130   0.455  14.551 -0.4739  0.2557  0.8324
 4240SOL     OW24178   0.667   2.686   8.479 -0.4662 -0.3276 -0.1241
 4240SOL    HW124179   0.692   2.766   8.526 -0.3487 -0.7308  0.5001
 4240SOL    HW224180   0.579   2.671   8.513 -0.0788 -0.1161  0.9748
 4241SOL     OW24181   4.032   0.497   1.133  0.0395  0.1405 -0.0166
 4241SOL    HW124182   4.025   0.426   1.069  0.5842  1.1587 -1.1992
 4241SOL    HW224183   3.965   0.480   1.199 -0.5250 -1.3521 -0.9761
 4242SOL     OW24184   3.206   0.811   7.010  0.0855 -0.4752  0.1790
 4242SOL    HW124185   3.211   0.716   7.022  1.2280 -0.3417  0.7443
 4242SOL    HW224186   3.126   0.829   6.960 -0.4445 -2.4543  0.2919
 4243SOL     OW24187   3.235   2.005   7.980 -0.6003  0.0376 -0.3665
 4243SOL    HW124188   3.262   2.053   7.901  1.8378 -0.3856  0.2257
 4243SOL    HW224189   3.321   1.984   8.016 -0.5667  1.0532  0.1530
 4244SOL     OW24190   2.632   1.709   8.272  0.7647 -0.7970 -0.0827
 4244SOL    HW124191   2.627   1.796   8.232  0.4561 -0.7469  0.0720
 4244SOL    HW224192   2.669   1.733   8.357 -0.9334  1.9301 -0.1340
 4245SOL     OW24193   0.573   4.558   8.889 -0.1756  0.3129 -0.1238
 4245SOL    HW124194   0.661   4.573   8.856 -0.2989 -0.8477 -1.0232
 4245SOL    HW224195   0.553   4.631   8.947 -0.6194  0.7890 -0.8791
 4246SOL     OW24196   3.222   0.930   5.213  0.4026  0.2067  0.0614
 4246SOL    HW124197   3.225   0.847   5.260 -0.7165  0.0392 -0.1661
 4246SOL    HW224198   3.212   0.896   5.124  2.4257 -1.7477  0.5884
 4247SOL     OW24199   2.357   2.441   1.477  0.8096 -1.0468  0.8353
 4247SOL    HW124200   2.352   2.533   1.503 -2.0162 -1.3230  1.3341
 4247SOL    HW224201   2.399   2.452   1.392 -1.0365 -2.9574 -0.3207
 4248SOL     OW24202   2.990   0.616   3.366  0.4608 -0.4685 -0.6442
 4248SOL    HW124203   3.024   0.544   3.313 -0.2777 -1.6068  0.4333
 4248SOL    HW224204   2.910   0.637   3.318 -0.1395 -1.1004  0.0897
 4249SOL     OW24205   1.026   3.332  14.779  0.1967 -0.1983  0.4793
 4249SOL    HW124206   0.990   3.244  14.778 -1.0993  0.3822 -2.8588
 4249SOL    HW224207   1.116   3.302  14.789  0.5631  0.6239 -0.4212
 4250SOL     OW24208   0.997   1.917   6.197 -0.4296  0.3291  0.2353
 4250SOL    HW124209   0.986   1.909   6.291 -1.1223  3.6845  0.4287
 4250SOL    HW224210   0.914   1.885   6.163 -0.1027  1.8762 -2.0237
 4251SOL     OW24211   3.412   4.338   0.647  0.1831  0.0856  0.0859
 4251SOL    HW124212   3.361   4.258   0.638  0.6738 -0.2638  0.4720
 4251SOL    HW224213   3.371   4.395   0.581 -0.1955 -0.5145 -0.2023
 4252SOL     OW24214   3.549   3.770   5.295  0.8851  0.3535 -0.0104
 4252SOL    HW124215   3.548   3.863   5.272  1.1145  0.2430 -0.4784
 4252SOL    HW224216   3.628   3.775   5.349  0.8637 -1.7252  0.2136
 4253SOL     OW24217   1.660   3.572   7.860  0.4170  0.1870 -0.7646
 4253SOL    HW124218   1.604   3.542   7.931  2.3976  0.8869  1.0856
 4253SOL    HW224219   1.601   3.621   7.802  0.0331 -0.1226 -0.6301
 4254SOL     OW24220   2.594   2.998   6.538 -0.3494 -0.2229 -0.0109
 4254SOL    HW124221   2.527   3.023   6.602  1.2652  2.1268  0.7687
 4254SOL    HW224222   2.563   2.912   6.509 -2.1139  0.8971 -1.4738
 4255SOL     OW24223   1.733   4.489   2.903 -0.0336 -0.5387  0.3505
 4255SOL    HW124224   1.767   4.541   2.830 -0.0081 -0.4198  0.4459
 4255SOL    HW224225   1.801   4.507   2.968  0.3711  1.1120 -0.5291
 4256SOL     OW24226   3.668   0.764   6.547  0.1549 -0.3382 -0.1320
 4256SOL    HW124227   3.660   0.685   6.493 -1.3412 -1.1266  1.2604
 4256SOL    HW224228   3.762   0.759   6.566  0.4282  4.0100 -0.3446
 4257SOL     OW24229   2.034   3.495  14.066  0.0246 -0.2771 -0.0905
 4257SOL    HW124230   2.088   3.441  14.123  0.2572  0.0204 -0.0251
 4257SOL    HW224231   2.106   3.530  14.013 -0.3099  0.1871 -0.2385
 4258SOL     OW24232   3.929   2.664   4.777 -0.4411  0.4380 -0.3983
 4258SOL    HW124233   3.956   2.741   4.828  1.2417  0.9362 -2.0188
 4258SOL    HW224234   3.875   2.619   4.841  1.5602  1.8343  2.2562
 4259SOL     OW24235   2.468   1.424   5.087 -0.5371  0.3435 -0.8588
 4259SOL    HW124236   2.507   1.498   5.040 -0.6942  0.8143 -0.2558
 4259SOL    HW224237   2.383   1.424   5.043 -1.8329  1.2388  1.6610
 4260SOL     OW24238   1.968   0.196   5.758 -0.0547 -0.0089 -0.0774
 4260SOL    HW124239   1.893   0.253   5.775 -0.4787  0.0038 -2.0246
 4260SOL    HW224240   2.025   0.273   5.757 -1.1274  0.7568 -1.1350
 4261SOL     OW24241   4.351   0.058  17.438 -0.1527  0.4543 -0.5431
 4261SOL    HW124242   4.269   0.104  17.418  1.0240  2.2677 -1.1919
 4261SOL    HW224243   4.348   4.720  17.366 -0.9387  1.5924 -1.4962
 4262SOL     OW24244   3.896   2.760   9.955  0.0890 -0.1060 -0.0517
 4262SOL    HW124245   3.894   2.855   9.966  0.4540 -0.0848 -0.1676
 4262SOL    HW224246   3.985   2.743   9.923 -0.8679 -3.3136 -1.0429
 4263SOL     OW24247   1.664   0.626  17.278 -0.6603  0.6589 -0.4473
 4263SOL    HW124248   1.569   0.639  17.283 -0.5267  1.3039  0.3330
 4263SOL    HW224249   1.680   0.696  17.215  0.5813 -0.1611 -1.0388
 4264SOL     OW24250   4.350   4.667   2.217  0.4923  0.0205  0.0469
 4264SOL    HW124251   4.326   4.631   2.302 -0.2935 -1.4770 -0.8267
 4264SOL    HW224252   4.279   0.003   2.195  2.0917  1.5875 -0.8704
 4265SOL     OW24253   2.031   4.601   2.262 -0.0734  1.2578  0.3008
 4265SOL    HW124254   1.998   4.540   2.196 -1.5722 -1.5243  3.6155
 4265SOL    HW224255   1.961   4.666   2.262 -1.8106 -0.6030 -0.5868
 4266SOL     OW24256   2.555   1.275   2.307 -0.1098 -0.4521  0.3108
 4266SOL    HW124257   2.640   1.319   2.295  1.0968 -2.8486  0.1810
 4266SOL    HW224258   2.497   1.338   2.264  1.0337  0.3906 -0.0142
 4267SOL     OW24259   3.344   0.708   1.645  0.0029  0.1606  0.0688
 4267SOL    HW124260   3.402   0.684   1.718 -0.4463 -1.5857 -0.1471
 4267SOL    HW224261   3.267   0.705   1.702  0.3622 -0.2751  0.5415
 4268SOL     OW24262   2.633   0.855   6.451 -0.5546 -0.3800 -0.0156
 4268SOL    HW124263   2.647   0.914   6.526 -0.1964  0.9023 -1.0987
 4268SOL    HW224264   2.542   0.877   6.433 -0.9288 -0.9499  1.1254
 4269SOL     OW24265   1.504   4.326   3.371 -0.1478  0.5636 -0.5274
 4269SOL    HW124266   1.465   4.406   3.334 -0.5556  0.2842 -0.6995
 4269SOL    HW224267   1.442   4.289   3.434  1.2638 -1.6125 -0.4488
 4270SOL     OW24268   0.391   1.347   5.673  0.4701 -0.0275  0.7522
 4270SOL    HW124269   0.427   1.276   5.620 -2.4588 -2.7446  2.4016
 4270SOL    HW224270   0.318   1.308   5.721 -2.0280  0.6227 -2.5209
 4271SOL     OW24271   1.973   1.843   8.187 -0.0318 -0.5045  0.2169
 4271SOL    HW124272   1.899   1.782   8.189 -1.0004  0.6895  1.0070
 4271SOL    HW224273   1.961   1.900   8.263 -0.4119 -1.7029  1.0602
 4272SOL     OW24274   0.773   4.215   4.272  0.1461  0.5087  0.3151
 4272SOL    HW124275   0.851   4.236   4.322  1.0305 -0.5025 -0.6420
 4272SOL    HW224276   0.809   4.183   4.190  1.9771  1.6969  0.6584
 4273SOL     OW24277   1.438   0.082   0.056 -0.2366 -0.5918  0.0787
 4273SOL    HW124278   1.430   0.024   0.131 -0.6457 -1.3153 -0.5153
 4273SOL    HW224279   1.358   0.134   0.065 -0.0365  0.0123 -1.5254
 4274SOL     OW24280   3.166   4.713   5.523  0.4382  0.2521 -0.5286
 4274SOL    HW124281   3.245   4.665   5.499  0.7311  0.5640 -0.1741
 4274SOL    HW224282   3.197   0.028   5.604  1.4576  2.5271 -2.0197
 4275SOL     OW24283   1.261   3.463   3.698 -0.5666 -0.3769  0.7328
 4275SOL    HW124284   1.326   3.444   3.766 -0.1241  0.7524  0.6313
 4275SOL    HW224285   1.287   3.548   3.663 -0.5704 -0.7669 -0.2305
 4276SOL     OW24286   1.457   4.504  13.390  0.5634  0.1094  0.5668
 4276SOL    HW124287   1.452   4.542  13.302  0.2105  1.4108  1.1355
 4276SOL    HW224288   1.369   4.522  13.422  0.2708  1.7783 -1.1325
 4277SOL     OW24289   0.553   4.652   2.074  0.1851  0.5009 -0.5753
 4277SOL    HW124290   0.474   4.641   2.021 -0.3033  0.4369  0.1578
 4277SOL    HW224291   0.558   4.564   2.112  2.8232  1.1330  0.5443
 4278SOL     OW24292   2.242   1.499   8.481  0.7890  0.3675  0.6039
 4278SOL    HW124293   2.300   1.560   8.525  1.2782 -0.2910  0.8787
 4278SOL    HW224294   2.309   1.483   8.414 -1.7721 -1.9547 -1.4337
 4279SOL     OW24295   1.284   2.304   4.241  0.1987  0.0771 -0.0380
 4279SOL    HW124296   1.361   2.320   4.187  0.8330 -0.7241  0.6216
 4279SOL    HW224297   1.250   2.226   4.197 -1.4647 -0.2494  1.7985
 4280SOL     OW24298   4.692   0.297   2.781  0.3931  0.0348  0.2025
 4280SOL    HW124299   4.680   0.308   2.686 -0.8701  0.5238  0.4289
 4280SOL    HW224300   0.051   0.248   2.782  0.2112 -0.2837 -0.0855
 4281SOL     OW24301   1.987   0.577   3.082 -0.8587 -0.0761  0.3408
 4281SOL    HW124302   2.053   0.521   3.124 -1.6846 -0.6339  0.8885
 4281SOL    HW224303   2.037   0.601   3.004  1.0824 -0.6943  1.3878
 4282SOL     OW24304   2.976   3.185   2.323  0.3784 -0.3255  0.4439
 4282SOL    HW124305   2.979   3.247   2.250 -1.1853  0.0056  0.6641
 4282SOL    HW224306   2.900   3.216   2.371  0.3147 -0.9172  0.7262
 4283SOL     OW24307   2.250   1.713   2.120 -0.4595  0.4344 -0.2240
 4283SOL    HW124308   2.244   1.768   2.041  0.2003 -0.4296 -0.8750
 4283SOL    HW224309   2.313   1.766   2.169 -1.9029  1.2074  0.7950
 4284SOL     OW24310   3.028   1.528  15.294 -0.2706  0.7386 -0.0704
 4284SOL    HW124311   3.056   1.607  15.248 -0.8451  0.9118 -0.1205
 4284SOL    HW224312   2.934   1.535  15.281 -0.2357  0.9247 -0.2166
 4285SOL     OW24313   2.170   2.578   9.129  0.2091 -0.1357 -0.4456
 4285SOL    HW124314   2.089   2.609   9.089  1.8592  0.7752 -3.1280
 4285SOL    HW224315   2.213   2.655   9.166 -0.5566 -0.1047  0.3718
 4286SOL     OW24316   0.346   4.200   6.470  0.0146  0.2870 -0.0706
 4286SOL    HW124317   0.342   4.107   6.492  1.7832  0.3072  0.3516
 4286SOL    HW224318   0.294   4.241   6.539 -0.9488 -2.8538  1.0662
 4287SOL     OW24319   0.801   0.344   3.125  0.3189 -0.1979 -0.2526
 4287SOL    HW124320   0.828   0.291   3.200 -0.0176  1.6460  1.1458
 4287SOL    HW224321   0.882   0.389   3.101  0.8118 -0.5732  0.7108
 4288SOL     OW24322   1.354   2.810   3.258  0.2357  0.2670  0.3743
 4288SOL    HW124323   1.377   2.734   3.313 -0.1792  0.3667  0.6830
 4288SOL    HW224324   1.389   2.780   3.174 -1.1628  2.0785 -0.8323
 4289SOL     OW24325   2.710   3.142   9.778  0.5021 -0.2446 -0.2645
 4289SOL    HW124326   2.684   3.072   9.839 -1.4112  0.1810 -0.6220
 4289SOL    HW224327   2.741   3.085   9.707  0.1484  0.0783 -0.6755
 4290SOL     OW24328   2.736   2.568   6.386 -0.0511  0.0316 -0.0857
 4290SOL    HW124329   2.737   2.473   6.397  0.6519 -0.0800 -1.1873
 4290SOL    HW224330   2.784   2.585   6.305  0.2208 -3.2093 -0.5841
 4291SOL     OW24331   4.147   4.504   5.580  0.4219 -0.0028  0.1448
 4291SOL    HW124332   4.199   4.432   5.546  1.1940  0.6599 -0.0920
 4291SOL    HW224333   4.208   4.556   5.632  2.8586  0.2088 -2.9020
 4292SOL     OW24334   3.736   3.967  14.797  0.5718 -0.0918  0.3665
 4292SOL    HW124335   3.741   3.872  14.783 -1.6226 -0.1177 -0.3116
 4292SOL    HW224336   3.819   3.992  14.756  0.5930 -0.2619  0.3069
 4293SOL     OW24337   1.144   0.081  14.905  0.9173  0.0176  0.3362
 4293SOL    HW124338   1.113   0.071  14.815  2.6455 -0.6205 -0.1815
 4293SOL    HW224339   1.131   0.175  14.916  1.6879  0.3368 -1.5330
 4294SOL     OW24340   2.409   3.263  17.334  0.0824  0.3839 -0.2965
 4294SOL    HW124341   2.425   3.169  17.340  0.3250  0.2589 -2.8640
 4294SOL    HW224342   2.380   3.276  17.243  0.8494 -4.0314 -1.1644
 4295SOL     OW24343   2.021   0.020   4.429  0.2407  0.1756 -0.4426
 4295SOL    HW124344   1.972   0.092   4.387 -0.3640  0.0377  0.0224
 4295SOL    HW224345   1.987   0.032   4.518  1.1434  1.1199 -0.2251
 4296SOL     OW24346   4.343   0.373   1.765 -0.3011 -0.2739 -0.0830
 4296SOL    HW124347   4.436   0.371   1.742  0.2948  1.9120  2.1533
 4296SOL    HW224348   4.340   0.298   1.825  0.7914 -0.6602 -0.5026
 4297SOL     OW24349   1.209   2.394  13.707 -0.2262  0.0480  0.3871
 4297SOL    HW124350   1.264   2.462  13.746  0.4955 -0.0340 -0.4813
 4297SOL    HW224351   1.146   2.448  13.660  1.6542  0.9198 -1.1132
 4298SOL     OW24352   2.373   1.957   5.809 -0.6835 -0.0566 -0.4381
 4298SOL    HW124353   2.389   1.950   5.715  1.4768 -0.3401 -0.0493
 4298SOL    HW224354   2.465   1.946   5.833 -0.6439  2.3294  0.5309
 4299SOL     OW24355   3.267   2.945   6.783  0.1582  0.6992  1.0802
 4299SOL    HW124356   3.287   3.034   6.754 -0.7774  0.3529 -0.6305
 4299SOL    HW224357   3.179   2.970   6.811  0.1274  0.2201  1.4169
 4300SOL     OW24358   2.359   3.662   6.792  0.3365  0.7021  0.1472
 4300SOL    HW124359   2.272   3.675   6.829 -0.1733  1.0698 -1.2037
 4300SOL    HW224360   2.393   3.752   6.793 -0.5869  1.0578 -1.1414
 4301SOL     OW24361   0.249   0.403  15.159 -0.4494 -0.4135  0.2543
 4301SOL    HW124362   0.319   0.430  15.099 -0.9564  1.5275  0.5181
 4301SOL    HW224363   0.225   0.482  15.208  0.1834 -0.6371  0.9231
 4302SOL     OW24364   1.116   4.612   4.098  0.6287 -0.0215 -0.1144
 4302SOL    HW124365   1.070   4.692   4.124  0.3532 -0.9641  2.2584
 4302SOL    HW224366   1.179   4.599   4.169  1.4249  1.6642 -0.5088
 4303SOL     OW24367   4.328   1.451   6.713  0.8273  0.4726 -0.1883
 4303SOL    HW124368   4.411   1.414   6.745  0.3151 -1.9516 -1.6654
 4303SOL    HW224369   4.317   1.403   6.631 -2.0238 -0.9776  1.0466
 4304SOL     OW24370   2.179   1.725   2.386  0.4217 -0.0645 -0.0459
 4304SOL    HW124371   2.178   1.727   2.290  1.7788 -0.3236 -0.0698
 4304SOL    HW224372   2.250   1.663   2.405  0.6175  0.0633 -0.3539
 4305SOL     OW24373   2.717   3.233   9.029 -0.2088 -0.2139  0.2196
 4305SOL    HW124374   2.634   3.190   9.050  0.1560 -0.3212  1.4739
 4305SOL    HW224375   2.775   3.167   9.067 -0.4613 -0.6650 -0.1730
 4306SOL     OW24376   4.603   3.202  14.074  0.1462 -0.4350 -0.6613
 4306SOL    HW124377   4.518   3.190  14.117  0.8926 -1.0480  0.6398
 4306SOL    HW224378   4.595   3.296  14.061  0.6119  0.2407  3.8196
 4307SOL     OW24379   0.801   3.277   8.537  0.3617 -0.3386  0.3643
 4307SOL    HW124380   0.873   3.273   8.474 -0.2736 -0.1900 -0.3767
 4307SOL    HW224381   0.797   3.370   8.557 -0.6314  0.0876 -1.7341
 4308SOL     OW24382   2.384   2.513   4.154  0.1447  0.0200  0.3077
 4308SOL    HW124383   2.363   2.605   4.169  1.6194  0.9656 -3.2526
 4308SOL    HW224384   2.444   2.505   4.079 -0.2304 -1.4292  0.1544
 4309SOL     OW24385   2.489   2.945   3.930  0.5597 -0.2337 -0.1799
 4309SOL    HW124386   2.434   2.939   3.852 -0.1748 -2.0087  0.4734
 4309SOL    HW224387   2.534   3.026   3.906  0.2677  0.2862  0.9898
 4310SOL     OW24388   0.446   0.806   2.148  0.6438 -0.3593  0.9378
 4310SOL    HW124389   0.495   0.804   2.066  0.2257 -0.9614  0.7031
 4310SOL    HW224390   0.395   0.884   2.124 -0.3856 -1.7684 -1.4093
 4311SOL     OW24391   2.915   4.436   6.148  0.1194  0.7294 -0.4383
 4311SOL    HW124392   2.974   4.385   6.091  0.6805  1.6655 -0.6945
 4311SOL    HW224393   2.844   4.372   6.159  0.3878  0.3252 -1.0269
 4312SOL     OW24394   0.304   2.745   5.127 -0.4644  0.2284  0.7241
 4312SOL    HW124395   0.315   2.796   5.207  2.0941  0.0852  0.4577
 4312SOL    HW224396   0.348   2.663   5.151  0.1298  0.6507  1.0859
 4313SOL     OW24397   0.546   1.610   0.023  0.3733  0.2709  0.4783
 4313SOL    HW124398   0.621   1.604   0.082  0.0265 -0.5601  0.8497
 4313SOL    HW224399   0.512   1.520   0.024 -0.1133  0.4538  0.6097
 4314SOL     OW24400   3.645   3.757   3.022 -0.3107 -0.5416  0.2260
 4314SOL    HW124401   3.587   3.686   2.994 -2.0807  0.4489  1.4167
 4314SOL    HW224402   3.640   3.809   2.942  1.7654 -1.0395 -0.2508
 4315SOL     OW24403   3.225   0.668   5.354  0.7064  0.8347  0.0973
 4315SOL    HW124404   3.304   0.642   5.401 -0.9814 -0.5729  2.1686
 4315SOL    HW224405   3.160   0.644   5.420  2.2616 -2.4317  0.4191
 4316SOL     OW24406   1.968   3.102   6.690 -0.1309 -0.2465  0.5012
 4316SOL    HW124407   1.880   3.139   6.685  0.1541  0.2842 -0.5966
 4316SOL    HW224408   2.011   3.159   6.754  0.7583  0.3070 -0.5622
 4317SOL     OW24409   1.350   3.335   5.040 -0.3347 -0.3803 -0.3610
 4317SOL    HW124410   1.376   3.427   5.036  1.0009 -0.8657 -3.0374
 4317SOL    HW224411   1.264   3.338   4.997 -0.4544  1.5819  0.0305
 4318SOL     OW24412   1.844   4.615   4.808  0.5837  0.6634 -0.4262
 4318SOL    HW124413   1.890   4.634   4.889  0.8251  2.0253 -0.8892
 4318SOL    HW224414   1.787   4.691   4.815 -0.9742 -0.7250  1.7282
 4319SOL     OW24415   1.229   3.946  16.578  0.3189  0.0540 -0.0251
 4319SOL    HW124416   1.274   4.015  16.529 -0.8330  1.5458  1.0014
 4319SOL    HW224417   1.265   3.869  16.534  1.6917  0.1400  0.9335
 4320SOL     OW24418   3.767   3.400   6.383  0.2313  0.1175 -0.1863
 4320SOL    HW124419   3.749   3.417   6.475 -2.3019  3.5424 -1.3302
 4320SOL    HW224420   3.813   3.316   6.395  1.5739  0.7088 -1.1737
 4321SOL     OW24421   2.081   2.996  12.395  0.2469 -1.0325 -0.2693
 4321SOL    HW124422   2.131   3.077  12.400 -2.4050  0.6744 -1.4859
 4321SOL    HW224423   2.111   2.958  12.312 -0.7144  1.2511 -1.6607
 4322SOL     OW24424   4.622   1.047   3.435 -0.3459 -0.8973  0.0139
 4322SOL    HW124425   4.622   0.976   3.371  1.5377 -0.3426 -0.5777
 4322SOL    HW224426   4.588   1.119   3.382  0.0547  0.9280  2.2249
 4323SOL     OW24427   4.474   3.804   6.159  0.2098 -0.3439  0.2512
 4323SOL    HW124428   4.469   3.773   6.068  1.1044 -1.3813  0.5467
 4323SOL    HW224429   4.419   3.882   6.161  0.8859  0.1917 -1.4589
 4324SOL     OW24430   4.119   1.381   1.001 -0.0087 -0.1618 -0.2918
 4324SOL    HW124431   4.045   1.321   0.995 -0.8262  0.8719 -0.6837
 4324SOL    HW224432   4.124   1.398   1.095  0.2479  0.4718 -0.4204
 4325SOL     OW24433   3.886   0.830   6.714  0.7986 -0.4754  0.1997
 4325SOL    HW124434   3.975   0.797   6.703  1.5693  1.2586  1.2047
 4325SOL    HW224435   3.895   0.925   6.723  1.4789 -0.5634  0.4479
 4326SOL     OW24436   2.874   3.563   4.912 -0.0586 -0.1105 -0.5587
 4326SOL    HW124437   2.852   3.470   4.917  1.6111 -0.2447  4.3459
 4326SOL    HW224438   2.966   3.562   4.941 -0.2107 -0.6576 -0.0956
 4327SOL     OW24439   4.323   4.271   6.717 -0.2076 -0.0009  0.0504
 4327SOL    HW124440   4.258   4.303   6.655 -0.1432 -0.7728 -0.4076
 4327SOL    HW224441   4.352   4.351   6.761  1.5125  0.0853 -1.2194
 4328SOL     OW24442   0.484   1.085   2.934  0.7427  0.2542  0.2445
 4328SOL    HW124443   0.409   1.097   2.876  1.2119  2.3653  0.0552
 4328SOL    HW224444   0.495   0.990   2.937  0.3744  0.2926  3.1900
 4329SOL     OW24445   3.055   1.529  12.454 -0.2892 -0.0513  0.8564
 4329SOL    HW124446   3.018   1.605  12.499 -0.5946  1.2207 -1.5370
 4329SOL    HW224447   3.078   1.571  12.371  1.2473  0.4401  1.5401
 4330SOL     OW24448   0.545   3.745   7.907  0.1419 -0.2674  0.0980
 4330SOL    HW124449   0.549   3.779   7.996 -0.0782 -2.5207  0.9726
 4330SOL    HW224450   0.498   3.821   7.873 -1.0717 -0.6068  1.0231
 4331SOL     OW24451   0.682   0.427  17.477  0.0438 -0.1553  0.1046
 4331SOL    HW124452   0.763   0.429  17.426 -0.7723 -0.7200 -1.2228
 4331SOL    HW224453   0.622   0.389  17.412  0.8178 -1.9066  0.4213
 4332SOL     OW24454   0.084   3.757   3.767  0.1793  0.3452 -0.0729
 4332SOL    HW124455   0.159   3.701   3.786 -1.1544 -1.8451 -1.2505
 4332SOL    HW224456   0.094   3.835   3.821 -1.2935  0.4068  0.1174
 4333SOL     OW24457   4.575   0.524   7.256 -0.4838  0.0689 -0.9143
 4333SOL    HW124458   4.531   0.606   7.280  1.0584 -0.1609  2.7236
 4333SOL    HW224459   4.667   0.542   7.272 -0.6981  0.6133 -0.2455
 4334SOL     OW24460   1.932   1.386   4.627 -0.4032 -0.0664 -0.0562
 4334SOL    HW124461   1.877   1.400   4.550  2.3141  1.7232 -1.7038
 4334SOL    HW224462   2.016   1.363   4.586  1.2946  2.4164  2.0360
 4335SOL     OW24463   2.961   3.931   6.627 -0.1875 -0.3623 -0.5272
 4335SOL    HW124464   3.027   3.982   6.674  0.3729 -1.4138 -0.1602
 4335SOL    HW224465   3.021   3.877   6.577 -1.1610 -1.9563  0.0156
 4336SOL     OW24466   0.714   0.629   4.519  0.0344 -0.0006 -0.3534
 4336SOL    HW124467   0.632   0.604   4.561  1.1180 -0.9704  1.2055
 4336SOL    HW224468   0.673   0.665   4.441  0.3815  0.7098 -0.2015
 4337SOL     OW24469   0.366   1.870   8.904 -0.4647 -0.3322 -0.5013
 4337SOL    HW124470   0.457   1.890   8.927 -1.1753  2.5666 -0.2451
 4337SOL    HW224471   0.358   1.777   8.927  1.2842 -0.8433 -1.9340
 4338SOL     OW24472   2.348   0.414   4.858 -0.4977 -0.3144  0.3040
 4338SOL    HW124473   2.425   0.358   4.850 -0.2509 -0.1604  1.6836
 4338SOL    HW224474   2.286   0.379   4.922  0.8676 -0.1682  1.7000
 4339SOL     OW24475   1.990   3.544   0.227 -0.2945 -0.0245  0.0298
 4339SOL    HW124476   1.991   3.588   0.312 -0.2427  2.0983 -1.0746
 4339SOL    HW224477   2.006   3.455   0.258 -0.4207  0.3628  1.2302
 4340SOL     OW24478   0.834   3.530   9.958 -0.0579  0.2012 -0.3004
 4340SOL    HW124479   0.909   3.562  10.008 -1.3776  1.5613  0.8316
 4340SOL    HW224480   0.828   3.440   9.991  1.6392 -0.0451 -0.6699
 4341SOL     OW24481   3.421   1.215   1.500 -0.1408 -0.2208 -0.0905
 4341SOL    HW124482   3.496   1.259   1.460 -0.3541  0.5555  0.3794
 4341SOL    HW224483   3.399   1.277   1.569 -0.6998 -0.5634  0.0458
 4342SOL     OW24484   0.821   1.904   0.293 -0.6104 -0.3621 -0.8453
 4342SOL    HW124485   0.901   1.854   0.280  1.5134  2.2197  2.1704
 4342SOL    HW224486   0.856   1.983   0.334 -0.5851  0.6034 -2.7459
 4343SOL     OW24487   4.583   3.204   8.474 -0.1621  0.1007 -0.2370
 4343SOL    HW124488   4.609   3.157   8.553 -2.0924 -0.1025  0.2715
 4343SOL    HW224489   4.530   3.136   8.431  0.9663  0.2466 -1.8447
 4344SOL     OW24490   1.842   0.257   7.379 -0.1690 -0.3983 -0.0066
 4344SOL    HW124491   1.802   0.176   7.348 -0.9210 -0.6330  1.5523
 4344SOL    HW224492   1.937   0.249   7.374 -0.1441 -0.4491  0.4796
 4345SOL     OW24493   2.145   0.651  17.322 -0.0787 -0.0170 -0.0993
 4345SOL    HW124494   2.086   0.577  17.310 -0.7879  0.3303  1.3143
 4345SOL    HW224495   2.232   0.612  17.308 -0.7301 -0.9756 -1.4740
 4346SOL     OW24496   1.778   3.655   9.872 -0.3061 -0.4105  0.6306
 4346SOL    HW124497   1.707   3.597   9.900 -0.3994 -1.2938 -1.4792
 4346SOL    HW224498   1.824   3.603   9.806 -0.4713 -1.5155  1.3768
 4347SOL     OW24499   3.043   3.510   3.140 -0.1720 -0.4579  0.2451
 4347SOL    HW124500   2.999   3.586   3.178  1.2382 -0.5825  2.1669
 4347SOL    HW224501   2.975   3.481   3.080  0.4337 -1.3421 -0.0281
 4348SOL     OW24502   0.952   4.572   9.510  0.5997 -0.0813  0.1112
 4348SOL    HW124503   1.031   4.609   9.548  0.7655  0.2349 -0.5479
 4348SOL    HW224504   0.993   4.526   9.436  2.4780 -0.8331  1.6386
 4349SOL     OW24505   2.750   2.898   1.938 -0.5425 -0.1208  0.2410
 4349SOL    HW124506   2.708   2.974   1.897 -1.0256 -0.2483  0.4901
 4349SOL    HW224507   2.838   2.931   1.953 -0.5782  0.2922 -0.4724
 4350SOL     OW24508   4.318   2.738   1.898  0.2536  0.4965  0.2222
 4350SOL    HW124509   4.293   2.656   1.940 -0.0370 -0.3195 -1.5029
 4350SOL    HW224510   4.387   2.713   1.836  0.2339  1.9756 -0.3876
 4351SOL     OW24511   1.895   3.086   0.302  0.6049 -0.5822 -0.1799
 4351SOL    HW124512   1.918   3.022   0.370 -0.9664 -3.3869 -2.2723
 4351SOL    HW224513   1.886   3.162   0.359  0.8837 -1.2252  0.7065
 4352SOL     OW24514   1.954   1.098   7.371 -0.0679  0.3011  0.0248
 4352SOL    HW124515   1.992   1.067   7.289  0.4977 -0.1621  0.4678
 4352SOL    HW224516   2.028   1.137   7.417 -2.6989  4.0676  1.1373
 4353SOL     OW24517   1.487   4.298  13.235  0.2029  0.0275 -0.3398
 4353SOL    HW124518   1.464   4.368  13.174  0.4734  0.1239 -0.3312
 4353SOL    HW224519   1.525   4.346  13.308 -1.3368 -0.0198  0.4750
 4354SOL     OW24520   1.949   2.884   4.570 -0.4138  0.1387  0.8639
 4354SOL    HW124521   1.889   2.862   4.642  1.1413 -2.8842  1.2396
 4354SOL    HW224522   1.892   2.938   4.515 -1.7002 -2.5160 -0.3673
 4355SOL     OW24523   0.534   1.068  12.537  0.9093 -0.4666  0.7320
 4355SOL    HW124524   0.540   0.979  12.504 -0.2097  0.1225 -1.0443
 4355SOL    HW224525   0.449   1.053  12.579 -0.0926  1.1955 -0.7402
 4356SOL     OW24526   3.990   2.254   4.455  0.0314 -0.4307 -0.1918
 4356SOL    HW124527   4.003   2.216   4.369 -1.8307  0.5076 -0.8696
 4356SOL    HW224528   3.998   2.177   4.512  1.1488 -1.1864 -1.3791
 4357SOL     OW24529   3.195   3.390   7.909 -0.7037  0.5335  0.0217
 4357SOL    HW124530   3.270   3.351   7.864 -0.0998  0.6769  0.9255
 4357SOL    HW224531   3.243   3.465   7.944  0.2372  0.2398 -0.6210
 4358SOL     OW24532   0.137   0.031   6.540 -0.4710  0.0270  1.1457
 4358SOL    HW124533   0.164   4.720   6.624 -0.9043 -0.3855  1.1176
 4358SOL    HW224534   0.147   4.687   6.473 -1.3300  2.5692 -1.5503
 4359SOL     OW24535   0.612   3.425   8.344 -0.1693 -0.0841 -0.1778
 4359SOL    HW124536   0.561   3.410   8.424 -1.6610  0.7815 -0.9792
 4359SOL    HW224537   0.623   3.335   8.314 -0.6410 -0.1230 -0.2204
 4360SOL     OW24538   3.709   4.105   7.545 -0.3026 -0.5568  0.7277
 4360SOL    HW124539   3.800   4.075   7.552 -0.0092  0.0977 -0.2414
 4360SOL    HW224540   3.715   4.174   7.478 -1.5857  0.7226  1.9263
 4361SOL     OW24541   0.299   4.004   0.631 -0.1747  0.2227 -0.0397
 4361SOL    HW124542   0.298   3.938   0.700 -0.1864  0.0443 -0.2127
 4361SOL    HW224543   0.358   3.961   0.570  1.1344  3.9514 -1.3821
 4362SOL     OW24544   4.330   3.610   4.759 -0.3219 -0.1614  0.4569
 4362SOL    HW124545   4.244   3.568   4.751 -1.9040  2.7223  2.6744
 4362SOL    HW224546   4.390   3.536   4.771 -0.3422 -0.3606 -0.6679
 4363SOL     OW24547   2.003   1.054   8.727  0.1084 -0.3054 -0.3320
 4363SOL    HW124548   2.071   0.987   8.729 -0.0496 -0.4375  0.9330
 4363SOL    HW224549   1.937   1.020   8.788  1.3021  1.0687  1.7755
 4364SOL     OW24550   0.220   1.258  11.662 -0.6980  0.1013  0.0127
 4364SOL    HW124551   0.275   1.291  11.734 -0.6958 -0.2212  0.1616
 4364SOL    HW224552   0.207   1.332  11.603  0.4509  0.7271  0.5397
 4365SOL     OW24553   2.955   1.606  12.066  0.1936 -0.3773  0.2248
 4365SOL    HW124554   3.035   1.599  12.118  0.9905  1.5604 -0.7496
 4365SOL    HW224555   2.960   1.515  12.039  0.8007 -0.0708 -0.6980
 4366SOL     OW24556   3.779   0.474   0.964  0.0511 -0.1009  0.4032
 4366SOL    HW124557   3.857   0.522   0.935 -0.5361  0.9721  0.5857
 4366SOL    HW224558   3.783   0.500   1.056  2.2492 -1.6063  0.7084
 4367SOL     OW24559   2.755   1.925  16.672 -0.1559 -0.3993 -0.1200
 4367SOL    HW124560   2.721   1.934  16.761  0.3920 -0.2804  0.0724
 4367SOL    HW224561   2.754   2.015  16.641  2.0937 -0.6480 -0.8976
 4368SOL     OW24562   1.465   1.918   3.976  0.4418 -0.6998  0.0353
 4368SOL    HW124563   1.373   1.918   3.950  1.5600 -2.4663 -3.8833
 4368SOL    HW224564   1.460   1.851   4.044 -0.0692 -1.3409 -0.6393
 4369SOL     OW24565   4.629   1.732   6.673 -0.0646 -0.4968 -0.1347
 4369SOL    HW124566   4.706   1.745   6.729 -0.8469  1.0563  0.5856
 4369SOL    HW224567   4.669   1.730   6.586  2.8863 -1.1011  1.2150
 4370SOL     OW24568   4.673   3.994   1.971  0.2303 -0.4466 -0.2896
 4370SOL    HW124569   4.665   3.990   2.066  2.4967 -2.1290 -0.1392
 4370SOL    HW224570   0.040   4.025   1.961  0.0462 -0.0606 -0.7553
 4371SOL     OW24571   1.580   3.765   6.492  0.2765  0.2356 -0.0787
 4371SOL    HW124572   1.653   3.787   6.550  0.5450 -2.7120  0.6763
 4371SOL    HW224573   1.560   3.851   6.456 -1.7015  1.0645  3.0142
 4372SOL     OW24574   3.420   0.283   2.032  0.4647  0.3651 -0.1210
 4372SOL    HW124575   3.488   0.241   2.085 -1.4181 -2.0629  0.4005
 4372SOL    HW224576   3.381   0.341   2.097 -0.5216 -0.8759  0.3981
 4373SOL     OW24577   3.282   2.872   8.042  0.2263 -0.7195 -0.1361
 4373SOL    HW124578   3.232   2.954   8.039  2.1691  0.5135  1.3480
 4373SOL    HW224579   3.345   2.876   7.970  1.0993  0.4847  0.7080
 4374SOL     OW24580   4.089   1.647   6.156  0.8179  0.1611  0.0782
 4374SOL    HW124581   4.134   1.615   6.234 -2.2003  3.4426  3.1835
 4374SOL    HW224582   4.129   1.592   6.089 -2.0061 -1.7633 -0.0446
 4375SOL     OW24583   1.904   3.276   1.143 -0.3364 -0.2114 -0.1260
 4375SOL    HW124584   1.958   3.327   1.203  0.1048 -0.8175 -0.0124
 4375SOL    HW224585   1.966   3.263   1.071 -0.5894 -0.5615 -0.2836
 4376SOL     OW24586   2.929   4.515   5.776  0.4684 -0.1748  0.0653
 4376SOL    HW124587   2.850   4.568   5.786  1.4153  1.7072 -2.2906
 4376SOL    HW224588   2.902   4.476   5.693  0.1686 -2.4462  1.2372
 4377SOL     OW24589   1.824   2.773  12.248  0.1281  0.6908  0.0239
 4377SOL    HW124590   1.860   2.685  12.250 -1.7285 -0.1079 -1.1204
 4377SOL    HW224591   1.910   2.815  12.251  0.5929 -0.1647 -1.3978
 4378SOL     OW24592   3.916   0.378  11.243  0.6117 -0.0544  0.2268
 4378SOL    HW124593   3.992   0.324  11.219 -0.3001 -0.0316 -2.7153
 4378SOL    HW224594   3.967   0.458  11.256 -0.5662  0.7129  0.1197
 4379SOL     OW24595   0.378   1.339   2.671  0.4386 -0.5421  0.1943
 4379SOL    HW124596   0.361   1.418   2.620  1.0400 -1.4323 -1.3926
 4379SOL    HW224597   0.420   1.381   2.745 -3.0725  0.6290  1.5314
 4380SOL     OW24598   1.059   4.615  11.854 -0.1513 -0.3908 -0.0066
 4380SOL    HW124599   1.033   4.568  11.774 -0.7619  2.0753 -1.2377
 4380SOL    HW224600   1.073   4.538  11.910 -1.5820  0.2354  1.2021
 4381SOL     OW24601   3.519   1.666  15.691 -0.1098  0.0800 -0.3111
 4381SOL    HW124602   3.484   1.693  15.606 -0.3078  0.2842 -0.1632
 4381SOL    HW224603   3.480   1.579  15.698 -2.3264  1.2098  1.1145
 4382SOL     OW24604   3.461   2.479   6.637 -0.1523 -0.3878 -0.4889
 4382SOL    HW124605   3.540   2.425   6.632 -0.0810 -0.2380 -1.0295
 4382SOL    HW224606   3.501   2.565   6.624 -0.1958 -0.2270  0.4748
 4383SOL     OW24607   1.967   0.457  17.288  0.4516  0.2124 -0.1685
 4383SOL    HW124608   1.941   0.457  17.380  0.2558  0.2815 -0.2224
 4383SOL    HW224609   1.889   0.409  17.259  0.0843 -0.6418  2.2782
 4384SOL     OW24610   3.862   0.346   2.592 -0.0103  0.1732 -0.0352
 4384SOL    HW124611   3.862   0.253   2.569  1.0912  0.0086  0.6182
 4384SOL    HW224612   3.768   0.361   2.590  0.2044  1.2708 -1.4478
 4385SOL     OW24613   0.246   0.407   1.344  0.1405  0.4710 -0.0171
 4385SOL    HW124614   0.153   0.425   1.356 -0.5775 -3.7846  0.9792
 4385SOL    HW224615   0.263   0.336   1.406 -0.9963 -1.2346 -1.6470
 4386SOL     OW24616   0.301   1.976   8.290 -0.3962 -0.4510 -0.3011
 4386SOL    HW124617   0.277   1.961   8.382  0.4952 -2.9193 -0.4626
 4386SOL    HW224618   0.228   2.031   8.264 -0.5005 -0.1728  0.5626
 4387SOL     OW24619   4.581   2.651  14.547 -0.5056 -0.3590  0.3780
 4387SOL    HW124620   4.517   2.581  14.530 -1.7490  0.6744  0.7824
 4387SOL    HW224621   4.651   2.634  14.484  1.0672  1.1168  1.7199
 4388SOL     OW24622   0.001   2.959  12.060  0.0454 -0.0951  0.0548
 4388SOL    HW124623   4.680   2.935  12.142  0.2712  0.0840  0.2325
 4388SOL    HW224624   0.079   2.998  12.100 -0.7495 -0.0296  1.5702
 4389SOL     OW24625   0.973   1.312  12.633  0.1481  0.0721  0.1724
 4389SOL    HW124626   0.925   1.337  12.554  0.4734 -1.0955 -0.3949
 4389SOL    HW224627   0.896   1.289  12.684 -0.7806  0.5412 -1.0028
 4390SOL     OW24628   1.473   1.533   3.247 -0.6932  0.2761 -0.0070
 4390SOL    HW124629   1.443   1.507   3.160 -1.0793  1.3144 -0.1843
 4390SOL    HW224630   1.421   1.613   3.258  0.2708  0.8370  0.4975
 4391SOL     OW24631   3.084   0.618   1.120 -0.2146 -0.0930 -0.9460
 4391SOL    HW124632   3.172   0.647   1.143 -0.3673  0.7453 -1.3852
 4391SOL    HW224633   3.045   0.605   1.207  0.2258 -1.1383 -0.9149
 4392SOL     OW24634   0.456   3.343  16.214 -0.1357  0.0588  0.2099
 4392SOL    HW124635   0.376   3.311  16.172  0.0472  0.6309 -0.5852
 4392SOL    HW224636   0.447   3.301  16.299 -1.8321  0.8921  0.4469
 4393SOL     OW24637   0.593   2.728   0.169 -0.5672 -0.2510  0.7344
 4393SOL    HW124638   0.668   2.673   0.145  0.4242  2.0494 -1.4953
 4393SOL    HW224639   0.599   2.728   0.264  0.3629 -3.0139  0.6704
 4394SOL     OW24640   4.023   1.715   7.878 -0.4296  0.7034 -0.3807
 4394SOL    HW124641   4.023   1.810   7.873  2.7529  0.7783  1.2781
 4394SOL    HW224642   4.073   1.693   7.799 -0.2676  0.5844 -0.2465
 4395SOL     OW24643   0.700   3.795  10.028 -0.2862  0.0038 -0.9048
 4395SOL    HW124644   0.671   3.785  10.119  0.7089 -0.0270 -0.5955
 4395SOL    HW224645   0.741   3.713  10.001 -2.2499 -1.4686  0.5486
 4396SOL     OW24646   2.872   0.135   6.934  0.0252 -0.0576  0.1134
 4396SOL    HW124647   2.851   0.156   6.843 -1.5185 -0.7328  0.3220
 4396SOL    HW224648   2.797   0.082   6.958  1.4173 -0.5950  3.3358
 4397SOL     OW24649   3.852   2.978   8.725  0.1332  0.0641  0.5726
 4397SOL    HW124650   3.909   3.040   8.678  1.1621 -0.0752  1.6207
 4397SOL    HW224651   3.846   2.900   8.671  0.5181 -0.6033  1.5028
 4398SOL     OW24652   2.829   3.460   2.950  0.1159 -0.3851  0.5132
 4398SOL    HW124653   2.761   3.478   3.015  0.0778 -0.0475  0.3759
 4398SOL    HW224654   2.777   3.464   2.870  1.1628  0.4019 -0.1221
 4399SOL     OW24655   3.812   0.080   2.343  0.0257 -0.3803  0.1972
 4399SOL    HW124656   3.838   0.018   2.275  1.4081  0.7050 -0.2716
 4399SOL    HW224657   3.791   0.013   2.408  0.6362 -1.2783 -0.5257
 4400SOL     OW24658   0.561   1.761   5.442  0.8300 -0.2735 -0.2080
 4400SOL    HW124659   0.633   1.741   5.383  0.8337 -1.2834  0.1389
 4400SOL    HW224660   0.548   1.856   5.436 -1.1133 -0.5305  0.0142
 4401SOL     OW24661   2.793   4.004   9.988 -0.3942  0.4757 -0.1127
 4401SOL    HW124662   2.781   3.977   9.897  0.5673  0.5040 -0.2464
 4401SOL    HW224663   2.722   4.068   9.997 -1.5967 -0.9985  0.7143
 4402SOL     OW24664   3.446   4.627   3.528  0.1616 -0.1269 -0.3396
 4402SOL    HW124665   3.495   4.559   3.574  2.0327  2.2847  1.2908
 4402SOL    HW224666   3.517   4.680   3.492  0.0957  0.0794 -0.1650
 4403SOL     OW24667   2.673   1.850   1.100  0.3768 -0.4071  0.5753
 4403SOL    HW124668   2.630   1.767   1.121 -2.1964  0.9266  0.6207
 4403SOL    HW224669   2.754   1.840   1.150 -0.1048 -2.7168  0.9274
 4404SOL     OW24670   3.564   3.601  10.086  0.6149 -0.4617  0.1430
 4404SOL    HW124671   3.495   3.607  10.152 -1.1677  2.6226 -1.9918
 4404SOL    HW224672   3.601   3.689  10.086  0.0207 -0.2121  1.4407
 4405SOL     OW24673   3.871   3.764   6.708 -0.5441 -0.2352 -0.1340
 4405SOL    HW124674   3.814   3.818   6.763 -0.0615 -1.5334  1.6421
 4405SOL    HW224675   3.941   3.746   6.770  0.1169 -0.4952 -0.9601
 4406SOL     OW24676   1.409   3.845   8.176  0.7834  0.5142 -0.6239
 4406SOL    HW124677   1.344   3.892   8.229  0.9861 -0.0420  0.1064
 4406SOL    HW224678   1.402   3.760   8.219 -1.7128  0.8837 -0.2957
 4407SOL     OW24679   3.762   2.415   5.033 -0.2318  0.3864 -0.3560
 4407SOL    HW124680   3.731   2.493   4.986  0.0233  0.1339 -0.9424
 4407SOL    HW224681   3.769   2.439   5.125 -0.8409  0.6462 -0.3758
 4408SOL     OW24682   3.948   2.353   7.043 -0.1550 -0.2628  0.3889
 4408SOL    HW124683   3.937   2.448   7.042 -2.8921 -0.5888  0.2682
 4408SOL    HW224684   3.871   2.317   7.000 -0.9724 -0.8099  2.3017
 4409SOL     OW24685   3.107   1.698   3.393  0.0702 -0.3560 -0.0170
 4409SOL    HW124686   3.060   1.773   3.428  1.8221 -0.6331  2.8927
 4409SOL    HW224687   3.083   1.632   3.457 -0.2488 -1.5443 -1.3465
 4410SOL     OW24688   2.688   1.238   8.704  0.2672  0.5591  0.1443
 4410SOL    HW124689   2.635   1.269   8.777  2.1680  1.4174  1.1640
 4410SOL    HW224690   2.616   1.231   8.641  1.1739 -0.1926 -0.8221
 4411SOL     OW24691   1.067   0.493   4.346  0.4661  0.2733 -0.3864
 4411SOL    HW124692   1.036   0.526   4.431 -1.0359 -0.0458 -0.8099
 4411SOL    HW224693   0.986   0.471   4.300  0.1613 -1.1348  0.8353
 4412SOL     OW24694   3.812   4.664   6.239 -0.3649  0.6025 -0.0842
 4412SOL    HW124695   3.752   4.630   6.306  2.3101 -1.7771  1.1151
 4412SOL    HW224696   3.893   4.669   6.290  0.8274 -1.6974 -1.7906
 4413SOL     OW24697   3.900   0.169   5.656  0.3490 -0.3934 -0.0960
 4413SOL    HW124698   3.812   0.178   5.690  0.9908 -0.4519  1.5616
 4413SOL    HW224699   3.942   0.208   5.732  0.9692 -3.5312  1.1759
 4414SOL     OW24700   1.231   0.095  12.697 -0.5417  0.0670  0.8536
 4414SOL    HW124701   1.181   0.039  12.638  0.8168 -0.6660  0.3918
 4414SOL    HW224702   1.316   0.052  12.691 -1.4993 -1.7086 -0.2501
 4415SOL     OW24703   3.581   4.086  10.429 -0.2904  0.0021  0.6733
 4415SOL    HW124704   3.512   4.020  10.436 -0.7459  0.3009 -0.8812
 4415SOL    HW224705   3.646   4.059  10.493 -0.4101  0.0639  0.8205
 4416SOL     OW24706   0.598   2.908  14.750  0.2454 -0.1911  0.0825
 4416SOL    HW124707   0.523   2.955  14.787  0.2560  0.4994 -0.7753
 4416SOL    HW224708   0.614   2.851  14.825  1.5361  1.6434  1.1976
 4417SOL     OW24709   2.900   0.759  15.998 -0.7050 -0.3101  0.8855
 4417SOL    HW124710   2.861   0.687  15.949 -1.1170  0.1775  0.4922
 4417SOL    HW224711   2.829   0.776  16.061 -0.7692 -1.2464  1.0637
 4418SOL     OW24712   0.659   1.196   8.947 -0.2116 -0.3160  0.1913
 4418SOL    HW124713   0.636   1.165   9.035 -3.1949  0.4401 -0.3271
 4418SOL    HW224714   0.595   1.143   8.898  0.7103 -0.6689 -0.6496
 4419SOL     OW24715   0.725   2.576   6.564 -0.1379 -0.6366  0.0028
 4419SOL    HW124716   0.814   2.542   6.561 -1.3244 -3.7981  0.2278
 4419SOL    HW224717   0.702   2.605   6.653 -0.1401  0.5359 -0.3831
 4420SOL     OW24718   3.428   3.028   5.043  0.0597  0.2216 -0.0128
 4420SOL    HW124719   3.353   3.079   5.013 -0.1155  0.6356  1.1267
 4420SOL    HW224720   3.436   3.046   5.136  1.2503  3.8254 -0.7913
 4421SOL     OW24721   4.540   0.357   3.552  0.4778 -0.8184 -0.4063
 4421SOL    HW124722   4.569   0.332   3.640 -0.5364 -0.0482  0.1529
 4421SOL    HW224723   4.621   0.357   3.502  1.0419 -1.9826  0.4783
 4422SOL     OW24724   2.355   2.516   5.080 -0.1684  0.1091  0.1875
 4422SOL    HW124725   2.333   2.574   5.153  1.7244  0.1836  0.6950
 4422SOL    HW224726   2.449   2.534   5.079 -0.2026  0.2841  0.1456
 4423SOL     OW24727   2.374   4.053   2.741 -0.1702  0.5130  0.4264
 4423SOL    HW124728   2.408   3.964   2.730 -0.4530  0.2512  1.6609
 4423SOL    HW224729   2.280   4.035   2.747  0.4586 -1.9272  2.8498
 4424SOL     OW24730   3.912   4.260   5.511  0.0873  0.6267 -0.0882
 4424SOL    HW124731   3.966   4.255   5.433 -1.7942 -2.0207 -1.2186
 4424SOL    HW224732   3.846   4.322   5.480  0.6426  0.8159 -0.8888
 4425SOL     OW24733   3.514   3.588   1.231  0.3792 -0.5990 -0.4589
 4425SOL    HW124734   3.526   3.669   1.183 -0.6712 -0.4654 -0.4870
 4425SOL    HW224735   3.457   3.547   1.167 -0.8392  0.0612  0.2001
 4426SOL     OW24736   1.703   3.742   3.027  0.3441  0.1848 -0.2977
 4426SOL    HW124737   1.716   3.668   3.086  0.2451 -1.8914 -2.8670
 4426SOL    HW224738   1.612   3.747   3.056 -0.0195  0.1473 -1.4515
 4427SOL     OW24739   3.437   1.698   8.862 -0.0399  0.3250 -0.9206
 4427SOL    HW124740   3.466   1.787   8.880 -0.1917  0.5228 -1.6725
 4427SOL    HW224741   3.402   1.671   8.948  1.8349 -1.0969 -0.6147
 4428SOL     OW24742   3.064   1.414  15.991 -0.2682 -0.0244  0.3169
 4428SOL    HW124743   3.073   1.387  15.900  0.1708 -0.0577  0.3684
 4428SOL    HW224744   3.034   1.331  16.029 -1.1423 -0.5523 -1.5373
 4429SOL     OW24745   0.915   2.332   3.252 -0.0856 -0.2531  0.1279
 4429SOL    HW124746   0.925   2.406   3.313  0.9203 -1.6089  1.6050
 4429SOL    HW224747   0.822   2.310   3.256 -0.0174 -0.6130 -0.2846
 4430SOL     OW24748   4.036   4.157   0.748  0.6222 -0.2047 -0.1712
 4430SOL    HW124749   3.986   4.239   0.749  0.3113 -0.3771 -1.2909
 4430SOL    HW224750   4.119   4.172   0.793  1.4686 -0.0582 -1.7826
 4431SOL     OW24751   2.915   3.136   0.509  0.9352 -0.1869 -0.5308
 4431SOL    HW124752   2.929   3.173   0.597  1.7331  1.1723 -1.2264
 4431SOL    HW224753   2.822   3.159   0.504  1.2468  0.8259 -1.6646
 4432SOL     OW24754   3.898   1.185   9.275  0.6064 -0.1956 -0.1095
 4432SOL    HW124755   3.909   1.239   9.353  0.9168 -0.4469  0.0232
 4432SOL    HW224756   3.982   1.139   9.266  0.1883 -0.4253 -2.8839
 4433SOL     OW24757   1.255   1.967   8.362 -0.1571 -0.1699  0.4936
 4433SOL    HW124758   1.322   1.930   8.418  1.7387  0.8360 -1.1061
 4433SOL    HW224759   1.306   1.992   8.285 -2.3092 -0.2077 -0.9641
 4434SOL     OW24760   2.137   0.751   5.162 -0.0724 -0.8719  0.4607
 4434SOL    HW124761   2.228   0.752   5.130 -0.0977 -2.3713  0.3513
 4434SOL    HW224762   2.100   0.669   5.129 -1.1493 -0.4148  0.5553
 4435SOL     OW24763   0.544   3.731   3.363  0.0181 -0.5558 -0.5222
 4435SOL    HW124764   0.617   3.687   3.320  1.7124  0.6404  1.1527
 4435SOL    HW224765   0.581   3.746   3.449  0.3019 -1.3869 -0.5051
 4436SOL     OW24766   0.899   1.117   9.708 -0.4105 -0.3578  0.6946
 4436SOL    HW124767   0.951   1.098   9.786 -0.7101 -0.6750  0.8195
 4436SOL    HW224768   0.911   1.211   9.694 -0.2708 -0.3223  1.0560
 4437SOL     OW24769   0.311   3.589   9.575  0.1914 -0.5045 -0.1657
 4437SOL    HW124770   0.338   3.650   9.644  0.9005 -0.9505 -0.0350
 4437SOL    HW224771   0.343   3.630   9.495  1.5229 -0.2792  0.4810
 4438SOL     OW24772   1.933   3.189  10.243  0.1774  0.5030 -0.3594
 4438SOL    HW124773   1.946   3.256  10.176  0.3679 -0.6657 -1.4831
 4438SOL    HW224774   2.000   3.209  10.308  0.2837  2.9650 -1.2294
 4439SOL     OW24775   2.457   2.108   7.761  0.0182  0.1892  0.3321
 4439SOL    HW124776   2.486   2.019   7.740  1.8478  0.8678 -0.0207
 4439SOL    HW224777   2.538   2.146   7.793  0.9672  0.4044 -2.2800
 4440SOL     OW24778   2.674   1.734   7.980  0.2284 -0.1295  0.0048
 4440SOL    HW124779   2.641   1.692   8.059 -1.0375  0.3550 -0.2623
 4440SOL    HW224780   2.744   1.672   7.958  0.2907 -0.5948  1.5597
 4441SOL     OW24781   1.366   3.029   5.352  0.4963  0.2281 -1.2458
 4441SOL    HW124782   1.397   3.114   5.319  2.1019 -0.0184 -0.3526
 4441SOL    HW224783   1.448   2.979   5.348  0.2241 -0.3577  0.5083
 4442SOL     OW24784   2.627   1.560   1.312  0.0801  0.3288  0.1336
 4442SOL    HW124785   2.714   1.543   1.348 -0.0939  0.9974  0.8566
 4442SOL    HW224786   2.642   1.545   1.218  0.6596 -2.6734  0.6966
 4443SOL     OW24787   3.142   1.983   1.324 -0.5123 -0.2109  0.6477
 4443SOL    HW124788   3.127   2.055   1.262  0.4192 -1.3858 -0.9574
 4443SOL    HW224789   3.187   1.922   1.266 -2.9713  0.1272 -1.6258
 4444SOL     OW24790   2.458   3.117   9.070  0.1531  0.3797 -0.7868
 4444SOL    HW124791   2.454   3.164   9.153 -0.0924  1.2062 -1.2635
 4444SOL    HW224792   2.375   3.070   9.073 -0.8403  2.1593 -0.2513
 4445SOL     OW24793   3.112   1.485   7.442 -0.0678 -0.1911 -0.0364
 4445SOL    HW124794   3.071   1.556   7.492 -2.5141  0.2479 -2.7102
 4445SOL    HW224795   3.181   1.448   7.498  0.7722  1.7044  0.1886
 4446SOL     OW24796   1.954   3.148   5.599  0.4218 -0.8612  0.0082
 4446SOL    HW124797   1.933   3.221   5.658  2.3476 -0.3681  0.0742
 4446SOL    HW224798   2.038   3.120   5.633 -0.8705 -3.4539  1.0550
 4447SOL     OW24799   3.969   2.268   8.834 -0.3295 -0.1555  0.2127
 4447SOL    HW124800   4.027   2.257   8.910 -1.5424  0.7492  1.2793
 4447SOL    HW224801   4.018   2.231   8.761 -1.7753 -1.4848 -0.0958
 4448SOL     OW24802   1.336   3.119   6.378  0.0709 -0.1281  0.4891
 4448SOL    HW124803   1.371   3.101   6.290  2.0950 -1.0781  1.4861
 4448SOL    HW224804   1.417   3.094   6.423  0.8637  0.6484 -0.4990
 4449SOL     OW24805   1.801   3.695  13.190 -0.0771  0.3540 -0.2180
 4449SOL    HW124806   1.784   3.641  13.114 -3.2940  0.5575  0.3772
 4449SOL    HW224807   1.853   3.767  13.153 -0.6375  1.7841  1.7358
 4450SOL     OW24808   2.125   2.938   3.166 -0.5900  0.0011 -0.2485
 4450SOL    HW124809   2.205   2.917   3.118  0.8229  0.0338  2.1111
 4450SOL    HW224810   2.149   3.029   3.187  1.5535 -0.4728 -0.5682
 4451SOL     OW24811   4.618   0.590  17.467  0.2605  0.3203 -0.1025
 4451SOL    HW124812   4.674   0.620  17.396 -0.4573  0.7062 -0.5021
 4451SOL    HW224813   4.545   0.651  17.458  0.3711  0.3607 -0.7016
 4452SOL     OW24814   0.636   3.706   5.958 -0.1853 -0.0342  0.8290
 4452SOL    HW124815   0.567   3.728   6.020 -2.5475 -0.4964 -1.6178
 4452SOL    HW224816   0.697   3.646   6.002 -0.0291 -1.8998 -1.8821
 4453SOL     OW24817   4.425   1.954  13.527 -0.1218 -0.2486  0.0631
 4453SOL    HW124818   4.420   1.875  13.473 -2.1936 -1.0199  1.4000
 4453SOL    HW224819   4.506   1.995  13.496 -0.6539 -0.2050 -1.2675
 4454SOL     OW24820   4.660   1.873  16.763  0.3443 -0.2098  0.1486
 4454SOL    HW124821   4.667   1.886  16.668 -3.1944 -0.7229 -0.1975
 4454SOL    HW224822   4.692   1.956  16.796  0.9198 -0.9291  1.4132
 4455SOL     OW24823   0.703   0.472   0.251 -0.1761 -0.8251  0.8031
 4455SOL    HW124824   0.693   0.403   0.185  0.4830  0.0549 -0.1999
 4455SOL    HW224825   0.654   0.434   0.324  1.4958 -0.8378  1.9202
 4456SOL     OW24826   2.887   2.855   5.995  0.3122  0.3637 -0.2204
 4456SOL    HW124827   2.917   2.884   5.909  0.8074  3.6634  1.0458
 4456SOL    HW224828   2.855   2.932   6.042 -1.8844 -0.8260  0.2551
 4457SOL     OW24829   2.107   4.063   9.730 -0.2952 -0.0520 -0.1401
 4457SOL    HW124830   2.084   4.086   9.640 -0.4494 -1.2198 -0.3977
 4457SOL    HW224831   2.091   3.968   9.733  0.2590 -0.1385  0.0424
 4458SOL     OW24832   4.004   4.657   4.304  0.6181 -0.0580  0.2911
 4458SOL    HW124833   3.987   4.565   4.323  0.0036  0.2666  1.3247
 4458SOL    HW224834   3.953   4.672   4.225 -1.4393 -0.7170  1.4860
 4459SOL     OW24835   2.504   4.243   0.414 -0.0485 -0.0478 -0.6050
 4459SOL    HW124836   2.534   4.224   0.503 -2.2418 -1.7361 -0.2358
 4459SOL    HW224837   2.588   4.268   0.375  0.2936 -1.3400 -0.6815
 4460SOL     OW24838   3.953   3.022   3.719  0.2275 -0.2508  0.5065
 4460SOL    HW124839   3.875   2.967   3.719 -0.4975  0.7622 -2.3066
 4460SOL    HW224840   3.925   3.112   3.736  0.1340  0.1804 -1.8546
 4461SOL     OW24841   3.630   0.877   1.999  0.1999 -0.3457  0.2157
 4461SOL    HW124842   3.548   0.925   2.012  0.9342  1.2989 -1.2264
 4461SOL    HW224843   3.683   0.955   1.985  2.4731 -1.7763  0.8539
 4462SOL     OW24844   2.485   4.207   8.171 -0.4115 -0.0236  0.3055
 4462SOL    HW124845   2.553   4.139   8.177  0.2000  0.4027 -1.7964
 4462SOL    HW224846   2.467   4.201   8.077 -0.8251  0.7702  0.3404
 4463SOL     OW24847   1.622   0.192   0.373 -0.0730  0.1359  0.8585
 4463SOL    HW124848   1.631   0.283   0.343 -3.2543 -0.8714 -3.1080
 4463SOL    HW224849   1.682   0.135   0.325 -0.4054 -0.3981  1.0726
 4464SOL     OW24850   1.675   0.174   3.168 -0.0970  0.1387 -0.0808
 4464SOL    HW124851   1.676   0.241   3.099  1.0538  1.5477  1.2942
 4464SOL    HW224852   1.658   0.106   3.104 -0.4560 -1.0277  1.2560
 4465SOL     OW24853   1.256   3.472   6.646  0.1875  0.7242 -0.3326
 4465SOL    HW124854   1.184   3.526   6.678  1.5874  2.8500 -0.7467
 4465SOL    HW224855   1.324   3.539   6.648  0.5922  0.2515  2.0529
 4466SOL     OW24856   1.620   2.451  16.201  0.4316 -0.0142 -0.1760
 4466SOL    HW124857   1.637   2.477  16.110 -2.3717  2.6793  0.0459
 4466SOL    HW224858   1.534   2.491  16.217 -0.1717 -1.0678 -0.8210
 4467SOL     OW24859   3.812   0.545   1.671  0.5852  0.4454  0.1765
 4467SOL    HW124860   3.762   0.627   1.666 -0.7102 -0.5018 -2.4245
 4467SOL    HW224861   3.824   0.525   1.763  0.0755  1.0828  0.3829
 4468SOL     OW24862   2.382   3.389  11.881 -0.1381  0.2816  0.1695
 4468SOL    HW124863   2.402   3.439  11.802  2.0173  0.7417  0.9941
 4468SOL    HW224864   2.301   3.432  11.907  0.6909  1.2021  1.2284
 4469SOL     OW24865   1.251   2.308   1.467 -0.0307  0.2922  0.0298
 4469SOL    HW124866   1.167   2.352   1.483 -0.4082 -1.2214  2.1425
 4469SOL    HW224867   1.319   2.355   1.516 -0.6378  0.5520  0.6260
 4470SOL     OW24868   4.324   3.047  14.529  0.1142 -0.0609  0.3475
 4470SOL    HW124869   4.270   3.094  14.466 -0.8664  0.0677  1.2701
 4470SOL    HW224870   4.376   3.120  14.562  0.4296 -0.7684  1.4260
 4471SOL     OW24871   1.445   4.190   7.397  0.2795  0.3549 -0.3204
 4471SOL    HW124872   1.497   4.257   7.441 -0.8513  1.0863 -0.1173
 4471SOL    HW224873   1.384   4.249   7.354 -0.6178 -1.2445 -1.2173
 4472SOL     OW24874   3.286   0.374   5.045 -0.3016  0.1436  0.2073
 4472SOL    HW124875   3.326   0.339   4.966 -0.7185  1.9277 -0.8079
 4472SOL    HW224876   3.321   0.330   5.122 -0.6682  1.2826  1.0240
 4473SOL     OW24877   0.537   0.302  12.350 -0.7858  0.1835 -0.7434
 4473SOL    HW124878   0.448   0.334  12.332 -0.9961 -0.4886 -0.8904
 4473SOL    HW224879   0.586   0.376  12.315 -1.0503  2.2634  3.2750
 4474SOL     OW24880   4.355   0.002   7.034 -0.2843 -0.2371  0.2373
 4474SOL    HW124881   4.325   0.081   6.989  1.4126  0.5173  0.4282
 4474SOL    HW224882   4.449   0.019   7.042 -0.2814  0.1411 -0.5391
 4475SOL     OW24883   3.788   0.981   7.263  0.3030  0.4334 -0.3054
 4475SOL    HW124884   3.811   1.065   7.221 -2.2435  1.2179 -0.0904
 4475SOL    HW224885   3.755   0.916   7.202 -1.2646  0.8754  0.0886
 4476SOL     OW24886   1.214   3.843   9.124  0.4253 -0.1056 -0.1303
 4476SOL    HW124887   1.171   3.928   9.135  0.6460 -0.0308  0.1385
 4476SOL    HW224888   1.145   3.783   9.096 -1.6357  2.8346 -1.3829
 4477SOL     OW24889   2.952   2.406   3.715 -0.4315  0.1519 -0.4597
 4477SOL    HW124890   3.044   2.417   3.740 -0.4178 -0.3793 -0.2809
 4477SOL    HW224891   2.939   2.311   3.719  0.3752  0.0955  1.1494
 4478SOL     OW24892   2.765   0.990   2.697  0.6027 -0.4038  0.0510
 4478SOL    HW124893   2.845   1.039   2.676 -1.4305  2.8337 -0.0851
 4478SOL    HW224894   2.721   1.046   2.760  1.9671 -1.5312  2.0472
 4479SOL     OW24895   4.194   3.464   6.426 -0.3223 -0.2598  0.4509
 4479SOL    HW124896   4.277   3.500   6.395 -1.8498  1.1449 -1.9342
 4479SOL    HW224897   4.164   3.537   6.480 -1.3065 -1.1175  1.0542
 4480SOL     OW24898   1.434   1.622   2.931 -0.2984  0.1795 -0.0916
 4480SOL    HW124899   1.361   1.671   2.893 -0.1397 -0.0488 -0.6934
 4480SOL    HW224900   1.486   1.600   2.854 -0.3487 -0.7124  0.1239
 4481SOL     OW24901   3.291   0.561   7.938  0.4643  0.3906 -0.5981
 4481SOL    HW124902   3.336   0.520   7.864 -1.6803 -2.1448 -0.4855
 4481SOL    HW224903   3.343   0.536   8.014 -0.4837  0.1317 -0.0339
 4482SOL     OW24904   1.451   2.992   2.070  0.3802  0.1013  0.1957
 4482SOL    HW124905   1.421   2.916   2.020 -0.1666 -1.4939  2.9894
 4482SOL    HW224906   1.497   3.049   2.008  0.9901 -0.7007 -0.0867
 4483SOL     OW24907   3.489   2.247   2.309  0.4812 -0.4880 -0.2250
 4483SOL    HW124908   3.423   2.297   2.262  2.6425 -0.0609 -2.8551
 4483SOL    HW224909   3.435   2.197   2.370  1.9285 -2.6965 -0.7494
 4484SOL     OW24910   1.442   0.967   7.853 -0.4999  0.1622  0.0776
 4484SOL    HW124911   1.511   0.940   7.793 -0.1756  2.5564 -0.6373
 4484SOL    HW224912   1.480   1.051   7.879  0.6197 -0.6176  0.9528
 4485SOL     OW24913   0.396   2.198   4.279 -0.2559 -0.1611 -0.3886
 4485SOL    HW124914   0.484   2.228   4.254 -0.6598  1.1290 -0.2268
 4485SOL    HW224915   0.378   2.134   4.209 -2.7806  0.4807 -0.3090
 4486SOL     OW24916   1.013   4.562   4.443  0.1337  0.0784  0.3510
 4486SOL    HW124917   0.938   4.614   4.413 -0.3564 -1.6005 -1.3475
 4486SOL    HW224918   1.008   4.582   4.536 -0.8736 -2.7032  0.9033
 4487SOL     OW24919   1.272   1.426   6.006 -0.6746  0.5755 -0.0644
 4487SOL    HW124920   1.243   1.517   6.001  1.3754  1.3905  2.9120
 4487SOL    HW224921   1.366   1.438   6.012 -0.4343 -1.1173 -0.2703
 4488SOL     OW24922   0.092   3.777  13.158  0.5813  0.3087  0.2135
 4488SOL    HW124923   0.168   3.805  13.108  0.3716  1.6535  0.6481
 4488SOL    HW224924   0.031   3.811  13.092  1.0036 -0.7248 -0.7028
 4489SOL     OW24925   1.531   0.674   7.513  0.4652  0.0366 -0.2581
 4489SOL    HW124926   1.544   0.695   7.605 -2.2992 -0.2260  0.1806
 4489SOL    HW224927   1.585   0.747   7.482 -1.8921  1.7527 -0.3358
 4490SOL     OW24928   1.478   3.990   2.871 -0.2745  0.3703  0.0327
 4490SOL    HW124929   1.487   4.015   2.779  0.4935 -0.3915 -0.0977
 4490SOL    HW224930   1.513   4.067   2.916  0.3984 -0.6936  1.3161
 4491SOL     OW24931   0.571   0.459   5.037  0.2241 -0.2871 -0.0471
 4491SOL    HW124932   0.504   0.527   5.024  1.3151  0.9245  0.7000
 4491SOL    HW224933   0.650   0.502   5.003  0.1030 -0.4615 -0.5541
 4492SOL     OW24934   4.568   2.320   3.406 -0.0455  0.0325  0.1129
 4492SOL    HW124935   4.509   2.331   3.480  0.6623 -0.3060  0.7220
 4492SOL    HW224936   4.523   2.368   3.337 -1.3687  1.5649  2.0532
 4493SOL     OW24937   2.763   3.950   9.547  0.2540  0.4004  0.4267
 4493SOL    HW124938   2.833   3.889   9.567  0.0846  0.3399  0.8245
 4493SOL    HW224939   2.794   4.029   9.591 -1.8825  2.0608 -1.0332
 4494SOL     OW24940   1.566   4.365  14.653 -0.7182  0.0286 -0.5969
 4494SOL    HW124941   1.537   4.293  14.598 -1.6604  1.1317 -1.5600
 4494SOL    HW224942   1.579   4.438  14.592 -0.2500  0.4805  0.0319
 4495SOL     OW24943   0.430   1.492  16.248 -0.2845  0.1051  0.5014
 4495SOL    HW124944   0.441   1.457  16.159 -1.3018  0.3940  0.2665
 4495SOL    HW224945   0.423   1.585  16.229  0.7157 -0.3633 -2.1809
 4496SOL     OW24946   2.685   3.450   8.589 -0.4054 -0.2875 -0.1677
 4496SOL    HW124947   2.764   3.501   8.570 -0.2772 -0.8922 -1.2660
 4496SOL    HW224948   2.629   3.479   8.517 -1.1721  1.5078  1.1584
 4497SOL     OW24949   0.245   0.806   1.694 -0.2313 -0.2541 -0.0282
 4497SOL    HW124950   0.182   0.797   1.622  0.1972  2.5776 -0.7552
 4497SOL    HW224951   0.276   0.896   1.693 -2.0415  0.3661 -0.0817
 4498SOL     OW24952   3.270   1.350   5.674  0.2728  0.0049 -0.3644
 4498SOL    HW124953   3.281   1.352   5.579 -0.5987  2.2855 -0.4141
 4498SOL    HW224954   3.334   1.285   5.704  1.7544  0.5811 -2.2580
 4499SOL     OW24955   0.416   3.263  11.407 -0.1472  0.8449  0.2776
 4499SOL    HW124956   0.384   3.289  11.320 -0.9863  2.8351  1.1564
 4499SOL    HW224957   0.492   3.206  11.400 -0.6839  0.1632  0.0173
 4500SOL     OW24958   2.610   3.393   4.316  0.2948 -0.1571  0.6878
 4500SOL    HW124959   2.665   3.367   4.390 -0.1632  2.9709  2.1316
 4500SOL    HW224960   2.551   3.459   4.353 -1.8192 -0.4186 -2.2283
 4501SOL     OW24961   3.929   3.291   3.165 -0.5650  0.2015 -0.2412
 4501SOL    HW124962   3.978   3.228   3.218 -1.1895 -0.2828 -0.2327
 4501SOL    HW224963   3.875   3.332   3.233 -0.2536  1.4818 -0.7850
 4502SOL     OW24964   0.694   2.819  15.275  0.3194  0.1572  0.3197
 4502SOL    HW124965   0.751   2.871  15.218 -0.7768  2.5216  1.4026
 4502SOL    HW224966   0.704   2.732  15.235 -0.6748 -0.7478  2.0687
 4503SOL     OW24967   1.453   1.452   3.562 -0.1441 -0.1007  0.1727
 4503SOL    HW124968   1.544   1.477   3.581  0.5415 -1.1558 -1.6829
 4503SOL    HW224969   1.445   1.470   3.469 -0.2770 -0.0991  0.1857
 4504SOL     OW24970   2.861   3.201   6.686 -0.0330 -0.3729 -0.0561
 4504SOL    HW124971   2.769   3.224   6.701  0.2284 -0.8228  2.2445
 4504SOL    HW224972   2.899   3.263   6.748 -0.0260 -0.5862  0.1526
 4505SOL     OW24973   4.286   2.105   7.364 -0.3164  0.2726 -0.2430
 4505SOL    HW124974   4.253   2.044   7.298 -0.5817 -0.4301  0.5335
 4505SOL    HW224975   4.210   2.164   7.364 -0.1147  0.5383  2.6000
 4506SOL     OW24976   4.399   3.890   3.952  0.5997 -0.4630  0.1084
 4506SOL    HW124977   4.432   3.816   3.900  0.3883  1.1706 -2.3556
 4506SOL    HW224978   4.310   3.858   3.970  0.8793 -1.1868  0.2254
 4507SOL     OW24979   0.118   3.542  17.342 -0.4333 -0.4808 -0.4716
 4507SOL    HW124980   0.186   3.475  17.351  2.1815  2.4452  1.4823
 4507SOL    HW224981   0.094   3.545  17.434  0.0208 -0.7454 -0.3432
 4508SOL     OW24982   3.322   0.822   8.090 -0.0260 -0.1465  0.2141
 4508SOL    HW124983   3.334   0.746   8.034  0.8428  0.5510 -0.5604
 4508SOL    HW224984   3.413   0.845   8.112  0.3636 -1.2527 -0.2983
 4509SOL     OW24985   3.561   1.990   8.859  0.2813 -0.3708  0.6996
 4509SOL    HW124986   3.639   2.025   8.816 -0.3061 -2.1016 -1.7740
 4509SOL    HW224987   3.596   1.971   8.946 -0.0195 -0.1324  0.8706
 4510SOL     OW24988   2.461   2.951   9.790 -0.1473  0.4516  0.4026
 4510SOL    HW124989   2.374   2.969   9.826 -0.5240  0.4524 -0.5100
 4510SOL    HW224990   2.512   2.958   9.871  0.4908  2.1400 -0.1533
 4511SOL     OW24991   4.628   4.497   2.782 -0.0698  0.0477  0.6154
 4511SOL    HW124992   4.625   4.580   2.830  1.1207 -0.2778  1.2464
 4511SOL    HW224993   4.613   4.440   2.857  1.3391 -1.4606 -0.2536
 4512SOL     OW24994   4.270   0.217   6.910  0.0930  0.9110  0.3557
 4512SOL    HW124995   4.236   0.306   6.902  0.5682  1.1707  1.2352
 4512SOL    HW224996   4.251   0.187   6.821 -1.2118 -0.6635  1.1641
 4513SOL     OW24997   0.197   1.807  16.421 -0.2794 -0.3706  0.0465
 4513SOL    HW124998   0.259   1.804  16.349 -0.5927 -0.5516 -0.2120
 4513SOL    HW224999   0.254   1.808  16.498 -0.4040  0.1777  0.1351
 4514SOL     OW25000   3.007   1.289   7.050  0.5449 -0.6292 -0.1312
 4514SOL    HW125001   3.025   1.303   7.143 -0.0111 -0.3094 -0.0712
 4514SOL    HW225002   2.973   1.200   7.053  0.5362 -0.5936  0.6915
 4515SOL     OW25003   0.890   4.624   4.745  0.0112  0.6283 -0.4487
 4515SOL    HW125004   0.946   4.701   4.754  0.7510  0.2730 -2.0926
 4515SOL    HW225005   0.944   4.558   4.787  0.0497  0.8393 -0.1648
 4516SOL     OW25006   4.574   3.229  13.368 -0.5104 -0.0358 -0.4765
 4516SOL    HW125007   4.551   3.186  13.450  0.2958 -2.2397 -1.3953
 4516SOL    HW225008   4.518   3.191  13.300 -1.1101  3.3964 -1.9193
 4517SOL     OW25009   3.108   4.413  12.233  0.4040 -0.1401  0.4129
 4517SOL    HW125010   3.033   4.438  12.285  1.3008  3.2412  0.0765
 4517SOL    HW225011   3.122   4.322  12.261 -0.7302 -1.7061 -4.0523
 4518SOL     OW25012   0.267   0.445   2.688  0.1878  0.1559  0.1509
 4518SOL    HW125013   0.311   0.465   2.606  0.3136  1.3580  0.5233
 4518SOL    HW225014   0.255   0.350   2.675  0.9258  0.0712  0.0827
 4519SOL     OW25015   3.690   4.071   4.332  0.6463  0.2108  0.6292
 4519SOL    HW125016   3.683   4.160   4.298 -0.2034 -0.6505 -1.4370
 4519SOL    HW225017   3.687   4.031   4.245  1.1484 -0.2546  0.8261
 4520SOL     OW25018   3.072   3.726   8.811 -0.8702  0.2045  0.2702
 4520SOL    HW125019   3.026   3.745   8.893 -1.2421 -0.4978  0.2248
 4520SOL    HW225020   3.158   3.708   8.850 -0.5213 -1.8267 -1.4787
 4521SOL     OW25021   1.823   4.701   6.837 -0.1664 -0.3606  0.4463
 4521SOL    HW125022   1.830   0.061   6.791  0.1592 -1.5148 -1.5592
 4521SOL    HW225023   1.910   4.670   6.813 -0.5166  1.1437 -2.6680
 4522SOL     OW25024   4.314   2.125   3.647 -0.1086  0.3744  0.4891
 4522SOL    HW125025   4.299   2.125   3.553 -1.8589  0.1306  0.7566
 4522SOL    HW225026   4.350   2.038   3.662 -1.1252  0.6350  4.4638
 4523SOL     OW25027   3.406   1.820  16.487  0.5584 -0.0443  0.0686
 4523SOL    HW125028   3.318   1.782  16.481  0.9924 -1.0184 -0.0182
 4523SOL    HW225029   3.445   1.763  16.553 -1.1013  0.8199  1.8055
 4524SOL     OW25030   0.718   4.149   0.662  0.0050  0.2055 -0.1907
 4524SOL    HW125031   0.726   4.061   0.700  0.1199  0.0887 -0.4854
 4524SOL    HW225032   0.769   4.203   0.723 -0.3202  0.0592  0.2111
 4525SOL     OW25033   4.360   4.130   0.982  0.2092  0.2644  0.4391
 4525SOL    HW125034   4.394   4.051   0.941 -0.0548  0.0077  0.7105
 4525SOL    HW225035   4.394   4.199   0.925  1.5522 -1.5578 -0.9604
 4526SOL     OW25036   2.307   0.589   8.548 -0.2184  0.5519 -0.2646
 4526SOL    HW125037   2.284   0.498   8.530  1.4973 -0.1900  1.2776
 4526SOL    HW225038   2.338   0.614   8.461  1.2460 -0.5831 -0.0768
 4527SOL     OW25039   1.534   0.015  14.705 -0.3532  0.1028 -0.1433
 4527SOL    HW125040   1.571   0.053  14.785  0.3669  1.0930 -0.9563
 4527SOL    HW225041   1.519   4.648  14.732  0.6348  0.6388  2.2159
 4528SOL     OW25042   0.323   2.379  14.527  0.5377 -0.2203 -0.3361
 4528SOL    HW125043   0.335   2.384  14.432  1.0596  1.3187 -0.1833
 4528SOL    HW225044   0.409   2.409  14.556  0.6059 -0.1323 -0.6318
 4529SOL     OW25045   0.769   2.962   5.642  0.3568  0.3443  0.0139
 4529SOL    HW125046   0.760   2.915   5.559  2.1070  1.8701 -1.0257
 4529SOL    HW225047   0.798   3.046   5.607  1.5074 -1.0316 -2.3294
 4530SOL     OW25048   1.386   0.473   6.519  0.2210  0.5292 -0.9255
 4530SOL    HW125049   1.400   0.390   6.473 -1.5050  0.0034 -0.5007
 4530SOL    HW225050   1.360   0.538   6.453 -0.1262  0.8664 -0.4517
 4531SOL     OW25051   2.808   1.099   4.435  0.4116 -0.0676  0.5292
 4531SOL    HW125052   2.733   1.155   4.419  1.6160  1.7521  1.2577
 4531SOL    HW225053   2.844   1.091   4.347 -0.1360 -1.2210  0.4207
 4532SOL     OW25054   3.444   0.641   2.117 -0.4649 -0.0798 -0.5760
 4532SOL    HW125055   3.461   0.566   2.174 -0.2930 -1.1056 -1.9784
 4532SOL    HW225056   3.473   0.703   2.184 -2.1039 -0.0852  0.1654
 4533SOL     OW25057   0.960   0.811   6.325 -0.2920  0.1711 -0.2848
 4533SOL    HW125058   0.944   0.717   6.324  1.6940 -0.1805  0.5806
 4533SOL    HW225059   1.024   0.821   6.255  2.8288 -0.7753  2.3986
 4534SOL     OW25060   0.947   0.637   6.978  0.4919  0.2779  0.1289
 4534SOL    HW125061   0.984   0.718   6.944 -1.1931  1.2865  0.7251
 4534SOL    HW225062   1.003   0.570   6.938 -0.0819  0.0489 -0.2958
 4535SOL     OW25063   2.352   3.123   7.456  0.8520  0.1430  0.0078
 4535SOL    HW125064   2.329   3.204   7.502  1.2324  0.9134 -1.1759
 4535SOL    HW225065   2.263   3.096   7.433  0.6350  0.4124  0.5157
 4536SOL     OW25066   1.773   4.068   2.650  0.2004  0.4441 -0.1808
 4536SOL    HW125067   1.678   4.074   2.648  0.1545 -0.7698 -2.5095
 4536SOL    HW225068   1.784   4.000   2.716 -2.7266 -0.0501 -0.2431
 4537SOL     OW25069   2.138   4.640   7.838 -0.4314  0.8066 -0.4311
 4537SOL    HW125070   2.176   4.559   7.804 -1.5649  0.5782 -1.1591
 4537SOL    HW225071   2.199   4.712   7.821  0.5934 -0.4478 -2.1299
 4538SOL     OW25072   1.075   3.975  10.351 -0.1074 -0.2945  0.4441
 4538SOL    HW125073   1.060   3.993  10.259  1.7727 -2.2394 -0.2226
 4538SOL    HW225074   1.159   4.015  10.373  0.5876 -1.8318  0.5569
 4539SOL     OW25075   0.116   0.601  15.343  0.5160  0.2397 -0.1214
 4539SOL    HW125076   0.098   0.607  15.437  1.3750 -1.5854  0.1545
 4539SOL    HW225077   0.027   0.576  15.318 -0.1705  1.1820  1.3701
 4540SOL     OW25078   3.073   2.328   6.716 -0.2876 -0.3572 -0.3262
 4540SOL    HW125079   3.152   2.325   6.662  0.2332  1.8402  0.3004
 4540SOL    HW225080   3.108   2.386   6.783  2.0786 -0.1326 -1.7693
 4541SOL     OW25081   3.561   2.149  13.566  0.2182  0.7356  0.0845
 4541SOL    HW125082   3.599   2.193  13.642 -0.0600 -0.6695  1.0481
 4541SOL    HW225083   3.589   2.209  13.498 -2.3688  0.3499 -1.3320
 4542SOL     OW25084   1.944   3.674   7.399 -0.2880  0.0235 -0.1101
 4542SOL    HW125085   1.992   3.648   7.478 -0.9682  0.9371  0.6119
 4542SOL    HW225086   1.966   3.614   7.328  2.3157  0.6441  0.2087
 4543SOL     OW25087   4.204   3.749   5.350  0.6257  0.0906 -0.0623
 4543SOL    HW125088   4.128   3.691   5.359  2.1430 -1.6123  1.7865
 4543SOL    HW225089   4.179   3.817   5.413  2.0392 -0.0085  0.6043
 4544SOL     OW25090   4.709   4.512   9.047  0.6368 -0.3574  0.5777
 4544SOL    HW125091   0.025   4.472   8.970  3.3151  0.0160  1.7721
 4544SOL    HW225092   4.626   4.467   9.062 -0.3135  0.5188 -2.2030
 4545SOL     OW25093   2.313   0.264   3.672  0.1154 -0.1108 -0.5360
 4545SOL    HW125094   2.301   0.191   3.733 -0.1602  1.9892  1.8972
 4545SOL    HW225095   2.408   0.258   3.662 -0.1234 -1.6679 -1.9269
 4546SOL     OW25096   4.435   0.852   4.385  0.0689  0.0884  0.0520
 4546SOL    HW125097   4.347   0.884   4.371 -0.4810 -0.5598  2.0715
 4546SOL    HW225098   4.450   0.856   4.479  0.9857 -1.0422 -0.0445
 4547SOL     OW25099   1.818   2.054   9.832  0.1886  0.4439 -0.4110
 4547SOL    HW125100   1.870   1.980   9.862 -0.6026  0.0690  0.0210
 4547SOL    HW225101   1.849   2.062   9.742 -1.0628  0.8467 -0.8102
 4548SOL     OW25102   1.480   4.336  17.032 -0.4819  0.3378  0.2792
 4548SOL    HW125103   1.568   4.311  17.061  0.5118  2.8460 -0.5761
 4548SOL    HW225104   1.433   4.354  17.113 -2.0270 -0.2236 -0.4968
 4549SOL     OW25105   0.204   2.146   6.188  0.5244  0.0821 -0.2120
 4549SOL    HW125106   0.174   2.110   6.104  0.1894  0.0019 -0.0581
 4549SOL    HW225107   0.152   2.089   6.245 -1.9172  0.0890 -2.4240
 4550SOL     OW25108   2.384   3.697  13.454 -0.6140 -0.0349  0.3968
 4550SOL    HW125109   2.458   3.732  13.405  0.2847 -1.2640  0.8973
 4550SOL    HW225110   2.416   3.647  13.529  2.1615  0.7494 -0.2816
 4551SOL     OW25111   2.673   3.904   2.872  0.0012  0.2183  0.5681
 4551SOL    HW125112   2.681   3.853   2.791 -0.8630 -1.1898  1.3615
 4551SOL    HW225113   2.605   3.858   2.922 -0.3317 -0.3570 -0.4195
 4552SOL     OW25114   1.042   1.779   8.843 -0.3035  0.6909 -0.2628
 4552SOL    HW125115   1.067   1.688   8.825 -0.7356  0.5781 -0.2930
 4552SOL    HW225116   1.117   1.828   8.811  0.9351 -0.1958  1.2974
 4553SOL     OW25117   2.686   2.623  10.946 -0.0528 -0.2606  0.3544
 4553SOL    HW125118   2.735   2.705  10.947 -0.7759  0.2068 -2.0323
 4553SOL    HW225119   2.704   2.596  11.036 -0.8081  0.2350  0.6546
 4554SOL     OW25120   0.532   3.098   0.718  0.0530  0.6918  0.3041
 4554SOL    HW125121   0.552   3.168   0.780  2.4690 -0.7162  1.1182
 4554SOL    HW225122   0.438   3.087   0.733 -0.1428  1.8216 -0.0873
 4555SOL     OW25123   3.895   1.782   7.274  0.5420  0.2366  0.0768
 4555SOL    HW125124   3.802   1.801   7.277  0.9590  2.0088  1.8337
 4555SOL    HW225125   3.929   1.832   7.200 -0.1883  0.0255 -0.3948
 4556SOL     OW25126   2.624   0.460  11.124  0.2714  0.0933  0.2403
 4556SOL    HW125127   2.668   0.446  11.040 -0.6816  0.3375 -0.2947
 4556SOL    HW225128   2.672   0.532  11.164  0.6534 -1.3993  2.4816
 4557SOL     OW25129   1.453   0.121   9.149 -0.1482 -0.0421  0.3955
 4557SOL    HW125130   1.468   0.040   9.197 -1.4543 -1.9926 -2.5347
 4557SOL    HW225131   1.412   0.178   9.214  1.1117  0.4376  0.7756
 4558SOL     OW25132   2.981   1.790   5.764 -0.1752  0.3358  0.7856
 4558SOL    HW125133   3.039   1.807   5.690 -0.4263  0.7175  0.6762
 4558SOL    HW225134   2.898   1.777   5.720  2.0809 -1.6143 -2.8922
 4559SOL     OW25135   1.477   0.159   3.400 -1.2543 -0.0412 -0.0181
 4559SOL    HW125136   1.549   0.174   3.339 -0.0744  0.9659  1.6212
 4559SOL    HW225137   1.505   0.075   3.436 -0.6063 -0.0503 -0.5539
 4560SOL     OW25138   4.299   0.161   8.887 -0.7161 -0.2974 -0.6361
 4560SOL    HW125139   4.393   0.174   8.870 -1.0190  1.9666 -0.6016
 4560SOL    HW225140   4.295   0.071   8.920  0.7583  0.2962  1.1590
 4561SOL     OW25141   0.965   3.804   7.796 -0.0920 -0.7173 -0.4671
 4561SOL    HW125142   0.975   3.814   7.891  0.4905 -1.1536 -0.4821
 4561SOL    HW225143   0.996   3.891   7.775  0.3961  0.2606  4.1676
 4562SOL     OW25144   2.913   0.932  15.390  0.4842  0.0044  0.4103
 4562SOL    HW125145   2.995   0.917  15.437  1.3597  0.1198 -1.0750
 4562SOL    HW225146   2.930   1.012  15.340 -3.2374  0.8401  0.5035
 4563SOL     OW25147   0.507   4.093   2.701  0.5366 -0.0819 -0.1503
 4563SOL    HW125148   0.580   4.134   2.747  1.2557 -1.7488  0.2152
 4563SOL    HW225149   0.479   4.041   2.777 -0.8067 -0.0989 -0.6569
 4564SOL     OW25150   4.252   1.010   6.563  0.1395  0.7411  0.1395
 4564SOL    HW125151   4.287   0.955   6.633  2.2330  2.2853  0.3095
 4564SOL    HW225152   4.281   0.958   6.487 -1.5550  0.4253 -0.2761
 4565SOL     OW25153   1.750   4.689   5.439  0.2364  0.3361 -0.2618
 4565SOL    HW125154   1.841   4.663   5.452  0.0435 -0.9827 -1.5513
 4565SOL    HW225155   1.758   0.012   5.356  0.1478  0.9521  0.0764
 4566SOL     OW25156   3.468   1.122   4.219 -0.0353 -0.1717 -0.1370
 4566SOL    HW125157   3.515   1.118   4.136 -0.8336  0.3820 -0.6157
 4566SOL    HW225158   3.380   1.099   4.189  0.4659 -0.1245 -1.6581
 4567SOL     OW25159   4.047   0.769  11.828 -0.1744 -0.3242  0.4676
 4567SOL    HW125160   3.983   0.838  11.843 -0.2157 -0.0873 -0.7700
 4567SOL    HW225161   4.015   0.702  11.888  1.0237 -0.0892  1.3591
 4568SOL     OW25162   1.234   3.164   8.878  0.2503  0.7182 -0.0139
 4568SOL    HW125163   1.237   3.194   8.787 -0.7829 -0.2418 -0.3616
 4568SOL    HW225164   1.315   3.205   8.909  1.8833 -3.6531  1.5548
 4569SOL     OW25165   2.120   4.289   0.780  0.3990 -0.3991 -0.1208
 4569SOL    HW125166   2.147   4.206   0.740  2.5919  0.1212  0.2783
 4569SOL    HW225167   2.146   4.342   0.704  0.4541 -0.8061 -0.3882
 4570SOL     OW25168   2.744   2.267   5.144  0.4394  0.0530  0.0398
 4570SOL    HW125169   2.772   2.259   5.053  0.2812 -0.3047  0.0235
 4570SOL    HW225170   2.680   2.196   5.136  0.5049  0.2158 -1.9144
 4571SOL     OW25171   0.458   2.877   9.093 -0.3748  0.4238 -0.6371
 4571SOL    HW125172   0.469   2.876   9.188  0.6211  2.6732 -0.7232
 4571SOL    HW225173   0.390   2.944   9.089  0.0497  0.9642  1.0877
 4572SOL     OW25174   3.138   3.611   5.521 -0.0246  0.1638 -0.0452
 4572SOL    HW125175   3.233   3.618   5.517  0.0182 -0.1134  0.4573
 4572SOL    HW225176   3.118   3.524   5.488  0.3019 -0.2996  0.9679
 4573SOL     OW25177   1.520   4.453   1.750 -0.5299 -0.0082 -0.1452
 4573SOL    HW125178   1.442   4.449   1.806 -0.8495 -2.3126 -0.7546
 4573SOL    HW225179   1.595   4.452   1.808  0.6424 -2.0878 -1.7054
 4574SOL     OW25180   2.008   2.157   8.218 -0.3868  0.0491 -0.4332
 4574SOL    HW125181   2.030   2.225   8.154 -4.5420 -0.3078 -2.2147
 4574SOL    HW225182   1.946   2.203   8.274 -2.2831 -0.5434 -2.0634
 4575SOL     OW25183   2.030   1.788   6.012 -0.6966  0.3340  0.2636
 4575SOL    HW125184   2.064   1.878   6.012 -0.3790  0.2130  0.1898
 4575SOL    HW225185   1.941   1.797   5.978 -0.5202  1.7031  0.1496
 4576SOL     OW25186   1.103   4.637   0.342 -0.3405 -0.2301  0.0005
 4576SOL    HW125187   1.018   4.592   0.336 -0.2389 -0.4974  0.5936
 4576SOL    HW225188   1.077   0.003   0.319 -2.1597 -1.1529 -1.5539
 4577SOL     OW25189   4.123   3.159   0.769 -0.0706  0.3980 -0.1106
 4577SOL    HW125190   4.139   3.218   0.695 -1.5845  0.1116 -0.6869
 4577SOL    HW225191   4.106   3.220   0.840 -0.7850 -1.5627  1.4015
 4578SOL     OW25192   2.567   3.327  10.348  0.1067  0.0335  0.7347
 4578SOL    HW125193   2.506   3.323  10.421  2.4083 -0.4987  2.6401
 4578SOL    HW225194   2.540   3.413  10.317 -0.0897  0.3109  1.6931
 4579SOL     OW25195   3.935   4.030   6.036 -0.0801  0.4332  0.2747
 4579SOL    HW125196   3.905   4.004   6.123  1.5244  1.7668  1.2302
 4579SOL    HW225197   3.879   3.974   5.983 -0.1376  0.6101  0.1489
 4580SOL     OW25198   0.582   3.136   7.770 -0.0547 -0.1744  0.2309
 4580SOL    HW125199   0.590   3.127   7.675 -0.9405 -0.1514  0.1504
 4580SOL    HW225200   0.645   3.208   7.777  1.9053 -1.6626 -1.9276
 4581SOL     OW25201   4.702   0.313   3.168  0.0659  0.3692  0.0202
 4581SOL    HW125202   4.685   0.224   3.138 -0.9947  0.4850  0.2736
 4581SOL    HW225203   4.609   0.336   3.161 -0.2322 -0.7531  0.4090
 4582SOL     OW25204   3.444   3.618   3.819  0.8362 -0.6728 -0.6019
 4582SOL    HW125205   3.376   3.628   3.752  0.6862 -1.3707 -0.5604
 4582SOL    HW225206   3.395   3.619   3.902  2.5109  2.1474  0.3428
 4583SOL     OW25207   1.624   3.067   9.364 -0.0121  0.2568  0.3941
 4583SOL    HW125208   1.710   3.111   9.367 -0.4288  1.1190 -0.1738
 4583SOL    HW225209   1.587   3.101   9.446 -1.5636  4.8584 -2.2256
 4584SOL     OW25210   2.803   4.573   0.720 -0.0471  0.3299  0.0908
 4584SOL    HW125211   2.808   4.608   0.809  0.3957  2.1218 -0.6386
 4584SOL    HW225212   2.769   4.648   0.672 -4.3316 -1.1070  0.9188
 4585SOL     OW25213   1.001   4.527   6.827 -0.1403  0.1587 -0.1432
 4585SOL    HW125214   1.078   4.583   6.814  0.1030 -0.1903 -0.2187
 4585SOL    HW225215   0.945   4.551   6.754  0.7160  1.3739 -0.4210
 4586SOL     OW25216   0.640   1.294   4.270  0.0397 -0.2357 -0.2293
 4586SOL    HW125217   0.715   1.338   4.310 -0.3157 -1.0054  1.2896
 4586SOL    HW225218   0.605   1.371   4.226 -0.5148  1.1533  2.6467
 4587SOL     OW25219   3.461   3.822   5.724  0.3956  0.5100 -0.5934
 4587SOL    HW125220   3.509   3.883   5.781 -1.0545  0.9318  0.1907
 4587SOL    HW225221   3.459   3.883   5.651  1.7033  0.6163 -0.5383
 4588SOL     OW25222   3.945   2.299   6.413 -0.1904 -0.1700 -0.2672
 4588SOL    HW125223   4.015   2.291   6.478  2.0052 -2.7323 -2.9533
 4588SOL    HW225224   3.926   2.213   6.376 -0.5833 -0.0500 -0.3449
 4589SOL     OW25225   0.382   3.277  10.679 -0.0632 -0.0512 -0.1461
 4589SOL    HW125226   0.326   3.201  10.661 -0.3330  0.8237 -3.0839
 4589SOL    HW225227   0.465   3.236  10.703 -0.1706 -1.2969 -1.8995
 4590SOL     OW25228   4.639   4.470   7.761 -0.4757  0.1192 -0.0528
 4590SOL    HW125229   0.005   4.497   7.781 -1.1851  2.3267  0.1116
 4590SOL    HW225230   4.593   4.549   7.731  0.7128  0.5815 -0.6497
 4591SOL     OW25231   2.449   3.366   3.587 -0.2647  0.1705 -0.5053
 4591SOL    HW125232   2.452   3.332   3.676 -0.2617  0.9537 -0.2046
 4591SOL    HW225233   2.530   3.321   3.560 -0.6303 -1.2245  0.7155
 4592SOL     OW25234   4.111   0.897   5.921  0.5369  0.0842 -0.0338
 4592SOL    HW125235   4.019   0.879   5.940  0.5639 -0.9162 -0.8507
 4592SOL    HW225236   4.100   0.956   5.846  0.1595 -1.1981 -0.9978
 4593SOL     OW25237   2.868   3.025   2.655  0.5367 -0.6816 -0.0430
 4593SOL    HW125238   2.817   3.087   2.603  0.9934 -0.8681 -0.7096
 4593SOL    HW225239   2.891   3.083   2.728 -0.6030  0.3246 -0.4881
 4594SOL     OW25240   3.289   0.432  10.422  0.3985  0.0157  0.1425
 4594SOL    HW125241   3.274   0.339  10.440  0.2487 -0.3959 -2.0822
 4594SOL    HW225242   3.379   0.445  10.451  0.3859  1.0567 -0.2901
 4595SOL     OW25243   4.692   4.127   4.741  0.0449  0.4080 -0.1328
 4595SOL    HW125244   4.723   4.208   4.782  0.3121 -0.2874  1.0470
 4595SOL    HW225245   4.708   4.157   4.651 -0.1314 -1.1800 -0.6986
 4596SOL     OW25246   3.577   0.784   4.105  0.5723  0.2188  0.2917
 4596SOL    HW125247   3.490   0.814   4.081  0.8534  1.1817  0.4936
 4596SOL    HW225248   3.561   0.750   4.194 -0.6300 -1.0067 -0.3974
 4597SOL     OW25249   0.111   1.058   5.953 -0.7888  0.4472 -0.1957
 4597SOL    HW125250   0.141   1.143   5.987 -1.1225  0.2596  0.5676
 4597SOL    HW225251   0.183   1.053   5.890 -2.3339  0.8000 -2.0280
 4598SOL     OW25252   3.473   2.916   7.572 -0.0283  0.2611  0.1589
 4598SOL    HW125253   3.380   2.895   7.561  0.2155 -0.0964 -1.1979
 4598SOL    HW225254   3.490   2.887   7.661 -1.4658 -0.1048  0.3246
 4599SOL     OW25255   2.050   0.441  13.325 -0.1803 -0.5718 -0.2510
 4599SOL    HW125256   2.123   0.420  13.383  1.2001 -0.4080 -1.9508
 4599SOL    HW225257   2.022   0.516  13.378  0.6071  0.9783 -2.0593
 4600SOL     OW25258   0.974   2.042   2.723  0.3358 -0.3989  0.3574
 4600SOL    HW125259   1.010   2.052   2.635  0.4639  1.6551  0.6276
 4600SOL    HW225260   0.884   2.039   2.690 -0.1552  2.4442  1.4193
 4601SOL     OW25261   1.094   2.160   3.563  0.3046  0.1083 -0.3024
 4601SOL    HW125262   1.047   2.141   3.645 -0.4436  1.3065 -0.4511
 4601SOL    HW225263   1.029   2.206   3.510  0.0971 -0.4807 -0.5626
 4602SOL     OW25264   0.520   3.431  17.515  0.4759  0.2616 -0.0281
 4602SOL    HW125265   0.495   3.341  17.537 -1.2093 -0.0972 -3.4654
 4602SOL    HW225266   0.604   3.438  17.560 -1.0495 -1.5100  3.1345
 4603SOL     OW25267   2.040   0.947   1.780  0.1283  0.2010 -0.0883
 4603SOL    HW125268   1.977   0.934   1.851 -1.0579  0.6247 -1.0595
 4603SOL    HW225269   2.092   1.012   1.826 -0.6952  0.2246  0.8160
 4604SOL     OW25270   3.394   3.238   9.017  0.2972 -0.0930  0.2130
 4604SOL    HW125271   3.406   3.184   9.095 -0.4955 -0.7696 -0.1389
 4604SOL    HW225272   3.299   3.237   9.005  0.3649  1.9250 -0.6346
 4605SOL     OW25273   3.997   3.731   5.752  0.4350 -0.0939  0.0038
 4605SOL    HW125274   3.955   3.733   5.838  1.2431  0.1232  0.3904
 4605SOL    HW225275   3.925   3.745   5.689 -0.7177  0.2658  1.3905
 4606SOL     OW25276   1.843   0.506   6.717  0.3514 -0.7026 -0.1225
 4606SOL    HW125277   1.772   0.547   6.668 -0.1433 -0.0578  1.1438
 4606SOL    HW225278   1.916   0.548   6.670  0.5014  0.4257  1.1226
 4607SOL     OW25279   3.646   3.374   5.516 -0.2107 -0.6863 -0.2561
 4607SOL    HW125280   3.663   3.291   5.562  0.5694 -0.9486 -1.0238
 4607SOL    HW225281   3.705   3.437   5.557  0.0610 -0.2468 -1.3479
 4608SOL     OW25282   3.961   1.179   3.752 -0.6630  0.2324 -0.2156
 4608SOL    HW125283   3.910   1.221   3.822  1.8626  0.5750  1.4243
 4608SOL    HW225284   4.003   1.104   3.796 -0.5569 -1.8455 -3.8437
 4609SOL     OW25285   2.734   4.411   6.980 -0.1243 -0.1134 -0.4381
 4609SOL    HW125286   2.646   4.375   6.992 -0.0789  0.1672  0.7587
 4609SOL    HW225287   2.781   4.340   6.938  0.8733  1.3616 -1.8416
 4610SOL     OW25288   2.127   4.128   8.121 -0.8682  0.4076 -0.3247
 4610SOL    HW125289   2.162   4.193   8.182  0.9586  0.0643 -0.9956
 4610SOL    HW225290   2.075   4.184   8.063 -3.2646 -0.0738  1.3441
 4611SOL     OW25291   4.314   2.346   0.926  0.3365 -0.4832 -0.5777
 4611SOL    HW125292   4.276   2.268   0.966 -0.2544 -0.7496 -1.6605
 4611SOL    HW225293   4.258   2.420   0.951 -0.2123 -0.6204 -1.3835
 4612SOL     OW25294   3.635   1.008  12.353 -0.1713 -0.0730 -0.0147
 4612SOL    HW125295   3.675   1.087  12.317  0.7795 -0.5339  0.0297
 4612SOL    HW225296   3.559   1.005  12.296 -0.6764 -1.3468  0.7166
 4613SOL     OW25297   3.850   0.344   7.120  1.1816 -0.5303  0.3043
 4613SOL    HW125298   3.878   0.435   7.105  0.2488 -0.1270  1.0091
 4613SOL    HW225299   3.928   0.309   7.161 -0.3661 -2.1689  1.8283
 4614SOL     OW25300   2.977   1.156   2.620  0.0112 -0.1949 -0.0206
 4614SOL    HW125301   3.061   1.193   2.593 -0.5277 -0.6754 -2.2972
 4614SOL    HW225302   2.909   1.212   2.583  1.5351  0.2988 -2.0237
 4615SOL     OW25303   1.808   0.461   8.848 -0.7248  0.8159  0.0043
 4615SOL    HW125304   1.881   0.400   8.846 -2.5056 -1.2792 -2.0721
 4615SOL    HW225305   1.815   0.502   8.934 -0.3064 -1.6143  1.1110
 4616SOL     OW25306   0.356   2.336  11.459  0.1423  0.0929  0.0187
 4616SOL    HW125307   0.286   2.401  11.456  1.9020  1.9188 -1.4847
 4616SOL    HW225308   0.429   2.396  11.474 -0.9922  1.6877 -0.8934
 4617SOL     OW25309   3.816   0.426   5.517  0.0350 -0.1561 -0.3391
 4617SOL    HW125310   3.871   0.496   5.554 -1.9132  0.8312  0.6592
 4617SOL    HW225311   3.860   0.350   5.555  1.2324  0.9909  0.5938
 4618SOL     OW25312   2.208   4.415  17.266 -0.1010 -0.2636  0.4953
 4618SOL    HW125313   2.250   4.342  17.218 -1.7282 -1.1019  0.3443
 4618SOL    HW225314   2.255   4.413  17.349  0.1297 -0.9542  0.3510
 4619SOL     OW25315   3.622   0.722  12.431 -0.1846  0.3138 -0.1387
 4619SOL    HW125316   3.551   0.684  12.379 -0.6148  1.6176 -0.4977
 4619SOL    HW225317   3.631   0.808  12.391  0.7634  0.7668  1.0451
 4620SOL     OW25318   4.163   3.694   8.169  0.0344 -0.4118 -0.5192
 4620SOL    HW125319   4.237   3.699   8.230  2.1291  0.6552 -3.1515
 4620SOL    HW225320   4.088   3.664   8.220 -0.7393  1.9834 -0.2411
 4621SOL     OW25321   1.260   1.631   8.523  0.3073 -0.0367 -0.1275
 4621SOL    HW125322   1.340   1.580   8.538  0.4940 -0.5325 -2.7974
 4621SOL    HW225323   1.271   1.701   8.588  0.3863 -1.1998  1.1040
 4622SOL     OW25324   4.369   1.414  16.412 -0.1455  0.3548 -0.4248
 4622SOL    HW125325   4.416   1.490  16.375  1.2452 -0.2884  0.0035
 4622SOL    HW225326   4.291   1.425  16.358  0.2929 -0.7861 -1.2856
 4623SOL     OW25327   4.333   0.061   8.493 -0.2531 -0.2204 -0.3121
 4623SOL    HW125328   4.308   4.720   8.427  0.8467 -0.0984 -0.8539
 4623SOL    HW225329   4.408   0.016   8.531  0.5916 -0.0224 -1.7313
 4624SOL     OW25330   0.509   1.633   8.437  0.0467 -0.0737 -0.2674
 4624SOL    HW125331   0.589   1.614   8.485  0.0874 -2.9257 -1.4343
 4624SOL    HW225332   0.443   1.659   8.502  1.6806  0.4511  1.1681
 4625SOL     OW25333   0.542   1.095  14.859 -0.0210 -0.0510  0.0169
 4625SOL    HW125334   0.555   1.190  14.864  1.0111 -0.3099  2.1580
 4625SOL    HW225335   0.447   1.091  14.872 -0.4041  1.2267 -2.4314
 4626SOL     OW25336   1.842   1.414   7.481 -0.4059  0.4174 -0.4661
 4626SOL    HW125337   1.815   1.456   7.399  1.5131 -0.3711 -1.4850
 4626SOL    HW225338   1.903   1.345   7.456  0.1626  0.9673 -0.5973
 4627SOL     OW25339   3.136   1.758  12.627 -0.2002  0.0115  0.1437
 4627SOL    HW125340   3.175   1.707  12.699 -0.9925 -2.6732 -1.3129
 4627SOL    HW225341   3.061   1.801  12.668  0.4076  2.7695 -1.6956
 4628SOL     OW25342   0.458   3.675   6.542  0.5435 -0.3408  0.0888
 4628SOL    HW125343   0.534   3.644   6.592  0.5540  0.0436  0.3084
 4628SOL    HW225344   0.405   3.600   6.514 -0.1028  0.5033 -0.9370
 4629SOL     OW25345   1.296   3.305   2.102 -0.2842  0.8983 -0.0755
 4629SOL    HW125346   1.325   3.249   2.030 -3.2685 -1.1431  0.3390
 4629SOL    HW225347   1.311   3.246   2.175  2.8275  1.9391  0.1483
 4630SOL     OW25348   0.936   1.009   6.511  0.0377 -0.5423 -0.2825
 4630SOL    HW125349   0.888   0.972   6.585 -1.6685 -1.4576 -1.8257
 4630SOL    HW225350   0.947   0.933   6.453 -1.1443 -1.2092  0.3574
 4631SOL     OW25351   0.188   0.078   3.414  0.4176  0.0441 -0.4699
 4631SOL    HW125352   0.171   0.146   3.479  1.1072  0.8116 -1.0890
 4631SOL    HW225353   0.213   0.123   3.333  0.1168 -0.5382 -0.8897
 4632SOL     OW25354   0.807   3.367   6.917 -0.0854  0.0345  0.2173
 4632SOL    HW125355   0.850   3.452   6.926  0.0885  0.0890 -1.1417
 4632SOL    HW225356   0.735   3.374   6.980 -0.4279  1.1830 -0.3032
 4633SOL     OW25357   1.711   0.486   7.272 -0.1663  0.4893  0.3706
 4633SOL    HW125358   1.744   0.464   7.185  2.7215  2.1181  1.0607
 4633SOL    HW225359   1.750   0.413   7.320 -0.2611 -0.7235 -1.4231
 4634SOL     OW25360   2.970   2.636   2.009  0.5158  0.0566 -0.0227
 4634SOL    HW125361   2.986   2.729   1.991  2.1743  0.1291  1.7987
 4634SOL    HW225362   3.021   2.635   2.090 -0.3548  1.8831  0.5422
 4635SOL     OW25363   2.424   3.544   9.276 -0.1323  0.3125  0.3484
 4635SOL    HW125364   2.518   3.530   9.283 -0.2869 -1.2701 -0.7476
 4635SOL    HW225365   2.408   3.526   9.184  0.0306  1.6434  0.0705
 4636SOL     OW25366   4.714   1.669   5.241  0.0946  0.2731 -0.0211
 4636SOL    HW125367   4.619   1.667   5.250  0.1762  0.0380  0.7999
 4636SOL    HW225368   0.020   1.642   5.328 -0.9561  1.5305  0.7134
 4637SOL     OW25369   1.444   3.912   2.192 -0.9203  0.3462 -0.0182
 4637SOL    HW125370   1.445   3.838   2.253  0.0408 -1.4902 -2.2410
 4637SOL    HW225371   1.509   3.890   2.126  0.9742  1.3653  1.4822
 4638SOL     OW25372   2.242   2.044   0.454  0.1368 -0.4124 -0.2139
 4638SOL    HW125373   2.274   1.956   0.474 -1.6692 -0.8945  0.5355
 4638SOL    HW225374   2.165   2.033   0.398  0.5310  3.2422 -1.5011
 4639SOL     OW25375   4.324   3.118   3.305 -0.8038  0.1053  0.1185
 4639SOL    HW125376   4.402   3.091   3.353 -1.2095 -0.5325  0.4153
 4639SOL    HW225377   4.351   3.209   3.294 -2.0446  0.5134  0.4027
 4640SOL     OW25378   2.883   1.100  10.795 -0.0010 -0.6922  0.0361
 4640SOL    HW125379   2.836   1.106  10.878 -0.8386 -0.5728 -0.4552
 4640SOL    HW225380   2.937   1.178  10.805  1.1521 -1.5586  0.6939
 4641SOL     OW25381   0.467   3.996   8.804  0.1467 -0.2562 -0.3173
 4641SOL    HW125382   0.432   4.053   8.735 -0.9368 -1.4178 -0.7383
 4641SOL    HW225383   0.491   4.049   8.880 -0.9570 -0.8159  0.4187
 4642SOL     OW25384   1.337   3.405   6.404  0.0580  0.5489  0.3221
 4642SOL    HW125385   1.299   3.413   6.491  3.0227 -0.2135  1.6867
 4642SOL    HW225386   1.306   3.316   6.385 -0.6915  0.1023  3.6172
 4643SOL     OW25387   0.041   4.551  15.336  0.2965 -0.3724 -0.2987
 4643SOL    HW125388   0.026   4.458  15.318 -1.1172 -0.0824 -0.6399
 4643SOL    HW225389   0.109   4.551  15.404  0.1808 -0.6409 -0.1828
 4644SOL     OW25390   2.856   3.445   4.193  0.0299 -0.4158 -0.2553
 4644SOL    HW125391   2.853   3.399   4.110  3.2137  0.1314 -0.6762
 4644SOL    HW225392   2.763   3.444   4.216 -0.1661  0.4405 -0.9841
 4645SOL     OW25393   3.836   3.508   1.052  0.1617  0.4922 -0.2058
 4645SOL    HW125394   3.821   3.535   1.143  2.1683  0.8191  0.0339
 4645SOL    HW225395   3.751   3.521   1.010 -0.2102 -1.5571 -0.0540
 4646SOL     OW25396   1.006   1.576  10.733 -0.5213 -0.1679 -0.4357
 4646SOL    HW125397   1.088   1.604  10.774 -0.2942  0.0562 -1.0594
 4646SOL    HW225398   0.965   1.535  10.809  0.4043  0.6853  0.5302
 4647SOL     OW25399   3.802   0.254   4.451 -0.0603  0.7040  0.3474
 4647SOL    HW125400   3.720   0.210   4.425  0.1227  0.4930  0.1306
 4647SOL    HW225401   3.857   0.179   4.471 -0.5603 -0.5584 -2.9606
 4648SOL     OW25402   3.099   3.912   3.312  0.4106  0.0860 -0.5220
 4648SOL    HW125403   3.029   3.942   3.254  2.6941  2.3571 -2.1136
 4648SOL    HW225404   3.068   3.830   3.350  0.0620  0.0963 -0.7911
 4649SOL     OW25405   2.416   2.530   3.862  0.4724 -0.5052  0.0217
 4649SOL    HW125406   2.328   2.534   3.899  0.8206  1.7825  0.6269
 4649SOL    HW225407   2.413   2.455   3.802  0.7807 -0.5519  0.0625
 4650SOL     OW25408   2.590   1.796   3.475 -0.1973  0.2053  0.6126
 4650SOL    HW125409   2.497   1.799   3.454 -0.3753 -1.8149  1.1161
 4650SOL    HW225410   2.614   1.703   3.472  0.7504  0.4437  0.8105
 4651SOL     OW25411   1.049   3.602   4.302 -1.0165  0.6741 -0.5230
 4651SOL    HW125412   0.983   3.669   4.286 -1.4347  0.0025 -1.6026
 4651SOL    HW225413   1.120   3.666   4.304 -0.5945  0.1985 -0.2742
 4652SOL     OW25414   1.868   2.808   7.074  0.0856  0.0989  0.3270
 4652SOL    HW125415   1.842   2.895   7.102  0.3510 -0.0360  0.9939
 4652SOL    HW225416   1.786   2.759   7.065  0.1427 -0.2131  1.4888
 4653SOL     OW25417   1.873   2.128  10.396  0.4562  0.0649  0.2182
 4653SOL    HW125418   1.949   2.169  10.354  1.5735 -3.1960 -0.9955
 4653SOL    HW225419   1.814   2.140  10.322 -0.9157  1.6262  1.5928
 4654SOL     OW25420   1.155   4.398   3.494  0.2316 -0.2631  0.1720
 4654SOL    HW125421   1.186   4.308   3.484 -1.2249 -0.6325 -1.0961
 4654SOL    HW225422   1.194   4.443   3.419 -2.7669  2.4704  0.2537
 4655SOL     OW25423   4.416   1.386  17.009 -0.0792 -0.7485 -0.5337
 4655SOL    HW125424   4.400   1.378  17.103  0.4714 -1.0402 -0.4632
 4655SOL    HW225425   4.397   1.296  16.983  0.8392 -0.4984 -2.0629
 4656SOL     OW25426   1.051   1.947   9.090 -0.6107 -0.1451 -0.5380
 4656SOL    HW125427   1.127   1.993   9.054 -0.5392  1.1564  1.2631
 4656SOL    HW225428   1.063   1.865   9.042 -0.2567 -0.4150  0.0020
 4657SOL     OW25429   4.433   2.446  15.948 -0.1994 -0.6650 -0.5936
 4657SOL    HW125430   4.367   2.378  15.961  1.5926 -2.0525  1.2334
 4657SOL    HW225431   4.422   2.458  15.854 -1.1536 -0.7469 -0.4983
 4658SOL     OW25432   3.491   0.937  13.770 -0.6785 -0.0134 -0.1406
 4658SOL    HW125433   3.454   0.878  13.703  2.1833 -2.5058  0.4758
 4658SOL    HW225434   3.483   1.020  13.724 -1.4754  0.3224  0.6019
 4659SOL     OW25435   2.307   0.432  17.054  0.2851  0.0071  0.4365
 4659SOL    HW125436   2.355   0.458  17.132  1.0394  1.5857 -0.5701
 4659SOL    HW225437   2.379   0.446  16.993  0.3994 -0.1029  0.5441
 4660SOL     OW25438   2.546   1.175   5.799 -0.4075 -0.6778 -0.5444
 4660SOL    HW125439   2.515   1.262   5.824 -0.2917  0.0520 -2.9378
 4660SOL    HW225440   2.599   1.146   5.873  1.7319  1.0844 -1.3810
 4661SOL     OW25441   0.188   1.276   5.196 -0.0056 -0.0725 -0.3596
 4661SOL    HW125442   0.206   1.201   5.140  1.9941 -0.0535  0.2714
 4661SOL    HW225443   0.170   1.236   5.282  0.7031 -1.1270 -0.6981
 4662SOL     OW25444   1.100   0.161  11.942 -0.0481 -0.3923 -0.0702
 4662SOL    HW125445   1.181   0.148  11.991  0.0234  1.1546  0.2308
 4662SOL    HW225446   1.108   0.082  11.889  1.1312 -0.6958  0.5762
 4663SOL     OW25447   0.771   4.275   5.979  0.5304  0.1806 -0.2255
 4663SOL    HW125448   0.847   4.250   6.032  1.0329  0.6811 -0.7037
 4663SOL    HW225449   0.704   4.219   6.017  0.2834  0.6222 -0.0128
 4664SOL     OW25450   3.791   4.619   3.045 -1.2083 -0.6866 -1.0584
 4664SOL    HW125451   3.778   4.712   3.063 -0.6603 -0.5025 -1.6029
 4664SOL    HW225452   3.799   4.625   2.950  2.2104 -0.5788 -0.7672
 4665SOL     OW25453   2.842   0.013   2.664  0.1932  0.2799 -0.7705
 4665SOL    HW125454   2.912   0.030   2.601  0.4707  2.2074  0.0727
 4665SOL    HW225455   2.830   0.103   2.692  0.1772  0.1359 -0.3162
 4666SOL     OW25456   1.043   2.389   8.599 -0.4738  0.5125 -0.9056
 4666SOL    HW125457   0.967   2.426   8.554 -1.3997  0.7866  0.8852
 4666SOL    HW225458   1.051   2.303   8.559 -1.3565  0.1163 -0.2376
 4667SOL     OW25459   0.318   2.406  11.097 -0.5419  0.3788 -0.1552
 4667SOL    HW125460   0.223   2.401  11.087 -0.5691 -0.8919  0.7273
 4667SOL    HW225461   0.348   2.315  11.109  0.6644  0.8544  0.4374
 4668SOL     OW25462   1.369   4.721   6.569 -0.3361 -0.5261 -0.5699
 4668SOL    HW125463   1.376   4.668   6.490 -0.5779 -3.1322  1.1544
 4668SOL    HW225464   1.463   0.003   6.586 -0.2937  2.3855 -1.8305
 4669SOL     OW25465   3.323   0.658   2.668  0.7035  0.4233  0.5434
 4669SOL    HW125466   3.380   0.633   2.741  0.9444  0.2893  0.3113
 4669SOL    HW225467   3.359   0.742   2.638  1.1277  0.5296  1.3680
 4670SOL     OW25468   4.009   1.687  13.420  0.3364  0.4387 -0.2144
 4670SOL    HW125469   4.036   1.599  13.394 -0.4533  0.1030  0.0778
 4670SOL    HW225470   3.927   1.669  13.466  0.5366  2.9088  1.0889
 4671SOL     OW25471   3.398   0.601  11.074 -1.0768 -0.5882  0.6279
 4671SOL    HW125472   3.422   0.586  11.166  1.6069  0.5569  0.1273
 4671SOL    HW225473   3.438   0.687  11.063  0.3050 -1.2059  0.7257
 4672SOL     OW25474   1.313   4.529   3.297  0.2748 -0.1541 -0.4813
 4672SOL    HW125475   1.290   4.553   3.208 -1.3477 -0.8249 -0.2561
 4672SOL    HW225476   1.330   4.610   3.344 -0.9010  0.5032 -1.2079
 4673SOL     OW25477   3.221   0.281   0.953 -0.2594  0.0962 -0.5507
 4673SOL    HW125478   3.127   0.301   0.952 -0.3537 -0.1799  1.9379
 4673SOL    HW225479   3.229   0.223   1.029 -0.6050 -1.3083 -1.5959
 4674SOL     OW25480   3.339   2.871   7.324  0.4598 -0.6627 -0.4895
 4674SOL    HW125481   3.315   2.860   7.232  0.4508 -1.2965 -0.4079
 4674SOL    HW225482   3.252   2.892   7.356  0.1261 -0.1105 -1.7452
 4675SOL     OW25483   1.102   0.409   7.899 -0.1810  0.2278 -0.5942
 4675SOL    HW125484   1.109   0.456   7.982  1.9960 -1.8239  0.3792
 4675SOL    HW225485   1.009   0.386   7.896  0.3705 -2.2436  0.9644
 4676SOL     OW25486   2.950   3.210  12.775 -0.2862 -0.3312 -0.4483
 4676SOL    HW125487   2.990   3.284  12.820 -0.1200 -0.9897  0.4872
 4676SOL    HW225488   2.961   3.225  12.681  0.1776  1.6608 -0.0738
 4677SOL     OW25489   4.476   0.402   6.867 -0.2828 -0.2561 -0.1739
 4677SOL    HW125490   4.435   0.326   6.907 -0.6194 -0.2472 -0.5046
 4677SOL    HW225491   4.411   0.468   6.894  1.0661  0.9961  0.0474
 4678SOL     OW25492   2.381   1.444   2.118  0.0667 -0.4714 -0.0224
 4678SOL    HW125493   2.462   1.491   2.098 -0.5134  0.0020 -1.2750
 4678SOL    HW225494   2.327   1.522   2.133 -0.1221 -0.5879 -0.0883
 4679SOL     OW25495   0.429   1.718  10.736  0.3554 -0.3763 -0.3158
 4679SOL    HW125496   0.441   1.800  10.689 -1.1818 -0.0449 -0.0993
 4679SOL    HW225497   0.356   1.677  10.690 -2.0392  1.2647  2.0673
 4680SOL     OW25498   1.262   1.362   2.601 -0.0513 -0.0832  0.2474
 4680SOL    HW125499   1.210   1.393   2.675 -2.8767 -0.9520 -1.3847
 4680SOL    HW225500   1.321   1.435   2.581 -0.3919  0.3085  0.6965
 4681SOL     OW25501   2.387   3.846   7.460 -0.1841 -0.5186 -0.6116
 4681SOL    HW125502   2.312   3.897   7.429  0.1424  0.8196  0.8051
 4681SOL    HW225503   2.372   3.846   7.555 -0.4470  1.9510 -0.6400
 4682SOL     OW25504   4.642   3.486  13.274 -0.0084 -0.4093  0.4808
 4682SOL    HW125505   4.652   3.465  13.181 -0.2463  2.1371 -0.1134
 4682SOL    HW225506   4.614   3.400  13.303 -0.5864 -0.0701  0.9323
 4683SOL     OW25507   0.906   3.728   9.087 -0.0993  0.2606 -0.2896
 4683SOL    HW125508   0.891   3.821   9.067  1.3042  0.9176  1.6795
 4683SOL    HW225509   0.919   3.726   9.182 -0.3477  0.8900 -0.2382
 4684SOL     OW25510   2.164   0.418   5.776  0.2458  0.3532  0.4287
 4684SOL    HW125511   2.125   0.487   5.830  1.5803  1.2245  0.2625
 4684SOL    HW225512   2.221   0.379   5.842  0.2542  1.4903  1.0831
 4685SOL     OW25513   1.341   3.168  12.359  0.1677 -0.4798  0.2629
 4685SOL    HW125514   1.383   3.082  12.358  2.3622  0.5942 -0.1012
 4685SOL    HW225515   1.328   3.204  12.447  1.2925  0.3662  0.0845
 4686SOL     OW25516   3.881   4.286   1.149  0.0331  0.1792 -0.0829
 4686SOL    HW125517   3.956   4.283   1.090  0.8282  0.5939  0.9006
 4686SOL    HW225518   3.905   4.349   1.217 -1.5996 -0.4307  1.0613
 4687SOL     OW25519   0.745   0.344   0.751 -0.0598 -0.0072 -0.0378
 4687SOL    HW125520   0.759   0.252   0.727  0.3390  0.2464 -0.7607
 4687SOL    HW225521   0.721   0.336   0.844  1.4891 -2.1056  0.1905
 4688SOL     OW25522   0.301   3.003   2.925  0.1643  0.1516 -0.0397
 4688SOL    HW125523   0.228   3.061   2.902 -0.8723 -1.8019 -1.6785
 4688SOL    HW225524   0.363   3.025   2.855 -1.0662  2.0951 -0.5331
 4689SOL     OW25525   1.980   3.788   4.185 -0.0044 -0.1807 -0.1679
 4689SOL    HW125526   1.906   3.838   4.148  0.8143 -0.0152 -1.5947
 4689SOL    HW225527   2.050   3.848   4.160 -0.6447  1.1999  1.3445
 4690SOL     OW25528   4.292   0.724   8.320  0.6128 -0.3274 -0.0026
 4690SOL    HW125529   4.311   0.697   8.409  1.9636  0.0871 -0.1674
 4690SOL    HW225530   4.208   0.769   8.334  0.8902  1.0811 -2.9310
 4691SOL     OW25531   1.597   2.664   6.363  0.2883  0.4959 -0.1376
 4691SOL    HW125532   1.515   2.677   6.316  0.2505  3.0957  0.6659
 4691SOL    HW225533   1.609   2.569   6.358 -2.6199 -0.0094  2.5659
 4692SOL     OW25534   4.250   3.928  16.378  0.2965  0.2456  0.1450
 4692SOL    HW125535   4.273   3.843  16.416  2.8703  0.8051 -0.1430
 4692SOL    HW225536   4.233   3.903  16.287 -0.4889  0.0219  0.3542
 4693SOL     OW25537   0.817   3.381   9.556  0.5088  0.0963  0.4647
 4693SOL    HW125538   0.877   3.322   9.509 -0.6050  0.0565 -0.8962
 4693SOL    HW225539   0.873   3.435   9.612  1.8172 -1.8187  1.0036
 4694SOL     OW25540   0.847   0.696  12.658 -0.3912  0.1509  0.4553
 4694SOL    HW125541   0.875   0.770  12.712  0.0068 -1.0984  1.9956
 4694SOL    HW225542   0.791   0.738  12.594  0.0363  0.4684  0.2916
 4695SOL     OW25543   4.243   1.206   4.172 -0.6472 -0.0258  0.0361
 4695SOL    HW125544   4.287   1.128   4.139  0.2196  0.5365 -0.1359
 4695SOL    HW225545   4.236   1.187   4.265 -3.3191  0.2515 -0.0856
 4696SOL     OW25546   0.544   4.563  14.832  0.0160 -0.4029 -0.0637
 4696SOL    HW125547   0.477   4.502  14.800 -0.4626  0.4539 -0.6896
 4696SOL    HW225548   0.616   4.519  14.788 -0.2350 -1.6124  0.7394
 4697SOL     OW25549   2.736   0.660   8.572  0.6162  0.6222  0.0637
 4697SOL    HW125550   2.774   0.574   8.591  0.3698  0.4369 -0.2860
 4697SOL    HW225551   2.814   0.711   8.593 -0.9188  3.3404 -0.8432
 4698SOL     OW25552   4.580   4.157   5.339 -0.2003  0.2402  0.7478
 4698SOL    HW125553   4.674   4.177   5.331 -0.1020 -1.4867 -2.3018
 4698SOL    HW225554   4.588   4.104   5.419  2.7206 -1.3877 -0.6009
 4699SOL     OW25555   4.085   0.481   1.567  0.1412  0.1325  0.1974
 4699SOL    HW125556   3.990   0.488   1.576  0.3158  1.4758  1.0404
 4699SOL    HW225557   4.106   0.540   1.639  0.1808  0.1555  0.1674
 4700SOL     OW25558   1.264   0.052   6.163 -0.0598 -0.0659 -0.4907
 4700SOL    HW125559   1.303   0.119   6.107 -1.8996 -1.4851 -3.4394
 4700SOL    HW225560   1.264   4.697   6.110  1.6573  0.8671 -1.9041
 4701SOL     OW25561   4.048   3.273   3.783  0.0374  0.1261  0.0341
 4701SOL    HW125562   4.084   3.192   3.819  0.3338 -1.1985 -3.1820
 4701SOL    HW225563   4.056   3.339   3.852 -1.4969  0.6276 -0.2493
 4702SOL     OW25564   0.249   1.967  12.280  0.2514  0.0848 -0.4164
 4702SOL    HW125565   0.248   2.032  12.350  1.6197  0.2991 -0.6116
 4702SOL    HW225566   0.340   1.949  12.258 -0.3870 -3.7137  0.0833
 4703SOL     OW25567   4.421   3.689   6.418  0.2205  0.3197 -0.5332
 4703SOL    HW125568   4.508   3.729   6.423  0.7363 -0.7901 -0.6484
 4703SOL    HW225569   4.365   3.760   6.451 -1.6161 -2.0861  1.5763
 4704SOL     OW25570   2.464   2.066   7.174 -0.0705  1.0477 -0.1018
 4704SOL    HW125571   2.464   1.970   7.176 -1.2963  1.0063 -1.9092
 4704SOL    HW225572   2.383   2.076   7.225 -0.5225 -2.7507 -0.0256
 4705SOL     OW25573   2.381   2.313   5.799  0.5432  0.2367  0.8085
 4705SOL    HW125574   2.434   2.287   5.724 -2.8096  0.1161 -1.5483
 4705SOL    HW225575   2.305   2.353   5.756  2.1712  0.8938 -1.4902
 4706SOL     OW25576   3.779   4.679   4.861 -0.1381 -0.1583  0.0748
 4706SOL    HW125577   3.713   4.696   4.929 -1.2340  1.1128 -1.3024
 4706SOL    HW225578   3.724   4.690   4.784  1.6162 -2.7658 -1.5297
 4707SOL     OW25579   1.097   4.240  11.774  0.0698 -0.3915 -0.0958
 4707SOL    HW125580   1.144   4.176  11.722  1.4499  1.0414 -0.6186
 4707SOL    HW225581   1.077   4.315  11.717  0.9949 -1.1218 -1.3526
 4708SOL     OW25582   1.448   3.478   2.582 -0.2604 -0.1399 -0.5985
 4708SOL    HW125583   1.462   3.398   2.633  1.9804  0.8075  0.3108
 4708SOL    HW225584   1.399   3.534   2.641 -1.6071 -2.2824  0.3185
 4709SOL     OW25585   1.989   2.351  10.751 -0.1469 -0.2845 -0.4743
 4709SOL    HW125586   1.976   2.388  10.838 -0.6665 -1.5063 -0.0393
 4709SOL    HW225587   1.906   2.308  10.730 -0.0675 -0.8889  0.4472
 4710SOL     OW25588   4.112   2.307   2.733 -0.1255 -0.8396 -0.1202
 4710SOL    HW125589   4.032   2.277   2.690 -2.0053  0.9104  2.1434
 4710SOL    HW225590   4.178   2.298   2.665 -0.0636 -0.7801 -0.0681
 4711SOL     OW25591   3.454   2.077   9.976 -0.4123  0.3062  0.1395
 4711SOL    HW125592   3.470   2.056  10.068  0.6619  0.4750 -0.0147
 4711SOL    HW225593   3.514   2.022   9.925  1.4495  1.7409  0.8151
 4712SOL     OW25594   3.573   1.159  11.950  0.2962 -0.5022  0.4346
 4712SOL    HW125595   3.543   1.237  11.903 -3.4272 -2.1209  0.0433
 4712SOL    HW225596   3.591   1.099  11.877 -3.0923  0.0151 -0.8198
 4713SOL     OW25597   2.053   2.263   9.663  0.5751 -0.1028 -0.2426
 4713SOL    HW125598   2.057   2.168   9.669  1.6328  0.1787  3.4526
 4713SOL    HW225599   1.959   2.270   9.645  0.4740 -0.0208  0.3288
 4714SOL     OW25600   3.588   0.124   6.048  0.4478 -0.0985 -0.1944
 4714SOL    HW125601   3.568   0.073   5.969  0.8619 -1.6139  0.6726
 4714SOL    HW225602   3.554   0.061   6.112  1.3865  0.7409  1.1076
 4715SOL     OW25603   0.972   3.419   2.983 -0.0614  0.2754  0.6233
 4715SOL    HW125604   1.028   3.345   2.962 -0.6076 -0.5293  2.0314
 4715SOL    HW225605   0.961   3.480   2.910  0.6131 -0.5927 -0.1940
 4716SOL     OW25606   1.347   1.886  17.557 -0.6657  0.4255 -0.1626
 4716SOL    HW125607   1.377   1.974  17.578 -2.4859  0.9836  0.0940
 4716SOL    HW225608   1.405   1.867  17.484 -1.7530  0.2889 -0.9944
 4717SOL     OW25609   1.115   2.378   5.513  0.1654 -0.6502  0.0953
 4717SOL    HW125610   1.087   2.399   5.602 -1.9522 -1.6711 -0.3294
 4717SOL    HW225611   1.131   2.284   5.514  2.2660 -0.2507  3.9834
 4718SOL     OW25612   3.906   3.803   4.324 -0.1762  0.3329 -0.3987
 4718SOL    HW125613   3.969   3.854   4.375  1.2287 -0.3250 -1.4930
 4718SOL    HW225614   3.944   3.716   4.335 -0.3681  0.2906 -0.0538
 4719SOL     OW25615   2.700   4.659   5.470 -0.0591 -0.5414 -0.3226
 4719SOL    HW125616   2.692   4.689   5.560  0.7119  0.2068 -0.5087
 4719SOL    HW225617   2.639   4.585   5.468 -2.2413  1.2646 -0.0431
 4720SOL     OW25618   4.219   0.216   1.477  0.0776  0.0963 -0.0669
 4720SOL    HW125619   4.195   0.304   1.449  2.4530  0.8325  0.1883
 4720SOL    HW225620   4.288   0.231   1.543  0.0763  0.3868 -0.1313
 4721SOL     OW25621   3.361   2.537   5.594 -0.2049 -0.1213 -0.1409
 4721SOL    HW125622   3.402   2.566   5.513 -3.9697  1.7223 -1.3728
 4721SOL    HW225623   3.365   2.441   5.586 -0.7032 -0.0336 -1.3784
 4722SOL     OW25624   1.622   1.504  10.637 -0.2428  0.3041  0.4866
 4722SOL    HW125625   1.689   1.572  10.625  0.1512 -0.4561 -1.6571
 4722SOL    HW225626   1.670   1.439  10.687 -0.2302 -0.2406 -0.2372
 4723SOL     OW25627   4.277   0.350  12.477  0.0398 -0.1027 -0.2714
 4723SOL    HW125628   4.213   0.396  12.530 -0.1523 -0.8496  0.1399
 4723SOL    HW225629   4.238   0.363  12.390 -1.9968 -1.9156  0.3850
 4724SOL     OW25630   2.119   1.601   3.200  0.2222  0.7108 -0.2213
 4724SOL    HW125631   2.128   1.695   3.183  3.5186  0.5336  0.6009
 4724SOL    HW225632   2.211   1.576   3.190  0.1248 -0.6698  2.2003
 4725SOL     OW25633   0.648   1.005   6.544 -0.6680 -0.1133 -0.0055
 4725SOL    HW125634   0.581   1.060   6.503 -0.1880  0.1972 -0.3836
 4725SOL    HW225635   0.627   0.924   6.498  0.8203  0.4726 -1.7366
 4726SOL     OW25636   1.678   0.914  15.089  0.2446  0.5150 -0.5926
 4726SOL    HW125637   1.712   0.923  15.000 -2.1667  1.7975 -1.3831
 4726SOL    HW225638   1.638   0.999  15.107 -0.1185 -0.0297  1.2377
 4727SOL     OW25639   3.725   0.584   5.010  0.4897 -0.2844  0.5765
 4727SOL    HW125640   3.785   0.571   4.937  0.5326 -0.1975  0.5975
 4727SOL    HW225641   3.782   0.634   5.068  0.5562 -0.5316  0.7233
 4728SOL     OW25642   3.354   1.688   4.080 -0.4607  0.1037  0.0018
 4728SOL    HW125643   3.349   1.619   4.014  1.1044  1.5195 -1.5890
 4728SOL    HW225644   3.437   1.734   4.070  0.1216 -1.2039 -1.1421
 4729SOL     OW25645   2.656   0.790   7.302  0.1896  0.4187 -0.4522
 4729SOL    HW125646   2.653   0.795   7.398  3.1585  0.4710 -0.3486
 4729SOL    HW225647   2.751   0.801   7.307  0.2198  0.9877 -2.3435
 4730SOL     OW25648   4.406   2.986   5.027  0.2775 -0.0640  0.7151
 4730SOL    HW125649   4.493   3.023   5.047  0.1541 -0.0063  1.1385
 4730SOL    HW225650   4.368   3.064   4.986  2.4490  0.4346 -0.3705
 4731SOL     OW25651   0.649   0.834  15.705 -0.0202  0.2697  0.0681
 4731SOL    HW125652   0.721   0.886  15.741 -1.2551  1.1143  1.3252
 4731SOL    HW225653   0.699   0.770  15.655  2.0346  0.8842  1.3194
 4732SOL     OW25654   1.494   3.475   2.196  0.0102  0.1924 -0.1824
 4732SOL    HW125655   1.438   3.543   2.232 -2.1904 -1.7630  0.0941
 4732SOL    HW225656   1.427   3.422   2.152  0.3566  2.8159 -3.8364
 4733SOL     OW25657   0.042   2.405   2.269 -0.2600 -0.2698  0.2220
 4733SOL    HW125658   4.695   2.450   2.224 -0.3238 -0.3191  0.2727
 4733SOL    HW225659   0.013   2.314   2.275  2.9781 -1.3685 -1.1266
 4734SOL     OW25660   2.875   0.722  16.544  0.0834  0.0155 -0.5523
 4734SOL    HW125661   2.892   0.751  16.454 -2.6079  0.5478 -0.8897
 4734SOL    HW225662   2.939   0.775  16.591  1.1450 -2.7911  1.1967
 4735SOL     OW25663   3.732   4.295   4.216  0.6375  0.2198  0.5599
 4735SOL    HW125664   3.677   4.373   4.203  0.6498  0.4134  1.7087
 4735SOL    HW225665   3.803   4.329   4.271 -0.2213  0.5998  1.4353
 4736SOL     OW25666   4.622   0.044   3.421 -0.0588  0.1074 -0.4758
 4736SOL    HW125667   4.707   0.001   3.426 -0.4124 -0.3439  1.5404
 4736SOL    HW225668   4.624   0.063   3.327  0.8101 -1.1408 -0.7125
 4737SOL     OW25669   4.542   1.744   9.778  0.1713 -0.3265 -0.3405
 4737SOL    HW125670   4.480   1.747   9.705 -0.6034  0.1446  0.3396
 4737SOL    HW225671   4.609   1.812   9.767  0.1671 -0.3312 -0.3933
 4738SOL     OW25672   0.451   1.748  16.204  0.6536  0.0871  0.3844
 4738SOL    HW125673   0.494   1.777  16.285  1.7241 -0.4014 -0.0101
 4738SOL    HW225674   0.399   1.822  16.172 -0.6338 -0.8245  0.3460
 4739SOL     OW25675   1.131   0.926   5.648 -0.3078  0.9631  0.7199
 4739SOL    HW125676   1.200   0.973   5.695  0.5463  0.2974  0.1144
 4739SOL    HW225677   1.171   0.921   5.562  1.3592  0.3727  1.5231
 4740SOL     OW25678   3.145   0.777   3.036 -0.0093 -0.0362  0.5041
 4740SOL    HW125679   3.131   0.857   2.985 -0.1330 -2.0639 -2.6055
 4740SOL    HW225680   3.069   0.733   2.998 -0.3647  2.1462 -1.3342
 4741SOL     OW25681   1.199   2.007   0.924  0.2013 -0.0581 -0.0262
 4741SOL    HW125682   1.202   2.068   0.851 -4.1216 -0.0826 -0.2332
 4741SOL    HW225683   1.156   2.067   0.986 -0.9849 -1.0227  0.0847
 4742SOL     OW25684   1.533   0.279   8.654  0.2038  0.2594 -0.7501
 4742SOL    HW125685   1.518   0.290   8.748 -0.2448 -1.4347 -0.6208
 4742SOL    HW225686   1.533   0.371   8.629 -0.9276  0.5547  0.3002
 4743SOL     OW25687   3.158   1.132  14.832 -0.2211 -0.0809  0.7877
 4743SOL    HW125688   3.116   1.205  14.878 -1.0493  0.4228 -0.7705
 4743SOL    HW225689   3.110   1.061  14.873 -0.9890 -0.4472 -0.7546
 4744SOL     OW25690   0.254   3.244   8.263  0.1634 -0.4654  0.2120
 4744SOL    HW125691   0.320   3.193   8.216  0.3020 -0.6969  0.6641
 4744SOL    HW225692   0.259   3.332   8.224 -0.8651  0.3302  1.8631
 4745SOL     OW25693   1.117   2.765   7.688  0.1331  0.4922 -0.3781
 4745SOL    HW125694   1.117   2.800   7.777 -0.4130  1.1102 -0.6231
 4745SOL    HW225695   1.036   2.715   7.680  0.6697  0.0143 -3.0855
 4746SOL     OW25696   4.172   2.271  12.609 -0.3076  0.3117  0.7100
 4746SOL    HW125697   4.087   2.256  12.650 -1.0989 -2.1067 -1.8186
 4746SOL    HW225698   4.172   2.195  12.551  1.0193  1.7444 -1.1517
 4747SOL     OW25699   2.220   4.704   8.979  0.1611  0.2568 -0.7386
 4747SOL    HW125700   2.176   4.686   9.062 -0.8724 -0.1264 -1.3626
 4747SOL    HW225701   2.164   0.050   8.943  1.4777  0.2761 -2.7852
 4748SOL     OW25702   0.745   1.867  13.643  0.3180 -0.5219  0.0028
 4748SOL    HW125703   0.673   1.924  13.619  1.8733  1.7001  0.6542
 4748SOL    HW225704   0.714   1.824  13.723  0.0961  0.4731  0.4425
 4749SOL     OW25705   0.984   3.553   7.044  0.3081 -0.3675 -0.0648
 4749SOL    HW125706   1.019   3.637   7.017 -0.0864 -0.3901 -0.6446
 4749SOL    HW225707   0.957   3.572   7.134  1.1252 -0.5685  0.2230
 4750SOL     OW25708   2.322   1.838  14.876 -0.7632 -0.0746  0.3869
 4750SOL    HW125709   2.232   1.828  14.906 -1.6664  2.2987 -1.4939
 4750SOL    HW225710   2.353   1.753  14.906  0.5744  0.2826  0.0040
 4751SOL     OW25711   0.155   1.692   5.802  0.1346  0.1376 -1.1498
 4751SOL    HW125712   0.212   1.625   5.766  0.4879 -0.8808  1.2893
 4751SOL    HW225713   0.069   1.663   5.770  0.3248  0.2740 -1.7655
 4752SOL     OW25714   4.545   0.277  12.274 -0.2130 -0.0937 -0.0379
 4752SOL    HW125715   4.583   0.288  12.361  1.1672 -0.8978 -0.5443
 4752SOL    HW225716   4.494   0.358  12.277  1.0769  0.7253 -0.5318
 4753SOL     OW25717   0.208   3.839  17.481 -0.3422  0.6241 -0.4702
 4753SOL    HW125718   0.289   3.798  17.450 -1.4705 -0.6900 -1.6303
 4753SOL    HW225719   0.139   3.777  17.457 -0.3258  0.1534  0.7011
 4754SOL     OW25720   0.559   3.362   7.385 -0.2395  0.0929  0.0169
 4754SOL    HW125721   0.585   3.434   7.443 -2.6527  0.4424  0.6725
 4754SOL    HW225722   0.469   3.358   7.418  0.0001 -0.6501  0.5673
 4755SOL     OW25723   1.896   0.507   5.339  0.0566  0.1393 -0.1593
 4755SOL    HW125724   1.937   0.429   5.377  3.5395  2.1065  0.1169
 4755SOL    HW225725   1.958   0.537   5.272  0.2789 -1.3631 -0.6349
 4756SOL     OW25726   2.537   1.625  17.262  0.1386  0.3119 -0.6475
 4756SOL    HW125727   2.524   1.680  17.185  1.7213  0.3386 -0.8824
 4756SOL    HW225728   2.583   1.680  17.326 -0.6711  0.7118 -0.3940
 4757SOL     OW25729   3.021   3.848   0.909 -0.0463 -0.0220 -0.3145
 4757SOL    HW125730   3.025   3.943   0.894 -2.4819  0.1543  0.2423
 4757SOL    HW225731   3.048   3.816   0.822  0.5087 -1.6251  0.4490
 4758SOL     OW25732   1.240   2.530   7.659  0.5294  0.8052  0.2061
 4758SOL    HW125733   1.199   2.616   7.669  0.1391  0.5854  0.5135
 4758SOL    HW225734   1.314   2.560   7.607  0.8053 -0.4724 -0.1402
 4759SOL     OW25735   1.872   3.494   1.513  0.1435  0.1254  0.0155
 4759SOL    HW125736   1.940   3.453   1.460 -0.4069 -1.6670  0.7064
 4759SOL    HW225737   1.902   3.584   1.525 -1.0003  0.4258  0.6173
 4760SOL     OW25738   2.720   0.843   4.464 -1.0580 -0.3532  0.4321
 4760SOL    HW125739   2.759   0.778   4.405 -0.7642  1.7877 -1.7591
 4760SOL    HW225740   2.757   0.925   4.432 -0.8001 -0.3288  0.7889
 4761SOL     OW25741   2.882   0.621   8.098  0.2108  0.0892  0.0576
 4761SOL    HW125742   2.924   0.596   8.016 -1.8139  0.7437 -1.1723
 4761SOL    HW225743   2.960   0.650   8.147  0.6188 -1.4610  0.3196
 4762SOL     OW25744   3.836   4.277   3.961  0.0387 -0.2500  0.2067
 4762SOL    HW125745   3.818   4.191   3.924 -0.3436  1.1050 -2.8082
 4762SOL    HW225746   3.816   4.264   4.053  0.8683  2.7206  0.8122
 4763SOL     OW25747   0.695   4.461   7.981 -0.5243 -0.1216 -0.2736
 4763SOL    HW125748   0.655   4.516   8.049 -0.0870  2.2509 -1.9356
 4763SOL    HW225749   0.786   4.478   8.003 -0.2948  0.8975 -2.0057
 4764SOL     OW25750   3.410   1.265  14.163 -0.0626 -0.4015  0.1594
 4764SOL    HW125751   3.406   1.196  14.229 -0.3878  0.6600  1.2405
 4764SOL    HW225752   3.343   1.323  14.200  0.7896 -0.2078  1.3922
 4765SOL     OW25753   1.703   3.349   2.103  0.1025  0.5039 -0.1418
 4765SOL    HW125754   1.619   3.387   2.126  0.0225  1.8356 -2.6008
 4765SOL    HW225755   1.705   3.271   2.158 -0.9025 -0.5530 -1.6021
 4766SOL     OW25756   0.992   2.071   7.151 -0.1887 -0.2332  0.1234
 4766SOL    HW125757   0.972   2.137   7.217 -0.2062  0.4981 -0.6159
 4766SOL    HW225758   0.958   1.995   7.197  1.1820 -1.3256 -0.6442
 4767SOL     OW25759   3.214   3.566   2.946 -0.0098 -0.5983  0.4450
 4767SOL    HW125760   3.128   3.576   2.985 -1.0586 -1.1565 -1.7521
 4767SOL    HW225761   3.264   3.600   3.021  1.6085 -0.2799 -0.7725
 4768SOL     OW25762   0.509   3.939   9.871  0.4642 -0.1542 -0.6454
 4768SOL    HW125763   0.565   4.017   9.870 -0.2103  0.3448  0.8901
 4768SOL    HW225764   0.560   3.879   9.925  2.6248  0.6361 -1.8047
 4769SOL     OW25765   1.722   0.941  14.396 -0.3448 -0.1360 -0.1677
 4769SOL    HW125766   1.722   1.028  14.438  1.1472  1.4536 -3.5171
 4769SOL    HW225767   1.762   0.897  14.471  0.1284  2.3475  1.0436
 4770SOL     OW25768   2.978   3.638   2.713  0.0494  0.1520  0.2643
 4770SOL    HW125769   2.954   3.669   2.800 -3.3190  1.2332 -1.0579
 4770SOL    HW225770   3.048   3.698   2.687 -0.4328 -0.1317 -1.7065
 4771SOL     OW25771   1.038   2.963   2.566 -0.1631  0.3362 -0.0421
 4771SOL    HW125772   1.113   3.016   2.593 -0.4848  0.4895  0.5376
 4771SOL    HW225773   0.965   3.018   2.593  0.1961  0.5663  0.4624
 4772SOL     OW25774   0.366   2.400   6.618 -0.6034  0.3015  0.4428
 4772SOL    HW125775   0.333   2.388   6.707 -0.1510 -0.8181  0.4635
 4772SOL    HW225776   0.289   2.371   6.569 -0.3705 -0.8688  0.7561
 4773SOL     OW25777   2.595   0.468   7.923  0.3208  0.4885 -0.0759
 4773SOL    HW125778   2.601   0.373   7.935 -0.3384  0.1576 -2.2164
 4773SOL    HW225779   2.671   0.508   7.965  0.7728 -0.1365 -0.3049
 4774SOL     OW25780   1.987   2.581   6.538 -0.3757 -0.0327  0.1163
 4774SOL    HW125781   1.983   2.492   6.573  0.3068  0.7023  2.0629
 4774SOL    HW225782   1.933   2.635   6.597  1.2027  2.3354 -0.6002
 4775SOL     OW25783   4.697   4.532  12.558 -0.1261  0.1240  0.5051
 4775SOL    HW125784   4.708   4.566  12.469 -1.1600  0.9620  0.6955
 4775SOL    HW225785   0.062   4.504  12.582 -0.0716 -1.7669 -1.9905
 4776SOL     OW25786   3.914   4.332   7.502 -0.2531  1.0569  0.1026
 4776SOL    HW125787   4.005   4.307   7.516 -0.7072 -0.1060  0.9565
 4776SOL    HW225788   3.922   4.424   7.476 -1.5174  0.6079 -1.8483
 4777SOL     OW25789   0.531   0.359  11.963  0.2841 -0.4328  0.3280
 4777SOL    HW125790   0.548   0.270  11.994 -1.0499 -0.0322  2.2311
 4777SOL    HW225791   0.435   0.364  11.964  0.3300 -0.0053  2.5704
 4778SOL     OW25792   2.619   3.922   2.408  0.0720 -0.6356 -0.7216
 4778SOL    HW125793   2.677   3.993   2.438  0.4364 -0.3593 -2.0996
 4778SOL    HW225794   2.655   3.900   2.322 -0.0598 -0.1358 -0.9055
 4779SOL     OW25795   0.158   4.271   4.005  0.2041  0.1691 -0.1828
 4779SOL    HW125796   0.199   4.357   4.014 -0.9383  0.7718 -0.7088
 4779SOL    HW225797   0.076   4.283   4.053 -0.4974 -3.4576 -0.4572
 4780SOL     OW25798   4.049   2.850  17.668  0.0096  0.0644 -0.0431
 4780SOL    HW125799   4.068   2.933  17.624  1.2852  0.2595  0.8734
 4780SOL    HW225800   4.049   2.787  17.597  2.0405  0.7299 -0.6234
 4781SOL     OW25801   1.941   3.043   9.114  0.2002  0.5150  0.1517
 4781SOL    HW125802   1.880   2.988   9.162  0.5640  0.1893  0.2453
 4781SOL    HW225803   1.877   3.077   9.052 -2.1162 -2.2576  0.9981
 4782SOL     OW25804   0.554   4.385   9.611 -0.1048 -0.7935 -0.0539
 4782SOL    HW125805   0.486   4.422   9.554  0.9271  0.8196 -0.2267
 4782SOL    HW225806   0.560   4.453   9.678 -1.1905 -0.7559  0.0095
 4783SOL     OW25807   0.586   0.441  11.318 -0.4053 -0.0434 -0.4760
 4783SOL    HW125808   0.548   0.504  11.257 -1.8070  0.5859  1.0392
 4783SOL    HW225809   0.679   0.463  11.324 -0.6080  0.8654 -0.7261
 4784SOL     OW25810   1.247   0.754  13.771 -0.2712 -0.3605 -0.3686
 4784SOL    HW125811   1.208   0.672  13.741 -1.8974  0.0712  0.6261
 4784SOL    HW225812   1.206   0.778  13.854 -1.2194 -2.0864 -0.3551
 4785SOL     OW25813   4.286   2.577  16.296 -0.0350  0.2994 -0.6944
 4785SOL    HW125814   4.236   2.607  16.372  1.3967  0.8253  0.0311
 4785SOL    HW225815   4.245   2.628  16.226 -0.9221  0.3019 -0.1729
 4786SOL     OW25816   0.542   3.739   6.921 -0.7899  0.4103 -0.9475
 4786SOL    HW125817   0.559   3.666   6.861  2.6360  1.6265 -1.4549
 4786SOL    HW225818   0.587   3.717   7.003 -0.9940  3.1563 -0.1067
 4787SOL     OW25819   4.379   0.710   4.142  0.1360  0.2142 -0.1042
 4787SOL    HW125820   4.408   0.760   4.218  1.8732 -0.2297 -0.4805
 4787SOL    HW225821   4.426   0.627   4.143 -0.3001 -0.0393 -0.3945
 4788SOL     OW25822   0.205   3.269   7.462  0.5209  0.1114 -0.5585
 4788SOL    HW125823   0.147   3.342   7.480  0.7224  0.5619 -1.7726
 4788SOL    HW225824   0.240   3.247   7.549  0.8133 -0.5759 -0.8437
 4789SOL     OW25825   3.146   0.171  13.656 -0.0102  0.4084  0.2725
 4789SOL    HW125826   3.112   0.207  13.738  0.7904 -0.5470  1.0265
 4789SOL    HW225827   3.150   0.077  13.674 -0.7365  0.2190 -0.5780
 4790SOL     OW25828   4.368   1.061  12.716  0.9634  0.1276 -0.1163
 4790SOL    HW125829   4.345   1.153  12.711  0.1115 -0.1051 -0.4843
 4790SOL    HW225830   4.422   1.047  12.794 -0.0472 -2.7859  0.0713
 4791SOL     OW25831   4.197   1.922   7.161 -0.1046  0.9645  0.5863
 4791SOL    HW125832   4.187   1.859   7.090 -1.1596 -0.0228  1.6154
 4791SOL    HW225833   4.107   1.953   7.163 -0.3822  0.0994  1.4260
 4792SOL     OW25834   3.550   2.602   7.699 -0.8093  0.2241 -0.1342
 4792SOL    HW125835   3.491   2.550   7.755  0.0038 -0.0231  0.4956
 4792SOL    HW225836   3.584   2.532   7.643 -0.6254  1.1321 -1.1355
 4793SOL     OW25837   4.542   1.704   1.978  0.0471 -0.0233  0.4296
 4793SOL    HW125838   4.595   1.682   1.901  0.3916 -1.1408  0.9977
 4793SOL    HW225839   4.526   1.794   1.951 -0.6749 -0.7397 -1.5826
 4794SOL     OW25840   0.335   1.983   7.369 -0.1093 -0.2923 -0.1040
 4794SOL    HW125841   0.246   1.949   7.358 -0.8124  1.6183 -0.3040
 4794SOL    HW225842   0.353   2.019   7.282 -2.0268  0.3414 -0.2332
 4795SOL     OW25843   3.930   1.314   5.593 -0.4184 -0.1638 -0.3757
 4795SOL    HW125844   3.914   1.281   5.505 -1.4568  0.4068 -0.3977
 4795SOL    HW225845   3.845   1.353   5.612 -0.0917  0.4059 -0.0903
 4796SOL     OW25846   2.524   0.451  16.893  0.7300  0.1040 -0.2168
 4796SOL    HW125847   2.589   0.518  16.872 -0.2248  1.0556 -0.1065
 4796SOL    HW225848   2.527   0.383  16.825  4.0441  2.6208 -2.6105
 4797SOL     OW25849   4.282   3.060  12.257 -0.3457  0.1756  0.1759
 4797SOL    HW125850   4.215   3.018  12.311  0.6011 -1.5130  0.0105
 4797SOL    HW225851   4.237   3.125  12.203 -1.5170  1.6845  2.9436
 4798SOL     OW25852   4.304   3.182   8.531  0.3687  0.1440 -0.4581
 4798SOL    HW125853   4.284   3.264   8.486  0.5289 -0.9116 -2.4143
 4798SOL    HW225854   4.364   3.212   8.600  0.2928  4.7988 -2.4351
 4799SOL     OW25855   0.877   0.832   3.756 -0.0516 -0.6768 -0.0682
 4799SOL    HW125856   0.796   0.832   3.706 -1.7742 -0.5202  2.7030
 4799SOL    HW225857   0.858   0.903   3.818  0.6666  1.2075 -2.0150
 4800SOL     OW25858   2.971   1.410   2.835  0.3486 -0.4679  0.5273
 4800SOL    HW125859   3.015   1.389   2.752  2.1199  2.1252  0.8119
 4800SOL    HW225860   3.051   1.441   2.877  0.3171 -1.1986  1.1232
 4801SOL     OW25861   3.729   4.503   6.483  0.6991 -0.3754  0.7799
 4801SOL    HW125862   3.671   4.450   6.427 -1.1217  1.1694  1.2210
 4801SOL    HW225863   3.711   4.468   6.571  0.5525 -0.6152  0.6563
 4802SOL     OW25864   3.026   3.025   7.642 -0.0182  0.0587  0.0801
 4802SOL    HW125865   2.960   3.060   7.701  0.4763  1.5808 -0.2639
 4802SOL    HW225866   3.092   3.028   7.711  1.0761 -1.5603 -0.8861
 4803SOL     OW25867   0.406   3.056  14.928 -0.1625 -0.9485  0.4481
 4803SOL    HW125868   0.368   3.131  14.883  3.6483  1.0372  0.5851
 4803SOL    HW225869   0.459   3.099  14.994 -0.9209 -1.1604  1.1877
 4804SOL     OW25870   2.544   0.151   3.339  0.5325  0.4447  0.9669
 4804SOL    HW125871   2.539   0.066   3.296 -1.8700  0.5985  0.9356
 4804SOL    HW225872   2.574   0.204   3.266 -0.9640 -2.0844 -1.4880
 4805SOL     OW25873   3.298   3.819   3.105 -0.0978 -0.1839 -0.3183
 4805SOL    HW125874   3.309   3.869   3.024  1.1880  0.5216  0.3011
 4805SOL    HW225875   3.236   3.863   3.162  0.5763  0.6726 -0.2525
 4806SOL     OW25876   4.177   0.488   6.893  0.4614  0.4202  0.4258
 4806SOL    HW125877   4.086   0.475   6.922 -0.1240  3.5148 -0.0215
 4806SOL    HW225878   4.190   0.582   6.888 -1.0264  0.5584 -0.9022
 4807SOL     OW25879   4.242   4.352   3.495 -0.3401 -0.4729  0.2848
 4807SOL    HW125880   4.213   4.398   3.573 -2.2651 -2.0183  0.4674
 4807SOL    HW225881   4.210   4.267   3.523 -0.8605 -0.3802 -0.0264
 4808SOL     OW25882   0.871   1.623  10.433  0.1324  0.2156  0.1885
 4808SOL    HW125883   0.811   1.674  10.379  0.3123 -0.2813 -0.4753
 4808SOL    HW225884   0.909   1.697  10.480  3.3707 -1.7456  0.6509
 4809SOL     OW25885   3.930   4.455   8.144 -0.0955  0.1244 -0.7759
 4809SOL    HW125886   3.838   4.433   8.131 -0.4196  1.5166 -0.9082
 4809SOL    HW225887   3.981   4.381   8.111 -0.1378  0.4848 -1.6611
 4810SOL     OW25888   0.628   0.186   2.179 -0.2833 -0.0981 -0.1631
 4810SOL    HW125889   0.616   0.106   2.128 -1.3452 -2.0419  3.1595
 4810SOL    HW225890   0.623   0.144   2.265  0.1441 -0.9561 -0.5637
 4811SOL     OW25891   2.750   4.170  12.204  0.7232  0.5716 -0.2605
 4811SOL    HW125892   2.820   4.229  12.177  0.1813  0.6540 -1.4590
 4811SOL    HW225893   2.712   4.160  12.117  1.6159 -0.2008 -0.5772
 4812SOL     OW25894   1.151   3.276  13.904 -0.0442  0.0800  0.9806
 4812SOL    HW125895   1.059   3.254  13.886  0.2023 -1.3734  1.4975
 4812SOL    HW225896   1.134   3.360  13.948 -0.1825 -0.1281  1.3209
 4813SOL     OW25897   3.359   2.206   1.040 -0.4366  0.1780 -0.2667
 4813SOL    HW125898   3.315   2.283   1.006 -3.8955 -0.7334  2.1886
 4813SOL    HW225899   3.389   2.253   1.118  0.6125 -0.6835 -0.1380
 4814SOL     OW25900   1.481   2.906   5.065  0.0881  0.1072 -0.1732
 4814SOL    HW125901   1.525   2.954   4.995  0.9108 -2.7671 -1.6300
 4814SOL    HW225902   1.553   2.901   5.128 -0.7262 -0.3504  0.7321
 4815SOL     OW25903   0.748   4.356   7.180 -0.5608 -0.0496  0.2116
 4815SOL    HW125904   0.788   4.366   7.093  1.6390 -2.9107  0.9288
 4815SOL    HW225905   0.828   4.350   7.231 -0.6850 -0.7973  0.3144
 4816SOL     OW25906   0.896   3.605   3.470 -0.1115 -0.3008 -0.3335
 4816SOL    HW125907   0.984   3.603   3.433 -0.1884  1.0652 -0.5685
 4816SOL    HW225908   0.839   3.627   3.395  0.5231  0.0594 -0.7071
 4817SOL     OW25909   0.791   2.280   2.630  0.6339  0.0836  0.3925
 4817SOL    HW125910   0.749   2.245   2.551  2.6833 -0.7196 -0.3638
 4817SOL    HW225911   0.745   2.225   2.693  0.8997 -0.1960  0.3444
 4818SOL     OW25912   2.139   2.703   2.792 -0.2330  0.2159 -0.0231
 4818SOL    HW125913   2.087   2.775   2.827  0.1908  1.1105 -1.2453
 4818SOL    HW225914   2.072   2.671   2.732  1.7097  1.5961 -2.9206
 4819SOL     OW25915   2.780   2.309   5.810 -0.7298  0.3606  0.4234
 4819SOL    HW125916   2.806   2.259   5.732 -0.5819  0.9534  0.0936
 4819SOL    HW225917   2.750   2.239   5.868  0.5092  0.2471  0.9275
 4820SOL     OW25918   1.904   0.279  10.970 -0.3173  0.1590 -0.5228
 4820SOL    HW125919   1.811   0.257  10.965 -0.8807  2.1710  0.6282
 4820SOL    HW225920   1.910   0.298  11.064  0.6278  1.9779 -0.9485
 4821SOL     OW25921   3.742   1.811   8.140 -0.9417  0.5820  0.3207
 4821SOL    HW125922   3.831   1.777   8.149 -0.2751  1.7370 -1.9446
 4821SOL    HW225923   3.748   1.851   8.226  0.3174  1.1064 -0.0145
 4822SOL     OW25924   1.201   4.520   9.104  0.2544 -0.8848 -0.2352
 4822SOL    HW125925   1.199   4.606   9.061  0.8687 -0.8453 -0.1976
 4822SOL    HW225926   1.199   4.555   9.193  0.4421 -1.3808 -0.0335
 4823SOL     OW25927   3.796   3.493   2.161 -0.0849 -0.1592  0.6748
 4823SOL    HW125928   3.825   3.465   2.248  1.6615  0.9350  0.4414
 4823SOL    HW225929   3.837   3.425   2.108  0.6082  0.7334  0.0728
 4824SOL     OW25930   3.314   3.636   0.534  0.2255 -0.3622 -0.0548
 4824SOL    HW125931   3.388   3.579   0.554  1.0588  1.2517  1.4916
 4824SOL    HW225932   3.296   3.593   0.451 -2.4872  2.2873 -0.8516
 4825SOL     OW25933   4.317   1.044   3.729  0.7082  0.2663  0.9113
 4825SOL    HW125934   4.376   1.086   3.791  0.9508  2.5052 -0.8435
 4825SOL    HW225935   4.343   0.955   3.753  1.9968  0.8379  1.6249
 4826SOL     OW25936   2.749   3.114   4.861  0.7534  0.1947 -0.5032
 4826SOL    HW125937   2.818   3.171   4.895  0.2574  0.8224 -0.5564
 4826SOL    HW225938   2.679   3.167   4.825  1.5418  0.8306 -1.1124
 4827SOL     OW25939   3.713   1.844  14.772 -0.1596 -0.0595  0.4174
 4827SOL    HW125940   3.715   1.852  14.677 -1.6409  0.4717  0.4236
 4827SOL    HW225941   3.767   1.766  14.785 -0.1088  0.1933  1.7458
 4828SOL     OW25942   3.906   3.848   7.225  0.4971  0.5259  0.1294
 4828SOL    HW125943   3.918   3.899   7.306  0.0896 -0.1230  0.5943
 4828SOL    HW225944   3.970   3.887   7.165  2.6491 -1.6369  1.0054
 4829SOL     OW25945   1.078   4.320   8.367  0.2570  0.7742 -0.1244
 4829SOL    HW125946   1.116   4.252   8.424  0.4352  0.9076 -0.0855
 4829SOL    HW225947   1.133   4.394   8.391  2.0604 -0.2615 -1.0995
 4830SOL     OW25948   0.243   3.509   8.166  0.2074  0.2809  0.3192
 4830SOL    HW125949   0.275   3.599   8.159  0.5473  0.1194 -0.2961
 4830SOL    HW225950   0.212   3.492   8.077 -0.4432  0.9613  0.4229
 4831SOL     OW25951   0.339   2.536   8.774  0.0586  0.3299  0.0812
 4831SOL    HW125952   0.389   2.455   8.765  2.3315  1.6465  0.8826
 4831SOL    HW225953   0.253   2.493   8.784  0.2778  0.3311  2.0386
 4832SOL     OW25954   0.509   4.153   4.696  0.3499  0.8455  0.0084
 4832SOL    HW125955   0.553   4.238   4.705  0.5768  0.8493 -1.1655
 4832SOL    HW225956   0.448   4.177   4.626  0.3755  2.3143  0.4939
 4833SOL     OW25957   3.442   1.244   4.807  0.4490 -0.5252  0.7022
 4833SOL    HW125958   3.369   1.251   4.744  0.9936  0.3777  0.1718
 4833SOL    HW225959   3.409   1.305   4.872 -0.3854  0.4190 -0.6033
 4834SOL     OW25960   3.146   2.122   5.508  0.0559  0.2982 -0.3170
 4834SOL    HW125961   3.095   2.127   5.427 -0.5028  0.7934  0.0687
 4834SOL    HW225962   3.078   2.111   5.574  1.8188  0.6046  1.5565
 4835SOL     OW25963   3.690   0.612   7.191  0.9441  0.3146  0.3572
 4835SOL    HW125964   3.752   0.573   7.252  1.2369  2.9550  1.7321
 4835SOL    HW225965   3.746   0.658   7.129  1.1165  0.5860  0.7181
 4836SOL     OW25966   3.632   0.870   1.348  0.1954 -0.3463  0.3908
 4836SOL    HW125967   3.559   0.904   1.400  0.9558  2.2866 -0.3023
 4836SOL    HW225968   3.622   0.927   1.272 -2.0715 -0.5611  0.5196
 4837SOL     OW25969   0.585   2.852  12.653  0.2445  0.0537 -0.0678
 4837SOL    HW125970   0.650   2.906  12.699 -1.8039 -0.0501  2.9758
 4837SOL    HW225971   0.530   2.819  12.724 -1.1418  0.7438 -0.8357
 4838SOL     OW25972   2.897   0.556   1.732  0.7528  0.3188 -0.9703
 4838SOL    HW125973   2.864   0.538   1.820  1.0493  0.2703 -0.8710
 4838SOL    HW225974   2.989   0.580   1.741  0.5484  0.8716 -0.2899
 4839SOL     OW25975   0.888   4.280  15.971 -0.0727  0.4065  0.4701
 4839SOL    HW125976   0.889   4.222  15.894 -2.3872  0.8615  0.0823
 4839SOL    HW225977   0.830   4.231  16.029  0.2902  0.5921  0.9854
 4840SOL     OW25978   3.385   3.187   5.677  0.2022  0.3080  0.0010
 4840SOL    HW125979   3.477   3.164   5.696  0.5036 -1.0067 -3.2002
 4840SOL    HW225980   3.389   3.195   5.582  1.1352 -1.9853 -0.1708
 4841SOL     OW25981   1.442   2.707  15.429 -0.1285 -0.1548  0.1615
 4841SOL    HW125982   1.364   2.709  15.484 -0.6265  2.2949 -0.5999
 4841SOL    HW225983   1.507   2.680  15.493  1.2350 -1.2205 -1.6621
 4842SOL     OW25984   3.716   1.893  14.510 -0.2535  0.4320 -0.1112
 4842SOL    HW125985   3.688   1.891  14.418 -1.5261  0.8826  0.2738
 4842SOL    HW225986   3.725   1.988  14.515 -0.6773  0.4352  0.5664
 4843SOL     OW25987   2.046   0.198   6.239  0.2796 -0.1826 -0.1905
 4843SOL    HW125988   2.000   0.116   6.222 -1.5926  0.7460  0.3546
 4843SOL    HW225989   2.137   0.170   6.239  0.6471  1.0300  0.6311
 4844SOL     OW25990   3.106   1.354   5.883 -0.3973  0.5294 -0.0637
 4844SOL    HW125991   3.159   1.382   5.809  1.0724 -0.1856  0.7128
 4844SOL    HW225992   3.038   1.312   5.831 -1.3661  0.5244  1.2155
 4845SOL     OW25993   2.614   2.295   1.666  0.1130  0.6505 -0.1520
 4845SOL    HW125994   2.540   2.318   1.610 -0.5077  2.0769  1.2235
 4845SOL    HW225995   2.637   2.383   1.697 -1.1343  0.2014  2.0733
 4846SOL     OW25996   1.286   1.250   5.084 -0.0152  0.2704 -0.2766
 4846SOL    HW125997   1.339   1.252   5.164 -0.5688  0.0615  0.0967
 4846SOL    HW225998   1.256   1.341   5.082 -1.4246 -0.1767  0.5067
 4847SOL     OW25999   4.673   3.688  17.222  0.3273  0.2363  0.0232
 4847SOL    HW126000   4.700   3.644  17.142  0.5442  0.8046 -0.2186
 4847SOL    HW226001   4.723   3.631  17.280  2.1635 -1.3057 -3.0725
 4848SOL     OW26002   0.483   1.300   3.864 -0.0066 -0.5004 -0.2344
 4848SOL    HW126003   0.416   1.242   3.899 -1.2155  3.0703  3.3591
 4848SOL    HW226004   0.507   1.248   3.787  1.3774  0.6909 -0.6210
 4849SOL     OW26005   3.905   0.754  13.595 -0.3864 -1.1307  0.0770
 4849SOL    HW126006   3.865   0.690  13.654 -0.8063  0.5044  1.5595
 4849SOL    HW226007   3.921   0.828  13.653  0.4535 -0.5568 -0.8707
 4850SOL     OW26008   0.361   0.722  16.000 -0.5294  0.8788  0.1769
 4850SOL    HW126009   0.359   0.685  15.912 -1.7917 -2.7223  1.7172
 4850SOL    HW226010   0.348   0.647  16.057 -1.1662  0.8784  0.0261
 4851SOL     OW26011   4.532   4.332   8.242  0.1263 -0.3836  0.0050
 4851SOL    HW126012   4.524   4.348   8.148 -2.8522  2.1447  0.6964
 4851SOL    HW226013   4.500   4.241   8.241  1.3206 -0.7944 -0.4646
 4852SOL     OW26014   0.785   2.153   6.860  0.1518  0.0967 -1.2156
 4852SOL    HW126015   0.878   2.174   6.854  0.4164 -0.6451  0.2483
 4852SOL    HW226016   0.746   2.179   6.777 -1.6218 -2.6420 -1.2457
 4853SOL     OW26017   3.383   3.456   8.748 -0.2336  0.3050 -0.0532
 4853SOL    HW126018   3.349   3.502   8.824  0.2028 -3.0483  2.1597
 4853SOL    HW226019   3.319   3.386   8.738  1.4393 -1.2717  0.4006
 4854SOL     OW26020   1.639   0.105   5.662 -0.0220  0.0533  0.2630
 4854SOL    HW126021   1.703   0.063   5.604 -0.3520  0.2656 -0.2512
 4854SOL    HW226022   1.587   0.159   5.604  0.4012  0.0946 -0.0790
 4855SOL     OW26023   2.565   2.210  12.871  0.4293  0.3136  0.2322
 4855SOL    HW126024   2.532   2.245  12.788 -0.6099  0.2628  0.6367
 4855SOL    HW226025   2.532   2.120  12.865  0.2267  0.3461  0.8768
 4856SOL     OW26026   3.550   3.529   0.595 -0.4185 -0.8246  0.4023
 4856SOL    HW126027   3.590   3.500   0.513 -1.0351 -2.1079  0.5597
 4856SOL    HW226028   3.578   3.454   0.648 -2.3970 -1.0923  1.0503
 4857SOL     OW26029   4.082   3.565   0.615  0.3682 -0.6452 -0.2226
 4857SOL    HW126030   4.142   3.621   0.565  0.1485  0.4570  0.7559
 4857SOL    HW226031   4.077   3.504   0.541  0.5089  0.0515 -0.8178
 4858SOL     OW26032   0.407   2.867  15.823 -0.3637  0.1670  0.3177
 4858SOL    HW126033   0.327   2.840  15.868 -0.7304  0.5009 -0.1355
 4858SOL    HW226034   0.460   2.903  15.895  1.3779 -0.0490 -0.8436
 4859SOL     OW26035   1.920   1.220  10.981  0.2648  0.1186 -0.0069
 4859SOL    HW126036   1.957   1.245  11.065 -0.0017  1.2024 -0.2095
 4859SOL    HW226037   1.977   1.148  10.955  1.6490  1.4790 -0.7431
 4860SOL     OW26038   3.303   4.383   5.862  0.0060  0.2830 -0.6011
 4860SOL    HW126039   3.336   4.383   5.772  0.2746 -0.1574 -0.4984
 4860SOL    HW226040   3.363   4.325   5.908  0.2993 -1.1183 -2.7402
 4861SOL     OW26041   0.856   2.941  15.095 -0.1330  0.1035  0.7616
 4861SOL    HW126042   0.797   2.925  15.021  0.8872  3.0717 -0.6868
 4861SOL    HW226043   0.928   2.971  15.040 -0.6155  2.1763  1.2579
 4862SOL     OW26044   1.235   4.361   8.723  0.0398 -0.0463  0.8372
 4862SOL    HW126045   1.307   4.314   8.765  1.0185 -2.2087 -3.1660
 4862SOL    HW226046   1.203   4.288   8.669 -0.5488  0.4695  0.4868
 4863SOL     OW26047   2.475   4.674   4.848 -0.2489 -0.1318  0.3034
 4863SOL    HW126048   2.387   4.692   4.818 -0.1062  0.6270  0.3309
 4863SOL    HW226049   2.515   0.037   4.840 -0.3273 -0.3939 -2.9523
 4864SOL     OW26050   0.197   4.288   7.701 -0.5221  0.8938 -0.0331
 4864SOL    HW126051   0.277   4.275   7.650 -0.6941  0.7418 -0.2682
 4864SOL    HW226052   0.153   4.360   7.655  1.9350  2.5692  0.2442
 4865SOL     OW26053   4.201   1.723   2.181 -0.2756  0.3032  0.5015
 4865SOL    HW126054   4.269   1.670   2.223  1.4407  2.0314 -0.1374
 4865SOL    HW226055   4.255   1.781   2.128  0.1819 -0.3417  0.2708
 4866SOL     OW26056   3.651   3.185   6.851  0.0364 -0.0968  0.0870
 4866SOL    HW126057   3.606   3.118   6.902  0.5116 -0.6769 -0.2650
 4866SOL    HW226058   3.667   3.245   6.924  0.6399  2.2116 -1.9223
 4867SOL     OW26059   3.027   0.275   0.545  0.1157  0.4363 -0.6354
 4867SOL    HW126060   3.059   0.359   0.578 -1.2507  0.5876  0.2978
 4867SOL    HW226061   3.086   0.265   0.470  1.4444 -0.7237  0.5847
 4868SOL     OW26062   3.738   1.188   8.346  0.1556  0.2154  0.2687
 4868SOL    HW126063   3.650   1.174   8.383 -0.8547 -0.6678 -2.4707
 4868SOL    HW226064   3.799   1.195   8.419  0.4604  0.2325  0.0140
 4869SOL     OW26065   3.024   1.341   0.846  0.3594 -0.2954  0.5461
 4869SOL    HW126066   3.033   1.354   0.940 -0.1067  0.8918  0.4235
 4869SOL    HW226067   2.969   1.263   0.851  1.0942 -0.8212  0.3766
 4870SOL     OW26068   2.319   3.325   5.387 -0.3880  0.1877  0.2531
 4870SOL    HW126069   2.333   3.386   5.314  0.7964  1.1776  1.3132
 4870SOL    HW226070   2.266   3.385   5.438  1.6307  0.3464  2.1523
 4871SOL     OW26071   3.703   2.668   7.246  0.3977 -0.3376  0.6504
 4871SOL    HW126072   3.638   2.703   7.306 -0.7382 -0.6716 -0.3791
 4871SOL    HW226073   3.643   2.614   7.195  0.7617  0.7029 -0.8693
 4872SOL     OW26074   2.246   1.492   3.457 -0.3505 -0.7377  0.3319
 4872SOL    HW126075   2.315   1.530   3.403 -1.4093 -0.8624 -1.0941
 4872SOL    HW226076   2.189   1.570   3.455  2.1337  1.0591 -0.3351
 4873SOL     OW26077   1.592   3.247   2.767 -0.5738  0.5986  0.1586
 4873SOL    HW126078   1.550   3.170   2.730  0.3950  1.2438 -2.2704
 4873SOL    HW226079   1.679   3.223   2.735 -0.4181 -0.2677  1.2227
 4874SOL     OW26080   4.649   2.442   5.709 -0.3941 -0.6481 -0.7237
 4874SOL    HW126081   4.718   2.376   5.704 -0.0982 -0.5087  1.3922
 4874SOL    HW226082   4.573   2.384   5.702 -0.2847 -1.0204  1.0915
 4875SOL     OW26083   0.350   3.047   8.642 -0.2947 -0.6968 -0.5345
 4875SOL    HW126084   0.311   2.977   8.589 -2.4595  0.9275 -1.0551
 4875SOL    HW226085   0.344   2.996   8.723  0.6632 -0.2582 -0.1924
 4876SOL     OW26086   0.457   1.765  11.791  0.3901 -0.0117 -0.1430
 4876SOL    HW126087   0.513   1.753  11.868 -0.9384 -0.3455  0.7778
 4876SOL    HW226088   0.379   1.713  11.810 -1.2091  2.5100  0.2130
 4877SOL     OW26089   1.642   2.179   4.498 -0.5043  0.0729  0.1449
 4877SOL    HW126090   1.667   2.096   4.539  0.8411 -0.1582 -1.1721
 4877SOL    HW226091   1.644   2.242   4.570 -0.8764 -0.6235  0.7639
 4878SOL     OW26092   1.841   2.240   2.536  0.4388 -0.1290  0.4803
 4878SOL    HW126093   1.866   2.156   2.496  3.2616  0.3345  1.3082
 4878SOL    HW226094   1.920   2.270   2.580 -0.2244 -0.8652  2.1575
 4879SOL     OW26095   4.393   0.801   3.732 -0.0146 -0.0500 -0.1588
 4879SOL    HW126096   4.446   0.762   3.801 -0.3619  1.2588  0.8265
 4879SOL    HW226097   4.352   0.723   3.692  0.0217  0.0499 -0.3911
 4880SOL     OW26098   0.576   2.203   9.719  0.2706  0.2170  0.0135
 4880SOL    HW126099   0.488   2.195   9.754  0.8625 -1.1912  1.1248
 4880SOL    HW226100   0.612   2.283   9.758  1.0423  0.7854 -1.8108
 4881SOL     OW26101   0.476   0.126  14.765  0.5315 -0.4310  0.1113
 4881SOL    HW126102   0.473   0.220  14.781 -2.0642 -0.1440 -2.2032
 4881SOL    HW226103   0.386   0.107  14.740  1.0087  0.6157 -2.4163
 4882SOL     OW26104   2.052   2.777   7.527  0.5915  0.9351 -0.8376
 4882SOL    HW126105   1.998   2.771   7.606  3.7954  0.7378  1.3085
 4882SOL    HW226106   2.099   2.694   7.521  0.4812  0.7095  1.2119
 4883SOL     OW26107   0.137   1.662   3.910  0.1074 -0.3423  0.1196
 4883SOL    HW126108   0.102   1.614   3.836  0.8070 -0.2111 -0.3009
 4883SOL    HW226109   0.057   1.669   3.962  1.4125  0.7893  1.9878
 4884SOL     OW26110   3.521   3.804  17.050 -0.2262 -0.3461 -0.1246
 4884SOL    HW126111   3.592   3.809  16.986  0.3173  1.2339  0.6067
 4884SOL    HW226112   3.551   3.743  17.118 -0.7343 -2.5368 -1.8468
 4885SOL     OW26113   2.073   4.574   8.382  0.6657 -0.0325  0.0771
 4885SOL    HW126114   2.103   4.519   8.310  2.0612 -1.4487  1.7183
 4885SOL    HW226115   1.980   4.556   8.372  0.3452  0.3298  2.3161
 4886SOL     OW26116   2.706   2.503   9.165  0.2192  0.3855  0.6474
 4886SOL    HW126117   2.640   2.515   9.097  2.2144  0.9561 -1.1855
 4886SOL    HW226118   2.780   2.466   9.117 -0.7127  0.5971 -0.9493
 4887SOL     OW26119   0.998   1.934   3.730  0.4000 -0.1702  0.3780
 4887SOL    HW126120   0.931   1.982   3.681 -0.7349  1.1946  3.2632
 4887SOL    HW226121   0.957   1.848   3.733  0.3601 -0.2716 -2.6183
 4888SOL     OW26122   0.139   4.561   6.336 -0.0719 -0.5316  0.2019
 4888SOL    HW126123   0.153   4.476   6.294 -2.1877 -1.2624  0.9462
 4888SOL    HW226124   0.136   4.609   6.253  0.8491  0.8681  0.9873
 4889SOL     OW26125   1.072   0.854   2.179  0.6056 -0.0118  0.1860
 4889SOL    HW126126   1.059   0.883   2.269 -1.4768 -1.3995  0.3209
 4889SOL    HW226127   0.984   0.870   2.145  1.0720 -0.6801 -1.3426
 4890SOL     OW26128   0.908   2.539   8.088  0.6948 -0.2564  0.5570
 4890SOL    HW126129   0.848   2.595   8.137 -0.6113  0.6573 -2.0965
 4890SOL    HW226130   0.984   2.588   8.056  1.2901 -1.5434  0.0150
 4891SOL     OW26131   1.901   2.614   9.512  0.8336  0.8605  0.0097
 4891SOL    HW126132   1.946   2.550   9.458  2.4907  1.2413  0.9403
 4891SOL    HW226133   1.924   2.695   9.466 -2.3780  2.1285  0.6237
 4892SOL     OW26134   1.396   3.489   7.299 -0.4166 -0.6302 -0.3643
 4892SOL    HW126135   1.311   3.446   7.306  0.1389 -1.8341 -1.0766
 4892SOL    HW226136   1.366   3.567   7.252 -0.1531 -0.6838 -0.6184
 4893SOL     OW26137   2.591   1.798   7.140  0.8474 -0.5220 -0.2048
 4893SOL    HW126138   2.519   1.781   7.079 -0.6722  0.2418  1.3888
 4893SOL    HW226139   2.655   1.843   7.086 -1.6246  1.2116 -1.6733
 4894SOL     OW26140   0.273   1.018   5.728 -0.7591  0.3636  0.1379
 4894SOL    HW126141   0.364   1.043   5.712 -0.7477 -0.7949 -1.5585
 4894SOL    HW226142   0.265   0.929   5.694  0.5512 -0.1447  1.1264
 4895SOL     OW26143   4.377   3.655   1.821 -0.6432 -0.1634 -0.1472
 4895SOL    HW126144   4.412   3.657   1.732 -1.5666  1.3051 -0.4679
 4895SOL    HW226145   4.448   3.700   1.869 -0.8367  0.2722 -0.2679
 4896SOL     OW26146   0.930   4.396   8.693  0.0207 -0.3969  0.3100
 4896SOL    HW126147   0.885   4.450   8.629 -1.3327  0.6541  2.1417
 4896SOL    HW226148   1.021   4.417   8.675 -0.3399 -1.0801 -2.2877
 4897SOL     OW26149   1.525   2.157   9.098 -0.5365 -0.1078  0.3533
 4897SOL    HW126150   1.589   2.086   9.105 -1.6218 -1.0562  0.7059
 4897SOL    HW226151   1.570   2.234   9.132 -0.3436 -0.8395  1.7553
 4898SOL     OW26152   3.389   4.165   2.246  0.1371 -0.1766  0.1160
 4898SOL    HW126153   3.432   4.081   2.261 -0.5950 -0.8163 -1.3484
 4898SOL    HW226154   3.322   4.140   2.183  0.5196  1.4375 -0.8951
 4899SOL     OW26155   1.757   2.680  14.744 -0.4945 -0.0001 -0.0388
 4899SOL    HW126156   1.809   2.743  14.795  0.1281 -0.1909 -0.4424
 4899SOL    HW226157   1.793   2.676  14.656 -0.7474 -0.9101 -0.1019
 4900SOL     OW26158   3.066   1.199   7.592 -0.3500 -0.0495  0.0882
 4900SOL    HW126159   3.041   1.219   7.682 -0.3167  0.5281 -0.0354
 4900SOL    HW226160   3.128   1.266   7.566  0.8534 -0.6267  1.4463
 4901SOL     OW26161   2.523   4.060   3.861  0.2589  0.3933 -0.3345
 4901SOL    HW126162   2.572   3.978   3.857  0.5524  0.4538  2.4258
 4901SOL    HW226163   2.560   4.108   3.786 -0.6408  1.0242 -0.3779
 4902SOL     OW26164   2.294   4.550   7.545  0.2115  0.1001  0.4947
 4902SOL    HW126165   2.387   4.573   7.548 -0.4386  2.6029  1.1758
 4902SOL    HW226166   2.276   4.488   7.616  3.0137 -2.8175 -1.3284
 4903SOL     OW26167   0.863   4.340   6.938 -0.4136  0.2585  0.0360
 4903SOL    HW126168   0.907   4.419   6.909 -0.6231  0.5375  0.4711
 4903SOL    HW226169   0.778   4.342   6.893 -0.1831 -1.2364 -0.4574
 4904SOL     OW26170   1.216   2.917  12.202 -0.1244  0.2155 -0.5556
 4904SOL    HW126171   1.169   2.944  12.281 -1.8536 -1.5023 -1.0041
 4904SOL    HW226172   1.255   2.839  12.242 -0.7325  0.4637  0.5028
 4905SOL     OW26173   3.603   1.391   3.774 -0.2414 -0.1167  0.3208
 4905SOL    HW126174   3.665   1.389   3.847 -1.8461 -0.9697  1.6428
 4905SOL    HW226175   3.522   1.407   3.822 -0.2968  1.7493 -0.3905
 4906SOL     OW26176   1.645   2.395   4.684 -0.5046 -0.2896  0.2448
 4906SOL    HW126177   1.604   2.394   4.771  1.4307  2.3028  1.1830
 4906SOL    HW226178   1.721   2.451   4.702 -0.5343 -0.3499  0.5686
 4907SOL     OW26179   4.156   4.454  10.061  0.1121 -0.4455 -0.5372
 4907SOL    HW126180   4.221   4.436  10.129  0.3558  0.0662 -0.6351
 4907SOL    HW226181   4.103   4.374  10.067  0.5266 -0.6925 -0.1291
 4908SOL     OW26182   4.681   2.786   7.254  0.5030 -0.1693 -0.0414
 4908SOL    HW126183   4.709   2.804   7.344 -1.4108  2.5483  0.0029
 4908SOL    HW226184   0.036   2.739   7.225  0.0092 -0.5623 -0.7388
 4909SOL     OW26185   1.881   4.659   2.715 -0.4009 -0.0495 -0.2185
 4909SOL    HW126186   1.937   4.631   2.643  0.0998  0.0425  0.1381
 4909SOL    HW226187   1.803   4.679   2.663 -0.6850 -1.5143 -0.3324
 4910SOL     OW26188   2.433   4.397  11.073  0.5171  0.0505 -0.0229
 4910SOL    HW126189   2.399   4.482  11.047  1.1018  0.9490  2.1882
 4910SOL    HW226190   2.354   4.344  11.059  1.6318 -1.4067 -0.7995
 4911SOL     OW26191   1.286   3.121   2.695 -0.4217 -0.3828  0.4739
 4911SOL    HW126192   1.335   3.137   2.615 -2.0978 -4.9504 -1.4832
 4911SOL    HW226193   1.333   3.047   2.734  0.3634 -0.2477 -0.2220
 4912SOL     OW26194   2.615   3.725   5.476 -0.2073 -0.3168 -0.3241
 4912SOL    HW126195   2.688   3.698   5.421 -1.5280 -1.1424 -1.6561
 4912SOL    HW226196   2.555   3.770   5.417  0.7732  1.8699  0.3293
 4913SOL     OW26197   3.426   1.599   9.304  0.0888  0.2515 -0.0372
 4913SOL    HW126198   3.458   1.567   9.388 -2.0893 -1.7462  0.0236
 4913SOL    HW226199   3.516   1.618   9.277  0.4631 -2.9258 -1.0160
 4914SOL     OW26200   2.415   3.571   4.396  0.2252 -0.3057 -0.2344
 4914SOL    HW126201   2.357   3.535   4.330 -1.4019  0.4896  0.7376
 4914SOL    HW226202   2.361   3.612   4.464  2.0791  0.7586  0.5948
 4915SOL     OW26203   3.245   1.837   5.307 -0.2504  0.9878  0.1900
 4915SOL    HW126204   3.175   1.872   5.252 -1.4297  0.3000  1.2396
 4915SOL    HW226205   3.324   1.842   5.254  0.8763 -0.5683  1.7284
 4916SOL     OW26206   2.869   2.892   4.394  0.5034  0.1939  0.0112
 4916SOL    HW126207   2.853   2.804   4.360  0.1358  0.8590 -1.5637
 4916SOL    HW226208   2.827   2.897   4.479  3.0878 -1.1261  1.3802
 4917SOL     OW26209   0.641   1.536   7.117  0.2540 -0.2757 -0.3576
 4917SOL    HW126210   0.731   1.569   7.116  0.5431 -1.1244 -1.7106
 4917SOL    HW226211   0.650   1.455   7.066  1.2119 -0.8315  0.6996
 4918SOL     OW26212   2.266   3.605   3.103  0.2076  0.1796 -0.1284
 4918SOL    HW126213   2.336   3.669   3.102 -1.5894  2.0591 -3.0934
 4918SOL    HW226214   2.319   3.539   3.058  0.2225 -1.3401  2.0698
 4919SOL     OW26215   0.253   3.898   2.773  0.4384 -0.1780 -0.1520
 4919SOL    HW126216   0.320   3.859   2.717  0.9545  1.9423 -1.0159
 4919SOL    HW226217   0.316   3.924   2.840 -0.1693  0.1844  0.2858
 4920SOL     OW26218   1.883   4.399   0.902  0.4998  0.1755 -0.2216
 4920SOL    HW126219   1.960   4.346   0.879  0.5041  0.9760 -2.0755
 4920SOL    HW226220   1.815   4.331   0.896 -0.5666  1.1554  0.9364
 4921SOL     OW26221   4.187   0.008   3.758 -0.5354 -0.1155  0.3335
 4921SOL    HW126222   4.276   0.010   3.722 -0.9761  0.8475 -0.7051
 4921SOL    HW226223   4.189   0.078   3.823  1.4767 -0.1425  0.3153
 4922SOL     OW26224   0.412   0.701  10.183  0.3448 -0.2486  0.1077
 4922SOL    HW126225   0.482   0.637  10.198  0.0323 -0.4089  0.9146
 4922SOL    HW226226   0.383   0.719  10.273 -0.1070 -1.5795  0.2292
 4923SOL     OW26227   1.254   0.841  12.396  0.1722  0.2216  0.4330
 4923SOL    HW126228   1.280   0.836  12.488  0.6687 -0.0128  0.2786
 4923SOL    HW226229   1.175   0.787  12.392  1.6844 -1.8494 -1.2933
 4924SOL     OW26230   4.223   0.308   6.470 -0.2113 -0.6732 -0.2167
 4924SOL    HW126231   4.195   0.274   6.385  0.1858  0.1100 -0.6582
 4924SOL    HW226232   4.199   0.233   6.525 -0.4720  0.6113  1.4354
 4925SOL     OW26233   1.073   1.139   9.916 -0.2151 -0.3867  0.1245
 4925SOL    HW126234   1.030   1.204   9.972 -1.3163 -0.8184 -0.2177
 4925SOL    HW226235   1.110   1.085   9.986 -1.9607 -1.3930  0.2779
 4926SOL     OW26236   4.714   2.854   2.717  0.7410  1.0443 -0.2367
 4926SOL    HW126237   0.079   2.824   2.739  0.4315  0.0123 -0.4056
 4926SOL    HW226238   4.653   2.789   2.754  0.1075  1.7501 -0.0510
 4927SOL     OW26239   4.243   0.854   2.778 -0.1696 -0.2002  0.0512
 4927SOL    HW126240   4.162   0.864   2.828 -0.0352 -0.3466  0.2988
 4927SOL    HW226241   4.216   0.869   2.687  0.2951  1.0533  0.1189
 4928SOL     OW26242   0.492   0.009   9.100  0.7904  0.1122 -0.4084
 4928SOL    HW126243   0.505   4.676   9.176 -0.1665  0.4862  0.0441
 4928SOL    HW226244   0.398   0.027   9.110  0.6859 -0.1891 -0.8445
 4929SOL     OW26245   4.453   1.924   7.089 -0.2376  0.6631 -0.3542
 4929SOL    HW126246   4.365   1.939   7.123 -0.2668 -1.4632  0.5396
 4929SOL    HW226247   4.450   1.982   7.013 -0.8740 -0.1406 -0.9487
 4930SOL     OW26248   2.524   3.124   8.817  0.0932 -0.0201  0.4450
 4930SOL    HW126249   2.475   3.169   8.886  0.5757  0.1359  0.6868
 4930SOL    HW226250   2.602   3.088   8.860  1.3094  0.5286 -1.2759
 4931SOL     OW26251   2.222   2.252   9.403 -0.2406 -0.6218 -0.2544
 4931SOL    HW126252   2.254   2.165   9.427  0.7276 -0.2577 -0.2420
 4931SOL    HW226253   2.305   2.295   9.382  0.4604 -1.6236  0.4416
 4932SOL     OW26254   2.587   3.506   1.902 -0.0843  0.3321 -0.1078
 4932SOL    HW126255   2.669   3.458   1.911 -1.2708 -1.6791 -0.1751
 4932SOL    HW226256   2.623   3.594   1.892 -0.6020  0.3973 -1.4985
 4933SOL     OW26257   0.067   4.717   1.634 -0.1627  0.4186 -0.0676
 4933SOL    HW126258   0.048   4.703   1.727  0.6863 -0.9976 -0.1074
 4933SOL    HW226259   0.070   4.623   1.619 -0.3117  0.3486  0.3249
 4934SOL     OW26260   4.662   1.911  16.498  0.0910 -0.4709 -0.0889
 4934SOL    HW126261   4.590   1.887  16.439 -1.1953  0.4080  1.1294
 4934SOL    HW226262   0.017   1.874  16.458 -0.3065 -0.2776 -1.0670
 4935SOL     OW26263   1.842   0.405  17.538  0.3063  0.4128  0.3632
 4935SOL    HW126264   1.770   0.467  17.552  0.2998  0.8703 -1.7118
 4935SOL    HW226265   1.824   0.327  17.590 -0.6595 -1.2722 -2.5585
 4936SOL     OW26266   1.343   4.635   3.944  0.0981  0.1994 -0.0513
 4936SOL    HW126267   1.249   4.628   3.964  0.5988 -1.3462  1.8179
 4936SOL    HW226268   1.348   4.608   3.853 -2.4968  0.7020 -0.3442
 4937SOL     OW26269   3.053   1.801  15.204  0.0287 -0.0391  0.3104
 4937SOL    HW126270   2.965   1.821  15.236 -0.6386 -1.1857 -0.7961
 4937SOL    HW226271   3.106   1.864  15.253 -2.4656  1.1418  1.4825
 4938SOL     OW26272   3.663   3.070   2.023  0.0859 -0.0414 -0.9276
 4938SOL    HW126273   3.746   3.044   2.064 -0.0319  2.2512  0.8122
 4938SOL    HW226274   3.639   3.146   2.076 -0.8776  0.4386 -2.0760
 4939SOL     OW26275   0.320   3.111   7.267 -0.2188  0.1321  0.4718
 4939SOL    HW126276   0.311   3.043   7.333 -0.6167  1.8038  2.1519
 4939SOL    HW226277   0.275   3.178   7.318  0.1996 -0.1055  1.1538
 4940SOL     OW26278   4.529   2.366  10.968  0.3898 -0.3872  0.5364
 4940SOL    HW126279   4.491   2.288  10.928 -0.9331  0.3608  0.3630
 4940SOL    HW226280   4.458   2.410  11.013  1.3347  0.6731  1.0038
 4941SOL     OW26281   3.484   3.385   2.444  0.2188  0.3286 -0.1276
 4941SOL    HW126282   3.540   3.401   2.519 -0.4538 -1.1722  0.7116
 4941SOL    HW226283   3.418   3.321   2.471  1.7737 -1.6355 -0.9927
 4942SOL     OW26284   0.639   0.393   1.753 -0.5438 -0.3550  0.4355
 4942SOL    HW126285   0.608   0.439   1.675 -1.6855  0.5826  1.4383
 4942SOL    HW226286   0.568   0.329   1.749  2.0017 -3.3553  3.3693
 4943SOL     OW26287   1.443   0.888   3.689  0.2221 -0.2485  0.1161
 4943SOL    HW126288   1.463   0.795   3.676 -1.0049 -0.4315 -0.4594
 4943SOL    HW226289   1.349   0.901   3.678  0.2176 -0.1727  0.2374
 4944SOL     OW26290   0.203   4.326   1.869 -1.3326 -0.2581  0.3809
 4944SOL    HW126291   0.228   4.413   1.899 -0.1867  0.7001 -3.4104
 4944SOL    HW226292   0.175   4.346   1.780 -3.3300 -2.6262  0.4653
 4945SOL     OW26293   2.136   3.935   8.681 -0.1479  0.2972  0.0543
 4945SOL    HW126294   2.129   3.848   8.721 -1.7988  0.3030 -0.2362
 4945SOL    HW226295   2.142   3.989   8.760  0.7987  0.2968 -0.0119
 4946SOL     OW26296   1.064   0.834   8.062  0.8159  0.2265 -0.2091
 4946SOL    HW126297   1.116   0.893   8.008 -0.3361 -0.5895 -2.2116
 4946SOL    HW226298   1.005   0.896   8.106  0.6087 -0.7039  0.8086
 4947SOL     OW26299   4.442   2.336  16.362  0.1186  0.2387 -0.3334
 4947SOL    HW126300   4.486   2.338  16.447 -0.0491  1.6831 -0.2740
 4947SOL    HW226301   4.438   2.427  16.334  0.3868 -0.5049 -2.8064
 4948SOL     OW26302   1.433   0.765   5.531 -0.4356 -0.6376 -0.1049
 4948SOL    HW126303   1.356   0.766   5.589  0.0527  3.1042  0.5051
 4948SOL    HW226304   1.496   0.823   5.575  1.6791 -1.4829 -2.0684
 4949SOL     OW26305   2.151   3.268   1.023  0.1174  1.2012 -0.2112
 4949SOL    HW126306   2.156   3.336   0.955  0.1458  1.1609 -0.2494
 4949SOL    HW226307   2.193   3.188   0.991  0.1635  1.4410 -0.7611
 4950SOL     OW26308   0.676   1.932   6.618 -0.0098  0.5219 -0.0487
 4950SOL    HW126309   0.604   1.944   6.680 -1.3905 -2.7773 -1.0178
 4950SOL    HW226310   0.674   2.004   6.555  1.3006  0.3596 -0.2853
 4951SOL     OW26311   1.038   2.984   1.015 -0.4775  0.5901  0.1246
 4951SOL    HW126312   1.081   3.050   0.961  0.2838  0.9422  1.1547
 4951SOL    HW226313   0.945   3.004   1.001 -0.3228  0.6127 -0.8104
 4952SOL     OW26314   0.924   0.745   6.629 -0.6299  0.9059  0.0728
 4952SOL    HW126315   0.880   0.671   6.586 -0.6572 -0.5740  2.6615
 4952SOL    HW226316   0.856   0.786   6.681 -1.2463 -1.1669  0.9269
 4953SOL     OW26317   4.187   1.088  11.976 -0.4364  0.1579 -0.2412
 4953SOL    HW126318   4.243   1.166  11.974 -0.0230 -0.1253  0.5504
 4953SOL    HW226319   4.141   1.092  11.891  0.6221 -2.3587 -0.9055
 4954SOL     OW26320   4.691   3.811   4.666 -0.0579  0.1426 -0.2906
 4954SOL    HW126321   4.666   3.785   4.578  0.2166 -1.3144  0.0672
 4954SOL    HW226322   4.607   3.852   4.687  0.1433  0.2209  0.3753
 4955SOL     OW26323   3.210   0.055  13.397 -0.0859  0.2923  0.0319
 4955SOL    HW126324   3.297   0.024  13.369 -0.6629 -0.1340 -1.3119
 4955SOL    HW226325   3.239   0.116  13.465 -0.3907  1.0586 -0.5270
 4956SOL     OW26326   4.170   4.448  13.465 -0.3168 -0.0390 -0.1967
 4956SOL    HW126327   4.262   4.462  13.443  0.1384  0.0297  1.7203
 4956SOL    HW226328   4.173   4.501  13.544 -1.1653 -1.2779  0.6805
 4957SOL     OW26329   4.056   1.129   0.784 -0.8796  0.5438  0.4946
 4957SOL    HW126330   3.975   1.167   0.750 -0.8654  0.9612  0.9463
 4957SOL    HW226331   4.058   1.143   0.878  0.7956  2.0976  0.2179
 4958SOL     OW26332   1.459   4.312  14.186 -0.1189  0.4853  0.7822
 4958SOL    HW126333   1.511   4.350  14.114 -1.4966  1.5729  0.3766
 4958SOL    HW226334   1.374   4.348  14.160  0.5737  1.6413  0.0919
 4959SOL     OW26335   4.650   0.138   7.809  0.0164 -0.0955 -0.3898
 4959SOL    HW126336   4.634   0.226   7.842 -0.6998 -0.2992 -0.2011
 4959SOL    HW226337   0.021   0.124   7.817 -0.1323 -1.0638 -0.3947
 4960SOL     OW26338   2.692   1.626   9.118  0.9412  0.3529  0.1050
 4960SOL    HW126339   2.628   1.688   9.085  0.6365  0.3434  0.6713
 4960SOL    HW226340   2.687   1.650   9.211  1.3186  2.0279 -0.3139
 4961SOL     OW26341   0.982   2.573   7.425 -0.2993 -0.0966  0.1673
 4961SOL    HW126342   0.998   2.560   7.332  0.7459 -0.6671  0.4269
 4961SOL    HW226343   0.922   2.502   7.449  1.0790 -1.6830 -1.0592
 4962SOL     OW26344   3.638   4.629   0.253 -0.3531  0.1883  0.2085
 4962SOL    HW126345   3.719   4.605   0.208  0.1669  0.0379  1.2392
 4962SOL    HW226346   3.672   4.694   0.314 -0.3859 -0.0009  0.4273
 4963SOL     OW26347   1.271   0.146   7.012  0.6325 -0.3583 -0.2163
 4963SOL    HW126348   1.291   0.194   6.932  0.5790 -2.0490 -1.2637
 4963SOL    HW226349   1.268   0.056   6.980  0.4080 -0.3587 -0.1939
 4964SOL     OW26350   0.282   3.139  12.381 -0.0555  0.2784 -0.1633
 4964SOL    HW126351   0.249   3.210  12.325 -0.7362  0.4413  0.4436
 4964SOL    HW226352   0.200   3.094  12.400  0.1738 -0.2707 -0.4881
 4965SOL     OW26353   1.399   4.069  11.947 -0.3159 -0.6337  0.0883
 4965SOL    HW126354   1.378   4.041  11.858 -1.8777  1.0916 -0.0910
 4965SOL    HW226355   1.421   3.981  11.979 -0.5540 -0.8291 -0.2920
 4966SOL     OW26356   4.661   2.698   3.747 -0.0500  0.3130 -0.3026
 4966SOL    HW126357   4.655   2.791   3.770  1.1908  0.6568 -1.3482
 4966SOL    HW226358   4.590   2.659   3.798 -1.9916  1.6181 -2.0293
 4967SOL     OW26359   2.697   3.234   7.042 -1.0654  0.2769 -0.1399
 4967SOL    HW126360   2.738   3.147   7.036  0.2237  0.8122  0.8628
 4967SOL    HW226361   2.751   3.280   7.106 -1.8653  0.7542  0.1814
 4968SOL     OW26362   3.614   2.572   3.036  0.2094 -0.1972  0.0487
 4968SOL    HW126363   3.649   2.503   3.092  0.5068  0.2382  0.3978
 4968SOL    HW226364   3.554   2.529   2.975 -1.3877  0.3039  1.2905
 4969SOL     OW26365   3.830   1.255   7.066  0.1838  0.4057 -0.3388
 4969SOL    HW126366   3.848   1.232   7.157 -1.4062 -3.1326 -0.9558
 4969SOL    HW226367   3.825   1.350   7.078 -1.2666  0.0149  2.1956
 4970SOL     OW26368   0.723   1.463  13.910 -0.0411  0.4562  0.4672
 4970SOL    HW126369   0.701   1.546  13.869 -2.3165  1.1777  3.2577
 4970SOL    HW226370   0.649   1.403  13.901  1.1937 -1.3175  2.1536
 4971SOL     OW26371   2.492   2.176  16.756  0.4773 -0.3666 -1.1763
 4971SOL    HW126372   2.493   2.232  16.678 -0.8529  2.9621  1.1770
 4971SOL    HW226373   2.526   2.236  16.822  0.0973 -0.5725 -0.7972
 4972SOL     OW26374   0.954   2.221   9.121  0.5230 -0.5110  0.1170
 4972SOL    HW126375   0.968   2.130   9.094 -0.1953 -0.5333 -0.1921
 4972SOL    HW226376   0.882   2.231   9.059  0.0884 -1.3187  0.4897
 4973SOL     OW26377   4.093   2.518   4.428  0.3184 -0.4324  0.4839
 4973SOL    HW126378   4.158   2.549   4.365  0.4484 -1.0753  0.3125
 4973SOL    HW226379   4.096   2.425   4.407 -0.3448 -0.4409  0.4054
 4974SOL     OW26380   0.393   1.978   0.510 -0.1948  0.2943  0.4465
 4974SOL    HW126381   0.468   1.971   0.569 -0.8255  0.9345  1.3337
 4974SOL    HW226382   0.324   2.002   0.572 -1.9112  0.5163 -1.5503
 4975SOL     OW26383   4.511   3.688   1.582 -0.1948 -0.1250 -0.6301
 4975SOL    HW126384   4.508   3.778   1.549 -0.5397  0.0911 -0.0030
 4975SOL    HW226385   4.573   3.638   1.529  0.9166 -0.4311  0.9646
 4976SOL     OW26386   2.003   0.397   8.052  0.1621 -0.9083 -0.0298
 4976SOL    HW126387   2.046   0.352   8.125 -0.2147  0.6482  1.1528
 4976SOL    HW226388   1.992   0.484   8.090 -0.1412 -0.8694 -0.2040
 4977SOL     OW26389   4.606   1.037   1.618 -0.5195  0.5514 -0.4293
 4977SOL    HW126390   4.640   1.032   1.529  3.3251 -0.6182  1.1337
 4977SOL    HW226391   4.680   1.066   1.671  0.4731 -0.8808 -1.0230
 4978SOL     OW26392   3.986   0.006  15.441 -0.0650 -0.0520  0.2792
 4978SOL    HW126393   3.935   4.650  15.455  0.8757 -0.3842  1.8085
 4978SOL    HW226394   4.061   4.717  15.499 -1.2235  0.2407  1.8450
 4979SOL     OW26395   2.977   2.066  11.522 -0.7864  0.1948 -0.3953
 4979SOL    HW126396   3.065   2.102  11.535 -1.1519  0.5090  1.1443
 4979SOL    HW226397   2.954   2.063  11.615 -2.8644 -0.6408 -0.9381
 4980SOL     OW26398   2.284   4.276   3.724 -0.4457 -0.0979 -0.2111
 4980SOL    HW126399   2.374   4.293   3.751 -0.9479  0.2801  1.2422
 4980SOL    HW226400   2.249   4.365   3.717 -1.2137 -0.3237  0.7653
 4981SOL     OW26401   3.132   0.144   9.138 -0.1412 -0.1385  0.8309
 4981SOL    HW126402   3.124   0.094   9.057 -0.1242 -0.1692  0.8483
 4981SOL    HW226403   3.188   0.218   9.116  0.8907 -1.2976 -0.4559
 4982SOL     OW26404   4.502   2.439   1.469 -0.4586 -0.3217  0.4670
 4982SOL    HW126405   4.462   2.462   1.385  2.1636  0.3307 -0.6199
 4982SOL    HW226406   4.431   2.425   1.531 -1.2976  1.5148 -0.0756
 4983SOL     OW26407   0.553   0.137   3.389 -0.1131 -0.1109  0.0923
 4983SOL    HW126408   0.544   0.042   3.384 -3.7555  0.2619 -0.2180
 4983SOL    HW226409   0.466   0.155   3.353  0.6917  2.0922 -0.7507
 4984SOL     OW26410   3.047   0.856   6.768  0.2721  0.1956  0.1905
 4984SOL    HW126411   3.132   0.865   6.725 -0.3701  0.6490 -0.9844
 4984SOL    HW226412   3.045   0.767   6.804  0.4529  0.5629  1.1077
 4985SOL     OW26413   4.209   3.222   0.022 -0.0460  0.6785 -0.6767
 4985SOL    HW126414   4.276   3.251  17.656  2.6070 -2.5911  0.6630
 4985SOL    HW226415   4.261   3.214   0.102 -1.4717  0.6253  0.2275
 4986SOL     OW26416   3.027   3.073   3.716 -0.0828  0.4118  0.4802
 4986SOL    HW126417   3.105   3.108   3.759 -1.4681  2.7015  1.1065
 4986SOL    HW226418   2.978   3.155   3.709 -2.2865 -0.9381  0.2289
 4987SOL     OW26419   3.826   1.287   6.373 -0.4441 -0.3853  0.4244
 4987SOL    HW126420   3.799   1.295   6.464  1.0455 -1.7518  0.9893
 4987SOL    HW226421   3.867   1.201   6.378  3.0206  0.9814 -3.5892
 4988SOL     OW26422   1.307   1.158   1.007 -0.6154 -0.2485 -0.9839
 4988SOL    HW126423   1.396   1.161   0.972 -0.3702  0.0549 -0.3397
 4988SOL    HW226424   1.315   1.203   1.091  0.2817 -0.7748 -0.7875
 4989SOL     OW26425   1.413   2.122  17.680  0.1993 -0.1623 -0.6321
 4989SOL    HW126426   1.431   2.137   0.076  2.0207 -0.6313 -0.9127
 4989SOL    HW226427   1.471   2.183  17.635 -0.8145  0.9018 -0.4865
 4990SOL     OW26428   0.001   1.620  16.583 -0.2547  0.0637 -1.1595
 4990SOL    HW126429   0.092   1.649  16.571  0.6830 -0.5812  4.4442
 4990SOL    HW226430   4.690   1.658  16.663  0.0947 -1.4186 -0.3217
 4991SOL     OW26431   1.624   0.139  10.612  0.0166  0.2380 -0.0018
 4991SOL    HW126432   1.668   0.173  10.534  0.0322  0.4537  0.1030
 4991SOL    HW226433   1.691   0.085  10.654 -2.0115 -1.7113  0.7079
 4992SOL     OW26434   4.437   0.728   9.465 -0.2045  0.1976  0.2936
 4992SOL    HW126435   4.435   0.646   9.416 -0.6892 -0.0842  0.7839
 4992SOL    HW226436   4.422   0.787   9.392 -0.8663  0.9197  1.0185
 4993SOL     OW26437   0.675   0.174   2.944  0.2112  0.0457  0.1209
 4993SOL    HW126438   0.752   0.198   2.893 -0.2072 -1.4493 -1.2040
 4993SOL    HW226439   0.699   0.225   3.021  1.1323  0.4793 -0.4472
 4994SOL     OW26440   2.792   2.092   2.542 -0.2404  0.5962 -0.0974
 4994SOL    HW126441   2.874   2.130   2.509 -0.5748  0.4612 -1.0867
 4994SOL    HW226442   2.798   2.102   2.637  0.6949  4.8115 -0.6130
 4995SOL     OW26443   3.509   4.008   8.856  0.8813  0.3261 -0.6497
 4995SOL    HW126444   3.529   3.918   8.829 -1.7146 -0.4798  0.1449
 4995SOL    HW226445   3.580   4.025   8.918 -0.4561 -0.4495  1.0758
 4996SOL     OW26446   2.312   0.966   8.990  0.2667  0.0576 -0.2473
 4996SOL    HW126447   2.284   0.877   8.966  2.3330 -0.5246 -0.4909
 4996SOL    HW226448   2.351   0.945   9.075  0.4236 -0.2594 -0.3965
 4997SOL     OW26449   2.762   0.583   5.941  0.1866 -0.0881  0.1023
 4997SOL    HW126450   2.815   0.627   5.875 -1.3244  1.3610 -0.1526
 4997SOL    HW226451   2.690   0.546   5.890  1.5517 -0.1673 -1.7369
 4998SOL     OW26452   3.621   1.832   7.296  0.0399  0.1250  0.0642
 4998SOL    HW126453   3.610   1.921   7.263  0.6398  0.2761  0.2688
 4998SOL    HW226454   3.554   1.785   7.246  0.6339 -0.8200  0.1450
 4999SOL     OW26455   1.458   3.447   9.203  0.4506 -0.1273  0.0863
 4999SOL    HW126456   1.429   3.521   9.257  0.8797 -0.5931  0.9559
 4999SOL    HW226457   1.483   3.386   9.272  3.7325  0.9493 -0.1463
 5000SOL     OW26458   3.783   1.503  16.079  0.4871  0.5832 -0.2815
 5000SOL    HW126459   3.867   1.537  16.110  0.5067 -0.0801  0.3923
 5000SOL    HW226460   3.762   1.572  16.016  0.5438  0.9370  0.0863
 5001SOL     OW26461   1.263   3.006   9.568  0.4479  0.0039 -0.4282
 5001SOL    HW126462   1.330   2.948   9.532  0.0262 -0.6277 -0.1983
 5001SOL    HW226463   1.277   2.989   9.662  3.3649 -0.8966 -1.0144
 5002SOL     OW26464   4.536   0.666   6.453  0.3526 -0.1822 -0.0771
 5002SOL    HW126465   4.515   0.577   6.480  2.0596 -0.7009 -0.4380
 5002SOL    HW226466   4.629   0.659   6.433  0.5325  0.4170  0.5201
 5003SOL     OW26467   2.802   4.554   8.063 -0.7240 -0.5888 -0.3668
 5003SOL    HW126468   2.713   4.589   8.066 -1.0503 -1.4323 -0.1546
 5003SOL    HW226469   2.836   4.588   8.146  1.3461  1.2991 -2.0042
 5004SOL     OW26470   4.570   3.657  15.617 -0.0191  0.0911  0.4176
 5004SOL    HW126471   4.519   3.733  15.646  1.6310  0.9034  1.2448
 5004SOL    HW226472   4.644   3.659  15.679 -0.3667  0.1050  0.8301
 5005SOL     OW26473   0.540   1.340   4.953 -0.1671 -0.0609 -0.1729
 5005SOL    HW126474   0.488   1.322   4.875  0.2544 -3.6708  0.3485
 5005SOL    HW226475   0.555   1.249   4.979  0.1488 -0.4167 -1.5852
 5006SOL     OW26476   4.175   4.495  10.822 -0.0384 -0.0931 -0.1922
 5006SOL    HW126477   4.176   4.587  10.795  0.0216 -0.7471 -2.4167
 5006SOL    HW226478   4.080   4.480  10.824 -0.0639 -0.0423 -1.2082
 5007SOL     OW26479   3.200   1.145   3.425 -0.0078 -0.1247 -0.1967
 5007SOL    HW126480   3.221   1.055   3.448 -0.1172  0.5724  2.7077
 5007SOL    HW226481   3.211   1.152   3.330 -0.4219 -0.4107 -0.2683
 5008SOL     OW26482   3.213   0.434   5.720 -0.1424  0.1021 -0.0658
 5008SOL    HW126483   3.246   0.369   5.782 -2.4683  0.5567  1.6342
 5008SOL    HW226484   3.156   0.377   5.668 -2.2544  0.1920  2.1825
 5009SOL     OW26485   1.578   2.994   6.379 -0.8455 -0.1071 -0.2033
 5009SOL    HW126486   1.594   2.914   6.329  0.5246  1.0468 -1.5938
 5009SOL    HW226487   1.581   3.054   6.305  0.1011 -1.0122 -0.9032
 5010SOL     OW26488   0.559   2.241   5.282  0.0716  0.4377 -0.0439
 5010SOL    HW126489   0.582   2.333   5.296  0.3478  0.2848  0.5034
 5010SOL    HW226490   0.482   2.244   5.226 -1.9837 -0.5173  2.7612
 5011SOL     OW26491   2.412   3.355   6.169 -0.3171  0.4296 -0.3474
 5011SOL    HW126492   2.470   3.307   6.111 -0.1949 -1.0053  0.9719
 5011SOL    HW226493   2.453   3.327   6.251  0.2329  0.5710 -0.5790
 5012SOL     OW26494   0.024   1.835  14.418  0.0032  0.0922 -0.4035
 5012SOL    HW126495   0.095   1.893  14.446  0.4957 -1.3621  1.3120
 5012SOL    HW226496   0.022   1.864  14.326 -2.8115  1.1761  0.0002
 5013SOL     OW26497   4.451   1.438  16.043  0.2900 -0.2913 -0.5541
 5013SOL    HW126498   4.374   1.381  16.038 -0.2294  0.3324  0.3421
 5013SOL    HW226499   4.424   1.521  16.005  1.8341  0.7128  0.4957
 5014SOL     OW26500   0.144   2.487   5.414  0.3139 -0.6224  0.6572
 5014SOL    HW126501   0.136   2.577   5.384 -0.9188  0.0520  3.0372
 5014SOL    HW226502   0.211   2.452   5.355 -0.4603 -1.0500  0.0239
 5015SOL     OW26503   0.725   4.125   8.043  0.4583  0.3276 -0.3434
 5015SOL    HW126504   0.766   4.125   8.129  1.9042 -0.3164 -1.0317
 5015SOL    HW226505   0.712   4.218   8.027  0.2426  0.1632 -1.1292
 5016SOL     OW26506   3.498   0.806   2.322  0.1110 -0.0984 -0.5511
 5016SOL    HW126507   3.436   0.834   2.389 -1.6615 -0.5530 -2.0131
 5016SOL    HW226508   3.558   0.880   2.312  0.4703 -0.3695 -0.4422
 5017SOL     OW26509   3.439   1.723   4.555  0.7699 -0.0922  0.1213
 5017SOL    HW126510   3.470   1.633   4.546 -1.2699 -0.7175 -0.5205
 5017SOL    HW226511   3.513   1.781   4.575  1.3950 -0.3233 -1.5418
 5018SOL     OW26512   3.699   1.661   6.375 -0.0339 -0.1894  0.5443
 5018SOL    HW126513   3.721   1.702   6.459 -1.4067 -1.9669  1.7766
 5018SOL    HW226514   3.605   1.676   6.370 -0.3312 -1.3622  2.4740
 5019SOL     OW26515   3.095   4.617   1.829  0.4392  0.6332 -0.1099
 5019SOL    HW126516   3.044   4.619   1.910  1.3954 -1.7485  0.5515
 5019SOL    HW226517   3.158   4.686   1.851 -0.4655  0.8803  1.6850
 5020SOL     OW26518   3.503   1.028  10.977 -0.4461 -0.5407  0.3736
 5020SOL    HW126519   3.534   0.963  11.039  0.0882 -0.8608 -0.2281
 5020SOL    HW226520   3.425   0.979  10.953  0.3949 -1.8153  0.2472
 5021SOL     OW26521   2.667   3.518   1.347 -0.4071 -0.0581  0.0635
 5021SOL    HW126522   2.653   3.527   1.253 -1.9368  1.3830  0.4404
 5021SOL    HW226523   2.763   3.518   1.346 -0.4170 -1.3169 -1.2827
 5022SOL     OW26524   3.376   0.648   3.334  0.1290 -0.2282 -0.1209
 5022SOL    HW126525   3.316   0.722   3.347 -0.4209 -1.2032  2.8363
 5022SOL    HW226526   3.404   0.653   3.243 -2.2668  1.9419 -0.7361
 5023SOL     OW26527   3.690   3.406  10.397 -0.0808 -0.5524  0.5594
 5023SOL    HW126528   3.609   3.423  10.446  0.5235 -0.1763  1.4321
 5023SOL    HW226529   3.664   3.372  10.311  1.2592 -1.7569  0.6342
 5024SOL     OW26530   0.289   4.491   7.073 -0.3873 -0.3106 -0.1762
 5024SOL    HW126531   0.371   4.540   7.065 -1.4672  1.5084 -0.0365
 5024SOL    HW226532   0.318   4.415   7.022  2.3741  1.8504 -1.8033
 5025SOL     OW26533   1.381   4.131   4.223  0.6380  0.0658 -0.2911
 5025SOL    HW126534   1.469   4.147   4.189  0.7401  0.4607  0.1566
 5025SOL    HW226535   1.365   4.213   4.269  0.0541 -0.2782  0.1312
 5026SOL     OW26536   2.996   1.203   6.431 -0.0722  1.0108  0.6707
 5026SOL    HW126537   3.064   1.144   6.464  0.0008  0.4672 -0.4464
 5026SOL    HW226538   3.047   1.281   6.409  0.6326  0.6036  0.8636
 5027SOL     OW26539   3.817   3.314  12.998 -0.8569 -0.1577 -0.3687
 5027SOL    HW126540   3.896   3.368  12.991 -0.5206 -0.7701 -1.3436
 5027SOL    HW226541   3.767   3.364  13.062  0.0168  0.3227 -0.0486
 5028SOL     OW26542   0.224   4.081   1.951  0.2200 -0.5581  0.6762
 5028SOL    HW126543   0.230   4.173   1.927  1.8635 -0.2422  2.3002
 5028SOL    HW226544   0.246   4.091   2.044  1.2503  0.5164  0.3123
 5029SOL     OW26545   1.828   2.455   5.069  0.2248  0.3206 -0.0889
 5029SOL    HW126546   1.877   2.382   5.033 -0.4747  0.2711 -0.9426
 5029SOL    HW226547   1.845   2.447   5.162  1.3058 -3.1377 -0.6229
 5030SOL     OW26548   4.500   1.469   5.022  0.0127  0.6546 -0.0435
 5030SOL    HW126549   4.575   1.495   4.969 -0.2280  0.3216 -0.5491
 5030SOL    HW226550   4.456   1.554   5.029 -0.0344  0.5360  1.1139
 5031SOL     OW26551   0.122   4.204   5.043 -0.7329 -0.1733  0.4412
 5031SOL    HW126552   0.051   4.227   5.103  0.1351 -1.1666  1.8571
 5031SOL    HW226553   0.098   4.269   4.976 -1.7413 -0.2921  0.6826
 5032SOL     OW26554   3.011   3.046   8.577 -0.3182 -0.0182 -0.0837
 5032SOL    HW126555   3.013   3.008   8.489 -2.5682  0.2270 -0.2338
 5032SOL    HW226556   2.930   3.093   8.558 -0.2594  0.0475 -0.1739
 5033SOL     OW26557   4.474   4.273   2.159 -0.1875  0.3040 -0.2164
 5033SOL    HW126558   4.406   4.303   2.099 -0.2712 -1.2475 -0.9173
 5033SOL    HW226559   4.554   4.308   2.118 -1.7754  1.0789 -2.6622
 5034SOL     OW26560   1.897   0.861   9.447  1.1052  0.0235 -0.2978
 5034SOL    HW126561   1.886   0.863   9.542  1.1457 -0.5070 -0.2824
 5034SOL    HW226562   1.806   0.849   9.419  0.7131  2.5255 -0.1614
 5035SOL     OW26563   2.440   3.176   5.560  0.0695 -0.2242 -0.5700
 5035SOL    HW126564   2.389   3.223   5.494 -1.0584 -0.1292  0.3705
 5035SOL    HW226565   2.376   3.115   5.596 -1.5173  1.2414 -0.8769
 5036SOL     OW26566   0.775   2.832   7.808  0.1818 -0.5501  0.1806
 5036SOL    HW126567   0.844   2.869   7.864  1.6415 -0.5230 -1.6105
 5036SOL    HW226568   0.815   2.821   7.722 -1.7266 -1.8791 -0.5275
 5037SOL     OW26569   0.511   4.326  16.697 -0.4391 -0.2592  0.3280
 5037SOL    HW126570   0.584   4.382  16.671 -1.2187  1.2162  1.2806
 5037SOL    HW226571   0.493   4.374  16.778 -1.2371  0.6552 -0.4011
 5038SOL     OW26572   1.463   0.448   7.349 -0.0383 -0.1322 -0.3789
 5038SOL    HW126573   1.553   0.450   7.315 -0.1341  1.3778 -0.5326
 5038SOL    HW226574   1.467   0.535   7.389 -4.2551 -0.3959  0.6393
 5039SOL     OW26575   2.779   2.435   7.725  0.0544  0.8478  0.1066
 5039SOL    HW126576   2.782   2.347   7.688 -0.7921  0.8850 -0.0284
 5039SOL    HW226577   2.814   2.417   7.813 -0.9856 -4.5698 -0.5967
 5040SOL     OW26578   3.393   1.130   9.444  0.5422  0.1218 -0.2569
 5040SOL    HW126579   3.357   1.043   9.462  0.2660 -0.1356 -2.0547
 5040SOL    HW226580   3.354   1.172   9.521 -0.7472  1.8172 -1.8393
 5041SOL     OW26581   3.618   1.669   5.884 -0.4559  0.9220  0.3693
 5041SOL    HW126582   3.697   1.626   5.915 -0.6916  0.2057 -0.0026
 5041SOL    HW226583   3.595   1.601   5.820  0.0498 -0.6719  1.8960
 5042SOL     OW26584   2.656   2.801   3.653 -0.5546  0.2676 -0.3338
 5042SOL    HW126585   2.568   2.764   3.642 -0.7559  0.8767 -0.7302
 5042SOL    HW226586   2.714   2.747   3.600 -0.4383 -2.5839  2.6927
 5043SOL     OW26587   0.071   2.658   5.042  0.1628  0.1881 -0.5239
 5043SOL    HW126588   0.159   2.690   5.063 -0.1745  0.9399 -0.2627
 5043SOL    HW226589   0.065   2.688   4.952  0.0254 -1.4931 -1.0837
 5044SOL     OW26590   2.595   3.301   6.749 -0.9136  0.7349 -0.9091
 5044SOL    HW126591   2.593   3.301   6.844  1.1873  2.2555 -0.8593
 5044SOL    HW226592   2.516   3.256   6.718 -2.4752  2.3458  0.8005
 5045SOL     OW26593   3.646   2.839  12.848  0.5260  0.2701 -0.0663
 5045SOL    HW126594   3.639   2.817  12.941 -1.3573 -0.4672 -0.3717
 5045SOL    HW226595   3.667   2.932  12.843  1.9609 -0.1319 -1.6535
 5046SOL     OW26596   2.631   0.333   7.055  0.2826  0.5494 -0.2968
 5046SOL    HW126597   2.682   0.279   7.116 -1.4233  0.3097  0.9312
 5046SOL    HW226598   2.550   0.281   7.059  1.2439 -0.9780 -0.5291
 5047SOL     OW26599   0.857   3.152   9.336  0.6489 -0.4482 -0.0091
 5047SOL    HW126600   0.928   3.119   9.391 -0.0427 -1.9415 -0.0091
 5047SOL    HW226601   0.860   3.078   9.276  1.4500  0.7369 -1.4303
 5048SOL     OW26602   2.805   0.583   2.316 -0.1491 -0.0477  0.8217
 5048SOL    HW126603   2.719   0.542   2.308 -0.6187  1.1379 -0.1958
 5048SOL    HW226604   2.786   0.673   2.292  0.0154  0.0264  0.9728
 5049SOL     OW26605   0.633   3.990  10.258 -0.7936  0.1107 -0.1377
 5049SOL    HW126606   0.547   3.948  10.250  0.5378 -1.9115 -3.5131
 5049SOL    HW226607   0.662   3.948  10.340  2.0878  1.3672 -0.5291
 5050SOL     OW26608   2.942   1.579   5.159  0.3328 -0.5691  0.4513
 5050SOL    HW126609   2.888   1.643   5.205  2.0873  0.7803  0.6187
 5050SOL    HW226610   2.920   1.493   5.197 -1.1300 -0.2154  0.3960
 5051SOL     OW26611   2.293   0.692   4.814 -0.7085  0.4992  0.0834
 5051SOL    HW126612   2.283   0.602   4.845  2.2796  1.2339  3.3430
 5051SOL    HW226613   2.213   0.698   4.763 -1.6790  1.9461  1.7714
 5052SOL     OW26614   3.373   1.396   5.022  0.3484  0.2749  0.4917
 5052SOL    HW126615   3.446   1.387   5.083  0.0804 -0.7627  0.6606
 5052SOL    HW226616   3.312   1.436   5.083 -0.8552  0.2134 -0.6685
 5053SOL     OW26617   3.264   1.388   9.334  0.1665  0.2047 -0.2242
 5053SOL    HW126618   3.346   1.421   9.298 -0.6575  0.8999 -1.4698
 5053SOL    HW226619   3.275   1.295   9.312  0.0116 -0.3068  1.8921
 5054SOL     OW26620   0.643   2.374   8.643  0.8784  0.1395 -0.1694
 5054SOL    HW126621   0.696   2.301   8.609  2.6688  0.6534  1.5319
 5054SOL    HW226622   0.574   2.381   8.578 -0.6571 -3.0731  1.1018
 5055SOL     OW26623   0.873   2.779   9.672  0.2116 -0.2147  0.0214
 5055SOL    HW126624   0.825   2.713   9.722  1.0285 -0.3640  0.5986
 5055SOL    HW226625   0.815   2.853   9.691  2.2043  1.4168 -0.3052
 5056SOL     OW26626   1.176   2.322   6.644  0.0370 -0.5547  0.2088
 5056SOL    HW126627   1.254   2.296   6.595  0.9124 -0.1157  1.3843
 5056SOL    HW226628   1.196   2.315   6.737  2.4295 -0.5038 -0.2993
 5057SOL     OW26629   0.595   1.317  10.692 -0.5186  0.4402  0.3095
 5057SOL    HW126630   0.673   1.348  10.645  0.8008  0.0993  2.2705
 5057SOL    HW226631   0.567   1.395  10.739 -1.2754 -1.1552  2.4905
 5058SOL     OW26632   2.000   3.953   7.030 -0.0201  0.1556 -0.0180
 5058SOL    HW126633   1.945   3.989   6.960 -0.2404 -0.7147 -0.2964
 5058SOL    HW226634   1.936   3.942   7.101 -0.6856  0.3186 -0.5900
 5059SOL     OW26635   0.030   2.505   4.430 -0.5155 -0.0338 -0.3519
 5059SOL    HW126636   0.021   2.537   4.520 -0.7969 -0.1736 -0.3300
 5059SOL    HW226637   0.125   2.514   4.425 -0.3769 -0.2776  1.7879
 5060SOL     OW26638   2.657   1.461   8.079 -0.1221 -0.1119 -0.5387
 5060SOL    HW126639   2.722   1.468   8.149  1.1322 -0.0255 -1.7114
 5060SOL    HW226640   2.686   1.383   8.032 -0.2126  0.8499 -2.2016
 5061SOL     OW26641   1.924   1.387   9.686 -0.6852 -0.4618 -0.3287
 5061SOL    HW126642   1.868   1.464   9.672 -1.8900 -1.1665  0.6203
 5061SOL    HW226643   1.874   1.352   9.760 -1.8539  0.8486 -0.4977
 5062SOL     OW26644   3.552   0.439  10.465  0.2721  0.7024  0.1811
 5062SOL    HW126645   3.619   0.401  10.408 -0.0469  1.5080 -0.7255
 5062SOL    HW226646   3.586   0.529  10.469  1.2350  0.3678 -0.5751
 5063SOL     OW26647   0.298   0.570   9.601  0.2293  0.5456 -0.6977
 5063SOL    HW126648   0.311   0.527   9.685  0.7045 -1.9438 -2.0375
 5063SOL    HW226649   0.385   0.608   9.589  0.4496 -0.7040 -2.9169
 5064SOL     OW26650   3.050   1.510   3.589  0.3117 -0.3781 -0.4418
 5064SOL    HW126651   3.139   1.476   3.596  0.2122 -0.1245  1.9102
 5064SOL    HW226652   3.002   1.429   3.605 -0.0829 -0.0615 -0.0258
 5065SOL     OW26653   2.705   3.808   8.600 -0.2767  0.1440 -0.1543
 5065SOL    HW126654   2.633   3.869   8.613 -0.5818  0.1447 -1.8294
 5065SOL    HW226655   2.701   3.810   8.504  1.9118 -1.8397 -0.2820
 5066SOL     OW26656   3.444   1.333  11.516 -0.0385 -0.0980  0.1105
 5066SOL    HW126657   3.474   1.321  11.426 -2.1140 -1.2075 -0.4372
 5066SOL    HW226658   3.427   1.242  11.542  2.2315 -1.2331 -2.4162
 5067SOL     OW26659   1.604   1.923   1.324  0.4153  0.0811  0.3495
 5067SOL    HW126660   1.661   1.908   1.399 -0.9403  1.5746  1.6826
 5067SOL    HW226661   1.672   1.897   1.263 -1.8407 -0.8427 -1.7940
 5068SOL     OW26662   0.068   3.668   3.053  0.2064  0.4712  0.4424
 5068SOL    HW126663   4.721   3.637   2.997  0.6755  0.0869  0.0578
 5068SOL    HW226664   0.089   3.759   3.032 -0.7809  0.4794 -0.5118
 5069SOL     OW26665   2.943   0.511   3.615 -0.1588  0.5400  0.0488
 5069SOL    HW126666   3.016   0.455   3.640  1.2118  1.2305 -2.3607
 5069SOL    HW226667   2.964   0.535   3.525 -1.7402  1.5618 -0.0610
 5070SOL     OW26668   0.325   4.114   5.342  0.6119 -0.1564 -0.1123
 5070SOL    HW126669   0.416   4.088   5.330  0.2198 -1.5832  0.0175
 5070SOL    HW226670   0.281   4.076   5.265  0.3681  0.0873 -0.0952
 5071SOL     OW26671   0.358   1.077   4.169  0.0014  0.2735 -0.0136
 5071SOL    HW126672   0.296   1.086   4.096 -0.0661  0.5687  0.0804
 5071SOL    HW226673   0.330   0.997   4.213 -0.3405  0.8962  0.8993
 5072SOL     OW26674   4.341   1.147   7.231 -0.0349 -0.2857 -0.4092
 5072SOL    HW126675   4.361   1.056   7.206  1.2306  0.4030 -1.9116
 5072SOL    HW226676   4.431   1.178   7.226 -0.9117  2.2383 -0.4630
 5073SOL     OW26677   4.535   0.488   4.130  0.2458 -0.6008 -0.2203
 5073SOL    HW126678   4.630   0.497   4.123  0.3376 -1.3357  0.0732
 5073SOL    HW226679   4.518   0.435   4.208  0.0326  0.2302  0.2980
 5074SOL     OW26680   0.397   3.450   2.654  0.6329  0.3087  0.1974
 5074SOL    HW126681   0.379   3.366   2.611 -0.8601  0.7580 -0.0705
 5074SOL    HW226682   0.459   3.414   2.716  1.5791 -1.3172 -1.6947
 5075SOL     OW26683   3.505   1.040   7.460 -0.1177 -0.0046 -0.0053
 5075SOL    HW126684   3.523   0.957   7.415  0.0902  0.9620 -1.7028
 5075SOL    HW226685   3.410   1.049   7.456 -0.1003  0.0038 -0.4613
 5076SOL     OW26686   4.451   0.177   6.114 -0.0939 -0.5726 -0.0133
 5076SOL    HW126687   4.446   0.160   6.020  0.4281  1.4715 -0.4278
 5076SOL    HW226688   4.398   0.256   6.106 -0.8619 -0.9612  1.3467
 5077SOL     OW26689   2.029   1.698   6.278  0.3858 -0.2442 -0.2283
 5077SOL    HW126690   2.098   1.762   6.290 -0.0073  0.1255  0.0414
 5077SOL    HW226691   2.018   1.716   6.184 -0.5485 -0.7548 -0.2140
 5078SOL     OW26692   2.275   1.867   6.240  0.2002 -0.0656 -0.3389
 5078SOL    HW126693   2.310   1.930   6.304  0.7942 -0.2419 -0.4896
 5078SOL    HW226694   2.354   1.815   6.228  1.0655  1.1552  0.0588
 5079SOL     OW26695   4.158   4.604   2.760 -0.6071 -0.6303  0.2095
 5079SOL    HW126696   4.166   4.694   2.792  0.9995  0.5295 -3.3450
 5079SOL    HW226697   4.174   4.553   2.839  0.8258 -2.6670 -1.3675
 5080SOL     OW26698   1.619   4.237   4.153  0.4006  0.2909  0.4697
 5080SOL    HW126699   1.594   4.318   4.108  0.3013  0.1560  0.2809
 5080SOL    HW226700   1.712   4.253   4.165  0.2137 -0.0661  2.3964
 5081SOL     OW26701   4.714   3.817  14.898  0.0028  0.6503 -0.4029
 5081SOL    HW126702   4.630   3.774  14.912 -0.0394  0.9760  0.3416
 5081SOL    HW226703   4.713   3.813  14.802 -2.6619  0.2716 -0.3500
 5082SOL     OW26704   3.494   0.674   0.420  0.5791 -0.0228 -0.2915
 5082SOL    HW126705   3.442   0.678   0.340 -0.3302 -0.0579  0.2919
 5082SOL    HW226706   3.466   0.758   0.455  0.5099 -0.2346  0.1668
 5083SOL     OW26707   2.538   3.867   5.246 -0.5076  0.0827 -0.1531
 5083SOL    HW126708   2.521   3.938   5.307  0.6195  0.1181  0.1198
 5083SOL    HW226709   2.632   3.878   5.228 -1.0104  0.0168 -2.8900
 5084SOL     OW26710   3.081   2.738  17.018 -0.2935  0.2729  0.2763
 5084SOL    HW126711   3.002   2.787  17.039 -0.1969  0.9224 -0.8811
 5084SOL    HW226712   3.097   2.767  16.928 -0.4205 -1.3318 -0.2705
 5085SOL     OW26713   1.731   1.767  15.531 -0.2824 -0.7704 -0.1107
 5085SOL    HW126714   1.785   1.816  15.592  1.5948 -1.1624 -1.4770
 5085SOL    HW226715   1.729   1.821  15.452  0.7113  1.6544  1.5259
 5086SOL     OW26716   2.528   2.552   5.719 -0.1842  0.1319  0.4110
 5086SOL    HW126717   2.607   2.531   5.769  0.9070  0.6963 -1.0865
 5086SOL    HW226718   2.466   2.567   5.790 -0.7915  2.1695 -0.5476
 5087SOL     OW26719   3.180   2.046   9.918  0.1550 -0.1767  0.3178
 5087SOL    HW126720   3.269   2.054   9.952  0.0253  0.3767  0.5259
 5087SOL    HW226721   3.195   2.054   9.823  0.5925 -3.0806  0.1380
 5088SOL     OW26722   0.398   0.454  13.312  0.0181  0.4262  0.4096
 5088SOL    HW126723   0.418   0.547  13.300 -2.7067  1.1271  1.1269
 5088SOL    HW226724   0.357   0.423  13.231 -1.0294  0.7739  0.7982
 5089SOL     OW26725   4.186   3.625   7.718 -0.1633  0.2147  0.8239
 5089SOL    HW126726   4.157   3.706   7.675  1.2563  0.0601 -0.4532
 5089SOL    HW226727   4.234   3.591   7.642  1.2263  3.6097  0.1830
 5090SOL     OW26728   4.048   1.542   1.971  0.0494 -0.5133  0.1441
 5090SOL    HW126729   4.084   1.606   2.033  0.5511  1.1106 -1.8586
 5090SOL    HW226730   4.120   1.536   1.908 -1.2157  0.7521 -1.4142
 5091SOL     OW26731   0.789   4.296   9.126 -0.0942  0.2717  0.2574
 5091SOL    HW126732   0.763   4.389   9.121 -0.4259  0.1867  0.4138
 5091SOL    HW226733   0.846   4.292   9.050 -2.3602 -2.3198 -1.2903
 5092SOL     OW26734   0.627   1.872   8.970 -0.1580 -0.3884 -0.5449
 5092SOL    HW126735   0.669   1.832   8.894  1.1978  0.1181 -0.0702
 5092SOL    HW226736   0.688   1.833   9.033 -0.3593 -1.9600 -1.3318
 5093SOL     OW26737   3.220   2.447   1.477 -0.0588 -0.9904 -0.2064
 5093SOL    HW126738   3.179   2.524   1.515 -0.3983 -0.1698 -2.2271
 5093SOL    HW226739   3.280   2.421   1.547 -0.2529  1.7483  0.9589
 5094SOL     OW26740   0.194   0.169   8.081 -0.0158 -0.1983 -0.5772
 5094SOL    HW126741   0.133   0.189   8.152 -0.1704  0.6090 -0.9270
 5094SOL    HW226742   0.275   0.150   8.127 -0.8266 -1.0159  0.5042
 5095SOL     OW26743   0.331   4.611   2.307 -0.1164  0.0228 -0.9500
 5095SOL    HW126744   0.286   4.695   2.298 -0.3433 -0.2043 -1.9349
 5095SOL    HW226745   0.258   4.550   2.293 -0.0711  0.1235 -1.6100
 5096SOL     OW26746   4.614   3.842   8.877  0.0503 -0.4156 -0.3430
 5096SOL    HW126747   4.533   3.802   8.845 -0.6896  1.1236 -0.3854
 5096SOL    HW226748   4.649   3.774   8.934 -0.6886 -0.5365 -0.0328
 5097SOL     OW26749   3.119   4.714   6.921  0.1659  0.3881 -0.2668
 5097SOL    HW126750   3.044   0.029   6.965  0.4501 -1.3794  1.7694
 5097SOL    HW226751   3.174   0.067   6.907 -0.4359  0.8199 -0.2737
 5098SOL     OW26752   3.127   3.760   4.458 -0.4609 -0.2091  0.7298
 5098SOL    HW126753   3.182   3.715   4.394 -1.6248 -0.5168 -0.0545
 5098SOL    HW226754   3.171   3.747   4.542  0.4394  2.3975  0.6495
 5099SOL     OW26755   1.872   1.870   5.228 -0.3026  0.3367  0.0964
 5099SOL    HW126756   1.831   1.804   5.171 -4.7341  2.0840  1.2832
 5099SOL    HW226757   1.830   1.944   5.184 -3.2976 -1.1824  0.3616
 5100SOL     OW26758   1.316   3.387   5.490 -0.5173 -0.2424  0.4361
 5100SOL    HW126759   1.397   3.404   5.443 -0.3562  1.8802  1.4559
 5100SOL    HW226760   1.254   3.427   5.429 -0.9633 -0.1434  0.9475
 5101SOL     OW26761   3.877   0.444  13.110 -0.8651  0.4714 -0.9599
 5101SOL    HW126762   3.875   0.533  13.074 -0.8178  0.6375 -0.5520
 5101SOL    HW226763   3.967   0.424  13.085  0.3154  2.2277  1.8212
 5102SOL     OW26764   2.957   3.458   2.513  0.4971  0.2744  0.0910
 5102SOL    HW126765   2.920   3.389   2.568  2.0224 -0.3407  0.3465
 5102SOL    HW226766   2.962   3.524   2.582  0.0620  1.2521 -0.8081
 5103SOL     OW26767   2.205   1.652   7.452  0.4672 -1.1018  0.2997
 5103SOL    HW126768   2.242   1.566   7.473  3.2228 -0.0720 -0.3697
 5103SOL    HW226769   2.259   1.709   7.506  1.5166 -1.2056 -0.6389
 5104SOL     OW26770   1.276   1.359   1.871  0.2821 -0.1709 -0.6470
 5104SOL    HW126771   1.329   1.352   1.792 -0.2778 -0.0979 -1.0273
 5104SOL    HW226772   1.330   1.315   1.937 -0.4416 -1.5887 -1.0046
 5105SOL     OW26773   4.166   3.363   7.230  0.6126 -0.3192 -0.3300
 5105SOL    HW126774   4.096   3.318   7.183 -0.3828  0.2921  0.5896
 5105SOL    HW226775   4.117   3.437   7.266  3.0387  1.2078 -0.1506
 5106SOL     OW26776   2.301   1.422   6.063  0.1263  0.8179 -0.0765
 5106SOL    HW126777   2.206   1.435   6.055  0.1629  0.0741 -1.7699
 5106SOL    HW226778   2.303   1.332   6.095 -0.5975  0.7601 -0.1938
 5107SOL     OW26779   0.953   0.937   9.533  0.3381  0.0630 -0.2370
 5107SOL    HW126780   0.994   0.996   9.470  1.2430  1.1955  1.4061
 5107SOL    HW226781   0.928   1.002   9.600 -2.6844  1.5122 -2.7325
 5108SOL     OW26782   0.504   3.984   4.053 -0.2120 -0.6852  0.1607
 5108SOL    HW126783   0.463   3.960   3.970  1.2834  0.0950 -0.8043
 5108SOL    HW226784   0.588   3.942   4.035  0.9037  1.1783  0.9598
 5109SOL     OW26785   2.765   3.616   4.477  0.7560  0.0666  0.5522
 5109SOL    HW126786   2.801   3.598   4.390  1.0348 -0.5112  0.7885
 5109SOL    HW226787   2.738   3.529   4.507 -0.2593  1.0507  2.4615
 5110SOL     OW26788   2.551   1.541   3.851 -0.0096 -0.3120 -0.7168
 5110SOL    HW126789   2.615   1.505   3.790  1.0606 -2.3871  1.5868
 5110SOL    HW226790   2.537   1.635   3.840 -2.4163 -0.2734  2.5899
 5111SOL     OW26791   2.248   1.774  16.808  0.1871 -0.7833 -0.1971
 5111SOL    HW126792   2.191   1.717  16.757 -2.0262 -0.4040  1.8945
 5111SOL    HW226793   2.309   1.809  16.742 -0.1950 -0.1082 -0.1968
 5112SOL     OW26794   0.811   4.214   8.847 -0.6273 -0.2674  0.6534
 5112SOL    HW126795   0.845   4.283   8.789 -0.0539 -1.3043 -0.2326
 5112SOL    HW226796   0.718   4.214   8.823 -0.0023  0.2343 -1.7921
 5113SOL     OW26797   1.135   3.613  11.833 -0.6569  0.0343 -0.1278
 5113SOL    HW126798   1.074   3.545  11.862 -1.2238 -0.7661 -3.2284
 5113SOL    HW226799   1.069   3.677  11.807 -0.8605 -1.5355 -3.4481
 5114SOL     OW26800   3.205   2.745   6.157 -0.7156  0.3223  0.8472
 5114SOL    HW126801   3.192   2.806   6.084 -0.0408  0.5848  0.9456
 5114SOL    HW226802   3.203   2.808   6.229  0.7894 -0.1603  1.3045
 5115SOL     OW26803   1.741   4.670   4.553 -0.0147 -0.1337 -0.0839
 5115SOL    HW126804   1.785   4.597   4.597 -0.0343 -0.1736 -0.1293
 5115SOL    HW226805   1.733   4.638   4.463  1.3154 -0.9810  0.0918
 5116SOL     OW26806   2.909   1.321   5.144 -0.4531 -0.3131  0.6131
 5116SOL    HW126807   2.973   1.275   5.091 -1.0807 -0.4177 -0.0614
 5116SOL    HW226808   2.934   1.301   5.234  0.0089 -2.8351 -0.0812
 5117SOL     OW26809   4.510   4.668   8.671 -0.2517  0.5940 -0.8152
 5117SOL    HW126810   4.517   4.721   8.750  0.3788 -0.4518 -0.1678
 5117SOL    HW226811   4.471   4.585   8.696  0.4165  1.8113  4.1469
 5118SOL     OW26812   0.017   3.750   6.108 -0.2247 -0.3257 -0.0471
 5118SOL    HW126813   0.021   3.697   6.028 -0.8342  1.0455 -0.9807
 5118SOL    HW226814   4.654   3.737   6.146 -0.0484  1.6795  1.0217
 5119SOL     OW26815   4.560   0.730   7.490  0.1873  0.0537 -0.0541
 5119SOL    HW126816   4.618   0.694   7.557  1.6235 -0.8383 -1.7778
 5119SOL    HW226817   4.518   0.802   7.537  2.1427  1.0593  0.1381
 5120SOL     OW26818   0.169   4.026   7.598  0.0004 -0.0907 -0.0981
 5120SOL    HW126819   0.242   4.000   7.542  0.3575 -1.3649  0.9578
 5120SOL    HW226820   0.193   4.118   7.615 -0.8298  0.5707 -2.5076
 5121SOL     OW26821   1.765   0.818  17.093 -0.5090  0.2563 -0.2152
 5121SOL    HW126822   1.807   0.746  17.046 -0.8856 -1.0646  1.4736
 5121SOL    HW226823   1.838   0.879  17.077  1.9263 -3.0389 -1.7744
 5122SOL     OW26824   0.321   0.402   7.579  0.1238 -0.3711  0.1374
 5122SOL    HW126825   0.374   0.351   7.517  2.0262 -0.5495  1.9192
 5122SOL    HW226826   0.375   0.480   7.574  1.5972 -1.4288 -0.6224
 5123SOL     OW26827   1.169   3.694   2.936 -0.4222  0.1050  0.2318
 5123SOL    HW126828   1.111   3.644   2.878  0.3793 -0.6474  0.0869
 5123SOL    HW226829   1.127   3.780   2.926 -0.5742  0.1631  1.3753
 5124SOL     OW26830   3.791   3.792   5.407  0.6428  0.4289 -0.2725
 5124SOL    HW126831   3.782   3.773   5.500  0.4096  2.2668  0.0795
 5124SOL    HW226832   3.862   3.730   5.393 -0.3317 -0.9128  0.7352
 5125SOL     OW26833   0.872   3.087   3.566  0.4840  0.3304  0.1752
 5125SOL    HW126834   0.953   3.136   3.550  1.4922 -0.7338  1.9622
 5125SOL    HW226835   0.847   3.075   3.475  2.0021 -1.4248 -0.0368
 5126SOL     OW26836   3.990   2.979  16.901 -0.7872 -0.0827 -0.3924
 5126SOL    HW126837   3.948   2.964  16.986  0.7115 -0.2110  0.3310
 5126SOL    HW226838   3.990   3.075  16.902 -0.9639 -0.0830 -0.5266
 5127SOL     OW26839   1.352   3.984   3.132 -0.0525 -0.0539 -0.1937
 5127SOL    HW126840   1.419   3.979   3.065  1.7459 -1.8371  1.7522
 5127SOL    HW226841   1.320   4.073   3.119 -0.5118 -0.2262 -0.2569
 5128SOL     OW26842   3.297   2.926   5.350 -0.2747  0.5320  0.6699
 5128SOL    HW126843   3.342   2.842   5.356  0.1995  0.7549  0.2597
 5128SOL    HW226844   3.370   2.988   5.354 -0.5748  0.9745 -0.5188
 5129SOL     OW26845   4.162   2.235   6.852 -0.1156 -0.0922  0.0205
 5129SOL    HW126846   4.085   2.271   6.896  0.2472 -0.1205  0.6745
 5129SOL    HW226847   4.230   2.238   6.920  1.9446  0.6480 -2.0800
 5130SOL     OW26848   0.150   0.801  12.489  0.6771 -0.5076  0.6850
 5130SOL    HW126849   0.173   0.709  12.495  3.5246 -0.0009 -1.8274
 5130SOL    HW226850   0.184   0.841  12.569 -1.2318  0.5785  0.9474
 5131SOL     OW26851   1.370   0.040   5.879 -0.2212  0.6171  0.5606
 5131SOL    HW126852   1.457   0.023   5.915  0.8263  2.7664 -0.9844
 5131SOL    HW226853   1.385   0.082   5.794 -1.1493 -1.3342 -0.5866
 5132SOL     OW26854   1.212   4.237   4.995 -0.4233 -0.6577 -0.0584
 5132SOL    HW126855   1.119   4.223   5.017 -1.0179 -0.2297 -2.3057
 5132SOL    HW226856   1.234   4.147   4.973  0.0343 -0.2802 -1.1272
 5133SOL     OW26857   3.588   1.320  11.269  0.0929 -0.2072  0.3574
 5133SOL    HW126858   3.671   1.367  11.268 -1.0667  1.9143  2.8405
 5133SOL    HW226859   3.576   1.284  11.182  0.0418 -4.2532  2.0444
 5134SOL     OW26860   1.540   2.884   1.253  0.0354  0.3735 -0.4473
 5134SOL    HW126861   1.488   2.863   1.175 -0.9383 -1.9751  0.8547
 5134SOL    HW226862   1.552   2.979   1.241  0.1363  0.7488  2.6293
 5135SOL     OW26863   2.110   4.074   3.699 -0.2969  0.8207 -0.1350
 5135SOL    HW126864   2.165   4.150   3.716  0.3650 -0.0659  1.6161
 5135SOL    HW226865   2.178   4.009   3.682  0.0886  0.3076  3.4345
 5136SOL     OW26866   0.348   0.233   0.816  0.0100 -0.0476 -0.2803
 5136SOL    HW126867   0.415   0.174   0.853  0.6613  0.8044 -0.1050
 5136SOL    HW226868   0.357   0.209   0.723  0.5876  0.4608 -0.3544
 5137SOL     OW26869   0.005   0.949   6.297 -0.5814  0.3675  0.1121
 5137SOL    HW126870   0.049   1.023   6.254 -1.2475 -0.0959 -1.3438
 5137SOL    HW226871   4.663   1.001   6.342 -1.0257  0.3775 -0.5523
 5138SOL     OW26872   1.519   2.987   8.955  0.0065 -0.0737 -0.0941
 5138SOL    HW126873   1.479   3.069   8.927  0.5894  0.0726 -0.5067
 5138SOL    HW226874   1.607   3.024   8.968 -1.0147  2.2997  0.0153
 5139SOL     OW26875   2.566   4.297   2.234  0.0600  0.1471 -0.7381
 5139SOL    HW126876   2.652   4.317   2.196 -0.8115 -0.2073 -2.8881
 5139SOL    HW226877   2.520   4.376   2.208 -0.1723  0.7644  1.5269
 5140SOL     OW26878   0.736   1.452   6.737  0.6388 -0.7258 -0.0709
 5140SOL    HW126879   0.726   1.360   6.762  0.5911 -1.3387 -2.4075
 5140SOL    HW226880   0.648   1.473   6.708  0.9930  0.3431 -0.3458
 5141SOL     OW26881   3.627   1.626   6.730 -0.3715 -0.0354 -0.1643
 5141SOL    HW126882   3.549   1.576   6.754 -0.5112 -0.0180 -0.5932
 5141SOL    HW226883   3.590   1.697   6.678 -1.2383 -1.1742 -1.0881
 5142SOL     OW26884   3.805   4.007  16.030 -0.3769  0.4088 -0.0741
 5142SOL    HW126885   3.741   4.048  16.088  0.2933 -1.2686  1.8374
 5142SOL    HW226886   3.832   3.926  16.074 -0.7254  0.1929 -0.2570
 5143SOL     OW26887   1.969   0.587   5.915  0.0092  0.3783  0.6516
 5143SOL    HW126888   1.962   0.680   5.935 -2.8430  0.4754 -0.7933
 5143SOL    HW226889   1.932   0.581   5.827  0.7221 -0.1200  0.3866
 5144SOL     OW26890   0.969   0.564  16.919 -0.5844  0.0747  0.6981
 5144SOL    HW126891   0.958   0.659  16.911  2.4900  0.2194 -1.5818
 5144SOL    HW226892   0.960   0.535  16.829  0.8244  1.6205  0.0717
 5145SOL     OW26893   4.337   3.018   0.839  0.7424 -0.6558  0.3042
 5145SOL    HW126894   4.420   3.066   0.831 -0.0295  0.3129 -1.8445
 5145SOL    HW226895   4.273   3.081   0.806  0.2545 -3.0308 -3.2486
 5146SOL     OW26896   0.098   3.841   7.963 -0.7011 -0.1753 -0.3937
 5146SOL    HW126897   0.167   3.862   8.026 -0.4524 -1.3598 -0.2593
 5146SOL    HW226898   0.129   3.760   7.922  0.2839 -0.3655  0.7430
 5147SOL     OW26899   3.600   3.144   0.010  0.0968  0.0666  0.2008
 5147SOL    HW126900   3.611   3.080   0.080  3.1008 -0.9276 -1.1688
 5147SOL    HW226901   3.603   3.084  17.632  1.0492 -0.8091  0.9483
 5148SOL     OW26902   0.110   0.682   7.571 -0.2910 -0.1579  0.7378
 5148SOL    HW126903   0.104   0.759   7.514  2.1665  0.1817  0.9469
 5148SOL    HW226904   0.173   0.705   7.639  1.0960 -1.4808 -0.0971
 5149SOL     OW26905   1.088   2.332   2.601 -0.3441 -0.2232  0.2531
 5149SOL    HW126906   0.994   2.330   2.582 -0.4493 -1.0701  0.8936
 5149SOL    HW226907   1.100   2.240   2.577  1.6867 -0.0892  0.7903
 5150SOL     OW26908   3.898   4.196  14.185 -0.1827  0.0691 -0.1945
 5150SOL    HW126909   3.980   4.245  14.196 -0.0246 -0.5080  1.2422
 5150SOL    HW226910   3.852   4.265  14.138  1.6961  0.9085 -0.7914
 5151SOL     OW26911   1.177   4.305   6.863  0.3091 -0.1333  0.0252
 5151SOL    HW126912   1.127   4.380   6.832 -0.5291 -0.6781  0.0457
 5151SOL    HW226913   1.238   4.344   6.925 -1.1720  4.4477 -1.4274
 5152SOL     OW26914   2.115   2.291   8.476 -0.1806 -0.1787 -0.3874
 5152SOL    HW126915   2.155   2.361   8.425 -1.3325  1.3012  0.7604
 5152SOL    HW226916   2.171   2.218   8.448  1.0157 -0.4153  2.6924
 5153SOL     OW26917   1.681   0.388   3.373 -0.0221  0.1205 -0.3989
 5153SOL    HW126918   1.669   0.307   3.324  0.9451  1.5470 -2.9635
 5153SOL    HW226919   1.771   0.378   3.403 -0.2753 -0.5547  0.1363
 5154SOL     OW26920   0.750   1.947   4.358  0.5008 -0.3671  0.4958
 5154SOL    HW126921   0.669   1.952   4.409  0.4083 -0.8045  0.3902
 5154SOL    HW226922   0.764   1.854   4.346 -1.9327 -0.6735  0.0486
 5155SOL     OW26923   2.285   2.077  13.780  0.4644  0.3834 -0.4845
 5155SOL    HW126924   2.317   2.135  13.849  1.2657 -1.0018  0.3240
 5155SOL    HW226925   2.276   2.140  13.708 -0.6486 -0.7066 -1.3097
 5156SOL     OW26926   1.038   0.583   2.725  0.4595 -0.4010 -0.1226
 5156SOL    HW126927   0.966   0.608   2.783  0.4423  0.4440 -0.5159
 5156SOL    HW226928   1.062   0.668   2.690 -2.6947  0.5269  0.0229
 5157SOL     OW26929   0.809   0.699   9.535 -0.3227 -0.3616  0.2718
 5157SOL    HW126930   0.867   0.665   9.602  0.2735 -0.9550 -0.5431
 5157SOL    HW226931   0.849   0.784   9.515 -0.8857 -0.3429 -0.7810
 5158SOL     OW26932   4.485   2.053   6.845  0.0052 -0.5016  0.0534
 5158SOL    HW126933   4.580   2.053   6.843  0.0440  3.3592  1.2363
 5158SOL    HW226934   4.455   2.036   6.756  0.6137 -3.8214  0.4814
 5159SOL     OW26935   0.026   4.223   3.442 -0.1692 -0.3149  0.6245
 5159SOL    HW126936   4.682   4.291   3.446 -0.2874 -0.3924 -0.0011
 5159SOL    HW226937   4.703   4.151   3.400  0.6710 -0.4302 -0.0985
 5160SOL     OW26938   0.255   0.354   1.734 -0.0173  0.0857  0.4361
 5160SOL    HW126939   0.274   0.445   1.712 -2.4403  0.4733 -0.0477
 5160SOL    HW226940   0.295   0.303   1.664 -3.3770 -0.6655 -0.9381
 5161SOL     OW26941   0.230   0.538   3.775 -0.0277  0.7722  0.3729
 5161SOL    HW126942   0.223   0.592   3.853  3.2800 -0.2071  1.3064
 5161SOL    HW226943   0.171   0.585   3.715 -1.4934 -0.7388  0.6357
 5162SOL     OW26944   3.804   3.385   1.578  0.5534  0.0322 -0.6309
 5162SOL    HW126945   3.758   3.469   1.575 -0.5333 -0.6071 -1.9527
 5162SOL    HW226946   3.802   3.360   1.486 -0.0308 -1.6189 -0.1872
 5163SOL     OW26947   1.929   3.726   8.088 -0.4080  0.4210  0.2017
 5163SOL    HW126948   1.907   3.640   8.052 -2.3973  0.2223  1.8498
 5163SOL    HW226949   1.909   3.774   8.008  2.7123 -1.6114 -1.7740
 5164SOL     OW26950   0.801   4.537   8.463  0.2960 -0.1584 -0.4857
 5164SOL    HW126951   0.758   4.614   8.427  0.0168 -0.6377 -1.1668
 5164SOL    HW226952   0.770   4.459   8.418 -1.5628  0.2711  0.0631
 5165SOL     OW26953   3.242   1.245   9.626 -0.1863 -0.5952 -0.4594
 5165SOL    HW126954   3.204   1.262   9.712 -1.8292 -0.4956 -1.1980
 5165SOL    HW226955   3.250   1.338   9.604 -0.4635 -0.7706 -1.3297
 5166SOL     OW26956   2.265   1.116   8.483  0.0072 -0.5684 -0.1360
 5166SOL    HW126957   2.275   1.045   8.546  0.3323 -0.4558 -0.0617
 5166SOL    HW226958   2.331   1.173   8.522 -0.6839  1.7749 -2.4090
 5167SOL     OW26959   4.649   0.948   3.179  0.0910  0.2962  0.1596
 5167SOL    HW126960   4.565   0.910   3.151  0.7989 -0.7100 -0.5923
 5167SOL    HW226961   4.665   0.986   3.093 -1.7271  0.4200 -0.1281
 5168SOL     OW26962   3.512   2.578   3.903 -0.5127 -0.0608  0.2178
 5168SOL    HW126963   3.589   2.529   3.933  0.1020  1.3988  1.0533
 5168SOL    HW226964   3.462   2.566   3.984 -3.2479  0.9160 -1.3511
 5169SOL     OW26965   1.824   3.047   3.539 -0.0123 -0.5029 -0.2492
 5169SOL    HW126966   1.731   3.028   3.529 -0.5833  1.4083  1.4423
 5169SOL    HW226967   1.865   2.962   3.554 -0.7835 -1.1323 -1.7497
 5170SOL     OW26968   1.070   0.019   9.947 -0.0849 -0.2587  0.1533
 5170SOL    HW126969   1.036   4.669   9.897 -0.9566 -0.1053  0.5096
 5170SOL    HW226970   1.104   0.075   9.878 -0.8745  0.7886  0.6047
 5171SOL     OW26971   1.538   3.912  15.474  0.1056 -0.9248 -0.0572
 5171SOL    HW126972   1.548   4.008  15.476 -1.3506 -0.7622  0.0659
 5171SOL    HW226973   1.464   3.896  15.415  0.5705 -0.2543 -0.8358
 5172SOL     OW26974   3.600   3.268   2.209  0.4307  0.2667 -0.1731
 5172SOL    HW126975   3.666   3.225   2.264  0.4786  3.4662  2.2360
 5172SOL    HW226976   3.557   3.324   2.274 -1.4623 -0.2499 -0.9855
 5173SOL     OW26977   1.444   3.770  16.177 -0.1614 -0.1834  0.0023
 5173SOL    HW126978   1.388   3.694  16.189  0.7565 -0.9859 -0.8435
 5173SOL    HW226979   1.378   3.820  16.130 -0.5274 -3.9172 -3.4479
 5174SOL     OW26980   1.583   2.127  15.413 -0.7124 -0.3485 -0.2531
 5174SOL    HW126981   1.537   2.046  15.390  0.3582 -0.7327 -1.0915
 5174SOL    HW226982   1.621   2.149  15.327  0.8146 -0.0878  0.4813
 5175SOL     OW26983   4.705   1.543   8.514  0.3626 -0.2367 -0.3508
 5175SOL    HW126984   4.678   1.509   8.429  0.3413 -0.2042 -0.3574
 5175SOL    HW226985   0.012   1.628   8.484  1.7014 -0.4022  0.5599
 5176SOL     OW26986   4.195   4.258   7.010  0.0939 -0.2389  0.6117
 5176SOL    HW126987   4.151   4.343   7.018 -0.7785 -0.4574 -1.7761
 5176SOL    HW226988   4.282   4.284   6.979 -0.6690  1.1718 -0.3338
 5177SOL     OW26989   1.104   2.824   6.013 -0.8575 -0.2230  1.0857
 5177SOL    HW126990   1.090   2.736   6.048  0.5563 -1.4182 -1.3931
 5177SOL    HW226991   1.025   2.831   5.959 -1.0041  0.3846  1.3717
 5178SOL     OW26992   4.577   1.240   3.241  0.1095  0.1716 -0.3457
 5178SOL    HW126993   4.491   1.261   3.203  0.3326 -0.9200 -1.4633
 5178SOL    HW226994   4.618   1.209   3.160  1.4270  0.4213  0.2297
 5179SOL     OW26995   1.607   0.826  13.364  0.0011 -0.1680 -0.3260
 5179SOL    HW126996   1.637   0.829  13.455 -0.7340 -1.0242 -0.0509
 5179SOL    HW226997   1.525   0.776  13.363  0.0327 -0.2559  1.5476
 5180SOL     OW26998   1.716   3.348  13.732 -0.2237 -0.6083  0.0972
 5180SOL    HW126999   1.741   3.267  13.777  1.6919 -1.7944 -3.0629
 5180SOL    HW227000   1.778   3.409  13.772 -0.4410 -1.4016  1.6570
 5181SOL     OW27001   4.297   3.802   3.172  0.2277 -0.6179  0.1359
 5181SOL    HW127002   4.299   3.761   3.085 -2.1528  0.4320 -0.4213
 5181SOL    HW227003   4.378   3.761   3.202  0.9622  0.0701 -0.8879
 5182SOL     OW27004   0.793   0.521   3.381 -0.9175  0.2431 -0.4846
 5182SOL    HW127005   0.874   0.567   3.361 -1.1668 -0.0895 -2.2194
 5182SOL    HW227006   0.820   0.429   3.382 -0.7856  0.2899  0.1116
 5183SOL     OW27007   0.673   4.524   7.379 -0.0403  0.3382  0.1047
 5183SOL    HW127008   0.761   4.523   7.416  0.5600  0.0723 -1.3341
 5183SOL    HW227009   0.678   4.462   7.307  1.0116 -0.5988  0.9787
 5184SOL     OW27010   4.135   2.196   8.586 -0.4047 -0.2441 -0.2134
 5184SOL    HW127011   4.130   2.122   8.526 -2.1866 -0.8252  0.6440
 5184SOL    HW227012   4.223   2.199   8.624 -0.7808  0.2169  0.6366
 5185SOL     OW27013   3.716   3.341   2.636  0.1420 -0.5571  0.0392
 5185SOL    HW127014   3.711   3.433   2.663 -0.7250 -0.6047  0.0612
 5185SOL    HW227015   3.774   3.306   2.704  0.7215  2.5346  1.1364
 5186SOL     OW27016   4.610   3.304   8.096 -0.2622 -0.2085 -0.4841
 5186SOL    HW127017   4.515   3.314   8.087  0.1926  1.7586 -2.9471
 5186SOL    HW227018   4.627   3.359   8.172  0.1717 -0.8130 -0.1485
 5187SOL     OW27019   2.370   2.702   8.638 -0.6223 -0.1632  0.6051
 5187SOL    HW127020   2.407   2.788   8.655 -4.8466  1.7531  0.0552
 5187SOL    HW227021   2.405   2.675   8.553 -0.4956  0.5515  0.4352
 5188SOL     OW27022   2.397   1.027   8.716 -0.0252 -0.9510  0.7649
 5188SOL    HW127023   2.434   0.943   8.692 -2.6891 -1.7619 -0.5569
 5188SOL    HW227024   2.394   1.031   8.812  0.2418 -0.6687  0.7614
 5189SOL     OW27025   2.504   4.138   5.305  0.6774 -0.1272  0.0973
 5189SOL    HW127026   2.547   4.174   5.228  1.5786 -0.9157  0.2281
 5189SOL    HW227027   2.411   4.149   5.289  1.3939  1.6811 -2.7773
 5190SOL     OW27028   1.063   1.788   0.167 -0.4272 -0.3907 -0.3838
 5190SOL    HW127029   1.070   1.759   0.076 -0.9877 -1.0017 -0.2275
 5190SOL    HW227030   1.094   1.710   0.213  0.4152 -1.1191 -2.1659
 5191SOL     OW27031   1.692   3.024   4.583 -0.0817  0.8903  0.0205
 5191SOL    HW127032   1.603   3.060   4.589  0.4231  2.2619 -0.6252
 5191SOL    HW227033   1.709   2.973   4.662 -2.2720  1.4826  0.8966
 5192SOL     OW27034   2.698   3.557  10.454 -0.2182  0.1805  0.3806
 5192SOL    HW127035   2.638   3.595  10.519 -1.3199 -0.9735  0.0280
 5192SOL    HW227036   2.692   3.623  10.385 -2.5959  0.4022  0.7896
 5193SOL     OW27037   3.594   0.641   4.622 -0.0631  0.4340 -0.0329
 5193SOL    HW127038   3.538   0.574   4.582 -1.4426  0.3489  2.0318
 5193SOL    HW227039   3.675   0.591   4.634  1.1136  2.8728  2.0157
 5194SOL     OW27040   0.034   1.328   4.707  0.0823 -0.3166  0.1452
 5194SOL    HW127041   0.007   1.382   4.781  0.1295 -1.1783  0.8011
 5194SOL    HW227042   0.108   1.374   4.667  0.2281  1.2807  2.2769
 5195SOL     OW27043   4.511   2.962   6.502 -0.0496 -0.1699  0.2620
 5195SOL    HW127044   4.501   3.041   6.555 -2.3434 -0.5046  0.3313
 5195SOL    HW227045   4.601   2.933   6.518  0.2890  2.7591  3.5996
 5196SOL     OW27046   1.760   0.772   2.771  0.1097 -0.2019  0.1656
 5196SOL    HW127047   1.813   0.830   2.826  2.0840 -0.6465 -1.2735
 5196SOL    HW227048   1.827   0.775   2.703  0.8880 -1.2697  0.8990
 5197SOL     OW27049   1.848   1.125   5.343  0.0441  0.3110 -0.2981
 5197SOL    HW127050   1.879   1.065   5.276  0.2215 -0.1375  0.1835
 5197SOL    HW227051   1.794   1.062   5.391 -1.2908  0.1579 -2.0029
 5198SOL     OW27052   1.652   3.992   1.919 -0.5526  0.2517 -0.1857
 5198SOL    HW127053   1.700   3.982   1.836  0.4963  0.7515  0.3623
 5198SOL    HW227054   1.680   3.910   1.960 -0.3952 -0.1152 -1.0179
 5199SOL     OW27055   1.448   3.344   8.947 -0.3057 -0.1086 -0.7011
 5199SOL    HW127056   1.436   3.382   9.034 -0.0995 -0.0930 -0.6777
 5199SOL    HW227057   1.467   3.422   8.896  2.7744  0.9249  2.0268
 5200SOL     OW27058   2.265   0.715   7.596  0.3689  0.3114 -0.3409
 5200SOL    HW127059   2.294   0.745   7.510  0.1826 -0.1751 -0.5711
 5200SOL    HW227060   2.349   0.689   7.635 -0.6971 -1.0515  1.0217
 5201SOL     OW27061   3.506   4.354   2.932 -0.0592 -0.2346 -0.0687
 5201SOL    HW127062   3.568   4.292   2.970  1.2810 -0.5050 -2.7362
 5201SOL    HW227063   3.551   4.392   2.856 -0.9033  0.3498 -0.2834
 5202SOL     OW27064   3.317   3.656   4.286 -0.4192  0.1540  0.3479
 5202SOL    HW127065   3.327   3.582   4.227 -1.9378  0.7738 -0.6904
 5202SOL    HW227066   3.388   3.712   4.253 -2.8507  2.4290 -1.0681
 5203SOL     OW27067   0.213   4.470   0.285 -0.4168 -0.0979 -0.1495
 5203SOL    HW127068   0.308   4.478   0.277 -0.4763 -0.0116 -0.7401
 5203SOL    HW227069   0.212   4.374   0.292 -0.5933 -0.0168  0.9327
 5204SOL     OW27070   0.177   4.366  11.057  0.2317  0.2909  0.3166
 5204SOL    HW127071   0.177   4.394  10.966  0.8782 -2.6188 -0.5755
 5204SOL    HW227072   0.197   4.273  11.051  1.8729  0.7763 -1.6362
 5205SOL     OW27073   3.290   4.356   8.249 -0.3064  0.0529 -0.5529
 5205SOL    HW127074   3.254   4.437   8.213 -0.8261 -0.8995 -2.1650
 5205SOL    HW227075   3.363   4.387   8.302  1.2820 -1.6233 -1.7461
 5206SOL     OW27076   3.550   1.302   3.400  0.0427  0.7482  0.0911
 5206SOL    HW127077   3.556   1.208   3.385 -0.9395  0.9955 -1.8310
 5206SOL    HW227078   3.628   1.332   3.353  0.9435 -1.2954  0.3061
 5207SOL     OW27079   2.855   2.909  10.126  0.2535 -0.2406 -0.2352
 5207SOL    HW127080   2.925   2.975  10.127  0.4312 -0.3983 -1.5462
 5207SOL    HW227081   2.885   2.849  10.057 -0.7674 -0.2995 -0.6233
 5208SOL     OW27082   1.857   3.310   0.445  0.2247 -0.2824 -0.2344
 5208SOL    HW127083   1.868   3.329   0.539 -0.6807  0.2349 -0.2340
 5208SOL    HW227084   1.793   3.376   0.421  1.4462  0.7557 -0.6657
 5209SOL     OW27085   0.003   2.215   7.699  0.4487 -0.2495 -0.4759
 5209SOL    HW127086   4.640   2.178   7.687  0.5766 -0.0478 -2.0442
 5209SOL    HW227087   0.001   2.278   7.627 -0.2236 -1.3038 -1.3838
 5210SOL     OW27088   0.196   0.457   3.096  0.3417 -0.4092 -0.6082
 5210SOL    HW127089   0.127   0.396   3.123 -0.6551  1.2563  0.6207
 5210SOL    HW227090   0.160   0.475   3.009 -0.6671 -0.9243 -0.2988
 5211SOL     OW27091   1.284   1.979   5.011 -0.0641 -0.2123 -0.2029
 5211SOL    HW127092   1.319   2.045   4.950  0.3046  0.0663  0.3004
 5211SOL    HW227093   1.372   1.963   5.046 -0.9384 -1.6482  1.3071
 5212SOL     OW27094   0.115   3.711   7.389 -0.2252 -0.1434  0.0033
 5212SOL    HW127095   0.048   3.728   7.323  0.2402 -0.6765 -0.6049
 5212SOL    HW227096   0.069   3.742   7.467 -2.0284  0.0770 -1.1358
 5213SOL     OW27097   2.986   0.462   0.268  0.3380  0.2809  0.6070
 5213SOL    HW127098   2.966   0.555   0.274  1.6370  0.7063 -1.6703
 5213SOL    HW227099   3.081   0.453   0.281 -0.0724 -1.5940  2.4027
 5214SOL     OW27100   4.385   2.210  10.547  0.0882 -0.1738 -0.4764
 5214SOL    HW127101   4.402   2.252  10.463 -0.6030 -2.3740 -1.7083
 5214SOL    HW227102   4.301   2.172  10.522 -0.8659  1.2311  0.5589
 5215SOL     OW27103   1.631   3.058  11.224 -0.0558 -0.3103  0.0553
 5215SOL    HW127104   1.576   2.998  11.174 -1.0479  0.6290  0.0047
 5215SOL    HW227105   1.596   3.140  11.190 -1.2992 -0.9671 -0.2435
 5216SOL     OW27106   2.369   1.828   4.617  0.5695 -0.8178 -0.0081
 5216SOL    HW127107   2.380   1.916   4.651  0.9570 -1.8179  2.4475
 5216SOL    HW227108   2.334   1.855   4.532  0.7632  6.0021  2.1348
 5217SOL     OW27109   2.673   3.424   6.513  0.0854  0.0368  0.5903
 5217SOL    HW127110   2.645   3.411   6.604  0.0147 -1.7925  0.3066
 5217SOL    HW227111   2.625   3.350   6.476 -0.2860  1.8536 -2.5692
 5218SOL     OW27112   3.102   2.930   5.727 -0.7910  0.4304 -0.0933
 5218SOL    HW127113   3.171   2.940   5.661 -0.0138 -1.4816  0.4399
 5218SOL    HW227114   3.074   2.841   5.705 -3.7122  1.6328 -1.3487
 5219SOL     OW27115   3.926   2.561   6.716  0.7447  0.0961 -0.0311
 5219SOL    HW127116   3.868   2.557   6.792 -0.2085 -4.0985 -0.9570
 5219SOL    HW227117   3.880   2.617   6.655  1.8333  1.1336  0.1033
 5220SOL     OW27118   3.206   0.159   7.884 -0.0030 -0.4209 -0.7606
 5220SOL    HW127119   3.258   0.080   7.864  1.3513  0.7476 -1.8971
 5220SOL    HW227120   3.227   0.217   7.811 -1.1877 -1.3690 -1.8568
 5221SOL     OW27121   0.138   1.902  13.577  0.1338  0.0870 -1.0289
 5221SOL    HW127122   0.068   1.920  13.640  2.0284 -1.4588  1.5276
 5221SOL    HW227123   0.087   1.848  13.517  2.0584 -0.7866 -1.8617
 5222SOL     OW27124   3.129   2.506   8.067  0.5772  0.0139  0.7701
 5222SOL    HW127125   3.077   2.440   8.021  1.9113 -1.8823  1.9901
 5222SOL    HW227126   3.195   2.445   8.102  0.0671  0.1093  1.8719
 5223SOL     OW27127   0.665   3.385  16.481  0.4024  0.4294 -0.2456
 5223SOL    HW127128   0.717   3.370  16.403 -1.7733 -3.0817 -1.0295
 5223SOL    HW227129   0.733   3.370  16.547 -1.5887  0.5344  1.8713
 5224SOL     OW27130   0.856   4.363  12.920  0.8257  0.2655 -0.3330
 5224SOL    HW127131   0.770   4.399  12.943  1.2546  0.9727  0.1633
 5224SOL    HW227132   0.833   4.281  12.875 -3.1978  0.5662  1.1380
 5225SOL     OW27133   3.707   1.352   1.526 -0.4577  0.2430  0.0876
 5225SOL    HW127134   3.765   1.319   1.595 -0.0972  1.5587  0.4142
 5225SOL    HW227135   3.730   1.280   1.468 -1.1414 -0.8641  1.1854
 5226SOL     OW27136   1.564   1.374   5.569 -0.0333  0.1987  0.3140
 5226SOL    HW127137   1.568   1.466   5.544  1.9246 -0.6478 -2.4439
 5226SOL    HW227138   1.623   1.393   5.642  0.8613 -1.2039 -0.0531
 5227SOL     OW27139   2.988   2.488   5.853  0.2323 -0.0536  0.4544
 5227SOL    HW127140   2.944   2.404   5.839 -0.3090 -0.1323  2.6141
 5227SOL    HW227141   3.053   2.472   5.921  0.2165 -0.1292  0.4524
 5228SOL     OW27142   1.337   0.105   5.330 -0.0405  0.0549  0.1128
 5228SOL    HW127143   1.244   0.123   5.314 -0.2254 -0.7320  0.3059
 5228SOL    HW227144   1.327   0.012   5.350  0.4052 -0.0899 -0.3642
 5229SOL     OW27145   1.311   0.980   9.021 -0.0700 -0.6204 -0.0932
 5229SOL    HW127146   1.340   0.964   9.111 -0.9808 -2.3182 -0.1023
 5229SOL    HW227147   1.223   1.013   9.037  0.6359  0.5949  1.2579
 5230SOL     OW27148   0.377   3.748   5.681 -0.2028 -0.2546 -0.4727
 5230SOL    HW127149   0.426   3.772   5.760 -2.0437  0.1961  0.5248
 5230SOL    HW227150   0.291   3.731   5.719  0.5288 -1.5577  0.6044
 5231SOL     OW27151   3.680   0.137  13.510  0.4990  0.0347  0.6116
 5231SOL    HW127152   3.683   0.182  13.425 -3.4042  0.3280  0.6363
 5231SOL    HW227153   3.683   0.044  13.490 -2.1440  0.2653 -0.8440
 5232SOL     OW27154   2.008   0.829   5.544  0.1565  0.3741 -0.9703
 5232SOL    HW127155   2.092   0.793   5.517 -0.5908 -0.5018 -2.1401
 5232SOL    HW227156   2.030   0.920   5.564 -2.2119  0.6172  0.6414
 5233SOL     OW27157   2.407   1.326   4.017  0.2377 -0.1929 -0.1056
 5233SOL    HW127158   2.454   1.327   4.100 -0.7655 -1.2366  0.4799
 5233SOL    HW227159   2.463   1.369   3.952  0.5275  0.2652  0.4515
 5234SOL     OW27160   2.642   2.236  13.152 -0.0508  0.0256  0.0876
 5234SOL    HW127161   2.620   2.215  13.061 -0.0805 -1.1021  0.3531
 5234SOL    HW227162   2.737   2.231  13.160  0.1406  0.9650 -1.5821
 5235SOL     OW27163   3.659   4.718   8.139  0.1350 -0.0887  0.3309
 5235SOL    HW127164   3.660   4.628   8.172 -0.6473  0.3778  1.6175
 5235SOL    HW227165   3.734   4.705   8.081  0.3447 -0.2103  0.6274
 5236SOL     OW27166   0.194   0.695   2.222 -0.1482  0.2647  0.6000
 5236SOL    HW127167   0.242   0.767   2.264  0.0827 -0.1364  1.0136
 5236SOL    HW227168   0.253   0.689   2.146 -1.3905 -0.9073 -0.2643
 5237SOL     OW27169   2.977   3.890   8.592  0.3358  0.4858 -0.1738
 5237SOL    HW127170   3.017   3.849   8.669  1.3805  3.0185  0.6453
 5237SOL    HW227171   2.905   3.829   8.576  1.3386 -0.9898  0.9415
 5238SOL     OW27172   3.440   2.180   6.353 -0.0871  0.1118 -0.0063
 5238SOL    HW127173   3.507   2.131   6.401 -1.7706  0.6370  2.8976
 5238SOL    HW227174   3.489   2.207   6.275  1.1978  0.5249  0.9256
 5239SOL     OW27175   3.108   1.015   1.723 -0.0225  0.0067 -0.0650
 5239SOL    HW127176   3.016   0.990   1.731  0.1724 -0.1183  1.7912
 5239SOL    HW227177   3.117   1.054   1.636 -1.4810 -0.0387 -0.2389
 5240SOL     OW27178   1.692   4.641   2.326 -0.0650 -0.3132 -0.5941
 5240SOL    HW127179   1.750   4.641   2.250 -1.2807 -0.0184 -1.5290
 5240SOL    HW227180   1.715   4.553   2.355  1.3285 -0.2232 -1.4505
 5241SOL     OW27181   4.154   4.554   1.550  0.6359 -0.6361 -0.0669
 5241SOL    HW127182   4.136   4.467   1.514 -0.1710 -0.3832 -0.2937
 5241SOL    HW227183   4.223   4.588   1.494  1.1752  0.0786  1.0387
 5242SOL     OW27184   0.631   4.097   5.697  0.4804 -0.1733 -0.0931
 5242SOL    HW127185   0.568   4.107   5.626  1.3247 -0.8516 -0.9360
 5242SOL    HW227186   0.599   4.172   5.747  1.0333 -0.4580  0.6837
 5243SOL     OW27187   2.236   1.189   2.962 -0.6244 -0.0905  0.0762
 5243SOL    HW127188   2.184   1.112   2.939 -0.4777  0.1069 -0.9252
 5243SOL    HW227189   2.281   1.210   2.880  1.2257 -0.3144  1.0316
 5244SOL     OW27190   0.283   2.202   2.893  1.1356  0.4483  0.0521
 5244SOL    HW127191   0.278   2.252   2.812  1.4115  0.5003  0.0654
 5244SOL    HW227192   0.213   2.249   2.938  1.9800  1.4259  0.3411
 5245SOL     OW27193   4.149   4.112   8.726 -0.3428 -0.1406  0.0728
 5245SOL    HW127194   4.119   4.065   8.648  1.1974  0.3915 -0.8354
 5245SOL    HW227195   4.077   4.085   8.784 -0.7854 -0.3261 -0.5625
 5246SOL     OW27196   3.977   0.729   9.924  0.1306  0.0976 -0.0539
 5246SOL    HW127197   4.037   0.787   9.877 -0.3713  0.4173 -0.3029
 5246SOL    HW227198   3.950   0.669   9.854  0.0706  0.2665 -0.1762
 5247SOL     OW27199   4.534   2.742  17.655 -0.1499 -0.2508 -0.3601
 5247SOL    HW127200   4.451   2.769  17.693 -0.2251 -0.9486 -0.0187
 5247SOL    HW227201   4.592   2.778   0.025  0.0094 -3.0417  0.9809
 5248SOL     OW27202   2.651   3.376   9.612 -0.3816 -0.7294 -0.2259
 5248SOL    HW127203   2.632   3.418   9.696  1.5095  2.3826 -1.3131
 5248SOL    HW227204   2.672   3.288   9.643  0.4000 -1.3797 -2.5777
 5249SOL     OW27205   1.086   2.140   6.899 -0.1798 -0.8011 -0.0127
 5249SOL    HW127206   1.173   2.162   6.932 -1.1470 -1.7559  3.1304
 5249SOL    HW227207   1.043   2.112   6.980  0.5125  2.0695  1.3233
 5250SOL     OW27208   3.295   3.050  15.303  0.2851  0.0880 -0.2218
 5250SOL    HW127209   3.322   3.140  15.323  1.2375 -0.3073  0.2649
 5250SOL    HW227210   3.325   3.005  15.381 -0.2111  1.7252  0.9113
 5251SOL     OW27211   2.050   0.153  10.778  0.4768  0.5794 -0.3254
 5251SOL    HW127212   1.993   0.198  10.841  1.4364 -1.5500  2.0374
 5251SOL    HW227213   2.119   0.119  10.834 -1.8878 -0.2481  2.0740
 5252SOL     OW27214   0.445   3.496   4.692  0.3527  0.1866 -0.2265
 5252SOL    HW127215   0.490   3.547   4.625 -1.9949 -1.3481 -2.9781
 5252SOL    HW227216   0.357   3.486   4.657  0.4363 -0.5577 -0.2254
 5253SOL     OW27217   3.660   1.439   2.799 -0.2393 -0.1568 -0.3373
 5253SOL    HW127218   3.740   1.492   2.802 -0.1083 -0.4441  1.2690
 5253SOL    HW227219   3.662   1.420   2.705  0.0782  0.9708 -0.5646
 5254SOL     OW27220   3.729   1.490  12.291  0.4470 -0.3766 -0.0423
 5254SOL    HW127221   3.691   1.414  12.247 -1.3872  1.2589 -1.2594
 5254SOL    HW227222   3.797   1.446  12.342 -0.1212 -0.6922  0.4323
 5255SOL     OW27223   1.777   2.803  10.071 -0.1261 -0.0972 -0.4007
 5255SOL    HW127224   1.792   2.837  10.160 -1.6058  0.0931 -0.2253
 5255SOL    HW227225   1.730   2.721  10.082 -2.1101  0.8714 -1.6737
 5256SOL     OW27226   1.647   0.006   6.565  0.4020 -0.4172  0.7464
 5256SOL    HW127227   1.704   0.005   6.488  0.7606 -1.5037  1.0270
 5256SOL    HW227228   1.691   4.661   6.615  1.8563 -0.1725 -0.1948
 5257SOL     OW27229   4.163   3.498   1.669  0.2834 -0.7113 -0.2531
 5257SOL    HW127230   4.242   3.453   1.640 -0.9417 -2.1885 -1.2772
 5257SOL    HW227231   4.198   3.550   1.742 -1.6778  1.3655 -0.7955
 5258SOL     OW27232   4.428   4.547   5.943 -0.3212 -0.5508 -0.0083
 5258SOL    HW127233   4.512   4.503   5.932 -0.2910 -0.7863  1.1742
 5258SOL    HW227234   4.431   4.595   6.025  1.1006 -0.5835 -0.0387
 5259SOL     OW27235   3.222   4.426   1.677  0.1280 -0.1899 -0.1115
 5259SOL    HW127236   3.194   4.453   1.764  0.1390  0.4580 -0.3098
 5259SOL    HW227237   3.193   4.506   1.634  1.8129  0.6548  0.3156
 5260SOL     OW27238   0.078   2.680   9.195 -0.3611  0.0334  0.5560
 5260SOL    HW127239   0.067   2.605   9.253  2.3370  0.6741  1.9080
 5260SOL    HW227240   0.125   2.742   9.250  0.3810  0.0511 -0.0933
 5261SOL     OW27241   0.400   0.212   2.350 -0.2733  0.0033  0.3066
 5261SOL    HW127242   0.452   0.155   2.406  1.4229  0.0272 -1.2287
 5261SOL    HW227243   0.458   0.213   2.274  0.0644 -0.4538  0.5602
 5262SOL     OW27244   1.147   1.592   9.588  0.2387  0.1354  0.0282
 5262SOL    HW127245   1.129   1.501   9.564 -1.3216  0.1100  1.2862
 5262SOL    HW227246   1.213   1.611   9.522  0.6340 -0.1345  0.3491
 5263SOL     OW27247   1.530   4.134  11.634 -0.1657  0.1964 -0.0295
 5263SOL    HW127248   1.546   4.223  11.603  0.0103  0.5689  1.1340
 5263SOL    HW227249   1.435   4.130  11.620 -0.0118  2.5731 -1.7959
 5264SOL     OW27250   4.170   4.240   6.294 -0.1190 -0.1533  0.2070
 5264SOL    HW127251   4.236   4.299   6.259 -2.1192  1.6752 -0.4940
 5264SOL    HW227252   4.195   4.151   6.269 -1.9117 -0.9229  1.1611
 5265SOL     OW27253   4.327   0.842   9.232  0.3899  0.1179 -0.4031
 5265SOL    HW127254   4.397   0.866   9.171  1.7486 -1.4436  0.5426
 5265SOL    HW227255   4.270   0.796   9.169 -1.4170 -0.1228  1.4138
 5266SOL     OW27256   2.750   2.004  11.426 -0.2932  0.2560 -0.2154
 5266SOL    HW127257   2.738   2.097  11.442 -3.2916 -0.0736 -0.5834
 5266SOL    HW227258   2.841   1.987  11.453  0.2920  1.4145 -1.4603
 5267SOL     OW27259   0.794   3.695   3.244 -0.1634 -0.0006  0.1476
 5267SOL    HW127260   0.769   3.649   3.163  1.3482  0.2072 -0.4480
 5267SOL    HW227261   0.871   3.741   3.210 -2.1736  0.4339 -3.9029
 5268SOL     OW27262   2.200   0.045   2.995  0.1044  0.8811 -0.2717
 5268SOL    HW127263   2.116   0.088   2.977  1.3666  3.0701 -0.9685
 5268SOL    HW227264   2.260   0.111   2.961  0.1237  0.2514 -1.4458
 5269SOL     OW27265   1.433   4.192  14.478 -0.7061 -0.0190 -0.3705
 5269SOL    HW127266   1.418   4.224  14.389  1.4489  1.7045 -0.0953
 5269SOL    HW227267   1.389   4.107  14.473 -1.6779  0.5508 -1.5716
 5270SOL     OW27268   1.291   2.054   1.244  0.4509  0.0241 -0.3479
 5270SOL    HW127269   1.225   2.113   1.206  0.2788 -0.7757 -1.3006
 5270SOL    HW227270   1.346   2.034   1.168 -0.8064 -0.8948 -1.0090
 5271SOL     OW27271   4.611   0.192   9.407 -0.2934 -0.3795  0.2833
 5271SOL    HW127272   4.656   0.269   9.442  0.2385 -0.1925 -0.8095
 5271SOL    HW227273   4.592   0.230   9.322  1.2181 -1.0915 -0.3800
 5272SOL     OW27274   3.578   0.361   5.088  0.5173  0.2186  0.0878
 5272SOL    HW127275   3.631   0.434   5.056  1.1043 -0.7654 -1.1666
 5272SOL    HW227276   3.512   0.410   5.137 -0.2465 -2.5810  1.8392
 5273SOL     OW27277   2.475   3.128  11.930  0.3438  0.0788 -0.7270
 5273SOL    HW127278   2.415   3.202  11.927 -0.9553 -0.9889 -1.1809
 5273SOL    HW227279   2.555   3.164  11.968  1.4410 -0.2559 -2.6965
 5274SOL     OW27280   2.967   3.978   5.668  0.1314 -0.2432 -0.3252
 5274SOL    HW127281   3.038   4.038   5.647  0.5736 -0.5822  0.2050
 5274SOL    HW227282   3.012   3.901   5.702  0.9952  0.6306  0.5267
 5275SOL     OW27283   3.904   0.248   6.409  0.2499  0.2112  0.0082
 5275SOL    HW127284   3.958   0.256   6.330  0.5160  3.2350  0.5125
 5275SOL    HW227285   3.888   0.340   6.429  1.6062  0.8366 -1.7302
 5276SOL     OW27286   1.630   3.223  17.045  0.0744  0.7217  0.1412
 5276SOL    HW127287   1.563   3.168  17.003  1.0705 -0.2140 -0.2182
 5276SOL    HW227288   1.695   3.236  16.976 -0.4414  2.2195 -0.0693
 5277SOL     OW27289   2.786   1.302  10.581 -0.5261 -0.0105  0.1380
 5277SOL    HW127290   2.711   1.248  10.555  0.2134 -2.2152  2.6423
 5277SOL    HW227291   2.754   1.336  10.664  0.2866  3.3883 -0.9190
 5278SOL     OW27292   4.723   0.432   9.448 -0.2243 -0.3796  0.4718
 5278SOL    HW127293   0.022   0.522   9.472  1.3068 -0.7527  0.4254
 5278SOL    HW227294   4.648   0.450   9.392 -0.8009 -2.1102  0.7156
 5279SOL     OW27295   3.157   1.114  16.674 -0.0337 -0.0356 -0.3461
 5279SOL    HW127296   3.237   1.141  16.720 -1.9785 -1.9896  4.2780
 5279SOL    HW227297   3.142   1.189  16.618 -1.1500 -0.7808 -1.0386
 5280SOL     OW27298   3.510   1.023   5.229 -0.1585  0.4423 -0.3404
 5280SOL    HW127299   3.466   0.957   5.176 -0.8392  1.9692 -1.7044
 5280SOL    HW227300   3.463   1.019   5.312  1.5774  2.6691  0.7546
 5281SOL     OW27301   2.711   0.431  10.851  0.3212 -0.1888 -0.4333
 5281SOL    HW127302   2.733   0.345  10.814 -0.0743 -0.3873 -0.1978
 5281SOL    HW227303   2.621   0.443  10.821 -0.4626 -1.0569  1.6286
 5282SOL     OW27304   4.049   2.121   3.251 -0.8898  0.5486  0.3510
 5282SOL    HW127305   4.085   2.165   3.328  1.7055  0.7910 -1.0195
 5282SOL    HW227306   3.957   2.129   3.279 -0.7008 -0.0484  1.1386
 5283SOL     OW27307   0.786   0.976  14.531  0.2852  0.2169  0.7698
 5283SOL    HW127308   0.791   0.881  14.523 -2.6710 -0.0587  2.0958
 5283SOL    HW227309   0.781   0.990  14.625  2.0628  0.1314  0.8789
 5284SOL     OW27310   0.268   0.927   9.148 -0.7523 -0.2386 -0.6306
 5284SOL    HW127311   0.315   0.867   9.206  0.6936  0.3951 -1.1453
 5284SOL    HW227312   0.230   0.989   9.210  0.0570 -1.0067  0.6370
 5285SOL     OW27313   1.294   2.851   5.822  0.1940 -0.2549  0.4972
 5285SOL    HW127314   1.247   2.802   5.754 -1.1988  1.1527  0.4414
 5285SOL    HW227315   1.234   2.824   5.892  0.3777  1.2323  1.2387
 5286SOL     OW27316   4.177   1.128   4.434  0.0487 -0.0411 -0.0938
 5286SOL    HW127317   4.164   1.070   4.509  1.9669  2.7321  2.3942
 5286SOL    HW227318   4.101   1.113   4.378  1.6286  0.9089 -2.5006
 5287SOL     OW27319   3.245   3.993   4.337 -0.2285 -0.3020  0.3947
 5287SOL    HW127320   3.181   3.931   4.374 -0.0186 -1.7695 -1.7311
 5287SOL    HW227321   3.279   4.031   4.418  0.3989 -0.0193 -0.0029
 5288SOL     OW27322   2.270   4.076   2.309 -0.2760 -0.1092 -0.8320
 5288SOL    HW127323   2.227   4.161   2.300 -2.5692 -1.2141 -0.4089
 5288SOL    HW227324   2.334   4.100   2.377 -2.0655  0.7508  0.5443
 5289SOL     OW27325   4.008   3.968  10.143 -0.0117 -0.3488  0.0185
 5289SOL    HW127326   3.914   3.981  10.137  0.1502  0.2812 -1.1705
 5289SOL    HW227327   4.022   4.003  10.231  2.3298 -1.0482 -0.0560
 5290SOL     OW27328   1.211   0.812   9.512  0.4237 -0.1310  0.4777
 5290SOL    HW127329   1.126   0.855   9.515  0.7096  0.3819  1.2795
 5290SOL    HW227330   1.240   0.841   9.598 -2.0296 -0.3777  1.3896
 5291SOL     OW27331   3.253   0.505   7.050 -0.2284 -0.4911  0.3166
 5291SOL    HW127332   3.248   0.426   6.996  1.3308  0.3909 -1.1474
 5291SOL    HW227333   3.316   0.475   7.115 -1.3149 -0.3058  1.4558
 5292SOL     OW27334   4.376   2.244   7.012 -0.1753 -0.0258 -0.0505
 5292SOL    HW127335   4.430   2.321   7.029  1.0747 -0.8817 -0.2294
 5292SOL    HW227336   4.424   2.209   6.938  0.7153  2.6837 -0.7646
 5293SOL     OW27337   3.954   4.010  10.403 -0.0871 -0.0713  0.1144
 5293SOL    HW127338   4.041   3.974  10.421  1.0051  1.1903 -2.6001
 5293SOL    HW227339   3.910   4.011  10.488 -0.8682 -0.1611 -0.2929
 5294SOL     OW27340   2.843   1.532   4.583  0.2012  0.5029 -0.5444
 5294SOL    HW127341   2.862   1.532   4.677  1.2116 -1.2422 -0.7393
 5294SOL    HW227342   2.778   1.602   4.583  0.1337  0.4370  0.5886
 5295SOL     OW27343   3.585   0.551   6.388  0.3350  0.0821  0.0197
 5295SOL    HW127344   3.505   0.536   6.438  0.3363 -1.5727 -0.4905
 5295SOL    HW227345   3.620   0.464   6.369 -0.3468 -0.1841 -0.0197
 5296SOL     OW27346   2.995   1.928   1.544  0.0363  0.2854 -0.5010
 5296SOL    HW127347   3.057   1.920   1.471 -0.3076 -0.0105 -0.7636
 5296SOL    HW227348   2.961   2.014   1.519 -0.1959  1.1004  2.5753
 5297SOL     OW27349   3.762   4.058  10.626 -0.1310 -0.0022  0.2460
 5297SOL    HW127350   3.708   3.999  10.679 -0.0535 -0.2495  0.0486
 5297SOL    HW227351   3.776   4.121  10.697  0.0140  1.8972 -1.4507
 5298SOL     OW27352   1.685   2.617  14.218 -0.3505  0.0669  0.3673
 5298SOL    HW127353   1.662   2.624  14.126 -1.1778 -2.2745  0.4029
 5298SOL    HW227354   1.692   2.522  14.223 -2.2478 -0.1355 -0.8584
 5299SOL     OW27355   1.917   1.376  11.544  0.2855 -0.4032  0.0666
 5299SOL    HW127356   1.821   1.376  11.542  0.3437  0.4825 -3.1926
 5299SOL    HW227357   1.938   1.291  11.506 -0.0343 -0.5228  0.1599
 5300SOL     OW27358   1.458   1.364  10.158 -0.1966  0.2466  0.7403
 5300SOL    HW127359   1.499   1.302  10.219  1.6171 -0.4653 -1.1657
 5300SOL    HW227360   1.426   1.436  10.211  0.2603  2.7087 -2.3046
 5301SOL     OW27361   1.725   1.328   7.202 -0.2613 -0.1428  0.6306
 5301SOL    HW127362   1.688   1.305   7.117 -0.0436  1.6792  0.0438
 5301SOL    HW227363   1.643   1.343   7.250 -0.8267 -0.8324 -0.1211
 5302SOL     OW27364   3.958   3.443   5.618  0.0542 -0.0275 -1.0210
 5302SOL    HW127365   3.900   3.496   5.673 -0.4875 -2.1474  0.4610
 5302SOL    HW227366   4.035   3.429   5.672  0.0153 -1.4050 -1.3187
 5303SOL     OW27367   2.496   3.247   2.711 -0.0765 -0.0195 -0.4260
 5303SOL    HW127368   2.458   3.223   2.627  0.4335  0.0763 -0.6874
 5303SOL    HW227369   2.466   3.170   2.759  0.9600 -0.1226  0.0610
 5304SOL     OW27370   3.852   2.349   5.988  0.4312 -0.0700 -0.2581
 5304SOL    HW127371   3.841   2.262   6.028  0.0498  0.9341  1.8521
 5304SOL    HW227372   3.809   2.406   6.052 -1.4558 -0.5381 -1.1362
 5305SOL     OW27373   0.911   0.479   8.549  0.4006  0.2879  0.5110
 5305SOL    HW127374   0.923   0.556   8.605 -0.6649  2.4732 -2.2823
 5305SOL    HW227375   0.930   0.407   8.609 -0.1477 -1.9485 -2.0354
 5306SOL     OW27376   0.210   0.531  12.867  0.0695  0.0319 -0.0008
 5306SOL    HW127377   0.116   0.528  12.848 -0.2552 -0.8478  1.8085
 5306SOL    HW227378   0.197   0.539  12.961 -0.8935  1.6863 -0.2665
 5307SOL     OW27379   0.542   1.280   7.591  0.0644 -1.0729 -0.2703
 5307SOL    HW127380   0.493   1.362   7.583 -0.7365 -1.4575  0.7201
 5307SOL    HW227381   0.555   1.270   7.685  2.5171 -2.0160 -0.7097
 5308SOL     OW27382   1.236   1.441   7.160  0.2632 -0.5461  0.0267
 5308SOL    HW127383   1.322   1.421   7.196 -0.4756 -2.1390  0.9378
 5308SOL    HW227384   1.238   1.537   7.165  2.1443 -0.5944  0.0329
 5309SOL     OW27385   4.533   3.505   7.300 -0.0998  0.3392  0.0111
 5309SOL    HW127386   4.623   3.472   7.296  0.1214  1.0180 -0.6144
 5309SOL    HW227387   4.493   3.469   7.221 -0.6640 -1.8279  1.2775
 5310SOL     OW27388   1.242   0.301   3.882 -0.3872  0.1287  0.8258
 5310SOL    HW127389   1.203   0.383   3.851  1.3081 -0.1103 -1.8889
 5310SOL    HW227390   1.316   0.299   3.821 -0.5919  2.3759  0.5100
 5311SOL     OW27391   3.542   4.365   6.369  0.9508 -0.3932  0.0891
 5311SOL    HW127392   3.451   4.338   6.372  0.9734 -0.1983  2.0348
 5311SOL    HW227393   3.582   4.294   6.317 -1.8965 -1.8511 -0.0766
 5312SOL     OW27394   0.625   2.682  11.151 -0.3143 -0.4181 -0.1227
 5312SOL    HW127395   0.672   2.741  11.210  1.0255 -3.4405  1.8136
 5312SOL    HW227396   0.558   2.639  11.204  0.6601 -3.0201 -1.0255
 5313SOL     OW27397   2.618   0.335   3.146  0.4473  0.2793 -0.4757
 5313SOL    HW127398   2.633   0.405   3.082 -0.4379  1.7063  0.8712
 5313SOL    HW227399   2.697   0.286   3.121 -0.3125  0.3282 -3.0189
 5314SOL     OW27400   3.560   1.970   1.290  0.0169  0.0011  0.1445
 5314SOL    HW127401   3.551   1.947   1.197  1.1340 -1.0728  0.2967
 5314SOL    HW227402   3.473   1.942   1.316 -0.3968  0.4733 -0.7404
 5315SOL     OW27403   2.160   2.136   3.759  0.2838  0.2717  0.1010
 5315SOL    HW127404   2.071   2.116   3.789 -0.6545  1.4710 -1.8914
 5315SOL    HW227405   2.198   2.167   3.841 -0.0124 -1.2186  0.7937
 5316SOL     OW27406   4.594   3.595   4.084 -0.1746 -0.1381  0.0344
 5316SOL    HW127407   4.636   3.646   4.153  0.5715 -2.7856  1.5445
 5316SOL    HW227408   4.667   3.534   4.077  1.1416  1.4068  0.3120
 5317SOL     OW27409   1.667   2.474  14.882  0.4463  0.3297 -0.4242
 5317SOL    HW127410   1.704   2.545  14.831 -1.1888  3.1844  2.3222
 5317SOL    HW227411   1.573   2.493  14.882  0.3586 -0.0961 -0.3049
 5318SOL     OW27412   2.132   2.115   1.162  0.6294 -0.2409 -0.4339
 5318SOL    HW127413   2.098   2.070   1.084 -2.5480  0.7558  0.3930
 5318SOL    HW227414   2.067   2.185   1.167  1.2466  0.4587 -1.7629
 5319SOL     OW27415   3.701   2.913   3.253 -0.4138  0.5063  0.0650
 5319SOL    HW127416   3.782   2.921   3.203 -0.0923  0.7066  0.6261
 5319SOL    HW227417   3.734   2.942   3.337 -0.9780 -0.9993  0.8118
 5320SOL     OW27418   1.011   2.755  16.132  0.1778  0.4592 -0.3188
 5320SOL    HW127419   0.964   2.780  16.212  2.3256 -0.1908  1.1353
 5320SOL    HW227420   1.082   2.819  16.132  0.3035  0.3258 -1.6304
 5321SOL     OW27421   1.189   4.626   9.326 -0.4618  0.2576  0.3652
 5321SOL    HW127422   1.169   4.711   9.365  0.8390  1.4989 -1.6644
 5321SOL    HW227423   1.276   4.612   9.363  0.3893 -0.8643 -2.0736
 5322SOL     OW27424   3.842   1.387  16.890 -0.3279  0.3695 -0.2334
 5322SOL    HW127425   3.749   1.366  16.886  0.5270 -3.6097  0.9009
 5322SOL    HW227426   3.840   1.464  16.946 -0.0524 -0.3441  0.7489
 5323SOL     OW27427   2.368   1.210   3.213  0.1957 -0.4812  0.5805
 5323SOL    HW127428   2.392   1.122   3.183  1.5228  1.0107 -2.6899
 5323SOL    HW227429   2.300   1.225   3.148  1.3385 -1.3728 -0.8340
 5324SOL     OW27430   0.604   0.313   8.239  0.2885  0.7516 -0.2654
 5324SOL    HW127431   0.543   0.239   8.235  3.3882 -1.7768 -1.0032
 5324SOL    HW227432   0.590   0.345   8.150  1.8528  0.4536 -0.6236
 5325SOL     OW27433   1.905   0.578   5.632  0.7919 -0.2407  0.2196
 5325SOL    HW127434   1.890   0.561   5.539 -0.2632 -0.6230  0.4631
 5325SOL    HW227435   1.913   0.673   5.629  0.4172 -0.2414 -0.8825
 5326SOL     OW27436   4.036   2.912   0.763 -0.2386 -0.2587 -0.7226
 5326SOL    HW127437   3.997   2.937   0.847 -0.0745 -0.8864 -0.4626
 5326SOL    HW227438   4.082   2.995   0.753 -1.3685  0.4790  0.0985
 5327SOL     OW27439   1.720   4.048  17.497  0.0165  0.0380 -0.7109
 5327SOL    HW127440   1.702   3.983  17.565  1.3829  0.0583 -0.3242
 5327SOL    HW227441   1.681   4.006  17.420  1.5032  0.6870 -1.8109
 5328SOL     OW27442   4.432   0.859   7.103 -0.2574 -0.6219  0.5979
 5328SOL    HW127443   4.384   0.780   7.130 -1.6745 -0.3224 -1.0551
 5328SOL    HW227444   4.373   0.885   7.032  2.6587 -0.2505 -1.7043
 5329SOL     OW27445   4.196   0.269   9.122 -0.2872 -0.5339  0.0277
 5329SOL    HW127446   4.190   0.219   9.040 -0.6915 -0.3528 -0.0552
 5329SOL    HW227447   4.292   0.271   9.122 -0.2700 -1.4184 -0.3735
 5330SOL     OW27448   3.920   1.516   8.277 -0.2148  0.2609  0.7359
 5330SOL    HW127449   3.976   1.498   8.353 -0.0306  1.1283  0.7954
 5330SOL    HW227450   3.837   1.507   8.324 -0.3156 -2.6221  0.0295
 5331SOL     OW27451   2.914   4.110   9.267 -0.3851 -0.6481  0.3100
 5331SOL    HW127452   2.839   4.071   9.222 -0.5561  1.7097 -1.4187
 5331SOL    HW227453   2.940   4.043   9.331 -0.4111 -0.4066  0.5720
 5332SOL     OW27454   3.181   4.030   7.309  0.5549  0.5237 -0.7141
 5332SOL    HW127455   3.109   3.969   7.323  0.7866  0.6085  0.8321
 5332SOL    HW227456   3.170   4.082   7.389  1.5156 -2.1527  1.1760
 5333SOL     OW27457   2.680   4.650   1.488  0.1552  0.0497  0.0597
 5333SOL    HW127458   2.617   4.577   1.494  1.1530 -1.0998 -3.1494
 5333SOL    HW227459   2.682   4.689   1.575  1.7969  0.3959 -0.1364
 5334SOL     OW27460   4.366   3.749   8.339  0.2150  0.0601 -0.1342
 5334SOL    HW127461   4.372   3.702   8.422  0.1528 -2.0448 -1.3145
 5334SOL    HW227462   4.456   3.773   8.317 -0.6151  1.0518 -2.5106
 5335SOL     OW27463   3.680   0.772   1.656 -0.3090  0.8278  0.0547
 5335SOL    HW127464   3.615   0.837   1.629 -0.3855  0.5191 -0.5157
 5335SOL    HW227465   3.753   0.826   1.684  0.3572  0.0675 -0.2007
 5336SOL     OW27466   2.168   2.130  16.526 -0.3727 -0.1293  0.6969
 5336SOL    HW127467   2.094   2.188  16.510 -0.3005 -0.8019 -2.0928
 5336SOL    HW227468   2.129   2.043  16.512 -0.3875  0.1884 -1.2268
 5337SOL     OW27469   2.372   2.117   6.341 -0.2817  0.0086  0.0624
 5337SOL    HW127470   2.319   2.180   6.389 -1.4831 -2.1174  1.4900
 5337SOL    HW227471   2.395   2.172   6.266 -0.3614  0.3027  0.2541
 5338SOL     OW27472   3.774   3.366   9.048 -0.6581  0.0033 -0.5947
 5338SOL    HW127473   3.799   3.273   9.050  1.4257  0.5656 -0.7057
 5338SOL    HW227474   3.684   3.351   9.075 -0.1964  0.0997  1.0058
 5339SOL     OW27475   1.844   3.063   5.046  0.3676 -0.3388 -0.5307
 5339SOL    HW127476   1.765   3.108   5.015 -1.1224 -1.9075  0.9637
 5339SOL    HW227477   1.912   3.127   5.029  0.6204 -0.4088  0.2309
 5340SOL     OW27478   3.119   4.549   4.554 -0.1169  0.1651  0.0757
 5340SOL    HW127479   3.152   4.624   4.504  1.1868  0.8873  1.9673
 5340SOL    HW227480   3.193   4.542   4.615 -1.4212 -0.1037  1.6212
 5341SOL     OW27481   2.731   1.288  11.897  0.0524  0.2244 -0.2654
 5341SOL    HW127482   2.748   1.327  11.811  0.7928  2.1879  0.7520
 5341SOL    HW227483   2.677   1.358  11.933  0.2063  0.1935  0.0230
 5342SOL     OW27484   4.054   3.937   6.296  0.6598 -0.2670 -0.0062
 5342SOL    HW127485   4.134   3.919   6.345  1.4166 -2.2413 -1.9650
 5342SOL    HW227486   3.987   3.949   6.363  0.2088 -1.0156 -0.3240
 5343SOL     OW27487   2.777   1.321   2.579 -0.1837 -0.4315  0.1868
 5343SOL    HW127488   2.700   1.265   2.575 -0.4580  0.0426 -1.3005
 5343SOL    HW227489   2.745   1.411   2.572 -2.8718 -1.5582 -2.1086
 5344SOL     OW27490   2.413   0.392  10.087  0.5908 -0.3952  0.5994
 5344SOL    HW127491   2.498   0.425  10.057  0.3041 -0.6635 -0.5209
 5344SOL    HW227492   2.450   0.314  10.127  0.8238 -1.3430 -1.4913
 5345SOL     OW27493   4.225   1.965   6.338 -0.4843  0.0707 -0.1855
 5345SOL    HW127494   4.220   1.938   6.246 -1.8317  0.3973 -0.2128
 5345SOL    HW227495   4.140   2.008   6.349 -1.0928 -1.9849  3.0749
 5346SOL     OW27496   4.180   4.238   7.582  0.0377  0.3404 -0.0173
 5346SOL    HW127497   4.147   4.224   7.671  0.4802  2.3513  0.4567
 5346SOL    HW227498   4.237   4.314   7.592  0.8461 -0.0024 -2.0074
 5347SOL     OW27499   0.733   1.235   4.633 -0.0522  0.1060  0.2295
 5347SOL    HW127500   0.777   1.223   4.717  0.3121 -2.5810 -0.3371
 5347SOL    HW227501   0.700   1.325   4.633 -1.0481 -0.2565 -0.4608
 5348SOL     OW27502   3.170   3.885  16.397  0.0778  0.0086 -0.5084
 5348SOL    HW127503   3.151   3.954  16.461 -3.8683 -1.4132 -0.1097
 5348SOL    HW227504   3.101   3.883  16.330 -1.7115 -2.4780  1.3889
 5349SOL     OW27505   1.040   4.456  11.608  0.3471  0.3497  0.2997
 5349SOL    HW127506   1.122   4.449  11.559 -1.0100 -2.1201 -1.6056
 5349SOL    HW227507   0.969   4.462  11.544 -1.0817 -0.0499  1.8621
 5350SOL     OW27508   3.631   3.634   6.041 -0.7471  0.1911 -0.0413
 5350SOL    HW127509   3.553   3.579   6.027  0.7602 -2.2882  1.2571
 5350SOL    HW227510   3.636   3.635   6.137  1.4975 -1.4534 -0.1471
 5351SOL     OW27511   0.751   4.549  15.038  0.5655 -0.1930 -0.2262
 5351SOL    HW127512   0.837   4.567  15.001 -0.3330 -1.5256 -2.8877
 5351SOL    HW227513   0.743   4.458  15.009 -1.5845  0.3205 -1.2399
 5352SOL     OW27514   1.846   4.003   7.897  0.0781 -0.1738 -0.3270
 5352SOL    HW127515   1.881   4.089   7.921  1.6147 -1.5979  2.4471
 5352SOL    HW227516   1.794   3.998   7.976 -0.4177  2.7360 -0.4827
 5353SOL     OW27517   0.370   4.374  14.789  0.1960 -0.7043 -0.2201
 5353SOL    HW127518   0.336   4.299  14.740 -0.3447 -1.4578  1.2748
 5353SOL    HW227519   0.291   4.415  14.825  1.0473  1.4470 -0.8344
 5354SOL     OW27520   1.710   2.335   9.869  0.0561  0.5099 -0.0042
 5354SOL    HW127521   1.685   2.243   9.863 -0.4242  0.7625 -1.8351
 5354SOL    HW227522   1.688   2.365   9.781  2.3999 -1.2844 -1.1808
 5355SOL     OW27523   0.262   1.427  11.259  0.2451  0.4806  0.0568
 5355SOL    HW127524   0.297   1.449  11.345 -2.3738  1.9296  0.7198
 5355SOL    HW227525   0.262   1.331  11.266 -0.4661  0.5177  0.4413
 5356SOL     OW27526   2.642   3.216  17.460 -0.1552  0.2008  0.5206
 5356SOL    HW127527   2.641   3.243  17.552  1.4250  2.4176 -0.1089
 5356SOL    HW227528   2.556   3.237  17.424  0.9212 -0.8049 -2.5862
 5357SOL     OW27529   3.868   4.189  11.892  0.1118 -0.1354  0.0171
 5357SOL    HW127530   3.896   4.273  11.930  2.1463 -0.2522 -1.2086
 5357SOL    HW227531   3.862   4.135  11.971  2.9567  0.4282  0.6424
 5358SOL     OW27532   2.888   3.801   1.155  0.1962 -0.2859  0.2822
 5358SOL    HW127533   2.936   3.830   1.078 -2.7409 -0.5039 -1.6522
 5358SOL    HW227534   2.915   3.709   1.161  3.4140  0.5629 -1.5110
 5359SOL     OW27535   2.753   4.614   2.087 -0.5017 -0.4566  0.1429
 5359SOL    HW127536   2.688   4.656   2.031  0.0487 -0.9191 -0.8344
 5359SOL    HW227537   2.766   4.533   2.038  0.2012  0.4067 -1.0937
 5360SOL     OW27538   2.527   4.681  16.580  0.3852 -0.6903  0.1375
 5360SOL    HW127539   2.530   4.587  16.599  0.7101 -0.6441  0.3097
 5360SOL    HW227540   2.539   4.691  16.485 -3.0495  2.4349  0.0321
 5361SOL     OW27541   1.401   1.968   1.482  0.3826 -0.3771 -0.3981
 5361SOL    HW127542   1.472   1.907   1.463  1.7415  1.3581 -0.9298
 5361SOL    HW227543   1.387   2.017   1.401 -2.9329  0.4620  0.6833
 5362SOL     OW27544   3.310   4.627  17.660  0.1549 -0.0945  0.4712
 5362SOL    HW127545   3.352   4.653  17.578  2.4633 -1.5363  1.2108
 5362SOL    HW227546   3.218   4.643  17.642  0.6436  0.2869 -1.7141
 5363SOL     OW27547   0.009   0.136   4.059 -0.0092 -0.5253  0.0703
 5363SOL    HW127548   0.038   0.066   4.117  0.0077 -1.4650 -1.0788
 5363SOL    HW227549   0.085   0.170   4.012 -1.0000  0.1294 -1.0710
 5364SOL     OW27550   4.317   2.099   0.312  0.0070 -0.8248  0.0585
 5364SOL    HW127551   4.357   2.091   0.399  0.2335 -1.1403 -0.0744
 5364SOL    HW227552   4.396   2.087   0.260  0.0882  0.4198 -0.0985
 5365SOL     OW27553   2.499   0.951   5.455 -0.2376  0.1789 -0.4171
 5365SOL    HW127554   2.567   0.930   5.392 -1.4328 -0.2016 -1.5648
 5365SOL    HW227555   2.446   0.872   5.453 -0.6858  0.4304  1.4727
 5366SOL     OW27556   0.778   4.592   0.513  0.5439  0.3634 -0.0310
 5366SOL    HW127557   0.854   4.540   0.538 -0.2241 -0.9686 -0.4594
 5366SOL    HW227558   0.732   4.610   0.595 -2.1042  0.8140 -1.6121
 5367SOL     OW27559   4.598   2.213   9.142  0.0725 -0.7206 -0.0807
 5367SOL    HW127560   4.626   2.125   9.167 -0.7954 -1.5652 -2.0725
 5367SOL    HW227561   4.630   2.251   9.224 -0.7756 -0.4147  0.1084
 5368SOL     OW27562   3.025   0.485  14.459  0.0416 -0.4316  0.0526
 5368SOL    HW127563   3.121   0.490  14.457  0.1771 -3.1915 -1.4310
 5368SOL    HW227564   3.007   0.464  14.550  0.3585 -0.1340  0.1826
 5369SOL     OW27565   0.438   3.964   9.148 -0.3939  0.2726 -0.1140
 5369SOL    HW127566   0.503   3.894   9.153 -0.9216 -0.2138 -0.0979
 5369SOL    HW227567   0.486   4.045   9.132 -2.2496  1.5952  1.0077
 5370SOL     OW27568   3.279   0.713  14.571 -0.4242  0.1050  0.3735
 5370SOL    HW127569   3.239   0.683  14.488 -0.8188 -2.1660  1.3751
 5370SOL    HW227570   3.356   0.657  14.574 -0.5127 -0.1087 -1.3001
 5371SOL     OW27571   0.734   2.197   4.799  0.1713  0.1349  0.0200
 5371SOL    HW127572   0.667   2.211   4.865 -0.0205 -1.5222  0.1678
 5371SOL    HW227573   0.694   2.234   4.720  0.1055 -1.0354 -0.4989
 5372SOL     OW27574   3.196   4.698   7.226 -0.2979  0.4372 -0.2980
 5372SOL    HW127575   3.283   4.701   7.266  0.7133 -1.2321 -2.3790
 5372SOL    HW227576   3.211   4.676   7.134 -0.5879 -2.0591  0.2378
 5373SOL     OW27577   2.554   1.956  12.641 -0.6875  0.0261  0.3215
 5373SOL    HW127578   2.486   1.966  12.708  0.0068 -4.2772  1.6744
 5373SOL    HW227579   2.553   1.861  12.632 -0.4005 -0.0169  0.7513
 5374SOL     OW27580   2.849   4.520   6.474  0.6307 -0.4448 -0.1314
 5374SOL    HW127581   2.895   4.560   6.548 -1.7220 -0.0886  1.1366
 5374SOL    HW227582   2.893   4.435   6.475  1.3561 -0.0654 -0.1615
 5375SOL     OW27583   1.993   4.308   3.485 -0.3729  0.5989  0.1862
 5375SOL    HW127584   2.059   4.374   3.463 -1.3581  0.9338 -1.7589
 5375SOL    HW227585   1.957   4.340   3.568  0.0592 -0.6183  0.8446
 5376SOL     OW27586   0.445   2.628   6.456 -0.0932  0.2690 -0.1924
 5376SOL    HW127587   0.478   2.665   6.538 -1.8052  3.2609 -0.8757
 5376SOL    HW227588   0.440   2.534   6.471  2.9378  0.2219  0.4709
 5377SOL     OW27589   1.373   0.212   7.724 -0.4930 -0.2698  0.9067
 5377SOL    HW127590   1.362   0.131   7.773 -1.1408  0.5029  2.0378
 5377SOL    HW227591   1.389   0.181   7.635 -1.4764  3.1525 -0.4654
 5378SOL     OW27592   4.222   1.275  15.994  0.2560 -0.1255  0.2068
 5378SOL    HW127593   4.166   1.300  15.920 -1.3683 -1.4106  1.0051
 5378SOL    HW227594   4.217   1.180  16.000  2.8712 -0.1402  1.9771
 5379SOL     OW27595   0.240   3.532  14.218 -0.0973  0.2921  0.3546
 5379SOL    HW127596   0.275   3.606  14.169  0.6446 -0.2472  0.0583
 5379SOL    HW227597   0.154   3.514  14.182  0.2935 -0.8347 -0.0270
 5380SOL     OW27598   0.138   0.315  16.703 -0.7132 -0.4368  0.1718
 5380SOL    HW127599   0.087   0.240  16.673 -1.3254 -0.0166  0.1681
 5380SOL    HW227600   0.185   0.282  16.780  1.9660  2.8812 -0.0700
 5381SOL     OW27601   1.647   4.640   5.091 -0.1180  0.3711  0.2023
 5381SOL    HW127602   1.654   4.559   5.141  1.5190  0.1530 -0.3900
 5381SOL    HW227603   1.741   4.652   5.079 -0.1388  1.1118  0.7523
 5382SOL     OW27604   1.307   4.049   4.644 -0.1907 -0.0050  0.2879
 5382SOL    HW127605   1.343   3.976   4.595 -1.9661  1.5404 -3.3072
 5382SOL    HW227606   1.374   4.116   4.630  0.9445 -0.3484  3.9755
 5383SOL     OW27607   2.062   3.927   4.601 -0.8169  0.1312 -0.2725
 5383SOL    HW127608   2.083   3.896   4.689 -0.4806 -0.3845 -0.5408
 5383SOL    HW227609   2.026   4.014   4.621 -0.0790  0.2775  0.4150
 5384SOL     OW27610   3.667   3.614   1.589  0.0873 -0.9636 -0.0525
 5384SOL    HW127611   3.678   3.658   1.673 -1.1053 -1.2310  0.2350
 5384SOL    HW227612   3.597   3.664   1.547  1.5394  1.1245  0.0052
 5385SOL     OW27613   3.096   1.572   9.956  0.2036  0.3171 -0.2586
 5385SOL    HW127614   3.021   1.614   9.914 -1.6157 -3.2519 -0.5049
 5385SOL    HW227615   3.103   1.614  10.042  1.2269 -2.5204  1.0393
 5386SOL     OW27616   1.879   3.666   7.005 -0.1964 -0.6880 -0.0613
 5386SOL    HW127617   1.800   3.631   7.046 -2.1873  2.3374 -1.3009
 5386SOL    HW227618   1.844   3.665   6.916  1.6077  3.9572 -0.8364
 5387SOL     OW27619   2.611   4.578   2.608 -0.6864 -0.1774  0.3836
 5387SOL    HW127620   2.555   4.621   2.673 -0.5748  0.3555  0.1298
 5387SOL    HW227621   2.695   4.621   2.623  0.1437 -1.7637  0.2911
 5388SOL     OW27622   2.818   3.555  10.141  0.1072  0.4507  0.0550
 5388SOL    HW127623   2.734   3.520  10.114  0.5160  0.1770 -0.8817
 5388SOL    HW227624   2.876   3.483  10.115 -0.1637  0.1343  0.3230
 5389SOL     OW27625   0.270   0.351  11.958 -0.1570  0.0550 -0.0485
 5389SOL    HW127626   0.206   0.302  12.010 -2.3639  2.4089 -0.5903
 5389SOL    HW227627   0.219   0.393  11.889 -0.3217  1.0883  0.7084
 5390SOL     OW27628   1.071   2.717   0.977 -0.2171  0.0018 -0.1061
 5390SOL    HW127629   1.143   2.705   1.038  0.6976 -1.6716 -1.5123
 5390SOL    HW227630   1.040   2.807   0.989 -0.1365 -0.0328  0.3537
 5391SOL     OW27631   2.724   0.657   7.043 -0.0845  0.5736  0.0755
 5391SOL    HW127632   2.678   0.709   7.109  0.1035  0.8995 -0.0465
 5391SOL    HW227633   2.755   0.585   7.098  0.4633  0.1750 -0.7678
 5392SOL     OW27634   4.606   1.203  17.380 -0.4169 -0.4296 -0.3208
 5392SOL    HW127635   4.533   1.250  17.341  0.8254  0.2358 -1.8629
 5392SOL    HW227636   4.635   1.259  17.452 -2.1514 -0.8115  0.6748
 5393SOL     OW27637   1.209   1.955   2.973 -0.4591  0.2943  0.2598
 5393SOL    HW127638   1.244   1.876   2.930  0.0756  1.5867 -1.6915
 5393SOL    HW227639   1.259   1.956   3.055 -0.4448 -1.0698  0.2618
 5394SOL     OW27640   4.182   3.434  10.480 -0.2622  0.1238  0.6546
 5394SOL    HW127641   4.100   3.411  10.524 -0.6632 -0.6515 -0.5225
 5394SOL    HW227642   4.159   3.518  10.440 -2.1412 -0.9110 -0.4109
 5395SOL     OW27643   1.815   2.046  15.570  0.2563 -0.0551 -0.3404
 5395SOL    HW127644   1.746   2.065  15.506 -1.6958  1.0735  2.0955
 5395SOL    HW227645   1.894   2.083  15.531  0.6222 -0.0376  0.4335
 5396SOL     OW27646   3.440   0.491   8.166 -0.3684  0.6595  0.1091
 5396SOL    HW127647   3.434   0.396   8.177 -2.8309  0.6101 -1.7932
 5396SOL    HW227648   3.534   0.499   8.186 -0.7341  1.9405  1.3026
 5397SOL     OW27649   2.591   2.443   6.028 -0.1067 -0.5124  0.0629
 5397SOL    HW127650   2.617   2.382   5.959  0.5841 -0.9650  0.7172
 5397SOL    HW227651   2.638   2.524   6.006 -1.5029  0.8319  1.9524
 5398SOL     OW27652   0.253   2.053   8.578  0.3898 -0.1850  0.0002
 5398SOL    HW127653   0.275   2.127   8.634 -1.1295  0.6655 -0.5402
 5398SOL    HW227654   0.162   2.064   8.551 -0.3980  0.5303  2.9276
 5399SOL     OW27655   4.448   1.672   5.272  1.0364 -0.4172 -0.2392
 5399SOL    HW127656   4.435   1.744   5.333 -0.6977  1.5926 -3.0081
 5399SOL    HW227657   4.403   1.699   5.192  0.4113  1.0031  0.5869
 5400SOL     OW27658   0.585   0.176   4.109 -0.1258 -0.5528  0.2771
 5400SOL    HW127659   0.636   0.115   4.056 -2.4109 -0.7861 -1.6577
 5400SOL    HW227660   0.579   0.251   4.050  0.6007 -1.4584 -0.9630
 5401SOL     OW27661   1.906   2.898   9.751 -0.1534 -0.5795 -0.4046
 5401SOL    HW127662   1.936   2.842   9.823 -0.5028 -1.1100 -0.6705
 5401SOL    HW227663   1.912   2.983   9.793 -0.2582 -1.1881  0.8501
 5402SOL     OW27664   1.741   4.390   1.902 -0.0387 -0.3827  0.3187
 5402SOL    HW127665   1.672   4.329   1.928 -0.1296 -0.7713 -0.8255
 5402SOL    HW227666   1.807   4.327   1.871  0.9723 -0.2792  2.3052
 5403SOL     OW27667   2.018   1.784   0.705 -0.2991  0.5046  0.2216
 5403SOL    HW127668   2.085   1.719   0.685  1.5251  2.6901 -0.6992
 5403SOL    HW227669   1.949   1.728   0.741 -0.3251  1.6309  1.9111
 5404SOL     OW27670   3.694   2.484  13.153  0.2610  0.2196  0.5303
 5404SOL    HW127671   3.607   2.446  13.145  0.8342 -0.7536 -1.2973
 5404SOL    HW227672   3.681   2.578  13.161  2.1450  0.4835  0.5085
 5405SOL     OW27673   3.586   3.258  13.262  0.3961  0.3014  0.0692
 5405SOL    HW127674   3.513   3.311  13.229 -1.1662 -1.8993 -0.0069
 5405SOL    HW227675   3.634   3.326  13.310  1.1602  0.2402 -0.6094
 5406SOL     OW27676   3.574   4.431   2.666 -0.5060 -0.4232  0.3995
 5406SOL    HW127677   3.495   4.434   2.611 -1.3400  0.5357  1.6650
 5406SOL    HW227678   3.611   4.347   2.638  0.2272 -0.3869  1.2556
 5407SOL     OW27679   0.510   2.867   7.684  0.4743 -0.3236 -0.1777
 5407SOL    HW127680   0.574   2.815   7.634  0.6216 -0.0374 -0.2843
 5407SOL    HW227681   0.573   2.887   7.753 -0.9751 -1.5717  1.5125
 5408SOL     OW27682   2.465   3.758  13.982  0.0101  0.1172  0.0594
 5408SOL    HW127683   2.550   3.802  13.976 -1.1897  2.2001 -1.5438
 5408SOL    HW227684   2.410   3.833  14.005  0.6022  0.1425  1.4349
 5409SOL     OW27685   4.233   2.740   8.453  0.6399 -0.2282  0.0509
 5409SOL    HW127686   4.282   2.739   8.371 -1.6928 -2.8737 -1.3441
 5409SOL    HW227687   4.296   2.771   8.518 -0.6359  2.9655 -0.2050
 5410SOL     OW27688   4.472   0.613   1.215  0.0815  0.3036 -0.1341
 5410SOL    HW127689   4.404   0.578   1.273  1.5234 -0.8759  0.8792
 5410SOL    HW227690   4.549   0.619   1.272  0.4455  0.9261 -0.6922
 5411SOL     OW27691   0.814   3.523   8.642 -0.0840 -0.3255 -0.0744
 5411SOL    HW127692   0.746   3.493   8.703  0.3970  0.6272  0.9196
 5411SOL    HW227693   0.858   3.586   8.699 -1.0335 -0.4626  0.8216
 5412SOL     OW27694   0.971   0.157   6.730  0.0498  0.9457 -0.2231
 5412SOL    HW127695   0.902   0.110   6.778 -0.4644  1.4629 -0.4604
 5412SOL    HW227696   0.918   0.207   6.669 -0.8491  0.1714 -0.0787
 5413SOL     OW27697   3.203   3.237   8.619  0.5774  0.3679 -0.3484
 5413SOL    HW127698   3.139   3.165   8.623  1.3847 -0.2223  1.8210
 5413SOL    HW227699   3.272   3.198   8.566  0.3710 -1.1484  0.5027
 5414SOL     OW27700   0.397   2.090   6.787 -0.5104  0.5864  0.0442
 5414SOL    HW127701   0.347   2.162   6.825 -1.5021  1.4754 -2.9520
 5414SOL    HW227702   0.438   2.053   6.865  0.9120  1.3307 -0.3443
 5415SOL     OW27703   2.393   0.824  12.628 -0.4364  0.0984  0.0431
 5415SOL    HW127704   2.338   0.863  12.695  1.6096  2.0457  0.5736
 5415SOL    HW227705   2.361   0.850  12.542 -1.3314 -0.5643  0.1806
 5416SOL     OW27706   2.356   3.820  11.912  0.9706  0.0505  0.1237
 5416SOL    HW127707   2.355   3.729  11.883  1.0864 -0.0601  0.4619
 5416SOL    HW227708   2.269   3.840  11.947  0.4709 -0.6452 -0.7435
 5417SOL     OW27709   1.250   3.567   8.860  0.5629 -0.0347 -0.0589
 5417SOL    HW127710   1.224   3.484   8.821 -0.4815  1.5615 -2.7934
 5417SOL    HW227711   1.324   3.592   8.805  0.3880  2.1386  0.6938
 5418SOL     OW27712   1.508   2.597   0.526  0.4795 -0.1338 -0.0603
 5418SOL    HW127713   1.569   2.527   0.504  1.6448 -0.6998  5.0981
 5418SOL    HW227714   1.523   2.661   0.456  1.8149  0.0955  0.4518
 5419SOL     OW27715   2.875   1.747  11.578  0.1941  0.3533 -0.3960
 5419SOL    HW127716   2.857   1.830  11.533 -1.7131 -0.0970 -0.4641
 5419SOL    HW227717   2.935   1.774  11.648 -0.0565 -0.6889  0.2190
 5420SOL     OW27718   3.759   2.530   4.036 -0.0216 -0.0917  0.0245
 5420SOL    HW127719   3.803   2.447   4.018  0.0670  0.0300 -0.3152
 5420SOL    HW227720   3.754   2.521   4.131  0.8070  2.7622  0.3196
 5421SOL     OW27721   3.993   2.540   3.383 -0.2788  0.7497  0.6476
 5421SOL    HW127722   3.988   2.620   3.330 -0.0516 -1.0064 -2.0140
 5421SOL    HW227723   3.962   2.567   3.469 -0.2649  1.4241  0.4490
 5422SOL     OW27724   3.877   4.251  10.246 -0.0861  0.3145  0.7497
 5422SOL    HW127725   3.881   4.197  10.325  0.3551 -0.4398  0.2133
 5422SOL    HW227726   3.923   4.195  10.184 -0.7926 -0.3672  0.8350
 5423SOL     OW27727   4.674   1.120   2.957  0.9126 -0.3659  0.3275
 5423SOL    HW127728   4.602   1.093   2.899  0.5833  1.4507 -0.1013
 5423SOL    HW227729   4.722   1.187   2.907  0.3632 -0.6541 -0.5967
 5424SOL     OW27730   1.784   3.304   9.268 -0.4319 -0.5011 -0.3973
 5424SOL    HW127731   1.859   3.345   9.310 -1.6800  0.1045  1.2567
 5424SOL    HW227732   1.759   3.368   9.202 -0.0752  0.2704  0.2226
 5425SOL     OW27733   1.460   1.567   9.822 -0.1529 -0.3413 -0.3063
 5425SOL    HW127734   1.369   1.544   9.841 -0.1723  0.1932  0.2822
 5425SOL    HW227735   1.474   1.649   9.870 -4.1966 -0.7916  1.6683
 5426SOL     OW27736   2.787   4.287   3.520  0.3763 -0.1356  0.3639
 5426SOL    HW127737   2.758   4.374   3.544  1.1693  0.0587  0.6249
 5426SOL    HW227738   2.877   4.284   3.553  0.1984 -0.5122  0.8228
 5427SOL     OW27739   0.625   4.045   4.432 -0.0470 -0.0252  0.2009
 5427SOL    HW127740   0.673   4.056   4.350  1.6525 -0.4921  1.1239
 5427SOL    HW227741   0.630   4.126   4.483 -0.1503 -0.5656  1.0785
 5428SOL     OW27742   1.315   0.914   7.456  0.0282  0.1941 -0.3052
 5428SOL    HW127743   1.337   0.824   7.479  1.9665  0.5782 -0.6475
 5428SOL    HW227744   1.281   0.900   7.368 -1.6689 -0.2075  0.4183
 5429SOL     OW27745   4.575   1.505   6.841  0.0680 -0.0289 -0.1852
 5429SOL    HW127746   4.577   1.540   6.930 -0.9928  0.2409 -0.2736
 5429SOL    HW227747   4.576   1.586   6.790  1.9945 -0.2954 -0.5925
 5430SOL     OW27748   2.160   1.248   5.284 -0.1927 -0.1285  0.1712
 5430SOL    HW127749   2.199   1.228   5.199 -1.0058  1.0506 -0.4791
 5430SOL    HW227750   2.070   1.265   5.257  0.3830  1.2552 -0.9055
 5431SOL     OW27751   3.628   1.303   0.009 -0.3124  0.0623  0.5078
 5431SOL    HW127752   3.706   1.354  17.684 -1.6385  1.7306 -0.3314
 5431SOL    HW227753   3.643   1.216  17.669  2.2378  1.3114 -1.4227
 5432SOL     OW27754   1.175   2.384   0.283 -0.3520  0.1369  0.3112
 5432SOL    HW127755   1.154   2.364   0.374  2.0628  0.5054  0.9643
 5432SOL    HW227756   1.090   2.391   0.240  0.0678  1.0043 -0.3702
 5433SOL     OW27757   1.105   3.292   7.694  0.0387 -0.4983 -0.0586
 5433SOL    HW127758   1.017   3.287   7.658  0.0283  2.1586 -0.4033
 5433SOL    HW227759   1.133   3.383   7.685 -3.1310  0.4349 -0.4839
 5434SOL     OW27760   1.893   3.904   3.538  0.1871 -0.2357 -0.4659
 5434SOL    HW127761   1.892   3.839   3.608  2.3533  1.9814  1.6293
 5434SOL    HW227762   1.964   3.964   3.563  1.0696 -0.6373 -2.0375
 5435SOL     OW27763   4.306   2.865   0.056  0.0974 -0.7639 -0.6955
 5435SOL    HW127764   4.218   2.871   0.019 -0.3131  0.6589  0.5300
 5435SOL    HW227765   4.306   2.930   0.127  0.1489 -4.1526  2.4097
 5436SOL     OW27766   3.590   2.208   5.829  0.4320 -0.0105 -0.4992
 5436SOL    HW127767   3.590   2.115   5.851  0.9828  0.5991  1.9895
 5436SOL    HW227768   3.534   2.248   5.895  2.9309  1.3602  0.8235
 5437SOL     OW27769   2.947   3.934  10.919 -0.0354  0.2688  0.4166
 5437SOL    HW127770   2.896   3.871  10.969  1.8695 -1.4816  0.1430
 5437SOL    HW227771   2.933   3.902  10.830  1.9386 -2.8813  1.2505
 5438SOL     OW27772   0.168   3.784  10.109 -0.1808  0.4357 -0.6655
 5438SOL    HW127773   0.122   3.704  10.131  2.3710 -0.2826  1.9733
 5438SOL    HW227774   0.139   3.780  10.018  0.3598 -2.1719 -0.7118
 5439SOL     OW27775   3.346   0.209   6.432 -0.3001 -0.2595  0.2323
 5439SOL    HW127776   3.346   0.155   6.511 -0.7933  0.5455  0.7793
 5439SOL    HW227777   3.305   0.146   6.373 -0.4359 -1.5819  1.7285
 5440SOL     OW27778   3.006   3.293   2.749  0.0980 -0.2443 -0.1983
 5440SOL    HW127779   3.063   3.235   2.799  1.3315  0.2585 -1.0118
 5440SOL    HW227780   2.964   3.352   2.812 -0.2330 -1.5707  0.8172
 5441SOL     OW27781   2.385   3.568   9.540  0.7895 -0.1104 -0.6272
 5441SOL    HW127782   2.375   3.545   9.448  0.5821  1.2510 -0.9536
 5441SOL    HW227783   2.413   3.660   9.540  0.9813 -0.1747  0.8084
 5442SOL     OW27784   3.869   2.959  11.968 -0.2658  0.0777  0.0318
 5442SOL    HW127785   3.811   2.991  11.898  2.0233 -2.7210 -3.1576
 5442SOL    HW227786   3.897   2.872  11.940  2.0458  1.2431 -1.2356
 5443SOL     OW27787   3.835   3.167  10.310 -0.5469  0.2016 -0.1532
 5443SOL    HW127788   3.814   3.176  10.403  0.4042  0.5026  0.0317
 5443SOL    HW227789   3.751   3.185  10.268 -0.8166 -1.3802 -0.2957
 5444SOL     OW27790   2.579   0.623   5.447  0.0445 -0.0893 -0.0205
 5444SOL    HW127791   2.649   0.607   5.383  0.1972  0.6869 -0.0401
 5444SOL    HW227792   2.577   0.540   5.495  0.3009  0.3807  0.7899
 5445SOL     OW27793   1.008   1.926  13.578 -0.3088  0.7978 -0.4829
 5445SOL    HW127794   0.986   2.017  13.594  0.4914  1.0273 -0.6956
 5445SOL    HW227795   0.926   1.890  13.610 -0.3691  0.0180 -1.5062
 5446SOL     OW27796   3.294   3.475   4.050  0.3763 -0.4829 -0.8094
 5446SOL    HW127797   3.237   3.398   4.055  0.2061 -0.3874 -1.2715
 5446SOL    HW227798   3.256   3.525   3.977 -0.4502 -2.0290 -1.4382
 5447SOL     OW27799   1.076   2.619   9.628 -0.3605  0.0010 -0.3399
 5447SOL    HW127800   1.122   2.628   9.711 -2.1655 -0.7860  0.7451
 5447SOL    HW227801   1.000   2.672   9.649 -0.3284  0.8764 -2.4388
 5448SOL     OW27802   0.139   1.637   7.320 -0.2868 -0.4847 -0.7758
 5448SOL    HW127803   0.121   1.545   7.303  0.2581 -0.7434  0.0192
 5448SOL    HW227804   0.067   1.655   7.380 -0.4033 -0.7150 -0.8451
 5449SOL     OW27805   2.981   3.153  10.124 -0.4472 -0.1572 -0.1542
 5449SOL    HW127806   3.014   3.231  10.080  0.6088  0.4565  1.7219
 5449SOL    HW227807   2.990   3.158  10.219  1.3819  1.5841 -0.4455
 5450SOL     OW27808   4.497   0.511   9.295  0.1611  0.2325  0.3196
 5450SOL    HW127809   4.469   0.442   9.235  2.6345  0.6467 -1.3024
 5450SOL    HW227810   4.556   0.569   9.246 -0.4451  0.5420 -0.0458
 5451SOL     OW27811   2.456   2.602   1.057 -0.3614 -0.2190  0.2322
 5451SOL    HW127812   2.483   2.536   1.121 -0.9144 -0.6723  0.0045
 5451SOL    HW227813   2.360   2.593   1.059 -0.2444 -1.3295  0.4816
 5452SOL     OW27814   3.983   2.510  14.273 -0.3194 -0.4580 -0.2092
 5452SOL    HW127815   3.930   2.434  14.294 -0.3239 -0.1778  0.7944
 5452SOL    HW227816   3.921   2.561  14.221  2.0073  0.9405 -1.5940
 5453SOL     OW27817   1.475   3.631   6.942 -0.3699 -0.1542 -0.0765
 5453SOL    HW127818   1.422   3.657   7.017  1.2731  0.2990  0.9242
 5453SOL    HW227819   1.443   3.684   6.869  0.3707  0.9350  0.3937
 5454SOL     OW27820   3.035   2.416   2.826  0.6990 -0.0194 -0.4206
 5454SOL    HW127821   2.958   2.362   2.814  0.8046 -0.1667 -0.4330
 5454SOL    HW227822   3.002   2.498   2.789 -0.1835  0.2931  1.0867
 5455SOL     OW27823   2.281   4.392   6.629  0.1750 -0.1745 -0.5005
 5455SOL    HW127824   2.302   4.300   6.644 -0.5162 -0.4140 -1.0526
 5455SOL    HW227825   2.371   4.427   6.631 -1.2904  3.5300  2.0222
 5456SOL     OW27826   0.312   3.312   3.269  0.0300  1.0770 -0.3519
 5456SOL    HW127827   0.272   3.312   3.182 -1.2839  3.1840  0.2415
 5456SOL    HW227828   0.294   3.402   3.295  0.3174  0.4318  2.1163
 5457SOL     OW27829   4.008   2.615   8.579  0.5269 -0.0113  0.3286
 5457SOL    HW127830   4.094   2.642   8.548  0.5257  0.3438  0.6451
 5457SOL    HW227831   3.961   2.581   8.502  0.1072  0.9141  0.1705
 5458SOL     OW27832   2.334   3.515   6.541  0.0055  0.2517  0.6081
 5458SOL    HW127833   2.284   3.436   6.560  0.9235 -1.1451 -2.8658
 5458SOL    HW227834   2.352   3.546   6.630  3.6393 -1.3186  0.4104
 5459SOL     OW27835   1.542   1.459  13.018 -0.1582  0.1239  0.4799
 5459SOL    HW127836   1.470   1.479  13.078 -0.2962 -1.6066  0.8906
 5459SOL    HW227837   1.538   1.364  13.016  3.0084 -0.0209  1.5717
 5460SOL     OW27838   1.982   3.318  15.716 -0.2990 -0.2147 -1.0952
 5460SOL    HW127839   2.043   3.275  15.656  1.9949 -0.5372  1.4656
 5460SOL    HW227840   2.048   3.357  15.773 -0.0611 -0.9873 -0.8439
 5461SOL     OW27841   1.861   3.556  16.279 -0.2155  0.1852 -0.0223
 5461SOL    HW127842   1.778   3.524  16.246 -1.3442 -0.1638  3.1453
 5461SOL    HW227843   1.879   3.621  16.211 -1.3566 -1.4467 -1.8847
 5462SOL     OW27844   1.417   0.813   8.099  0.3969  0.4058 -0.1285
 5462SOL    HW127845   1.508   0.797   8.125  1.0947  1.6440 -1.7968
 5462SOL    HW227846   1.435   0.858   8.016 -3.7474  0.0459 -1.2177
 5463SOL     OW27847   0.373   1.384   0.069 -0.4285  0.1011  0.0820
 5463SOL    HW127848   0.382   1.351   0.158 -0.8280 -1.1085 -0.3288
 5463SOL    HW227849   0.364   1.301   0.022 -0.5871 -0.6384  1.4270
 5464SOL     OW27850   0.650   1.072   4.109 -0.3039  0.1092 -0.2299
 5464SOL    HW127851   0.644   1.140   4.176  0.6868  0.0411 -0.0701
 5464SOL    HW227852   0.558   1.057   4.088 -0.2702  0.4081 -0.5914
 5465SOL     OW27853   1.083   0.552  12.757  0.2486 -0.5396 -0.1278
 5465SOL    HW127854   1.000   0.599  12.763  1.8745  2.4263 -0.8343
 5465SOL    HW227855   1.127   0.606  12.691  1.4426 -1.4486 -0.0805
 5466SOL     OW27856   0.168   1.629   2.193  0.2170 -0.1418 -0.3635
 5466SOL    HW127857   0.196   1.638   2.102 -0.7886  0.1320 -0.6506
 5466SOL    HW227858   0.228   1.561   2.222 -1.5086 -0.3666  2.7914
 5467SOL     OW27859   1.602   3.358   7.411 -0.0184  0.3480  0.8075
 5467SOL    HW127860   1.524   3.399   7.371 -0.4891 -2.9905 -1.7204
 5467SOL    HW227861   1.587   3.267   7.385  0.5727  0.4308  0.1704
 5468SOL     OW27862   2.618   4.361   3.843 -0.0285  0.1814  0.0278
 5468SOL    HW127863   2.705   4.319   3.836 -0.7721 -1.0311 -1.9513
 5468SOL    HW227864   2.619   4.412   3.763  1.0127  2.7078  1.6486
 5469SOL     OW27865   0.922   1.664   9.719  0.6409  0.4697  0.1393
 5469SOL    HW127866   0.919   1.759   9.703  0.6507  0.6782  1.4291
 5469SOL    HW227867   1.011   1.643   9.692  0.2099 -0.7094 -0.3634
 5470SOL     OW27868   3.048   2.976   4.145 -0.1960  0.1723  0.1297
 5470SOL    HW127869   3.058   2.922   4.224 -0.6265  0.1843  0.1927
 5470SOL    HW227870   2.968   3.022   4.168 -0.0139  0.6800 -0.2599
 5471SOL     OW27871   4.616   1.420   8.773 -0.4783 -0.5188  0.0708
 5471SOL    HW127872   4.655   1.454   8.692  0.0195 -2.0412 -0.3295
 5471SOL    HW227873   4.688   1.423   8.836 -1.1228 -0.5774  0.8122
 5472SOL     OW27874   1.269   2.449  11.953  0.1749 -0.7276  0.3530
 5472SOL    HW127875   1.302   2.443  12.043 -0.9562  0.8228  0.8843
 5472SOL    HW227876   1.190   2.395  11.961 -0.2494 -0.5725 -3.0074
 5473SOL     OW27877   1.450   3.832   4.491  0.0440  0.2097  0.0524
 5473SOL    HW127878   1.526   3.781   4.519 -0.3608 -1.1610 -1.3793
 5473SOL    HW227879   1.493   3.903   4.444  1.4031 -0.9194 -0.4047
 5474SOL     OW27880   3.273   0.900   1.904  0.2320  0.2590  0.0313
 5474SOL    HW127881   3.223   0.941   1.834 -1.0137  0.6008  1.1020
 5474SOL    HW227882   3.246   0.809   1.889 -0.5033  0.1300  2.0368
 5475SOL     OW27883   2.915   0.228   6.222 -0.2065  0.1662 -0.3839
 5475SOL    HW127884   2.840   0.250   6.277 -1.4461 -0.3218 -1.8719
 5475SOL    HW227885   2.935   0.138   6.247 -1.8313  0.1548  0.8838
 5476SOL     OW27886   1.289   3.361   1.225  0.9519 -0.4611 -0.1356
 5476SOL    HW127887   1.301   3.396   1.136  0.0777  0.2705  0.0266
 5476SOL    HW227888   1.291   3.442   1.277  2.9573 -0.9041  0.4839
 5477SOL     OW27889   4.702   1.771   7.551 -0.0187 -0.5449  0.0016
 5477SOL    HW127890   4.657   1.712   7.611 -1.1834 -1.2814 -1.5846
 5477SOL    HW227891   0.035   1.817   7.613  0.2892  0.2147 -0.8393
 5478SOL     OW27892   0.755   4.702   6.821 -0.1337  0.4248 -0.6073
 5478SOL    HW127893   0.800   4.699   6.905 -0.4219 -1.5724 -0.5379
 5478SOL    HW227894   0.702   4.622   6.821  2.3483 -1.2046 -1.4845
 5479SOL     OW27895   0.177   0.816   4.934  0.5250 -0.2514 -0.0204
 5479SOL    HW127896   0.204   0.763   4.859 -0.8162 -2.7188  1.2230
 5479SOL    HW227897   0.145   0.896   4.891 -1.6307 -1.0200  0.1416
 5480SOL     OW27898   4.626   0.171   4.796 -0.4519  0.2283  0.2527
 5480SOL    HW127899   4.609   0.252   4.749 -1.4586 -1.2080 -1.8477
 5480SOL    HW227900   4.536   0.161   4.829 -0.6596  1.1752 -0.0375
 5481SOL     OW27901   1.544   0.515   7.013 -0.2357 -0.0276  0.0449
 5481SOL    HW127902   1.516   0.428   7.042 -1.8439  1.1438  2.0046
 5481SOL    HW227903   1.620   0.483   6.964 -0.3204 -1.4608  0.8314
 5482SOL     OW27904   2.965   0.437  14.124  0.0051 -0.0211  0.3152
 5482SOL    HW127905   3.009   0.441  14.209 -0.9203 -0.9214  0.8373
 5482SOL    HW227906   2.921   0.353  14.136  0.7277 -0.5792 -0.8804
 5483SOL     OW27907   3.401   0.469   4.545  0.0501 -0.2181 -0.2062
 5483SOL    HW127908   3.323   0.414   4.541  0.2466 -0.5467  0.3751
 5483SOL    HW227909   3.468   0.406   4.573  0.4226 -0.0603 -0.7482
 5484SOL     OW27910   1.584   3.635   3.820  0.0129 -0.2602 -0.3381
 5484SOL    HW127911   1.600   3.662   3.730 -2.1001 -0.1465 -0.6995
 5484SOL    HW227912   1.592   3.720   3.864  0.5327 -0.0903 -0.7734
 5485SOL     OW27913   2.996   2.296   1.382  0.1692  0.2804 -0.1405
 5485SOL    HW127914   3.066   2.351   1.416 -0.4659  0.4147  0.9554
 5485SOL    HW227915   2.965   2.256   1.463  0.2087  0.5202 -0.0067
 5486SOL     OW27916   3.994   1.008  17.652  0.4686  0.2058 -0.4591
 5486SOL    HW127917   4.049   0.981   0.029  0.1403  0.0602 -0.2629
 5486SOL    HW227918   3.979   0.923  17.610 -0.5595  1.2812 -2.2862
 5487SOL     OW27919   1.598   4.299   5.922  0.3481  0.0953  0.4657
 5487SOL    HW127920   1.570   4.211   5.896 -0.4143  0.2911  0.6401
 5487SOL    HW227921   1.590   4.279   6.015 -1.2354  2.3157  0.7792
 5488SOL     OW27922   0.464   2.854   5.800  0.1117 -0.3451 -0.1769
 5488SOL    HW127923   0.483   2.762   5.785  0.0329 -0.3705 -0.1243
 5488SOL    HW227924   0.461   2.851   5.896 -0.2566 -2.4417 -0.2682
 5489SOL     OW27925   1.845   4.341   4.802 -0.8510  0.1261  0.4194
 5489SOL    HW127926   1.866   4.337   4.895  0.2722 -1.0365  0.1263
 5489SOL    HW227927   1.846   4.436   4.793  0.6233  0.2316  1.6911
 5490SOL     OW27928   0.411   4.610   3.885 -0.4216 -0.1558  0.6844
 5490SOL    HW127929   0.401   4.705   3.881  0.8980 -0.0826 -1.3097
 5490SOL    HW227930   0.487   4.602   3.827 -1.9990  2.2695 -1.7119
 5491SOL     OW27931   2.218   4.459   3.425  0.0990 -0.1009  0.4803
 5491SOL    HW127932   2.190   4.540   3.380  0.2936  1.0543  2.4244
 5491SOL    HW227933   2.252   4.500   3.505 -0.7062  0.0594  0.7411
 5492SOL     OW27934   1.615   2.445   4.156  0.3027  0.7711 -0.1556
 5492SOL    HW127935   1.647   2.359   4.185  1.1804  1.6121  1.3316
 5492SOL    HW227936   1.652   2.503   4.222  1.5857  1.9012 -1.8750
 5493SOL     OW27937   0.463   3.860  13.476  0.1738  0.5809 -0.4181
 5493SOL    HW127938   0.433   3.947  13.450  1.3338  0.9454 -0.5188
 5493SOL    HW227939   0.556   3.873  13.490 -0.3793  0.6553  3.3297
 5494SOL     OW27940   3.392   0.525   0.893  0.0166 -0.2654  0.5125
 5494SOL    HW127941   3.437   0.549   0.974  1.7311 -2.0923  0.0968
 5494SOL    HW227942   3.379   0.431   0.888  1.3487 -0.3873 -0.7411
 5495SOL     OW27943   0.373   0.087   7.436 -0.2393 -0.1422  0.4120
 5495SOL    HW127944   0.439   0.122   7.376  0.1509  0.2560  1.0692
 5495SOL    HW227945   0.421   0.024   7.490  2.3390  1.0945 -0.4570
 5496SOL     OW27946   1.503   1.919  12.011 -0.3133  0.7910 -0.8351
 5496SOL    HW127947   1.573   1.902  11.947 -1.1259  2.2898 -2.1355
 5496SOL    HW227948   1.450   1.841  11.994 -0.0482  0.5122 -0.3784
 5497SOL     OW27949   4.449   1.220   4.936  0.1752  0.1617  0.3309
 5497SOL    HW127950   4.463   1.304   4.978  1.4423 -0.3389  0.9305
 5497SOL    HW227951   4.396   1.179   5.004 -0.6335 -0.2099 -0.5162
 5498SOL     OW27952   0.649   1.877  17.569  0.0618 -0.1676  0.6138
 5498SOL    HW127953   0.633   1.819  17.495 -0.6598 -3.1689  3.1067
 5498SOL    HW227954   0.610   1.815  17.630  1.8519 -2.0217 -0.1478
 5499SOL     OW27955   3.480   3.327   8.109 -0.5484  0.1769  0.1787
 5499SOL    HW127956   3.556   3.350   8.162 -0.1664 -0.3006 -0.1571
 5499SOL    HW227957   3.431   3.274   8.172 -1.9544 -0.9886 -1.8929
 5500SOL     OW27958   4.259   2.399   8.371 -0.3841  0.5282 -0.1507
 5500SOL    HW127959   4.173   2.440   8.363 -0.6158 -0.0901 -0.8602
 5500SOL    HW227960   4.244   2.311   8.335  0.0431  0.4819 -0.2060
 5501SOL     OW27961   1.634   0.068   5.937 -0.4581 -0.5087 -0.2990
 5501SOL    HW127962   1.727   0.047   5.946 -0.9268 -1.9601  1.1046
 5501SOL    HW227963   1.639   0.094   5.845  0.7800  1.3561  0.3017
 5502SOL     OW27964   1.085   3.373   8.695  0.3318 -0.0267  0.3896
 5502SOL    HW127965   1.026   3.311   8.737  3.0317 -1.2133  2.4727
 5502SOL    HW227966   1.083   3.342   8.605 -2.3623 -0.5757  0.6396
 5503SOL     OW27967   3.394   3.284  15.360  0.6520 -0.2824 -0.1092
 5503SOL    HW127968   3.390   3.370  15.318  1.2341 -0.4675 -0.5416
 5503SOL    HW227969   3.405   3.312  15.451  0.6801 -0.7541  0.0342
 5504SOL     OW27970   1.280   2.616   2.030 -0.5422 -0.1106 -0.1704
 5504SOL    HW127971   1.367   2.640   1.997  0.0519 -0.3368  1.2110
 5504SOL    HW227972   1.248   2.566   1.955 -0.0053 -0.0887 -0.4125
 5505SOL     OW27973   3.406   0.715   3.067 -0.3108 -0.4437 -0.3180
 5505SOL    HW127974   3.319   0.747   3.044 -0.2937 -0.2472 -0.1075
 5505SOL    HW227975   3.445   0.801   3.079 -1.7749  0.5973 -3.0210
 5506SOL     OW27976   3.790   3.520  13.178  0.3726  0.2804  0.0974
 5506SOL    HW127977   3.876   3.563  13.183  1.1568 -0.8906 -3.0277
 5506SOL    HW227978   3.765   3.490  13.265  0.6789  1.9781  0.7707
 5507SOL     OW27979   3.006   1.585   2.324  0.0120 -0.6246  0.2684
 5507SOL    HW127980   3.068   1.611   2.392  0.2368 -0.5553  0.0397
 5507SOL    HW227981   2.943   1.657   2.331  0.7206  0.0313 -0.0631
 5508SOL     OW27982   4.092   3.569  16.656 -0.4588 -0.7496 -0.4605
 5508SOL    HW127983   4.032   3.530  16.721  0.0472  0.4411  0.7166
 5508SOL    HW227984   4.149   3.494  16.636 -0.2110 -0.4524 -0.8653
 5509SOL     OW27985   3.439   1.089   2.003  0.1339  0.0925  0.3451
 5509SOL    HW127986   3.414   1.091   2.095 -2.4725 -1.4748 -0.3076
 5509SOL    HW227987   3.376   1.029   1.962  2.5960 -2.3733  0.2014
 5510SOL     OW27988   4.248   1.732   9.038 -0.3238 -0.0559  0.0661
 5510SOL    HW127989   4.197   1.801   8.995 -0.0459  0.8788  1.2136
 5510SOL    HW227990   4.308   1.788   9.088  0.8957 -1.5433  0.2526
 5511SOL     OW27991   1.967   1.553   2.742 -0.0758  0.8897 -0.6848
 5511SOL    HW127992   1.912   1.477   2.764  0.3648  0.6058 -0.5576
 5511SOL    HW227993   2.056   1.518   2.733 -0.0147  1.7079 -3.1877
 5512SOL     OW27994   4.260   4.054   2.533  0.0663  0.0234 -0.0737
 5512SOL    HW127995   4.252   3.995   2.458 -1.3671  1.8084 -1.3104
 5512SOL    HW227996   4.303   4.001   2.600  0.0287 -0.3946 -0.3837
 5513SOL     OW27997   1.762   1.020   6.572 -0.8375  0.0438 -0.5291
 5513SOL    HW127998   1.835   1.067   6.612  0.0119 -0.7419 -1.1893
 5513SOL    HW227999   1.701   1.094   6.579  0.6946  1.0693  2.0337
 5514SOL     OW28000   2.652   3.895   1.269 -0.2867 -0.3292 -0.2362
 5514SOL    HW128001   2.641   3.977   1.222  1.4316 -0.3866 -0.7639
 5514SOL    HW228002   2.722   3.851   1.219  1.5575  0.1574  1.9127
 5515SOL     OW28003   1.085   2.202  13.389  0.0902  0.5231  0.1371
 5515SOL    HW128004   1.062   2.221  13.480  0.1713 -0.5196  0.3776
 5515SOL    HW228005   1.009   2.152  13.361  2.5155 -2.4521 -1.0661
 5516SOL     OW28006   0.960   0.398   8.892  0.2135 -0.1521  0.4685
 5516SOL    HW128007   1.028   0.442   8.841 -0.8338  1.7578  0.7522
 5516SOL    HW228008   0.940   0.467   8.955 -0.9156  1.2470 -1.4265
 5517SOL     OW28009   1.935   1.379   2.994 -0.4542 -0.0492 -0.6266
 5517SOL    HW128010   2.020   1.369   2.952 -1.3956  0.4156 -2.6279
 5517SOL    HW228011   1.973   1.382   3.082 -0.0420 -1.0593 -0.7715
 5518SOL     OW28012   1.175   0.585   6.046 -0.1621 -0.3575  0.8442
 5518SOL    HW128013   1.119   0.573   6.123  1.5255 -1.9121  1.8301
 5518SOL    HW228014   1.164   0.678   6.027 -0.5648 -1.0207 -2.1243
 5519SOL     OW28015   4.126   1.740   8.430 -0.4698 -0.3765  0.2687
 5519SOL    HW128016   4.118   1.694   8.513 -1.7551 -0.6393  0.0030
 5519SOL    HW228017   4.185   1.677   8.388  0.6532 -0.0400  1.3772
 5520SOL     OW28018   3.629   3.290  14.504  0.0655 -0.1652  0.2265
 5520SOL    HW128019   3.722   3.304  14.520  0.4080  1.1862 -2.9898
 5520SOL    HW228020   3.623   3.206  14.551  1.2199 -0.6982 -0.5942
 5521SOL     OW28021   4.710   2.188  16.773 -0.5379 -0.3719  0.1778
 5521SOL    HW128022   0.009   2.200  16.682  0.4777 -2.9006  0.0932
 5521SOL    HW228023   4.626   2.142  16.768 -0.1634 -0.8059 -1.8981
 5522SOL     OW28024   0.470   0.196   7.175  0.2789  0.0856  0.3217
 5522SOL    HW128025   0.396   0.251   7.152 -0.1580 -0.1989  1.0531
 5522SOL    HW228026   0.545   0.255   7.169  0.9235 -0.6654  0.8597
 5523SOL     OW28027   1.387   4.400   7.067  0.5971 -1.2517  0.6465
 5523SOL    HW128028   1.478   4.381   7.046  0.3145 -2.7012  0.7260
 5523SOL    HW228029   1.386   4.483   7.019 -1.0812 -2.0231 -0.6659
 5524SOL     OW28030   3.222   2.887  12.139  0.3620 -0.0675 -0.1900
 5524SOL    HW128031   3.168   2.830  12.085 -2.5334  1.4726  1.1102
 5524SOL    HW228032   3.276   2.924  12.069 -0.0807 -1.7696 -1.4160
 5525SOL     OW28033   3.529   3.938  13.091 -0.1047  0.2231 -0.0624
 5525SOL    HW128034   3.550   3.995  13.017 -1.0662 -2.0472 -2.0724
 5525SOL    HW228035   3.436   3.956  13.109 -0.5990 -2.7733  0.2553
 5526SOL     OW28036   3.993   0.891   2.884 -0.2963 -0.2359  0.2736
 5526SOL    HW128037   4.000   0.896   2.979  1.7552 -0.5878  0.1393
 5526SOL    HW228038   3.948   0.806   2.878 -0.8447 -0.2344  4.1639
 5527SOL     OW28039   4.679   0.665   4.552 -0.2727  0.6787 -0.0499
 5527SOL    HW128040   4.626   0.629   4.481  1.2043 -1.7676  0.0962
 5527SOL    HW228041   4.615   0.710   4.607 -0.7864 -0.6468  0.4328
 5528SOL     OW28042   0.555   0.878   6.008  0.0335 -0.1595  0.4603
 5528SOL    HW128043   0.606   0.902   5.931 -1.3494  0.1175 -0.3494
 5528SOL    HW228044   0.587   0.940   6.074  1.4347 -1.3295  0.8859
 5529SOL     OW28045   0.308   4.652   5.559 -0.0072 -0.2943  0.3598
 5529SOL    HW128046   0.248   4.720   5.528  1.7676 -0.3720 -3.3287
 5529SOL    HW228047   0.382   4.710   5.543 -0.7281  0.5855  0.2120
 5530SOL     OW28048   3.274   0.009   0.871 -0.4828  0.7004 -0.5360
 5530SOL    HW128049   3.349   0.038   0.818 -0.5051  2.1687  0.2513
 5530SOL    HW228050   3.250   0.098   0.895 -1.7338  0.7854 -2.0742
 5531SOL     OW28051   3.214   0.734  15.440 -0.3790 -0.7435 -0.2680
 5531SOL    HW128052   3.191   0.821  15.471 -1.1394 -1.5199  1.3541
 5531SOL    HW228053   3.307   0.728  15.460 -0.8955  0.7798  2.6908
 5532SOL     OW28054   0.036   2.856   4.864  0.1571  0.3329  0.1715
 5532SOL    HW128055   4.667   2.858   4.843 -0.2328  2.8493  2.1299
 5532SOL    HW228056   0.050   2.935   4.917  1.9600  2.2531 -3.1255
 5533SOL     OW28057   4.029   2.120   1.338 -0.2244 -0.0510  0.3078
 5533SOL    HW128058   4.079   2.067   1.400  1.3437 -0.2015 -1.0941
 5533SOL    HW228059   3.963   2.054   1.315 -1.3417  0.7669  1.1311
 5534SOL     OW28060   4.478   4.210   2.431 -0.4957  0.2819  0.3013
 5534SOL    HW128061   4.395   4.184   2.471 -1.4859 -0.4126 -2.1953
 5534SOL    HW228062   4.457   4.227   2.339  1.2198  3.6873  0.5147
 5535SOL     OW28063   3.424   1.724   6.339 -0.2789  0.3676 -0.6377
 5535SOL    HW128064   3.401   1.746   6.249  1.5029  1.7139 -0.7804
 5535SOL    HW228065   3.420   1.629   6.334  0.5332  0.2153  1.4892
 5536SOL     OW28066   0.602   1.960   3.061  0.3624  0.0205  0.3441
 5536SOL    HW128067   0.509   1.976   3.079  0.4436  0.6943  0.1956
 5536SOL    HW228068   0.644   2.011   3.130  0.9194  1.8296 -1.3013
 5537SOL     OW28069   3.561   0.217   2.622  0.5202  0.3371 -0.2690
 5537SOL    HW128070   3.537   0.150   2.686  2.0654  0.1693  0.1202
 5537SOL    HW228071   3.487   0.277   2.631  0.6326  0.7373 -1.8968
 5538SOL     OW28072   2.487   3.586  10.250 -0.2918 -0.1577 -0.3328
 5538SOL    HW128073   2.535   3.650  10.197 -1.2400 -1.3289 -2.6253
 5538SOL    HW228074   2.394   3.604  10.234  0.1017  1.2845 -1.0197
 5539SOL     OW28075   3.928   4.475   4.781 -0.1600 -0.1848  0.6531
 5539SOL    HW128076   3.858   4.428   4.737  0.5185 -0.9618  0.4044
 5539SOL    HW228077   3.876   4.546   4.818  1.5909  1.2742  0.3103
 5540SOL     OW28078   2.391   4.451   2.395 -0.8340  0.5904 -0.7917
 5540SOL    HW128079   2.354   4.375   2.349  0.7993 -1.0985  0.6800
 5540SOL    HW228080   2.394   4.431   2.488  1.1331  0.1353 -0.9411
 5541SOL     OW28081   2.327   3.891   3.683 -0.1504  0.2392  0.5955
 5541SOL    HW128082   2.404   3.928   3.727  0.4332 -0.6147  0.2951
 5541SOL    HW228083   2.361   3.816   3.634 -0.3775  0.2362  0.4428
 5542SOL     OW28084   4.056   4.154  12.207 -0.1083  0.2783 -0.6547
 5542SOL    HW128085   4.043   4.124  12.297  0.2735  1.9704 -0.0308
 5542SOL    HW228086   3.982   4.120  12.157  1.0032 -1.4732 -1.0789
 5543SOL     OW28087   1.064   2.421   2.926 -0.2845  0.1042 -0.3709
 5543SOL    HW128088   1.003   2.487   2.961 -1.3035 -1.7314  1.3380
 5543SOL    HW228089   1.090   2.380   3.008  1.3462 -0.0400 -0.9755
 5544SOL     OW28090   1.509   0.183   5.095  0.2397 -0.1625  0.4913
 5544SOL    HW128091   1.459   0.195   5.176  1.4017 -1.5992  1.4199
 5544SOL    HW228092   1.579   0.122   5.117  2.2405  1.2200 -2.0442
 5545SOL     OW28093   1.074   3.827  12.450  0.0365 -0.3124 -0.1655
 5545SOL    HW128094   1.100   3.808  12.360  0.3021 -1.3748  0.1301
 5545SOL    HW228095   1.125   3.766  12.504 -1.5444 -0.8396  0.7215
 5546SOL     OW28096   1.360   2.766  14.108  0.1440  0.3957 -0.0607
 5546SOL    HW128097   1.422   2.834  14.082  1.6032 -1.6755 -1.9846
 5546SOL    HW228098   1.391   2.747  14.197 -0.6299  0.1236  0.1531
 5547SOL     OW28099   2.115   2.052   6.098  0.0493 -0.2622 -0.4131
 5547SOL    HW128100   2.101   2.123   6.160 -0.7339 -3.0570  2.6219
 5547SOL    HW228101   2.188   2.004   6.136 -0.7902 -0.8282  0.4723
 5548SOL     OW28102   1.527   2.898  16.088 -0.0692 -0.0264  0.0744
 5548SOL    HW128103   1.440   2.911  16.124 -0.4698  1.7190 -1.5167
 5548SOL    HW228104   1.536   2.977  16.034  1.0824 -0.7208 -0.7542
 5549SOL     OW28105   0.473   3.221  17.229 -0.3369 -0.0568  0.0559
 5549SOL    HW128106   0.466   3.198  17.137  0.0574  1.6746 -0.4041
 5549SOL    HW228107   0.559   3.187  17.255 -0.1158  1.6298  1.5686
 5550SOL     OW28108   1.113   1.792   2.560 -0.3186 -0.0307 -0.7140
 5550SOL    HW128109   1.026   1.775   2.523 -0.5673 -2.0024  0.7516
 5550SOL    HW228110   1.111   1.888   2.554 -1.1051 -0.0319 -0.4530
 5551SOL     OW28111   2.640   2.247   4.072 -0.2691 -0.0234 -0.0184
 5551SOL    HW128112   2.669   2.295   3.995  1.8427 -0.8539  0.2622
 5551SOL    HW228113   2.668   2.161   4.039  0.3828  0.2868 -0.2696
 5552SOL     OW28114   3.736   2.512   3.299  0.3042 -0.1288 -0.2225
 5552SOL    HW128115   3.709   2.548   3.383 -1.1938 -0.9040 -0.3641
 5552SOL    HW228116   3.831   2.506   3.300  0.3622  0.4988 -1.5003
 5553SOL     OW28117   2.222   3.005   9.114  0.2393  0.1479 -0.4910
 5553SOL    HW128118   2.127   3.013   9.103  0.1661  3.3729  2.4609
 5553SOL    HW228119   2.232   2.940   9.183  0.9780 -0.5264 -1.2299
 5554SOL     OW28120   1.779   1.004   9.204 -0.5816  0.1249  0.3069
 5554SOL    HW128121   1.819   1.061   9.138  0.1621 -1.4553 -0.5872
 5554SOL    HW228122   1.794   1.062   9.279  0.4652  0.1636  0.0703
 5555SOL     OW28123   2.290   3.718   4.597 -0.0388 -0.0500 -0.8314
 5555SOL    HW128124   2.205   3.714   4.640  0.0738  0.8811 -0.5057
 5555SOL    HW228125   2.329   3.800   4.628  0.9930 -0.8320 -0.0511
 5556SOL     OW28126   2.773   2.378   1.236 -0.1950 -0.2455 -0.3107
 5556SOL    HW128127   2.857   2.366   1.281 -0.5966  0.7109  0.7111
 5556SOL    HW228128   2.807   2.432   1.164  1.3350 -1.5365 -0.5489
 5557SOL     OW28129   1.286   1.279   3.097  0.7298  0.1535 -0.4239
 5557SOL    HW128130   1.325   1.229   3.169  0.1938 -1.0235 -0.9524
 5557SOL    HW228131   1.359   1.287   3.034  0.4572  2.1824 -0.4921
 5558SOL     OW28132   2.311   2.464   8.754 -0.2757 -0.0945 -0.1669
 5558SOL    HW128133   2.344   2.540   8.705 -2.7540  1.6186  0.7942
 5558SOL    HW228134   2.366   2.488   8.829  1.3190  1.1082 -1.7199
 5559SOL     OW28135   2.627   1.893   8.513  0.2313 -0.0057  0.5921
 5559SOL    HW128136   2.665   1.931   8.434  1.3004 -1.3391  0.4537
 5559SOL    HW228137   2.697   1.906   8.577  0.5476  1.3419 -0.0460
 5560SOL     OW28138   0.629   1.292   8.301  0.2450  0.1343 -0.0685
 5560SOL    HW128139   0.718   1.277   8.332  0.9021  2.2802 -0.9067
 5560SOL    HW228140   0.616   1.387   8.306 -0.8061 -0.1266  2.1072
 5561SOL     OW28141   4.112   2.878   9.767  0.2982 -0.3276 -0.4156
 5561SOL    HW128142   4.026   2.903   9.734  1.3317  0.6385 -2.4016
 5561SOL    HW228143   4.148   2.965   9.786  0.3303 -0.5421  0.5261
 5562SOL     OW28144   3.506   2.113  11.727  0.4353 -0.7144 -0.2814
 5562SOL    HW128145   3.447   2.047  11.690  0.3450 -1.6456  1.4850
 5562SOL    HW228146   3.515   2.188  11.669  0.0670 -1.2087 -0.9749
 5563SOL     OW28147   4.433   4.366  16.225 -0.5837 -0.0648  0.0339
 5563SOL    HW128148   4.400   4.277  16.220  0.5009 -0.4262 -0.8562
 5563SOL    HW228149   4.501   4.363  16.292  0.7300  0.9343 -1.2349
 5564SOL     OW28150   4.398   2.833  11.363 -0.0233  0.1687  0.8178
 5564SOL    HW128151   4.324   2.889  11.339 -2.1465 -2.3785  1.3749
 5564SOL    HW228152   4.432   2.874  11.442  1.7238 -2.2291  1.3232
 5565SOL     OW28153   1.026   2.185  12.828  0.1918 -0.2576  0.5217
 5565SOL    HW128154   0.967   2.154  12.759 -1.2219  0.4888  1.3742
 5565SOL    HW228155   1.089   2.224  12.768 -1.5630  1.2006 -0.4086
 5566SOL     OW28156   4.106   2.583   1.571 -0.4544 -0.5577 -0.1519
 5566SOL    HW128157   4.076   2.647   1.507 -0.7587 -0.6935 -0.1496
 5566SOL    HW228158   4.080   2.615   1.657 -0.4984 -1.1652  0.0589
 5567SOL     OW28159   0.482   1.502  10.907  0.1286 -0.1680 -0.2897
 5567SOL    HW128160   0.474   1.552  10.988  1.5618  1.6745 -1.2620
 5567SOL    HW228161   0.471   1.574  10.845  2.8605  0.7005  0.2051
 5568SOL     OW28162   3.770   1.236   4.993 -0.2241 -0.0680  0.8830
 5568SOL    HW128163   3.739   1.165   4.937  3.0636 -0.3438 -0.6187
 5568SOL    HW228164   3.839   1.191   5.042  0.6172  0.2575 -0.0024
 5569SOL     OW28165   3.676   3.944   2.808  0.6482  0.0793 -0.1209
 5569SOL    HW128166   3.671   4.029   2.851 -1.2413 -1.3076  2.3977
 5569SOL    HW228167   3.706   3.957   2.718  2.1892 -0.3801  0.3320
 5570SOL     OW28168   2.872   1.379   9.750 -0.5982 -0.7860  0.1171
 5570SOL    HW128169   2.811   1.439   9.795 -0.7375 -0.9138  0.0985
 5570SOL    HW228170   2.951   1.393   9.802 -2.4145 -1.5679  3.1441
 5571SOL     OW28171   3.283   2.805   7.031  0.2807  0.2368  0.3536
 5571SOL    HW128172   3.280   2.887   6.980 -0.5557  0.4846  0.7956
 5571SOL    HW228173   3.201   2.761   7.012 -0.2196  1.4390 -0.3046
 5572SOL     OW28174   2.415   2.891  10.106  0.3375  0.5397  0.1748
 5572SOL    HW128175   2.431   2.845  10.188  1.8960  2.9160  1.2075
 5572SOL    HW228176   2.414   2.813  10.050 -1.8108 -1.1419  2.5419
 5573SOL     OW28177   0.542   4.183   8.986  0.6823 -0.7077 -0.7386
 5573SOL    HW128178   0.624   4.222   9.017 -1.0378  1.5093  1.0156
 5573SOL    HW228179   0.487   4.253   9.022  1.2071 -0.2678 -0.7868
 5574SOL     OW28180   1.798   4.075   7.244 -0.0640  0.1640  0.2928
 5574SOL    HW128181   1.758   3.994   7.213  0.2741  1.3095 -3.1765
 5574SOL    HW228182   1.796   4.139   7.172  1.3587  0.1732  0.2644
 5575SOL     OW28183   2.100   0.375   9.068 -0.1070  0.0262 -0.4230
 5575SOL    HW128184   2.096   0.377   8.972  1.3249  0.7876 -0.4747
 5575SOL    HW228185   2.084   0.468   9.086  0.6430  0.2340 -0.8045
 5576SOL     OW28186   3.646   4.524   5.804 -0.2764  0.1756 -0.2930
 5576SOL    HW128187   3.731   4.532   5.762  0.2043  0.6035  0.7538
 5576SOL    HW228188   3.680   4.500   5.890 -0.1439 -0.2121 -0.4537
 5577SOL     OW28189   0.231   4.052   9.483  0.3185  0.0103 -0.8393
 5577SOL    HW128190   0.252   4.108   9.408 -1.3414  1.7653 -0.0093
 5577SOL    HW228191   0.154   4.102   9.511  0.8136 -0.3973  1.2420
 5578SOL     OW28192   3.647   0.823   5.528  0.4620 -0.2031  0.4808
 5578SOL    HW128193   3.609   0.875   5.599  0.5736 -1.6329  1.5857
 5578SOL    HW228194   3.741   0.839   5.537  0.7725 -1.8581  0.3139
 5579SOL     OW28195   1.484   3.260   3.461  0.5263 -0.5145 -0.6806
 5579SOL    HW128196   1.478   3.197   3.532 -0.7284  0.8091  0.4073
 5579SOL    HW228197   1.496   3.200   3.387  0.4505 -1.0789 -0.2312
 5580SOL     OW28198   3.492   0.587   3.926 -0.0813  0.3662 -1.2120
 5580SOL    HW128199   3.558   0.610   3.990  1.3069 -1.0051 -2.1418
 5580SOL    HW228200   3.469   0.674   3.894  0.3109  0.4812 -1.1765
 5581SOL     OW28201   1.454   4.378  17.453  0.4434  0.4118  1.0882
 5581SOL    HW128202   1.419   4.335  17.531 -0.5182  1.6896  1.3481
 5581SOL    HW228203   1.401   4.347  17.379  2.1338 -0.8449  0.3982
 5582SOL     OW28204   2.158   0.357  16.710  0.3798 -0.0937  0.4418
 5582SOL    HW128205   2.194   0.277  16.749  2.2659  0.6235  0.1610
 5582SOL    HW228206   2.142   0.325  16.622  0.3235  2.6886 -0.5467
 5583SOL     OW28207   1.540   0.390   4.378 -0.4650 -0.0668  0.5448
 5583SOL    HW128208   1.453   0.408   4.340 -1.1123 -0.2585  1.9529
 5583SOL    HW228209   1.603   0.437   4.325  0.3461 -1.0822  0.6062
 5584SOL     OW28210   0.535   0.821   3.927 -0.3456 -0.4342 -0.1690
 5584SOL    HW128211   0.600   0.888   3.906 -1.2315  0.3032 -0.5524
 5584SOL    HW228212   0.493   0.819   3.841  1.3974  0.2524 -1.0387
 5585SOL     OW28213   1.416   3.238  15.027 -0.1670  0.1233 -0.1035
 5585SOL    HW128214   1.438   3.316  14.976 -0.2128 -0.6157 -1.2666
 5585SOL    HW228215   1.351   3.265  15.091 -0.4317  3.8167 -1.8973
 5586SOL     OW28216   1.746   2.322   9.222 -0.2371 -0.7741  0.2830
 5586SOL    HW128217   1.711   2.392   9.168 -1.1233  0.1300  2.0367
 5586SOL    HW228218   1.784   2.359   9.302 -1.3205  0.8947  0.0293
 5587SOL     OW28219   2.745   3.547   7.306  0.4791 -0.0433  0.1215
 5587SOL    HW128220   2.784   3.597   7.378  0.2684 -0.1951  0.3435
 5587SOL    HW228221   2.686   3.614   7.270  1.0579  0.6233  0.4058
 5588SOL     OW28222   2.578   1.448   0.807  0.0972 -0.0941  0.1351
 5588SOL    HW128223   2.482   1.450   0.799  0.2289  0.8510 -1.3200
 5588SOL    HW228224   2.602   1.357   0.787  1.5531  0.9369 -2.7942
 5589SOL     OW28225   4.440   2.380   8.571 -0.0653  0.1083  0.4895
 5589SOL    HW128226   4.376   2.385   8.499 -0.2666  0.3965  0.6877
 5589SOL    HW228227   4.453   2.287   8.591 -4.1406 -0.5704  0.0635
 5590SOL     OW28228   3.791   2.156   5.282 -0.1305  0.1342  0.1175
 5590SOL    HW128229   3.756   2.141   5.195 -1.6960  0.0800  0.7620
 5590SOL    HW228230   3.869   2.207   5.260  0.0001 -0.4844 -0.8656
 5591SOL     OW28231   2.147   3.217   2.293  0.2196 -0.4539  0.0111
 5591SOL    HW128232   2.070   3.265   2.323  0.3210 -0.1900 -0.1553
 5591SOL    HW228233   2.104   3.152   2.237  1.8504 -1.0790 -0.5361
 5592SOL     OW28234   1.000   3.369  11.842  0.2286 -0.3207  0.6119
 5592SOL    HW128235   1.011   3.367  11.747 -0.3329 -1.3614  0.5677
 5592SOL    HW228236   1.012   3.276  11.863  0.8239 -0.3035  0.3410
 5593SOL     OW28237   2.679   4.665   7.050  0.2225 -0.6237  0.0786
 5593SOL    HW128238   2.726   4.653   7.133  1.5890 -1.4785 -0.8114
 5593SOL    HW228239   2.710   4.588   7.003  1.3216 -1.5759  2.3997
 5594SOL     OW28240   3.795   4.241   2.654 -0.1283 -0.2651 -0.4053
 5594SOL    HW128241   3.890   4.224   2.653  0.0757  0.8908 -0.1529
 5594SOL    HW228242   3.786   4.292   2.734  1.0623 -0.9135  0.1391
 5595SOL     OW28243   0.308   4.158   5.608 -0.3073  0.6216  0.5445
 5595SOL    HW128244   0.292   4.130   5.518 -3.4350 -3.4602  2.3235
 5595SOL    HW228245   0.331   4.250   5.596  2.8760 -0.3361 -0.4862
 5596SOL     OW28246   1.865   0.559  14.408  0.3187  0.2045  0.1707
 5596SOL    HW128247   1.802   0.535  14.476  1.4283  1.0044  1.4693
 5596SOL    HW228248   1.838   0.649  14.391  0.7999 -0.1625 -2.6056
 5597SOL     OW28249   0.318   2.914   7.459 -0.0787 -0.0858  0.0606
 5597SOL    HW128250   0.231   2.879   7.440 -0.8490  0.6743  2.1785
 5597SOL    HW228251   0.317   2.949   7.548  2.0268  0.3871 -0.1086
 5598SOL     OW28252   0.710   1.551   0.294 -0.2116  0.5695  0.0394
 5598SOL    HW128253   0.724   1.520   0.384 -2.5835  1.1970  0.6314
 5598SOL    HW228254   0.761   1.492   0.238 -1.5749 -1.3481  0.8266
 5599SOL     OW28255   3.002   3.712   5.744  0.7047  0.4139  0.0758
 5599SOL    HW128256   3.052   3.672   5.673  0.0434 -0.2418 -0.0282
 5599SOL    HW228257   2.920   3.662   5.742  1.4322 -0.7487 -0.7799
 5600SOL     OW28258   2.795   3.066  14.475 -0.1164  0.1068 -0.1780
 5600SOL    HW128259   2.833   3.017  14.548  1.1043 -1.0216 -1.5517
 5600SOL    HW228260   2.853   3.142  14.477 -0.0712  0.1318 -2.1034
 5601SOL     OW28261   4.238   1.645  16.827 -0.3910  0.1550 -0.3963
 5601SOL    HW128262   4.311   1.667  16.770  0.6480 -1.3938  0.3381
 5601SOL    HW228263   4.158   1.663  16.777 -0.2086 -1.0031 -1.0963
 5602SOL     OW28264   2.713   2.710   9.795  0.2580 -0.0085  1.2678
 5602SOL    HW128265   2.715   2.760   9.713  1.2671 -0.7862  0.8055
 5602SOL    HW228266   2.791   2.749   9.835  1.1446  2.0341 -2.4585
 5603SOL     OW28267   0.861   0.704   5.990 -0.0601 -0.4856 -0.0881
 5603SOL    HW128268   0.950   0.675   6.011 -0.9316 -1.1601  2.6620
 5603SOL    HW228269   0.876   0.796   5.967 -1.0373 -0.2384  0.2737
 5604SOL     OW28270   1.238   0.619   7.495 -0.1535  0.5662 -0.7033
 5604SOL    HW128271   1.223   0.545   7.554  0.8915  0.8754 -0.0652
 5604SOL    HW228272   1.334   0.623   7.494 -0.1133  0.4082  3.1065
 5605SOL     OW28273   3.230   1.530   5.208  0.2371  0.0241 -0.3973
 5605SOL    HW128274   3.233   1.566   5.297 -1.5891  0.2924 -0.4519
 5605SOL    HW228275   3.146   1.555   5.169  0.9514  0.7659 -1.4525
 5606SOL     OW28276   4.460   3.689   5.488 -0.2109 -0.6060 -0.5294
 5606SOL    HW128277   4.392   3.742   5.446 -0.1553 -0.4470 -0.4182
 5606SOL    HW228278   4.536   3.710   5.434  0.0344 -0.2299 -0.0278
 5607SOL     OW28279   1.961   4.523  16.269 -0.2855 -0.5225 -0.1513
 5607SOL    HW128280   2.012   4.541  16.349 -1.9711  0.6477  0.6641
 5607SOL    HW228281   1.954   4.428  16.281 -0.4290 -0.2974  1.5823
 5608SOL     OW28282   3.407   1.675  10.562  0.2543  0.0849  0.1550
 5608SOL    HW128283   3.389   1.609  10.629  1.1365 -1.8506 -1.5146
 5608SOL    HW228284   3.415   1.756  10.613  0.7120  0.4551 -0.5027
 5609SOL     OW28285   2.466   1.555  16.636 -0.1102  0.4857  0.5685
 5609SOL    HW128286   2.398   1.518  16.579 -1.1591  0.8262  1.5910
 5609SOL    HW228287   2.510   1.618  16.579  0.6714  1.4196  2.2390
 5610SOL     OW28288   0.256   0.401   7.838  0.0324 -0.1149 -0.5515
 5610SOL    HW128289   0.259   0.416   7.743 -1.1245  0.1333 -0.5485
 5610SOL    HW228290   0.237   0.485   7.880 -0.0510  0.2485 -1.3170
 5611SOL     OW28291   2.778   0.960   3.071 -0.3803  0.3037  0.0174
 5611SOL    HW128292   2.798   1.044   3.113  1.5966  0.1976 -0.7075
 5611SOL    HW228293   2.868   0.931   3.054 -0.2673  0.9757 -0.5252
 5612SOL     OW28294   0.137   0.233  17.200  0.0619 -0.4072 -0.2659
 5612SOL    HW128295   0.051   0.253  17.162 -1.4927  0.1319  3.4997
 5612SOL    HW228296   0.122   0.259  17.291  1.3868  2.0719 -0.7757
 5613SOL     OW28297   4.600   4.562   6.539 -0.3277 -0.0200  0.1364
 5613SOL    HW128298   4.683   4.608   6.532  0.3024 -1.1803  0.1104
 5613SOL    HW228299   4.579   4.581   6.630  0.4547  0.4901  0.2111
 5614SOL     OW28300   2.974   1.662   7.964 -0.4080 -0.7643  1.0094
 5614SOL    HW128301   3.006   1.686   8.051  2.7583 -3.0537  0.4610
 5614SOL    HW228302   3.043   1.711   7.919  0.3278 -2.6148  0.1433
 5615SOL     OW28303   2.634   0.614  15.650 -0.4738  0.2568 -0.0289
 5615SOL    HW128304   2.552   0.662  15.663 -0.3487 -0.1663  2.2812
 5615SOL    HW228305   2.696   0.661  15.706  0.3333 -1.7207  0.7373
 5616SOL     OW28306   0.302   1.024  12.673  0.3794  0.3837  0.0118
 5616SOL    HW128307   0.219   1.009  12.718  0.0457  0.9167 -0.4322
 5616SOL    HW228308   0.332   1.109  12.705 -1.2413  0.9828 -0.0855
 5617SOL     OW28309   0.491   4.293   7.197  0.4917  0.6721 -0.2056
 5617SOL    HW128310   0.574   4.332   7.171  1.6725 -0.9919  1.0859
 5617SOL    HW228311   0.477   4.225   7.130  1.3631  0.3694 -0.0776
 5618SOL     OW28312   3.833   1.844  14.240 -0.7757  0.4024  0.3745
 5618SOL    HW128313   3.915   1.841  14.290  0.3846 -0.1018 -1.5611
 5618SOL    HW228314   3.795   1.762  14.271 -0.4758 -0.2820 -1.0874
 5619SOL     OW28315   4.496   2.790   1.074 -0.3099 -0.2680  0.0395
 5619SOL    HW128316   4.423   2.841   1.039  1.7214  1.4240 -1.7272
 5619SOL    HW228317   4.514   2.728   1.003  1.5043  0.4964 -0.1527
 5620SOL     OW28318   0.552   4.376   4.283 -0.4233 -0.7326  0.1323
 5620SOL    HW128319   0.487   4.309   4.261 -1.4784  0.8245 -1.4981
 5620SOL    HW228320   0.625   4.316   4.272 -1.4942 -1.7487 -1.4190
 5621SOL     OW28321   2.902   0.948   9.423 -0.2600  0.3559 -0.3403
 5621SOL    HW128322   2.831   1.000   9.460 -0.2712 -0.6548  1.0580
 5621SOL    HW228323   2.958   0.941   9.501 -0.1392  1.5531 -0.3323
 5622SOL     OW28324   2.974   1.311   3.857 -0.7791 -0.5917 -0.3228
 5622SOL    HW128325   2.986   1.269   3.771  0.6075  0.3736 -0.6010
 5622SOL    HW228326   2.892   1.359   3.846 -0.2741  0.7092  1.7734
 5623SOL     OW28327   4.087   0.182  16.414 -0.1073 -0.0259  0.0513
 5623SOL    HW128328   4.151   0.194  16.343 -2.4876  2.4046 -1.6739
 5623SOL    HW228329   4.091   0.086  16.416  1.8546  0.0588  0.7846
 5624SOL     OW28330   4.556   0.192   5.819  0.5983  0.0142  0.1416
 5624SOL    HW128331   4.512   0.269   5.854  0.0513 -0.7318  1.0783
 5624SOL    HW228332   4.513   0.187   5.734 -0.7511 -0.3818  0.8577
 5625SOL     OW28333   0.789   0.477   1.367 -0.1221 -0.2441 -0.1456
 5625SOL    HW128334   0.871   0.512   1.400  0.1751  2.4719 -3.7922
 5625SOL    HW228335   0.817   0.431   1.288 -0.5034  0.5662 -0.7445
 5626SOL     OW28336   2.684   4.682   5.759 -0.2584  0.6399 -0.3662
 5626SOL    HW128337   2.655   0.048   5.775 -3.5193 -0.7099  1.3273
 5626SOL    HW228338   2.628   4.635   5.821 -1.5541  0.8837 -1.3640
 5627SOL     OW28339   4.071   3.078   3.287 -0.4045 -0.4649 -0.2133
 5627SOL    HW128340   4.165   3.091   3.299 -0.4509  0.4581 -0.8728
 5627SOL    HW228341   4.073   2.983   3.272  0.1526 -0.0703 -2.6154
 5628SOL     OW28342   3.866   3.858   5.066  0.0059 -0.2727 -0.2835
 5628SOL    HW128343   3.804   3.786   5.080 -1.4043  0.8261 -0.9404
 5628SOL    HW228344   3.884   3.890   5.154 -2.9399  0.4074  0.0834
 5629SOL     OW28345   3.943   1.266   1.684  0.1623  0.3892 -0.0047
 5629SOL    HW128346   3.996   1.346   1.685 -1.3727  1.4023  1.8157
 5629SOL    HW228347   3.990   1.219   1.615  0.7692  1.1998 -0.1349
 5630SOL     OW28348   3.342   4.501   0.954  0.0237  0.2880 -0.6131
 5630SOL    HW128349   3.305   4.586   0.927  0.7834  0.2937 -1.6151
 5630SOL    HW228350   3.425   4.528   0.991  0.6605  0.2354 -1.9940
 5631SOL     OW28351   3.571   3.033   8.722 -0.1022 -0.0091  0.1579
 5631SOL    HW128352   3.660   3.003   8.703 -0.2111  0.2293 -0.7601
 5631SOL    HW228353   3.575   3.083   8.804  2.6688  0.7878 -0.4747
 5632SOL     OW28354   2.933   1.820   1.219 -0.4468 -0.5838 -0.0266
 5632SOL    HW128355   2.962   1.822   1.128  0.8198 -2.4409  0.3263
 5632SOL    HW228356   3.004   1.869   1.261 -2.0374  2.1022 -0.5044
 5633SOL     OW28357   2.914   0.446   9.087  0.5922 -0.4238  0.7159
 5633SOL    HW128358   2.866   0.494   9.020  1.1849  1.2699  1.5000
 5633SOL    HW228359   2.925   0.503   9.164 -0.4004 -0.4740  0.8887
 5634SOL     OW28360   2.919   1.712   9.419  0.0215  0.1897 -0.2275
 5634SOL    HW128361   2.830   1.695   9.390  0.3334  1.5697 -1.9958
 5634SOL    HW228362   2.915   1.798   9.461  0.6899  0.5018 -0.7940
 5635SOL     OW28363   1.737   2.060   1.585 -0.8597 -0.5453 -0.7127
 5635SOL    HW128364   1.706   1.970   1.577 -0.1631 -0.8787  0.3042
 5635SOL    HW228365   1.806   2.065   1.518  0.7730  1.4121  1.0962
 5636SOL     OW28366   4.441   0.420   8.701  0.3813  0.5101 -0.1023
 5636SOL    HW128367   4.404   0.392   8.618  0.1753 -1.2461  0.5744
 5636SOL    HW228368   4.381   0.478   8.748  0.5306 -1.1030  2.1170
 5637SOL     OW28369   2.585   2.586   7.020 -0.2922 -0.3419 -0.6598
 5637SOL    HW128370   2.666   2.557   6.979  0.5215  2.4750 -1.0513
 5637SOL    HW228371   2.552   2.507   7.063 -0.2319 -1.0590 -1.9235
 5638SOL     OW28372   3.642   4.007   7.053  0.2775  0.0863  0.5889
 5638SOL    HW128373   3.718   4.034   7.105  0.4363  3.3955 -1.3628
 5638SOL    HW228374   3.578   3.998   7.123  0.6370 -1.6595  0.6730
 5639SOL     OW28375   3.168   4.023  13.094 -0.4752  0.1184 -0.0024
 5639SOL    HW128376   3.194   4.109  13.062 -1.7357 -0.1381 -1.7454
 5639SOL    HW228377   3.202   4.025  13.183 -2.2408  1.4510  0.6400
 5640SOL     OW28378   0.153   2.417   3.767 -0.0913  0.5273 -0.5431
 5640SOL    HW128379   0.190   2.504   3.784  3.4362 -1.0971  0.0020
 5640SOL    HW228380   0.128   2.429   3.676  0.7018 -0.5617 -0.8953
 5641SOL     OW28381   4.170   2.390   1.347 -0.3661  0.1918  0.0091
 5641SOL    HW128382   4.080   2.366   1.328 -0.0893 -3.1235  2.8101
 5641SOL    HW228383   4.161   2.433   1.432  0.2234 -1.7890  1.0754
 5642SOL     OW28384   2.525   3.881   6.776  0.3694 -0.4384 -0.0544
 5642SOL    HW128385   2.606   3.853   6.820  0.6295 -1.0002 -0.8874
 5642SOL    HW228386   2.543   3.872   6.682 -1.8742 -0.7914 -0.4491
 5643SOL     OW28387   2.531   3.056   7.677 -0.3924 -0.1657  0.0137
 5643SOL    HW128388   2.530   2.961   7.665 -0.6037 -0.0037 -1.2732
 5643SOL    HW228389   2.477   3.085   7.604 -0.7570 -2.0373 -0.4478
 5644SOL     OW28390   3.488   4.693   1.875 -0.1150  0.4536 -0.2951
 5644SOL    HW128391   3.416   4.678   1.814  0.5660 -1.1009 -0.7253
 5644SOL    HW228392   3.428   4.698   1.950  0.0349  0.7412 -0.1974
 5645SOL     OW28393   3.316   1.136   3.893  0.1017 -0.0986 -0.0432
 5645SOL    HW128394   3.246   1.071   3.889 -0.0168  0.0876 -0.9242
 5645SOL    HW228395   3.274   1.212   3.851  0.0546 -0.3729 -0.4859
 5646SOL     OW28396   1.358   2.348   1.212  0.2306  0.2802 -0.4139
 5646SOL    HW128397   1.293   2.294   1.167 -0.0115 -0.2783  0.5956
 5646SOL    HW228398   1.327   2.347   1.303  3.8230  0.0522  0.7879
 5647SOL     OW28399   1.370   3.445   8.540  0.5925 -0.2648  0.2447
 5647SOL    HW128400   1.452   3.447   8.590  0.5996  1.1528  0.1976
 5647SOL    HW228401   1.346   3.353   8.552  1.6988 -0.6291 -0.3673
 5648SOL     OW28402   3.319   1.180  15.454 -0.3132 -0.3702  0.1535
 5648SOL    HW128403   3.344   1.111  15.392  0.2767 -0.8514  0.9348
 5648SOL    HW228404   3.400   1.231  15.458  0.9424 -2.2375 -1.3108
 5649SOL     OW28405   1.341   4.692   1.613  0.1257 -0.1972  0.6075
 5649SOL    HW128406   1.359   0.057   1.582  0.3819 -0.2582  0.5819
 5649SOL    HW228407   1.426   4.650   1.596 -0.5425 -1.4535  0.3029
 5650SOL     OW28408   2.554   4.129  10.002 -0.3715 -0.3083  0.1621
 5650SOL    HW128409   2.481   4.154   9.945  0.3517 -0.8743 -0.9947
 5650SOL    HW228410   2.523   4.183  10.075 -0.7690 -0.4874  0.1284
 5651SOL     OW28411   2.381   3.557  16.744  0.2501 -0.8548  0.3992
 5651SOL    HW128412   2.308   3.583  16.800  0.4937 -1.6038  1.0678
 5651SOL    HW228413   2.456   3.594  16.789  2.1495 -1.0774 -2.5508
 5652SOL     OW28414   0.078   4.577  14.614 -0.2234 -0.3108 -0.5895
 5652SOL    HW128415   4.719   4.565  14.661  0.1946  0.5284  0.3667
 5652SOL    HW228416   0.114   4.656  14.654  0.8364 -1.7079  1.2055
 5653SOL     OW28417   3.029   1.527   6.077  0.3644 -0.4958  0.3879
 5653SOL    HW128418   2.957   1.478   6.037  0.4500 -0.9780  0.8320
 5653SOL    HW228419   3.095   1.502   6.012 -0.1287  0.2610 -0.4018
 5654SOL     OW28420   4.054   1.115  11.745 -0.0316 -0.4206  0.3130
 5654SOL    HW128421   3.975   1.064  11.762 -1.4509  2.0529  1.1193
 5654SOL    HW228422   4.051   1.125  11.650 -2.5759 -1.7217  0.2594
 5655SOL     OW28423   1.480   1.380   7.332  0.2265 -0.2613 -0.1060
 5655SOL    HW128424   1.496   1.312   7.397  1.4269 -2.9337 -3.2076
 5655SOL    HW228425   1.444   1.449   7.389 -0.2568  0.4780 -1.2946
 5656SOL     OW28426   2.665   1.127   9.360 -0.5238  0.9616 -0.2428
 5656SOL    HW128427   2.702   1.186   9.425  0.0037 -0.4570  0.7379
 5656SOL    HW228428   2.621   1.066   9.419  1.5971 -1.0450 -0.7677
 5657SOL     OW28429   0.218   3.276  15.131 -0.3623  0.2089 -0.1242
 5657SOL    HW128430   0.195   3.231  15.050  0.4390  1.5272 -1.0857
 5657SOL    HW228431   0.136   3.325  15.139 -0.7752 -0.8170  1.9513
 5658SOL     OW28432   0.500   0.137   5.493 -0.1664  0.4504 -0.7117
 5658SOL    HW128433   0.594   0.120   5.494 -0.2351  0.3318  2.4059
 5658SOL    HW228434   0.496   0.171   5.403 -1.6725 -0.5651 -1.0234
 5659SOL     OW28435   0.498   1.522   1.793  0.4062 -0.0522 -0.5390
 5659SOL    HW128436   0.510   1.607   1.749 -2.0508  1.3553  1.5061
 5659SOL    HW228437   0.586   1.486   1.783  0.8752  0.7306  0.7235
 5660SOL     OW28438   2.756   1.919   0.834  0.3496  0.0272 -0.4942
 5660SOL    HW128439   2.747   1.906   0.928  1.0134 -1.4327 -0.6348
 5660SOL    HW228440   2.766   1.833   0.793  1.1286 -0.2111  0.1879
 5661SOL     OW28441   0.187   4.448   8.357 -0.1750 -0.2690 -0.1585
 5661SOL    HW128442   0.098   4.461   8.387  0.8312  1.4429  2.0379
 5661SOL    HW228443   0.178   4.397   8.276  2.6721  0.1618 -0.7594
 5662SOL     OW28444   2.655   1.519   3.461  0.1057 -0.1897 -0.7740
 5662SOL    HW128445   2.720   1.517   3.391  0.6959 -3.7911 -0.1180
 5662SOL    HW228446   2.610   1.436   3.446 -0.8423  0.5612 -2.0730
 5663SOL     OW28447   1.460   1.931   6.873 -0.3356 -0.1677 -0.1610
 5663SOL    HW128448   1.493   1.846   6.902  0.3598  0.5013  1.0615
 5663SOL    HW228449   1.487   1.930   6.781 -0.1380 -0.3887 -0.1019
 5664SOL     OW28450   1.226   4.113  10.805 -0.8114 -0.3096 -0.6786
 5664SOL    HW128451   1.266   4.120  10.891  0.0790  1.3154 -1.2365
 5664SOL    HW228452   1.286   4.050  10.765 -0.5671 -0.9354  0.6829
 5665SOL     OW28453   0.064   2.164   4.778 -0.2156  0.6932 -0.5020
 5665SOL    HW128454   0.078   2.096   4.712  0.0914  0.0535  0.2221
 5665SOL    HW228455   0.089   2.130   4.864  0.8132  1.1296 -0.6229
 5666SOL     OW28456   4.422   4.655  16.230  0.2285 -0.2904  0.3675
 5666SOL    HW128457   4.328   4.662  16.213  0.5323 -0.8091 -1.4964
 5666SOL    HW228458   4.431   4.560  16.222 -0.3486 -0.3778  0.7474
 5667SOL     OW28459   0.346   2.223   8.785  0.0354 -0.1379  0.0786
 5667SOL    HW128460   0.260   2.219   8.826 -0.1475  2.3375 -0.0712
 5667SOL    HW228461   0.397   2.202   8.863  1.0261 -0.2417 -0.6011
 5668SOL     OW28462   2.485   4.511  10.678  0.2406 -0.4969  0.0100
 5668SOL    HW128463   2.507   4.419  10.665 -2.0137 -1.0917  0.4046
 5668SOL    HW228464   2.562   4.555  10.643 -0.1230 -0.2499 -0.4792
 5669SOL     OW28465   2.100   1.867   5.018  0.2046 -0.0775 -0.0692
 5669SOL    HW128466   2.123   1.812   4.943  1.8061  1.5922 -0.8180
 5669SOL    HW228467   2.081   1.795   5.077 -1.5166  1.0542  0.7403
 5670SOL     OW28468   4.223   1.676  11.806 -0.5689  0.3263 -0.2379
 5670SOL    HW128469   4.246   1.767  11.787 -1.7621  0.1048 -2.7456
 5670SOL    HW228470   4.181   1.688  11.891  2.1303  1.1315  0.9951
 5671SOL     OW28471   1.841   2.032  13.139  1.1379  0.2742 -0.3270
 5671SOL    HW128472   1.802   1.985  13.213  0.5707 -0.8506 -1.3528
 5671SOL    HW228473   1.762   2.078  13.109 -0.5222 -1.5419  1.2523
 5672SOL     OW28474   3.013   4.455  10.971  0.5497 -0.3616  0.8822
 5672SOL    HW128475   3.051   4.373  11.003 -2.6277 -2.4825 -0.7126
 5672SOL    HW228476   2.942   4.424  10.915  1.5202 -2.8098  1.0092
 5673SOL     OW28477   1.920   1.408   0.707  0.9288 -0.6437  0.0963
 5673SOL    HW128478   1.870   1.478   0.747  0.0911 -0.6834 -0.8791
 5673SOL    HW228479   1.865   1.385   0.632  0.8137  2.1929 -0.6832
 5674SOL     OW28480   3.743   4.645   7.194  0.1553 -0.1360 -0.5624
 5674SOL    HW128481   3.653   4.649   7.160 -0.2030  0.6716  0.4820
 5674SOL    HW228482   3.791   4.669   7.115 -1.0389 -1.2795 -1.6455
 5675SOL     OW28483   0.261   4.246   9.297  0.3268  0.0479  0.0821
 5675SOL    HW128484   0.346   4.257   9.254  0.9326 -0.6882  1.1024
 5675SOL    HW228485   0.227   4.335   9.307 -2.4522 -1.1522  1.0848
 5676SOL     OW28486   1.768   2.401  15.111  0.4927 -0.1706  0.4440
 5676SOL    HW128487   1.855   2.415  15.074  0.5464 -0.5577  0.4309
 5676SOL    HW228488   1.705   2.435  15.047 -1.1266 -0.6379  1.7926
 5677SOL     OW28489   4.639   1.367   5.298  0.3142 -0.3275 -0.8199
 5677SOL    HW128490   4.664   1.397   5.211 -0.7436  1.0873 -0.6423
 5677SOL    HW228491   4.657   1.443   5.353  1.9205 -2.4035  1.5359
 5678SOL     OW28492   3.767   4.023  17.566 -0.7305 -0.3194  0.7796
 5678SOL    HW128493   3.692   4.081  17.573 -1.8571 -1.9190  2.1409
 5678SOL    HW228494   3.793   4.037  17.475  1.0958 -0.8357  1.2175
 5679SOL     OW28495   2.931   3.712  14.733  0.4947  0.5894  0.2939
 5679SOL    HW128496   2.910   3.804  14.717  0.9542  0.7165  0.4153
 5679SOL    HW228497   2.849   3.675  14.765  1.0006 -0.6849  0.1210
 5680SOL     OW28498   1.730   3.138   2.242  0.3402 -0.3758  0.0515
 5680SOL    HW128499   1.695   3.050   2.235 -2.0750  0.3811  2.5475
 5680SOL    HW228500   1.790   3.123   2.316  0.3858 -1.8409 -0.2869
 5681SOL     OW28501   3.746   3.450   4.362 -0.1094 -0.4983  0.0429
 5681SOL    HW128502   3.664   3.490   4.394 -0.5091  1.2545 -3.1598
 5681SOL    HW228503   3.748   3.365   4.406  0.3977 -1.4848 -1.9246
 5682SOL     OW28504   1.194   1.492   5.100 -0.0712  0.0458 -0.0471
 5682SOL    HW128505   1.105   1.466   5.126  0.2071 -1.9318 -1.0264
 5682SOL    HW228506   1.185   1.577   5.058  0.8238 -0.3515 -1.0426
 5683SOL     OW28507   3.924   1.387   9.466  0.2486 -0.0056  0.0854
 5683SOL    HW128508   3.845   1.439   9.480  0.5785  1.0734 -2.1621
 5683SOL    HW228509   3.987   1.457   9.449 -0.8634  0.6992 -1.0989
 5684SOL     OW28510   0.187   1.997   4.593 -0.0473  0.4329  0.3522
 5684SOL    HW128511   0.215   2.082   4.560 -0.3977 -0.5409 -2.4586
 5684SOL    HW228512   0.147   1.955   4.517  0.9592  2.7147 -1.4250
 5685SOL     OW28513   4.334   2.768   3.043  0.3787  0.2977  0.3519
 5685SOL    HW128514   4.296   2.721   3.116 -0.0261 -0.9356 -0.6562
 5685SOL    HW228515   4.422   2.796   3.070  0.3646 -0.8922  1.5917
 5686SOL     OW28516   2.870   2.975   5.519 -0.0701 -0.3342 -0.0339
 5686SOL    HW128517   2.846   3.001   5.608  3.2974  1.0486  0.4451
 5686SOL    HW228518   2.878   3.066   5.490 -0.1813  0.8470  3.7113
 5687SOL     OW28519   4.395   1.296   9.095  0.2081 -0.2816  0.0099
 5687SOL    HW128520   4.444   1.342   9.162  0.0750  1.4168 -1.0463
 5687SOL    HW228521   4.311   1.335   9.120  0.2305 -0.0498 -0.2736
 5688SOL     OW28522   1.659   3.861   7.189 -0.5890  0.1037 -0.2882
 5688SOL    HW128523   1.601   3.873   7.265 -1.9469 -2.3806 -0.9168
 5688SOL    HW228524   1.667   3.766   7.203 -0.8966  0.0742 -0.3041
 5689SOL     OW28525   3.440   4.330   5.109 -0.0024 -0.2331 -0.6317
 5689SOL    HW128526   3.518   4.321   5.164 -0.7209 -1.6914  0.1611
 5689SOL    HW228527   3.442   4.252   5.054 -0.5276 -0.7288  0.0434
 5690SOL     OW28528   2.281   2.369   3.651  0.1153  0.0997  0.3727
 5690SOL    HW128529   2.243   2.290   3.690 -0.0371 -0.3066 -0.5992
 5690SOL    HW228530   2.215   2.413   3.598 -1.4296 -0.0460  2.2016
 5691SOL     OW28531   1.897   4.392   4.446  0.6163  0.5624 -0.6346
 5691SOL    HW128532   1.880   4.347   4.364  1.2520 -1.0764  0.1223
 5691SOL    HW228533   1.968   4.451   4.420  2.5962 -0.8960  1.4227
 5692SOL     OW28534   4.171   0.848   2.252  0.6471  0.3472 -0.2726
 5692SOL    HW128535   4.237   0.801   2.202  1.1744  1.0129 -0.1948
 5692SOL    HW228536   4.110   0.776   2.270  0.9911  0.1300  0.0266
 5693SOL     OW28537   3.520   2.311   8.027 -0.2997 -0.5312 -0.0432
 5693SOL    HW128538   3.574   2.299   7.949 -0.0235 -0.5820  0.1524
 5693SOL    HW228539   3.591   2.307   8.092 -0.5195 -0.8408  0.1785
 5694SOL     OW28540   2.453   4.376   6.926  0.2045 -0.3229 -0.7042
 5694SOL    HW128541   2.413   4.385   7.013  1.2347 -2.1013 -0.0643
 5694SOL    HW228542   2.440   4.463   6.888  2.6800  1.3479  2.2864
 5695SOL     OW28543   3.733   0.325   7.947  0.5532 -0.1728 -0.5214
 5695SOL    HW128544   3.817   0.359   7.917 -0.7745  2.6648 -1.0352
 5695SOL    HW228545   3.734   0.374   8.030 -1.2044  0.8556 -1.0969
 5696SOL     OW28546   3.944   0.209  15.033 -0.5692 -0.0517 -0.0486
 5696SOL    HW128547   3.895   0.148  15.089 -0.6215  0.3349  0.3275
 5696SOL    HW228548   3.930   0.157  14.954 -2.1826 -0.6831  0.6318
 5697SOL     OW28549   4.255   4.595  13.675 -0.3769 -0.4331  0.2611
 5697SOL    HW128550   4.328   4.644  13.713 -0.5432 -0.2675  0.3663
 5697SOL    HW228551   4.238   4.530  13.744  2.2289 -1.6088 -0.1959
 5698SOL     OW28552   3.861   2.687  12.321 -0.4599  0.4121 -0.0490
 5698SOL    HW128553   3.828   2.600  12.299  0.3408  0.3831 -1.1614
 5698SOL    HW228554   3.783   2.712  12.370 -0.5538  1.5177 -0.7409
 5699SOL     OW28555   0.969   2.261   8.032  0.0984  0.1869  0.7946
 5699SOL    HW128556   0.948   2.351   8.058 -0.9143  0.2084 -0.1364
 5699SOL    HW228557   0.956   2.265   7.937  1.5905  0.6749  0.6069
 5700SOL     OW28558   3.836   2.971   8.399 -0.2762  0.0116  0.3448
 5700SOL    HW128559   3.784   3.050   8.389  1.5105  1.1089 -0.1943
 5700SOL    HW228560   3.759   2.915   8.416  0.5379 -1.0294  0.6368
 5701SOL     OW28561   2.581   4.221   6.221 -0.0787  1.6846  0.4948
 5701SOL    HW128562   2.599   4.174   6.139  0.7384  3.4938 -0.3632
 5701SOL    HW228563   2.605   4.157   6.288  2.2068  2.0902  0.0604
 5702SOL     OW28564   3.298   3.751   8.200  0.4662 -0.5138 -0.4947
 5702SOL    HW128565   3.350   3.719   8.126 -0.8337  0.2602 -1.7423
 5702SOL    HW228566   3.290   3.675   8.257  0.5633 -0.7282 -0.7663
 5703SOL     OW28567   0.284   2.703   3.834  0.5317 -0.0203  0.5728
 5703SOL    HW128568   0.363   2.757   3.838  1.8023 -1.5548 -3.6643
 5703SOL    HW228569   0.298   2.648   3.911 -0.5136 -1.8259 -0.5232
 5704SOL     OW28570   0.762   4.394   4.912  0.2297  0.1459 -0.0837
 5704SOL    HW128571   0.858   4.400   4.907  0.2906 -2.1085 -1.7023
 5704SOL    HW228572   0.766   4.300   4.898  0.2882  0.3531 -1.4061
 5705SOL     OW28573   0.555   4.466   2.807  0.1249  0.2965  0.3452
 5705SOL    HW128574   0.629   4.503   2.855  0.5003  0.5864 -0.4627
 5705SOL    HW228575   0.572   4.373   2.819 -0.1890  0.8111  4.5902
 5706SOL     OW28576   2.275   3.836   3.999  0.0766  0.1929 -0.4013
 5706SOL    HW128577   2.294   3.904   3.934 -0.3248 -1.5599 -2.3505
 5706SOL    HW228578   2.292   3.886   4.079 -0.6229  0.6592 -0.5455
 5707SOL     OW28579   0.362   2.590   4.742 -0.0305  0.3664 -0.4685
 5707SOL    HW128580   0.454   2.599   4.769 -0.0834 -0.6516  0.0714
 5707SOL    HW228581   0.336   2.527   4.810 -2.0705  1.0645 -0.6249
 5708SOL     OW28582   2.169   2.989  10.140  0.4353  0.2081 -0.2543
 5708SOL    HW128583   2.149   2.948  10.224  0.8845  0.1454 -0.1791
 5708SOL    HW228584   2.262   2.969  10.132  0.5477  0.2907  0.8746
 5709SOL     OW28585   3.569   4.033   5.254  0.0468 -0.1047 -0.1280
 5709SOL    HW128586   3.516   4.057   5.178  0.1691 -1.2266 -0.5558
 5709SOL    HW228587   3.612   4.118   5.264 -2.8919  1.3115  0.4705
 5710SOL     OW28588   2.651   2.113  12.458 -0.1174 -0.4874 -1.1974
 5710SOL    HW128589   2.583   2.149  12.400 -0.3592  1.6790  0.4234
 5710SOL    HW228590   2.601   2.054  12.513 -1.3777  0.4541 -1.3219
 5711SOL     OW28591   3.119   3.833   5.361  0.3565 -0.0570 -0.4359
 5711SOL    HW128592   3.039   3.874   5.394 -0.2199 -2.3651  1.0758
 5711SOL    HW228593   3.127   3.751   5.411  3.4313  1.1479  1.0171
 5712SOL     OW28594   0.390   0.716  15.691 -0.3551 -0.2269 -0.0605
 5712SOL    HW128595   0.367   0.737  15.600 -3.7574  0.6096  0.9781
 5712SOL    HW228596   0.466   0.772  15.708  0.2898 -1.1118 -0.0373
 5713SOL     OW28597   2.318   2.256   4.038 -0.2044 -0.2745 -0.0385
 5713SOL    HW128598   2.278   2.342   4.025  1.3143  0.0456 -2.5934
 5713SOL    HW228599   2.392   2.278   4.094  0.5241 -2.6670 -0.0881
 5714SOL     OW28600   1.743   4.500  11.329  0.4809  0.4021 -0.1866
 5714SOL    HW128601   1.748   4.592  11.354  0.9350  0.3333 -0.0257
 5714SOL    HW228602   1.648   4.498  11.318  0.2597  1.0378  1.6355
 5715SOL     OW28603   3.855   0.355   8.930  0.0585 -0.2285  0.1949
 5715SOL    HW128604   3.899   0.345   8.846  3.1607  0.7814  1.7096
 5715SOL    HW228605   3.900   0.296   8.991  2.6554  1.5067 -0.0574
 5716SOL     OW28606   3.960   4.274   2.382 -0.2933  0.0989 -0.5754
 5716SOL    HW128607   4.019   4.276   2.457 -3.4780  1.2052  1.9361
 5716SOL    HW228608   4.016   4.241   2.312 -1.6099  0.2320 -1.7050
 5717SOL     OW28609   0.667   1.276   7.016 -0.4386 -0.3133  0.0212
 5717SOL    HW128610   0.695   1.213   7.082  0.2201 -1.1375 -1.0314
 5717SOL    HW228611   0.678   1.227   6.935  1.7364 -1.2927  0.8927
 5718SOL     OW28612   0.528   4.548   9.288  0.0418 -0.1916 -0.4889
 5718SOL    HW128613   0.622   4.557   9.274  0.0102  1.3445  0.2772
 5718SOL    HW228614   0.520   4.529   9.381  2.1533  0.1262 -0.2408
 5719SOL     OW28615   2.458   4.443  13.300  0.0553 -0.1011 -0.0166
 5719SOL    HW128616   2.478   4.456  13.207  0.6013  0.9870  0.2464
 5719SOL    HW228617   2.476   4.530  13.336 -1.5409  0.8166 -1.4324
 5720SOL     OW28618   0.595   4.031  15.164 -0.2582 -0.3747 -0.3903
 5720SOL    HW128619   0.666   4.041  15.101  0.1368  0.3565  0.1871
 5720SOL    HW228620   0.581   4.118  15.200  1.7187  1.3079 -3.6786
 5721SOL     OW28621   3.321   1.022   0.861 -0.4067 -0.1760  0.1748
 5721SOL    HW128622   3.322   0.946   0.919  1.7467  1.6960  2.6233
 5721SOL    HW228623   3.236   1.022   0.817 -0.1565 -1.6504 -0.2923
 5722SOL     OW28624   3.853   3.761   1.159 -0.3326 -0.2158 -0.2559
 5722SOL    HW128625   3.830   3.779   1.250 -2.0084  0.7810 -0.8579
 5722SOL    HW228626   3.944   3.789   1.152 -0.8044  1.6439  1.0005
 5723SOL     OW28627   2.295   4.134   1.235  0.2320  0.6497 -0.1922
 5723SOL    HW128628   2.201   4.124   1.221  0.3013 -2.2607  1.3297
 5723SOL    HW228629   2.322   4.042   1.228 -1.1146  0.0726  1.9895
 5724SOL     OW28630   2.150   1.240   7.515 -0.1656 -0.2697  0.5030
 5724SOL    HW128631   2.215   1.306   7.536 -1.7739  1.2611  0.6496
 5724SOL    HW228632   2.200   1.164   7.545 -0.0151  0.3249  1.7465
 5725SOL     OW28633   4.507   3.953   1.540 -0.0073  0.0530  0.2442
 5725SOL    HW128634   4.493   4.041   1.575 -0.7496  0.2695 -0.6082
 5725SOL    HW228635   4.570   3.926   1.607 -0.9572  2.5554  2.1758
 5726SOL     OW28636   2.576   2.365   4.329 -0.7044  0.2530 -0.4678
 5726SOL    HW128637   2.524   2.437   4.291 -1.6576 -0.4903 -0.5753
 5726SOL    HW228638   2.615   2.328   4.250 -0.7815 -0.6690 -0.0778
 5727SOL     OW28639   2.317   3.272  10.155  0.3396  0.1833  0.7893
 5727SOL    HW128640   2.245   3.260  10.217  0.5184  1.0955  1.1683
 5727SOL    HW228641   2.391   3.287  10.213 -0.4539  1.7240  1.4109
 5728SOL     OW28642   4.247   4.023   6.790 -0.0642  0.4944 -0.0942
 5728SOL    HW128643   4.309   4.013   6.863 -0.7321  1.2174  0.5722
 5728SOL    HW228644   4.266   4.116   6.775 -2.5064  1.2857  1.7601
 5729SOL     OW28645   1.658   1.026   7.318 -0.6034 -0.2659 -0.1809
 5729SOL    HW128646   1.743   1.069   7.311 -0.2392 -1.1586 -1.1855
 5729SOL    HW228647   1.689   0.937   7.299  1.0913  0.4264 -0.6657
 5730SOL     OW28648   3.979   4.515  12.691  0.3027  0.7308 -0.3039
 5730SOL    HW128649   4.019   4.455  12.754 -1.0437  1.5648  1.3549
 5730SOL    HW228650   4.054   4.569  12.667 -0.3152  1.1799 -1.2437
 5731SOL     OW28651   1.693   2.426   3.041  0.4950  0.5062 -0.1338
 5731SOL    HW128652   1.701   2.520   3.023 -0.8806  0.0383 -3.1602
 5731SOL    HW228653   1.599   2.408   3.038  0.6537 -0.7481  2.2274
 5732SOL     OW28654   1.068   3.170   9.159  0.1526  0.0286 -0.2798
 5732SOL    HW128655   1.120   3.186   9.238  0.2235  1.0657 -0.5489
 5732SOL    HW228656   1.024   3.255   9.159  0.0280 -0.0144  3.1939
 5733SOL     OW28657   4.636   2.281   3.882  0.0357  0.1331 -0.3353
 5733SOL    HW128658   0.007   2.274   3.886 -0.0374 -0.7065 -0.1953
 5733SOL    HW228659   4.619   2.371   3.854 -1.3297 -0.0054  0.0238
 5734SOL     OW28660   0.628   2.700   3.623 -0.4537  0.0736 -0.3411
 5734SOL    HW128661   0.719   2.728   3.624 -0.2758 -0.4905 -0.9132
 5734SOL    HW228662   0.587   2.785   3.642  1.2689  0.6653  0.7143
 5735SOL     OW28663   3.738   0.517   2.266 -0.1691  0.2844  0.0557
 5735SOL    HW128664   3.813   0.472   2.228 -0.3287 -1.6489  1.9774
 5735SOL    HW228665   3.730   0.588   2.203 -0.6924 -0.5594 -0.8294
 5736SOL     OW28666   2.243   1.438  10.259 -0.0052  0.6246  0.0487
 5736SOL    HW128667   2.233   1.362  10.316  1.0781  1.8608  1.9174
 5736SOL    HW228668   2.231   1.509  10.323  0.8440  0.6325  0.2059
 5737SOL     OW28669   4.099   4.025   3.528 -0.5611 -0.4425 -0.3441
 5737SOL    HW128670   4.150   3.995   3.603 -0.0763  0.4563 -0.3082
 5737SOL    HW228671   4.165   4.025   3.459 -1.2521 -2.1507 -0.9851
 5738SOL     OW28672   4.718   2.239   6.568 -0.4535  0.0541 -0.2171
 5738SOL    HW128673   4.661   2.174   6.527  0.6696 -1.3702  0.4927
 5738SOL    HW228674   0.039   2.187   6.635 -1.2991 -1.9336 -1.2019
 5739SOL     OW28675   3.786   3.047  11.697  0.3136  0.0456  0.3344
 5739SOL    HW128676   3.747   3.103  11.764  1.3935  2.3755 -0.9825
 5739SOL    HW228677   3.721   3.060  11.629 -1.5841  1.0353  2.3459
 5740SOL     OW28678   4.078   3.333   4.459  0.2198 -0.1508 -0.9510
 5740SOL    HW128679   4.064   3.320   4.552 -2.3938 -0.9695 -1.4403
 5740SOL    HW228680   4.017   3.272   4.417 -0.1666  0.5781 -1.4620
 5741SOL     OW28681   3.236   3.338   2.529  0.0187 -0.0824  0.8059
 5741SOL    HW128682   3.271   3.396   2.597 -1.3173  1.2362  0.3479
 5741SOL    HW228683   3.148   3.313   2.558 -0.2332  1.7314  1.6202
 5742SOL     OW28684   0.610   4.418   7.720 -0.1681  0.5279  0.2887
 5742SOL    HW128685   0.662   4.451   7.794 -0.1482 -0.5034  0.7448
 5742SOL    HW228686   0.654   4.341   7.683 -0.1629  0.4729  0.4090
 5743SOL     OW28687   1.050   0.750   0.499  0.0599  0.1743 -0.1089
 5743SOL    HW128688   1.077   0.678   0.557 -1.3043 -0.7742 -0.6557
 5743SOL    HW228689   0.966   0.714   0.470 -0.7569 -1.2093  3.9283
 5744SOL     OW28690   2.139   3.687   8.850 -0.0170  0.1314  0.3959
 5744SOL    HW128691   2.045   3.685   8.830  0.1355  1.5683 -0.4621
 5744SOL    HW228692   2.153   3.618   8.914 -1.9260  0.0390  0.7164
 5745SOL     OW28693   3.960   3.047  11.360 -0.5694 -0.3308 -0.0338
 5745SOL    HW128694   3.968   3.122  11.419 -0.4205 -0.2060 -0.2119
 5745SOL    HW228695   4.042   3.053  11.310 -0.8523 -0.2884 -0.4965
 5746SOL     OW28696   2.731   2.007   6.971 -0.0106  0.5353  0.1446
 5746SOL    HW128697   2.821   2.038   6.954  0.6560 -1.9119 -0.7336
 5746SOL    HW228698   2.697   2.012   6.881 -2.6783 -1.0815  1.0828
 5747SOL     OW28699   2.122   4.483   8.104 -0.0493  0.1638 -0.2099
 5747SOL    HW128700   2.212   4.503   8.129  0.6474 -0.1710 -2.3820
 5747SOL    HW228701   2.100   4.565   8.060 -2.2797 -1.4217 -2.0627
 5748SOL     OW28702   1.888   3.323   6.949  0.1303 -0.2567  0.0740
 5748SOL    HW128703   1.800   3.352   6.972  0.0121 -0.6172  0.0760
 5748SOL    HW228704   1.888   3.232   6.978  0.0178 -0.0339  0.7740
 5749SOL     OW28705   1.774   3.050   8.880  0.1691  0.2939 -0.0545
 5749SOL    HW128706   1.762   2.993   8.804  2.6567 -1.7252  1.0723
 5749SOL    HW228707   1.827   3.119   8.839  0.6352 -0.8368 -1.3478
 5750SOL     OW28708   2.133   0.366   3.226 -0.2531  0.0065  0.4865
 5750SOL    HW128709   2.067   0.308   3.188 -0.3223 -0.0945  0.7598
 5750SOL    HW228710   2.199   0.351   3.158 -1.2420 -1.4791 -0.1404
 5751SOL     OW28711   0.522   2.151   8.983 -0.3237  0.2728  0.4699
 5751SOL    HW128712   0.553   2.065   9.014  0.0867  0.6024  0.9649
 5751SOL    HW228713   0.604   2.181   8.944 -0.2735 -0.4034  0.0560
 5752SOL     OW28714   2.224   1.832  13.543 -0.1956  0.4709  0.1574
 5752SOL    HW128715   2.154   1.817  13.480  0.2909  0.0500 -0.2868
 5752SOL    HW228716   2.230   1.928  13.538 -1.6235  0.6726  2.3757
 5753SOL     OW28717   1.678   0.457   0.332  0.0449 -0.3848 -0.2459
 5753SOL    HW128718   1.635   0.525   0.383  1.8359  1.1626 -0.7920
 5753SOL    HW228719   1.734   0.516   0.282  1.1849 -3.3759 -2.4656
 5754SOL     OW28720   1.916   4.041   5.895 -0.5643 -0.0479  0.3926
 5754SOL    HW128721   1.884   3.957   5.927 -0.3572  0.1417  1.0862
 5754SOL    HW228722   2.004   4.050   5.931 -0.5159  1.4359 -0.0997
 5755SOL     OW28723   1.493   4.508  11.241  0.2262  1.1260  0.1918
 5755SOL    HW128724   1.402   4.535  11.237  0.7537  2.5994 -1.9020
 5755SOL    HW228725   1.500   4.443  11.171  1.1852  1.3377  0.0906
 5756SOL     OW28726   1.275   3.849  13.285  0.2672  0.0503 -0.7519
 5756SOL    HW128727   1.203   3.903  13.252 -0.1999 -0.8854 -1.2619
 5756SOL    HW228728   1.351   3.906  13.278 -0.6066  1.1992 -0.9734
 5757SOL     OW28729   4.242   0.091   0.017 -0.5054  0.3481  0.0187
 5757SOL    HW128730   4.296   0.071  17.636 -0.3046 -1.6621  0.6645
 5757SOL    HW228731   4.176   0.024  17.694 -1.2568  1.2657 -0.6032
 5758SOL     OW28732   1.767   2.787  16.220  0.0298 -0.6078 -0.0433
 5758SOL    HW128733   1.714   2.747  16.289 -0.6787 -0.2283 -0.3625
 5758SOL    HW228734   1.696   2.831  16.173  0.5871  0.9457  0.5819
 5759SOL     OW28735   2.937   2.948   1.534 -0.2229 -0.1114 -0.3029
 5759SOL    HW128736   2.926   3.025   1.590  1.6850 -1.3339  1.7723
 5759SOL    HW228737   2.859   2.947   1.479 -0.4192 -1.1922 -0.0026
 5760SOL     OW28738   1.170   1.468  14.899 -0.3405 -0.0070  0.3615
 5760SOL    HW128739   1.113   1.453  14.824 -0.0756 -0.0374  0.1662
 5760SOL    HW228740   1.149   1.559  14.920 -2.3799  0.1142 -2.2205
 5761SOL     OW28741   2.600   4.420   3.009 -0.4872  0.1093 -0.3084
 5761SOL    HW128742   2.566   4.332   2.998  1.8664 -0.6770 -1.3033
 5761SOL    HW228743   2.694   4.407   2.992 -1.0006 -1.2360 -2.0861
 5762SOL     OW28744   3.211   4.283  12.979 -0.2589 -0.3836  0.3803
 5762SOL    HW128745   3.269   4.254  12.909 -0.1108  0.6796  0.0532
 5762SOL    HW228746   3.131   4.288  12.927  0.2358  0.0424 -0.3508
 5763SOL     OW28747   4.459   1.807   5.502  0.3583 -0.0885 -0.2017
 5763SOL    HW128748   4.386   1.830   5.559  1.1805 -0.6730  1.1079
 5763SOL    HW228749   4.474   1.716   5.529  0.5394 -0.2680 -0.9115
 5764SOL     OW28750   4.221   1.990  16.371 -0.2645 -0.1456  0.4060
 5764SOL    HW128751   4.210   2.085  16.373  0.1038 -0.1203  1.2947
 5764SOL    HW228752   4.130   1.961  16.371  0.0465 -1.0969 -2.0261
 5765SOL     OW28753   2.956   2.475   1.788  0.0336  0.1429  0.3747
 5765SOL    HW128754   2.929   2.499   1.876 -1.7780 -1.1241  0.1471
 5765SOL    HW228755   2.873   2.436   1.760 -0.3141  1.7031 -0.7595
 5766SOL     OW28756   0.725   3.306   2.558  0.1942 -0.1339 -0.6025
 5766SOL    HW128757   0.795   3.266   2.610  1.3663  0.9159 -1.3536
 5766SOL    HW228758   0.700   3.225   2.514  1.1859  0.0797 -1.5489
 5767SOL     OW28759   2.909   4.353   5.551 -0.5157 -0.2746  0.1340
 5767SOL    HW128760   2.990   4.302   5.554  0.8388  1.7818 -1.0876
 5767SOL    HW228761   2.897   4.352   5.456 -3.4464 -0.9269  0.5262
 5768SOL     OW28762   0.734   1.756   3.430 -0.2523 -0.3475  0.2511
 5768SOL    HW128763   0.644   1.787   3.425  0.2039  1.2506  2.0355
 5768SOL    HW228764   0.720   1.666   3.400  1.5528 -0.7255  0.4975
 5769SOL     OW28765   1.141   1.842   0.554  0.4670  0.3992  0.5728
 5769SOL    HW128766   1.049   1.835   0.582  0.6991 -1.4727  0.8675
 5769SOL    HW228767   1.154   1.936   0.548  2.3131  0.0139 -1.5602
 5770SOL     OW28768   3.671   0.205   1.750 -0.2172  0.3226 -0.0805
 5770SOL    HW128769   3.764   0.181   1.741  0.1424  1.7051 -0.1002
 5770SOL    HW228770   3.638   0.128   1.795  2.3916 -0.9614 -0.3242
 5771SOL     OW28771   0.223   0.780   6.849  0.5154  0.9656 -0.3925
 5771SOL    HW128772   0.180   0.717   6.791  0.1933  0.6833  0.1505
 5771SOL    HW228773   0.186   0.753   6.933  0.6543 -0.0552 -0.6633
 5772SOL     OW28774   4.458   3.424   3.013 -0.5868 -0.1636 -0.2654
 5772SOL    HW128775   4.393   3.431   2.944 -1.1212 -1.7989  0.0822
 5772SOL    HW228776   4.519   3.495   2.992 -2.6561  1.8712  0.7501
 5773SOL     OW28777   3.868   4.341   2.932  0.7351 -0.3690  0.2742
 5773SOL    HW128778   3.840   4.431   2.917  2.8477  0.4732  1.4104
 5773SOL    HW228779   3.962   4.335   2.918  0.6997  0.0442 -0.1520
 5774SOL     OW28780   3.122   2.293   4.826 -0.0026  0.2327  0.1036
 5774SOL    HW128781   3.094   2.337   4.746 -0.6835  2.5573  1.6254
 5774SOL    HW228782   3.154   2.366   4.878  0.1818 -0.1069  0.4671
 5775SOL     OW28783   1.436   1.498   7.811  0.0560 -0.3872  0.7260
 5775SOL    HW128784   1.518   1.470   7.771 -1.5127 -0.9935 -2.0923
 5775SOL    HW228785   1.377   1.423   7.798 -0.6718  0.3944 -0.4630
 5776SOL     OW28786   0.144   0.539   6.714  0.0732 -0.2721  0.2621
 5776SOL    HW128787   0.216   0.516   6.656 -0.8159 -0.1521 -0.8963
 5776SOL    HW228788   0.118   0.451   6.743 -3.0661  0.2364 -0.9984
 5777SOL     OW28789   3.437   1.726   6.081 -0.2722 -0.1208 -0.4208
 5777SOL    HW128790   3.509   1.730   6.019  0.0399 -1.0954 -0.1275
 5777SOL    HW228791   3.387   1.659   6.034 -0.6197 -2.3186  3.0625
 5778SOL     OW28792   1.814   3.685  14.696 -0.2214 -0.0376 -0.2553
 5778SOL    HW128793   1.722   3.661  14.682 -0.5782  0.0433  1.8949
 5778SOL    HW228794   1.866   3.634  14.634 -2.1785 -2.8897  0.4249
 5779SOL     OW28795   1.494   3.851   3.982 -0.2033  0.0738 -0.0056
 5779SOL    HW128796   1.412   3.890   3.954  1.0903 -0.0735 -3.9884
 5779SOL    HW228797   1.474   3.783   4.047  0.0600  0.3536  0.3688
 5780SOL     OW28798   2.904   3.416  13.062 -0.1946 -0.2871 -0.0966
 5780SOL    HW128799   2.992   3.393  13.033  0.7411  1.5097  1.3017
 5780SOL    HW228800   2.912   3.494  13.118  2.4864 -1.4412  1.1307
 5781SOL     OW28801   1.879   2.022   1.343  0.2320  0.0476 -0.4113
 5781SOL    HW128802   1.968   1.990   1.328  0.7030  0.3077  1.8857
 5781SOL    HW228803   1.849   2.003   1.254 -0.8216 -0.1707 -0.0059
 5782SOL     OW28804   3.150   0.980   5.671  0.4819  0.1264 -0.1745
 5782SOL    HW128805   3.209   1.031   5.727  2.0715 -3.0264  0.9689
 5782SOL    HW228806   3.210   0.909   5.650 -1.0383 -0.7072 -1.7519
 5783SOL     OW28807   0.399   0.521   5.481 -0.0716  0.6581  0.2654
 5783SOL    HW128808   0.425   0.456   5.416 -0.5314  0.1856  0.5507
 5783SOL    HW228809   0.457   0.511   5.557 -0.1611 -1.3261  0.0734
 5784SOL     OW28810   2.958   0.720   3.799 -0.2617 -0.1403  0.5928
 5784SOL    HW128811   2.951   0.651   3.732 -2.1819 -1.2317  1.9079
 5784SOL    HW228812   2.998   0.666   3.867  0.8344  1.0770  0.9094
 5785SOL     OW28813   4.321   4.653   5.698 -1.0108 -0.4155  0.3689
 5785SOL    HW128814   4.357   4.642   5.786  0.1174 -2.4423 -0.3460
 5785SOL    HW228815   4.366   0.010   5.674  0.3071 -0.8087  1.5236
 5786SOL     OW28816   1.445   3.791   7.895  0.0271 -0.4094 -0.2119
 5786SOL    HW128817   1.408   3.851   7.960  1.9043 -1.8930  2.2527
 5786SOL    HW228818   1.501   3.733   7.948 -0.8701 -2.0000 -1.0210
 5787SOL     OW28819   2.105   0.632   9.180 -0.0054 -0.1366  0.0158
 5787SOL    HW128820   2.078   0.704   9.238 -0.0815  1.6375 -2.2257
 5787SOL    HW228821   2.156   0.682   9.116  0.8021 -2.0926 -0.8688
 5788SOL     OW28822   0.808   3.368  16.251 -0.5070  0.4633 -0.2360
 5788SOL    HW128823   0.867   3.433  16.214 -1.8177  1.6896 -0.1747
 5788SOL    HW228824   0.839   3.292  16.201 -0.5697 -0.0634  0.5339
 5789SOL     OW28825   1.943   1.036   3.222 -0.1254 -0.5827 -0.0174
 5789SOL    HW128826   1.994   0.967   3.180  0.2819 -0.5568  0.4344
 5789SOL    HW228827   1.928   1.086   3.142  0.8773  0.2523  0.3208
 5790SOL     OW28828   0.334   3.860  15.285  0.1733  0.0017 -0.2342
 5790SOL    HW128829   0.389   3.862  15.206  0.1068 -1.7994 -0.3105
 5790SOL    HW228830   0.265   3.797  15.266 -1.1390  1.5299 -0.5876
 5791SOL     OW28831   0.109   4.377   6.640 -0.1063 -0.2209 -0.4626
 5791SOL    HW128832   0.105   4.396   6.546 -1.2822  1.2508 -0.0990
 5791SOL    HW228833   0.017   4.351   6.645 -0.4317  0.9681 -0.3999
 5792SOL     OW28834   2.134   0.908   9.323  0.0528 -0.2209 -0.2812
 5792SOL    HW128835   2.055   0.881   9.371  1.5363  0.0377  2.3135
 5792SOL    HW228836   2.184   0.950   9.393  3.3329 -0.1909 -2.6728
 5793SOL     OW28837   4.062   1.336   9.744  0.2061 -0.3581 -0.0679
 5793SOL    HW128838   4.027   1.304   9.827  0.0333  1.1690  0.4400
 5793SOL    HW228839   3.990   1.395   9.720  0.8380  0.5102  0.1749
 5794SOL     OW28840   2.972   0.898   8.829 -0.0623 -0.6891 -0.2416
 5794SOL    HW128841   2.942   0.872   8.742  1.4966 -1.6975 -0.4823
 5794SOL    HW228842   2.889   0.921   8.872  0.0709 -1.4369  0.4201
 5795SOL     OW28843   4.530   2.060   2.453 -0.1004 -0.0743  0.0960
 5795SOL    HW128844   4.533   1.967   2.434  2.0201 -0.1240  0.6469
 5795SOL    HW228845   4.576   2.055   2.537  0.1492  4.6786  0.2629
 5796SOL     OW28846   1.584   4.702   2.999 -0.1543  0.1084  0.2401
 5796SOL    HW128847   1.629   4.620   2.980 -0.7298 -0.6157  1.9797
 5796SOL    HW228848   1.499   4.692   2.956 -0.3613  1.9380  0.2282
 5797SOL     OW28849   3.966   0.390   2.172 -0.0369  0.4055 -0.0520
 5797SOL    HW128850   3.904   0.319   2.152 -1.3399  1.2658  0.9480
 5797SOL    HW228851   4.050   0.354   2.200  0.2396 -0.0753 -1.4752
 5798SOL     OW28852   2.250   4.142   4.567  0.2448 -0.1554  0.5440
 5798SOL    HW128853   2.195   4.067   4.544 -0.7494  0.7233  0.0224
 5798SOL    HW228854   2.288   4.163   4.482  0.0705  1.7034  0.9180
 5799SOL     OW28855   3.243   1.876   2.209 -0.3553 -0.1014  0.4428
 5799SOL    HW128856   3.287   1.961   2.204  1.3946 -1.1384 -1.4462
 5799SOL    HW228857   3.306   1.820   2.163  0.2573  1.5641 -0.7443
 5800SOL     OW28858   0.791   1.970  16.368 -0.1558 -0.9030  0.8458
 5800SOL    HW128859   0.767   2.007  16.282 -1.4894 -0.9272  1.2079
 5800SOL    HW228860   0.722   1.904  16.375  0.9312 -2.2695 -1.0909
 5801SOL     OW28861   2.169   0.535   0.805  0.7119  0.8166  0.7331
 5801SOL    HW128862   2.149   0.577   0.889  1.0528  0.4731  0.9832
 5801SOL    HW228863   2.087   0.545   0.757  0.8214  3.7784  1.1230
 5802SOL     OW28864   4.277   3.420  12.178  0.4842  0.5636  0.0280
 5802SOL    HW128865   4.334   3.496  12.162  0.7743  0.3066 -0.1500
 5802SOL    HW228866   4.289   3.398  12.270  0.9854 -2.3225 -0.7452
 5803SOL     OW28867   2.383   4.596   5.626 -0.8882  0.0463 -0.1933
 5803SOL    HW128868   2.395   4.679   5.579  3.3037  0.7048  1.9959
 5803SOL    HW228869   2.345   4.628   5.708  1.1303  1.9474  0.0141
 5804SOL     OW28870   2.431   4.723  13.289 -0.2130 -0.4267  0.0384
 5804SOL    HW128871   2.357   0.048  13.252  0.6567  0.8026 -0.0839
 5804SOL    HW228872   2.422   0.012  13.383 -0.1969  0.8040 -0.1153
 5805SOL     OW28873   3.445   2.615   6.231 -0.4940 -0.1785 -0.3610
 5805SOL    HW128874   3.350   2.617   6.240 -0.3860 -1.1259  1.1285
 5805SOL    HW228875   3.467   2.704   6.258 -0.6929 -0.2794  0.1363
 5806SOL     OW28876   1.817   0.815  10.034 -0.1984 -0.1113  0.1084
 5806SOL    HW128877   1.821   0.870   9.956 -1.3172 -0.9330 -0.5267
 5806SOL    HW228878   1.806   0.887  10.096 -1.1069 -0.6088  0.5240
 5807SOL     OW28879   4.139   1.920   2.564  0.2104  0.0992  0.0100
 5807SOL    HW128880   4.095   1.843   2.529 -3.0697  2.1481 -0.3602
 5807SOL    HW228881   4.179   1.956   2.485  0.3574  0.1586  0.1111
 5808SOL     OW28882   0.303   3.295   2.131 -0.4414 -0.0441  0.3169
 5808SOL    HW128883   0.292   3.379   2.086  0.5758 -0.1873 -0.2081
 5808SOL    HW228884   0.324   3.326   2.219  3.2123  0.2682 -0.6645
 5809SOL     OW28885   4.193   4.547   1.229 -0.1953 -0.6422 -0.2147
 5809SOL    HW128886   4.261   4.608   1.257 -1.3044  0.1149  0.8239
 5809SOL    HW228887   4.230   4.467   1.268  0.5685  0.0993  0.6045
 5810SOL     OW28888   0.189   0.594   4.393  0.1310  0.0309 -0.5408
 5810SOL    HW128889   0.113   0.610   4.337 -0.6292  2.0894  1.0595
 5810SOL    HW228890   0.154   0.631   4.474 -0.4669  1.4139 -1.4370
 5811SOL     OW28891   2.811   1.331   9.203 -0.7120 -0.6752 -0.2788
 5811SOL    HW128892   2.743   1.348   9.138  0.4189 -1.0454 -1.5519
 5811SOL    HW228893   2.770   1.265   9.260 -1.3564  0.4822  0.5985
 5812SOL     OW28894   3.418   3.643   2.367 -0.8705 -0.1067  0.5957
 5812SOL    HW128895   3.450   3.580   2.432 -1.6994 -0.9418  0.2008
 5812SOL    HW228896   3.478   3.638   2.293 -1.7460  1.1200 -0.1877
 5813SOL     OW28897   2.042   4.101   6.461  0.0444 -0.0750 -0.1101
 5813SOL    HW128898   2.013   4.017   6.424 -2.6689  0.4937  0.7478
 5813SOL    HW228899   2.071   4.079   6.550  1.2416 -1.3922 -0.8258
 5814SOL     OW28900   2.998   3.384   3.447  0.7978  0.1607 -0.5134
 5814SOL    HW128901   3.076   3.370   3.394  0.9530  0.2118 -0.2962
 5814SOL    HW228902   2.936   3.383   3.373  0.7900  0.1413 -0.5067
 5815SOL     OW28903   4.024   0.823   3.393  0.1071 -0.1919  0.2236
 5815SOL    HW128904   4.114   0.851   3.409 -0.3903  1.4517  0.1419
 5815SOL    HW228905   3.990   0.817   3.482  0.6864 -0.4630  0.4259
 5816SOL     OW28906   3.688   2.802   5.314  0.1491  0.1821 -0.5560
 5816SOL    HW128907   3.748   2.736   5.349  0.0797 -0.5946 -1.9104
 5816SOL    HW228908   3.678   2.790   5.220  3.1144  1.2184 -1.0021
 5817SOL     OW28909   0.339   2.011   3.104  0.4228 -0.0894  0.2872
 5817SOL    HW128910   0.278   1.983   3.172  1.4546 -0.7714  0.9207
 5817SOL    HW228911   0.291   2.072   3.048  2.1047 -0.1772 -1.2528
 5818SOL     OW28912   3.393   4.425   2.023  0.1452  0.0377  0.0158
 5818SOL    HW128913   3.389   4.509   2.069  0.2970  0.0841 -0.0576
 5818SOL    HW228914   3.394   4.363   2.096 -1.1094 -0.5984 -0.5044
 5819SOL     OW28915   1.601   1.232   6.541  0.0231 -0.1139 -0.2848
 5819SOL    HW128916   1.654   1.312   6.551  2.5441 -1.6960 -0.8286
 5819SOL    HW228917   1.514   1.268   6.527  1.2188  2.5713 -0.7948
 5820SOL     OW28918   1.498   1.268  11.815  0.4067 -0.4794 -0.0269
 5820SOL    HW128919   1.520   1.328  11.743 -0.8673  0.2803  0.1940
 5820SOL    HW228920   1.454   1.321  11.882 -0.1092 -1.8005  0.6805
 5821SOL     OW28921   2.989   2.024  17.679  0.0834  0.2039 -0.0134
 5821SOL    HW128922   2.994   2.077  17.600 -3.9698 -0.0457 -0.4210
 5821SOL    HW228923   3.080   1.994  17.681 -0.1483 -0.6674 -2.6232
 5822SOL     OW28924   1.984   2.303   4.902 -0.2927 -0.6328  0.3743
 5822SOL    HW128925   2.079   2.303   4.916 -0.3735  0.8672  0.9225
 5822SOL    HW228926   1.963   2.213   4.878 -0.8057 -0.5035  0.3400
 5823SOL     OW28927   4.510   3.803  13.417  0.3059  0.1885 -0.0880
 5823SOL    HW128928   4.605   3.813  13.412  0.1992  0.6367 -1.2290
 5823SOL    HW228929   4.502   3.833  13.507  1.2551 -1.8670  0.6935
 5824SOL     OW28930   1.230   4.655  13.436 -0.2154  0.0785  0.0936
 5824SOL    HW128931   1.271   0.017  13.422  0.2302 -0.2418 -0.5583
 5824SOL    HW228932   1.145   4.654  13.394 -0.2763  2.3353  0.1740
 5825SOL     OW28933   1.162   4.588   7.217 -0.2932 -0.1962  0.2540
 5825SOL    HW128934   1.088   4.645   7.241  0.4421  0.8779 -0.0140
 5825SOL    HW228935   1.243   4.624   7.255  1.3440 -1.1001 -2.4062
 5826SOL     OW28936   1.146   0.531   5.545  0.3356 -0.6171 -0.4648
 5826SOL    HW128937   1.068   0.487   5.513 -0.4321 -0.8175  1.6667
 5826SOL    HW228938   1.210   0.529   5.473  1.8542  0.0209  0.8474
 5827SOL     OW28939   1.572   3.438   9.705  0.3220 -0.3366 -0.3750
 5827SOL    HW128940   1.547   3.483   9.785  0.2071 -1.6509  0.3346
 5827SOL    HW228941   1.620   3.368   9.750 -0.1448 -0.2427  0.2513
 5828SOL     OW28942   3.664   1.119   3.042 -0.1157  0.6140  0.6222
 5828SOL    HW128943   3.678   1.213   3.039  0.4988  0.4422 -1.4628
 5828SOL    HW228944   3.715   1.098   2.964  0.6073 -0.2702  1.3287
 5829SOL     OW28945   4.596   3.750   7.209  0.2283  0.3172  0.4630
 5829SOL    HW128946   4.548   3.669   7.225 -0.0787  0.8259  2.1077
 5829SOL    HW228947   4.590   3.757   7.113 -2.4951 -0.8127  0.5538
 5830SOL     OW28948   2.170   4.226   5.805 -0.3982 -0.4606 -0.0243
 5830SOL    HW128949   2.226   4.200   5.879  0.9818 -0.2877 -1.0100
 5830SOL    HW228950   2.236   4.248   5.740 -1.5651  1.8337 -0.4030
 5831SOL     OW28951   1.229   2.316  15.307  0.5398  0.1908 -0.2355
 5831SOL    HW128952   1.311   2.359  15.281  1.9684 -2.3742  0.0467
 5831SOL    HW228953   1.208   2.286  15.219 -0.9337  0.4930  0.0220
 5832SOL     OW28954   0.223   2.485   5.901 -0.0745  0.5112  0.2712
 5832SOL    HW128955   0.188   2.510   5.987  1.8880 -0.3781  1.3442
 5832SOL    HW228956   0.157   2.420   5.880 -0.1365  0.9142 -0.7623
 5833SOL     OW28957   2.256   0.157  16.942  0.1776 -0.0838 -0.6848
 5833SOL    HW128958   2.262   0.247  16.972 -0.6835  0.3191 -1.7221
 5833SOL    HW228959   2.344   0.123  16.929  0.5088 -0.5838  2.6752
 5834SOL     OW28960   3.438   4.001   7.217  0.0525  0.2257  0.3132
 5834SOL    HW128961   3.368   4.032   7.274  0.1179  0.9779 -0.0140
 5834SOL    HW228962   3.392   3.980   7.135  0.2515 -1.3523  0.5945
 5835SOL     OW28963   0.894   0.468   2.306 -0.2216 -0.0157  0.1195
 5835SOL    HW128964   0.817   0.519   2.334  0.4340  0.3987  1.1753
 5835SOL    HW228965   0.919   0.509   2.224  2.1905  1.2636  1.5056
 5836SOL     OW28966   2.739   1.254   7.896 -0.7366 -0.0654  0.1638
 5836SOL    HW128967   2.782   1.314   7.835 -0.9577  1.6059  1.6679
 5836SOL    HW228968   2.809   1.209   7.942  0.8522  2.9749  0.6939
 5837SOL     OW28969   3.184   2.953   9.560  0.1140 -0.1737  0.3798
 5837SOL    HW128970   3.140   2.892   9.620 -1.2483  0.4982  0.0685
 5837SOL    HW228971   3.103   2.988   9.522 -0.4486 -0.3668  1.4077
 5838SOL     OW28972   4.063   0.784  16.475  0.3693 -0.1506  0.3297
 5838SOL    HW128973   4.127   0.713  16.470  0.6135 -0.0801  2.2641
 5838SOL    HW228974   4.114   0.851  16.521  1.2531 -0.6593  0.0912
 5839SOL     OW28975   1.676   1.046   4.002  0.6586  0.2916 -0.4882
 5839SOL    HW128976   1.643   1.097   3.928  0.1151 -2.0970 -1.8729
 5839SOL    HW228977   1.766   1.040   3.972  1.5812  1.4696  2.0618
 5840SOL     OW28978   1.882   1.740   3.342  0.2892  0.0357  0.2571
 5840SOL    HW128979   1.935   1.667   3.311  3.9902  2.3525  1.1884
 5840SOL    HW228980   1.792   1.706   3.338  0.6834 -0.7351 -1.9567
 5841SOL     OW28981   1.347   3.200   9.872  0.0475  0.0321  0.1831
 5841SOL    HW128982   1.434   3.197   9.832 -0.4267 -0.4239 -0.8088
 5841SOL    HW228983   1.347   3.278   9.927  0.1208 -0.8231  1.3795
 5842SOL     OW28984   1.905   3.653   3.714 -0.6238 -0.1535  0.0792
 5842SOL    HW128985   1.963   3.639   3.789  0.0080 -1.0959 -0.5873
 5842SOL    HW228986   1.851   3.575   3.725 -1.9060  0.9464  1.5565
 5843SOL     OW28987   2.474   3.360  15.342 -0.4429  0.2298  0.0876
 5843SOL    HW128988   2.525   3.281  15.357  0.1439  0.2199 -1.9957
 5843SOL    HW228989   2.526   3.405  15.275 -0.1840 -1.8438 -1.0996
 5844SOL     OW28990   0.118   1.715   6.861 -0.3084 -0.3319 -0.1864
 5844SOL    HW128991   0.104   1.624   6.886 -1.4583  0.4535  1.9953
 5844SOL    HW228992   0.101   1.757   6.945 -3.9423  0.6667 -1.3983
 5845SOL     OW28993   1.808   0.710  16.480  0.4472  0.1534  0.5179
 5845SOL    HW128994   1.880   0.767  16.508  0.7016 -0.3426  0.8705
 5845SOL    HW228995   1.794   0.671  16.566  1.2274 -2.7190 -0.6533
 5846SOL     OW28996   1.412   3.743   6.012 -0.1927  0.2869  0.0855
 5846SOL    HW128997   1.359   3.716   5.937  2.7641 -2.4931 -0.9703
 5846SOL    HW228998   1.400   3.667   6.069 -2.4249  1.2347  0.9011
 5847SOL     OW28999   3.034   3.493   5.166 -0.1505  0.7137 -0.1964
 5847SOL    HW129000   3.061   3.453   5.249 -0.2162 -0.6037 -0.8258
 5847SOL    HW229001   3.121   3.513   5.131  0.1792 -1.0291 -0.3318
 5848SOL     OW29002   2.839   2.366   6.607 -0.8393 -0.3551 -0.2680
 5848SOL    HW129003   2.933   2.356   6.622 -0.5532  2.5724 -0.0417
 5848SOL    HW229004   2.799   2.370   6.694  1.9586 -0.4636  1.0088
 5849SOL     OW29005   3.282   2.892  13.747  0.0009 -0.3605  0.2785
 5849SOL    HW129006   3.219   2.963  13.741  0.7644  0.4495  1.6713
 5849SOL    HW229007   3.225   2.824  13.782 -1.8250  0.3244 -1.3995
 5850SOL     OW29008   3.889   1.831   3.205 -0.7814 -0.3059 -0.2808
 5850SOL    HW129009   3.877   1.742   3.171  0.2192 -0.3083 -0.6185
 5850SOL    HW229010   3.923   1.816   3.293 -1.5710  1.3972  0.2996
 5851SOL     OW29011   3.702   0.228   6.942  0.4154 -0.1047 -0.0688
 5851SOL    HW129012   3.743   0.290   6.881  1.1532 -0.1576  0.3685
 5851SOL    HW229013   3.743   0.262   7.022  1.3986 -0.4979 -0.3985
 5852SOL     OW29014   0.109   3.350   6.031  0.0536  0.5031 -0.1552
 5852SOL    HW129015   0.096   3.401   5.951 -4.2981 -1.0656 -0.4615
 5852SOL    HW229016   0.194   3.313   6.011  1.2733  3.3303 -0.1975
 5853SOL     OW29017   0.865   4.102   3.462  0.0594 -0.5864  0.0933
 5853SOL    HW129018   0.913   4.052   3.529 -0.8109 -0.4995  0.7783
 5853SOL    HW229019   0.921   4.105   3.385 -1.6874 -1.1536 -1.1963
 5854SOL     OW29020   0.480   3.705  17.438  0.2957  0.0488  0.3123
 5854SOL    HW129021   0.484   3.613  17.463  1.4332 -0.2846 -1.0876
 5854SOL    HW229022   0.473   3.700  17.342  3.1288  1.4675  0.0193
 5855SOL     OW29023   0.103   0.097  12.350 -0.0700 -0.0729  0.2833
 5855SOL    HW129024   0.118   0.101  12.255 -0.3130 -0.4266  0.2306
 5855SOL    HW229025   0.054   0.015  12.358  1.3552 -0.7571  1.8385
 5856SOL     OW29026   2.886   0.975   5.778  0.0373  0.0788  0.1261
 5856SOL    HW129027   2.973   0.974   5.738  0.1155  0.4131  0.2881
 5856SOL    HW229028   2.832   0.917   5.725  0.0986  1.5081 -1.4919
 5857SOL     OW29029   4.004   1.274   3.371 -0.3597 -0.1776  0.7727
 5857SOL    HW129030   3.990   1.185   3.337  1.0327  0.9631 -2.8331
 5857SOL    HW229031   3.916   1.289   3.404  0.5760  0.4867  2.9382
 5858SOL     OW29032   1.839   1.887  11.610  0.1339  0.0255  0.2361
 5858SOL    HW129033   1.904   1.866  11.677 -0.2742  1.9954  1.2548
 5858SOL    HW229034   1.878   1.966  11.572  3.4128 -2.7606 -2.1530
 5859SOL     OW29035   3.075   3.888   2.239 -0.2453 -0.0066 -0.3837
 5859SOL    HW129036   3.116   3.804   2.218  1.3709  0.6823  0.0864
 5859SOL    HW229037   3.078   3.899   2.334  0.3464 -1.3474 -0.2438
 5860SOL     OW29038   4.262   2.992   4.472  1.0056 -0.1048  0.1855
 5860SOL    HW129039   4.208   2.982   4.393  0.3914 -1.4552  0.7776
 5860SOL    HW229040   4.190   3.007   4.533 -0.7533  0.4116 -2.0092
 5861SOL     OW29041   2.287   2.975   8.817  0.0246 -0.0716 -0.2341
 5861SOL    HW129042   2.270   3.020   8.900  0.3849  1.0196 -0.7453
 5861SOL    HW229043   2.373   3.012   8.800  1.0315 -1.5502  1.6878
 5862SOL     OW29044   0.121   1.240  16.838  0.0559 -0.3932 -0.2139
 5862SOL    HW129045   0.062   1.313  16.858  0.5070 -0.2044  0.4443
 5862SOL    HW229046   0.064   1.164  16.844  1.1076 -1.1226  0.3619
 5863SOL     OW29047   2.595   2.885   0.361 -0.2748 -0.0230  0.4923
 5863SOL    HW129048   2.501   2.867   0.371 -0.5684  0.9334 -0.5956
 5863SOL    HW229049   2.630   2.799   0.337 -0.3475  0.3317 -0.8895
 5864SOL     OW29050   0.373   1.180   5.981 -0.4738 -0.2408  0.4384
 5864SOL    HW129051   0.343   1.264   6.016 -1.9624 -0.1723 -1.0073
 5864SOL    HW229052   0.462   1.198   5.950 -0.6268 -1.6682 -0.7975
 5865SOL     OW29053   0.561   2.138   2.776 -0.3862  0.0573 -0.1030
 5865SOL    HW129054   0.529   2.173   2.859  0.9907 -3.2936  1.7982
 5865SOL    HW229055   0.485   2.131   2.718 -1.3684 -2.3170  1.4921
 5866SOL     OW29056   4.458   2.757  12.399 -0.0978 -0.4381 -0.1994
 5866SOL    HW129057   4.415   2.749  12.484  1.1772 -1.4895  0.3625
 5866SOL    HW229058   4.513   2.679  12.392 -0.0585 -0.5276  1.1475
 5867SOL     OW29059   2.541   1.201   4.270  0.2345 -0.7131  0.2293
 5867SOL    HW129060   2.541   1.244   4.355 -1.0909 -2.8456  1.3196
 5867SOL    HW229061   2.601   1.260   4.224 -0.4022 -1.9302 -2.1678
 5868SOL     OW29062   1.004   1.532   9.062  0.4598 -0.3257 -0.0247
 5868SOL    HW129063   0.934   1.468   9.073 -0.7091  1.2013  1.4480
 5868SOL    HW229064   0.966   1.577   8.986  1.1099  0.6104  0.2070
 5869SOL     OW29065   0.195   3.252  16.181 -0.4381 -0.5998  0.3527
 5869SOL    HW129066   0.162   3.198  16.109 -0.9890 -0.5915  0.5990
 5869SOL    HW229067   0.154   3.195  16.245 -2.2897  0.5391  0.1853
 5870SOL     OW29068   3.232   4.068  13.349 -0.7620  0.6987 -0.0302
 5870SOL    HW129069   3.287   4.037  13.420 -1.9487 -0.7701  0.2457
 5870SOL    HW229070   3.159   4.019  13.387 -0.9625  0.8170 -0.2603
 5871SOL     OW29071   4.358   0.112   1.897 -0.1355  0.0767 -0.0976
 5871SOL    HW129072   4.449   0.130   1.921 -0.0298 -0.2963 -0.2161
 5871SOL    HW229073   4.383   0.054   1.825  2.2072 -0.1963  0.9241
 5872SOL     OW29074   4.364   2.731   9.508 -0.4934  0.6147 -0.3256
 5872SOL    HW129075   4.365   2.647   9.553  2.3198  1.2908  0.9029
 5872SOL    HW229076   4.429   2.791   9.546  2.8478 -2.0094 -1.9462
 5873SOL     OW29077   1.021   1.815   6.946 -0.4333  0.2260  0.1247
 5873SOL    HW129078   1.013   1.817   6.850  2.2214 -1.7461 -0.1242
 5873SOL    HW229079   0.981   1.900   6.964  1.1856  1.5256 -2.3391
 5874SOL     OW29080   2.159   1.909   3.178  0.3088 -0.1571  0.1378
 5874SOL    HW129081   2.174   2.001   3.200 -0.4651 -0.0212  0.1061
 5874SOL    HW229082   2.170   1.910   3.083  0.1854 -0.6814  0.1161
 5875SOL     OW29083   1.314   1.935   7.271  0.8171  0.4805  0.0556
 5875SOL    HW129084   1.402   1.913   7.302  0.8969  0.1866 -0.3877
 5875SOL    HW229085   1.327   2.029   7.256 -0.7078  0.8539  1.0687
 5876SOL     OW29086   1.977   0.643   4.578  0.2940 -0.2031  0.1602
 5876SOL    HW129087   1.887   0.610   4.577 -0.3669  1.4681  1.4563
 5876SOL    HW229088   2.031   0.573   4.543 -1.2326 -0.1902 -2.1957
 5877SOL     OW29089   0.107   3.493  16.218  0.5507 -0.1581 -0.7380
 5877SOL    HW129090   0.133   3.404  16.194 -0.9753 -0.9301  0.4970
 5877SOL    HW229091   0.054   3.532  16.149  0.4580 -0.3850 -0.7943
 5878SOL     OW29092   2.762   2.039   3.951 -0.0356  0.4727 -0.2901
 5878SOL    HW129093   2.733   1.988   3.875 -2.2161 -0.1694  0.9792
 5878SOL    HW229094   2.842   1.988   3.963 -0.7451 -0.3478  0.9069
 5879SOL     OW29095   0.317   3.627  13.351 -0.3851 -0.0698  0.9814
 5879SOL    HW129096   0.330   3.533  13.348  2.6956  0.3781  0.4304
 5879SOL    HW229097   0.394   3.663  13.307 -0.6441  1.9166  2.1308
 5880SOL     OW29098   2.196   3.211  12.491 -0.0359  0.1989 -0.1623
 5880SOL    HW129099   2.291   3.212  12.506 -0.0025 -1.6168 -0.2448
 5880SOL    HW229100   2.176   3.263  12.569  0.5186  1.3798 -0.8081
 5881SOL     OW29101   4.241   2.466   5.535 -0.1341 -0.7790  0.1628
 5881SOL    HW129102   4.336   2.464   5.524 -0.1665  0.2851 -0.3707
 5881SOL    HW229103   4.238   2.525   5.610  0.7483 -0.1473 -0.2947
 5882SOL     OW29104   2.078   2.627   5.954 -0.2495 -0.4294 -0.1019
 5882SOL    HW129105   2.128   2.563   6.005  2.4858  1.9022  0.1433
 5882SOL    HW229106   2.015   2.574   5.904 -1.3512  2.4463 -1.7296
 5883SOL     OW29107   0.235   3.820   6.911  0.4694 -0.0449  0.5767
 5883SOL    HW129108   0.291   3.743   6.901  1.6998  0.5652  2.9419
 5883SOL    HW229109   0.284   3.891   6.871  0.1277 -0.0799  0.0865
 5884SOL     OW29110   2.601   0.464   2.805  0.0535  0.0479 -0.3858
 5884SOL    HW129111   2.630   0.500   2.721 -0.9888 -0.0739 -0.8020
 5884SOL    HW229112   2.508   0.488   2.801 -0.5192 -1.5319  3.5933
 5885SOL     OW29113   3.931   3.444   1.812  0.1600 -0.3032  0.6658
 5885SOL    HW129114   3.873   3.410   1.744 -0.7094 -1.4594  1.9833
 5885SOL    HW229115   4.011   3.452   1.760  0.7167 -4.0005  0.9158
 5886SOL     OW29116   1.561   1.590   4.871 -0.0280  0.4153 -0.1516
 5886SOL    HW129117   1.629   1.541   4.825  1.5846  1.2330  1.3685
 5886SOL    HW229118   1.531   1.660   4.813  0.8829  0.5188 -0.4938
 5887SOL     OW29119   1.098   0.319   6.213 -0.3969  0.0953  0.4759
 5887SOL    HW129120   1.080   0.238   6.260 -0.8236  0.6361  1.2451
 5887SOL    HW229121   1.176   0.297   6.162 -0.6841 -0.0422  0.0923
 5888SOL     OW29122   1.433   3.649   4.141 -0.3317 -0.3047  0.7256
 5888SOL    HW129123   1.357   3.690   4.181  0.4267  1.0390  0.8009
 5888SOL    HW229124   1.427   3.566   4.188  0.5865 -0.6697  0.2102
 5889SOL     OW29125   2.659   4.492  15.174 -0.7768 -0.0533 -0.7146
 5889SOL    HW129126   2.603   4.557  15.216 -0.6512 -0.4027 -0.0032
 5889SOL    HW229127   2.636   4.412  15.221  0.7672  0.0216  0.1947
 5890SOL     OW29128   4.408   3.907   4.699  0.8310  0.0785 -0.2359
 5890SOL    HW129129   4.386   3.824   4.740 -1.4947  1.9424  2.3069
 5890SOL    HW229130   4.381   3.974   4.762 -0.4222  0.9262 -1.6648
 5891SOL     OW29131   2.731   3.107  10.497 -0.2641  0.5943  0.7695
 5891SOL    HW129132   2.801   3.045  10.478 -1.0875 -0.0795 -0.0552
 5891SOL    HW229133   2.653   3.066  10.461 -0.3420  0.3683  1.2018
 5892SOL     OW29134   4.574   2.116   7.344 -0.1438  0.5818 -0.4146
 5892SOL    HW129135   4.485   2.108   7.310  0.1611 -2.1529 -0.5184
 5892SOL    HW229136   4.553   2.099   7.436 -0.3126  1.1919 -0.3388
 5893SOL     OW29137   0.107   0.648  15.628 -0.9997 -0.4775  0.1095
 5893SOL    HW129138   0.105   0.722  15.689 -0.1402  0.7859 -1.4084
 5893SOL    HW229139   0.147   0.585  15.689  0.1255 -0.0198 -0.1665
 5894SOL     OW29140   3.785   0.561  13.779  0.0572 -0.6443 -0.0704
 5894SOL    HW129141   3.793   0.474  13.740  0.6238 -1.0223  0.8687
 5894SOL    HW229142   3.696   0.562  13.812  0.4809 -0.4451  1.0815
 5895SOL     OW29143   3.690   2.882   2.839  0.0162  0.4995  0.5695
 5895SOL    HW129144   3.665   2.971   2.865 -0.1272  0.6656 -0.1343
 5895SOL    HW229145   3.622   2.860   2.776  3.1750  0.9846 -2.9781
 5896SOL     OW29146   3.879   1.723   4.197  0.4667  0.8811  0.0700
 5896SOL    HW129147   3.790   1.720   4.232  0.6388  1.0879  0.5362
 5896SOL    HW229148   3.943   1.728   4.269 -1.1721  2.4679  1.4114
 5897SOL     OW29149   3.607   2.584   8.558  0.6378  0.0219 -0.6824
 5897SOL    HW129150   3.531   2.538   8.593  1.2394  0.8000  1.6383
 5897SOL    HW229151   3.660   2.506   8.543  2.1917  0.9367  0.0677
 5898SOL     OW29152   1.324   1.915   4.361  0.3911  0.0603 -0.4153
 5898SOL    HW129153   1.345   1.986   4.422  2.7335  1.1584 -2.5363
 5898SOL    HW229154   1.259   1.861   4.406  1.5130 -0.8844  0.0576
 5899SOL     OW29155   0.760   0.236   4.897  0.1239  0.4811 -0.2799
 5899SOL    HW129156   0.812   0.241   4.816 -1.3072  1.4526 -1.1519
 5899SOL    HW229157   0.821   0.268   4.963 -0.4698  0.6145  0.2007
 5900SOL     OW29158   3.965   1.316   2.087 -0.2861  0.6508  0.2090
 5900SOL    HW129159   4.035   1.254   2.108 -1.5783 -0.3087  1.7699
 5900SOL    HW229160   4.013   1.376   2.030 -1.9591 -0.1864 -2.0994
 5901SOL     OW29161   2.891   2.347  11.823  0.1317  0.2286  1.2966
 5901SOL    HW129162   2.926   2.290  11.891  0.6354 -1.4046 -0.3436
 5901SOL    HW229163   2.871   2.426  11.874 -2.2982 -0.4762  1.4377
 5902SOL     OW29164   0.751   2.359  17.620 -0.1236 -0.0750  0.2076
 5902SOL    HW129165   0.697   2.346   0.001  2.1776 -2.3720  1.4371
 5902SOL    HW229166   0.767   2.453  17.628 -2.1836  0.1306  1.9302
 5903SOL     OW29167   3.182   1.320  10.605 -0.3708  0.5398 -0.1086
 5903SOL    HW129168   3.270   1.336  10.641  0.2076 -0.2013 -1.2075
 5903SOL    HW229169   3.135   1.289  10.683  1.3873  0.3812  0.9004
 5904SOL     OW29170   2.351   2.269  17.522 -0.6869  0.2399 -0.1122
 5904SOL    HW129171   2.402   2.263  17.603 -1.7102  1.7545  0.6277
 5904SOL    HW229172   2.274   2.221  17.552  1.3336 -2.4851  0.8024
 5905SOL     OW29173   2.923   4.071   5.331 -0.1756 -0.3916  0.2211
 5905SOL    HW129174   2.996   4.084   5.270 -1.0103  1.1316 -0.4274
 5905SOL    HW229175   2.858   4.135   5.304  1.6768  1.3012 -0.1730
 5906SOL     OW29176   3.653   3.559   8.307  0.4720 -0.5259  0.1913
 5906SOL    HW129177   3.635   3.652   8.318 -1.0765 -0.8198  0.1024
 5906SOL    HW229178   3.599   3.518   8.374  0.6314 -0.0437  0.6171
 5907SOL     OW29179   1.397   3.478   3.937 -0.5096 -0.4918  0.7566
 5907SOL    HW129180   1.388   3.496   4.030  0.1035  0.5740  0.6149
 5907SOL    HW229181   1.470   3.536   3.914 -2.6325  1.6429 -0.6916
 5908SOL     OW29182   2.063   1.754   1.416 -0.7827  0.1759  0.2490
 5908SOL    HW129183   2.101   1.780   1.332  2.9306  0.0485  1.9039
 5908SOL    HW229184   2.126   1.792   1.478 -0.7596  1.2490 -0.4259
 5909SOL     OW29185   4.614   3.651   2.836 -0.2571  0.6118 -0.0087
 5909SOL    HW129186   4.643   3.626   2.749  1.6978  0.4539  0.6869
 5909SOL    HW229187   4.546   3.716   2.818  1.7465  2.4255 -0.9659
 5910SOL     OW29188   0.197   1.317   2.412  0.0413  0.1744  0.0030
 5910SOL    HW129189   0.271   1.299   2.470  1.0897  2.2792 -0.6814
 5910SOL    HW229190   0.242   1.364   2.341 -0.0394  0.6523  0.2733
 5911SOL     OW29191   0.351   3.237   5.986  0.0009 -0.1185  0.1297
 5911SOL    HW129192   0.326   3.171   6.051 -0.5493  0.1813  0.2211
 5911SOL    HW229193   0.429   3.194   5.949 -1.0304 -0.7787 -1.2551
 5912SOL     OW29194   2.003   2.877  11.889 -0.0914 -0.1758 -0.3641
 5912SOL    HW129195   2.033   2.897  11.800  1.2801 -0.0285  0.1453
 5912SOL    HW229196   1.972   2.789  11.867  2.2620 -1.1652  0.3806
 5913SOL     OW29197   4.713   2.080   8.566 -0.0344  0.0536 -0.7210
 5913SOL    HW129198   4.711   2.025   8.645 -2.9617 -0.3654 -1.0984
 5913SOL    HW229199   4.621   2.078   8.541 -0.0312 -0.4918 -0.6967
 5914SOL     OW29200   3.868   0.944   7.623 -0.4923 -0.6592 -0.1904
 5914SOL    HW129201   3.856   0.894   7.704 -0.4844 -1.1714 -0.5042
 5914SOL    HW229202   3.799   1.010   7.614  1.5334  1.3211 -0.9205
 5915SOL     OW29203   1.339   4.717   8.225 -0.5130  0.6885 -0.7351
 5915SOL    HW129204   1.379   0.009   8.310 -0.2446  1.7051 -1.0569
 5915SOL    HW229205   1.330   0.074   8.175 -1.6776 -0.4922 -2.4549
 5916SOL     OW29206   4.714   4.592  13.749  0.4822  0.0628  0.1433
 5916SOL    HW129207   4.635   4.590  13.694 -0.1373 -0.0559  1.0422
 5916SOL    HW229208   0.060   4.558  13.693 -0.3054  0.1047 -0.8868
 5917SOL     OW29209   4.505   3.671   3.246  0.2955 -0.5078 -0.5431
 5917SOL    HW129210   4.553   3.748   3.279  1.4539 -1.3296 -0.3415
 5917SOL    HW229211   4.566   3.599   3.256  1.9381  0.7876 -1.3026
 5918SOL     OW29212   4.003   2.932   4.931 -0.0010 -0.2007  0.0412
 5918SOL    HW129213   4.045   2.947   5.015  0.4067  4.2784 -0.9381
 5918SOL    HW229214   3.940   3.004   4.925  0.3367  0.2005  1.4815
 5919SOL     OW29215   0.462   4.054   2.118  0.8126 -0.5088 -0.2175
 5919SOL    HW129216   0.552   4.068   2.148  1.3562 -0.5464 -1.8101
 5919SOL    HW229217   0.450   3.963   2.090  2.0952  0.3009 -3.4052
 5920SOL     OW29218   3.718   1.360   1.849 -0.2588  0.5058 -0.0994
 5920SOL    HW129219   3.624   1.358   1.834 -0.5605  1.4188  1.6503
 5920SOL    HW229220   3.758   1.282   1.810  1.6306  1.5605 -0.2931
 5921SOL     OW29221   2.926   0.604  10.147 -0.8588 -0.2033  0.0476
 5921SOL    HW129222   3.014   0.606  10.182  0.2570 -0.5847 -2.6947
 5921SOL    HW229223   2.929   0.516  10.109  1.5277 -0.3873  0.6843
 5922SOL     OW29224   3.348   2.140   6.753  0.1069  0.4217  0.1729
 5922SOL    HW129225   3.320   2.205   6.689 -0.9530  0.6497  0.8672
 5922SOL    HW229226   3.300   2.063   6.722  0.9775 -0.8132  1.9458
 5923SOL     OW29227   4.162   3.691   7.142 -0.1563  0.3728  0.1489
 5923SOL    HW129228   4.191   3.729   7.226  1.6831  0.3287 -0.4625
 5923SOL    HW229229   4.077   3.652   7.162  0.2133  0.6155  2.2670
 5924SOL     OW29230   1.466   4.535   2.644  0.0254  0.1211  0.3430
 5924SOL    HW129231   1.440   4.540   2.552  0.7027  3.2020  0.3134
 5924SOL    HW229232   1.556   4.501   2.638 -0.3664 -0.8874  0.2113
 5925SOL     OW29233   3.810   1.101   8.658  0.1509  0.4101 -0.3783
 5925SOL    HW129234   3.754   1.175   8.684  1.0890  0.8420  0.4054
 5925SOL    HW229235   3.748   1.045   8.611 -0.9341 -0.5019  2.1317
 5926SOL     OW29236   1.577   2.275  15.665  0.3791  0.1131  0.3601
 5926SOL    HW129237   1.549   2.293  15.576 -0.3554  1.8245  0.9350
 5926SOL    HW229238   1.572   2.181  15.681 -3.6259  0.4281  0.8295
 5927SOL     OW29239   3.740   4.342   1.416  0.5686 -0.2556  0.0000
 5927SOL    HW129240   3.654   4.353   1.375  0.5152  1.6423  0.6183
 5927SOL    HW229241   3.722   4.315   1.506  1.7034 -1.9287 -0.2804
 5928SOL     OW29242   4.130   2.646  17.504  0.0991  0.7331  0.1290
 5928SOL    HW129243   4.210   2.685  17.469  0.1252  1.4786  1.0172
 5928SOL    HW229244   4.162   2.586  17.571 -3.6800 -1.3360  0.0945
 5929SOL     OW29245   4.386   4.035   7.755 -0.2309  0.8199  0.2704
 5929SOL    HW129246   4.433   3.960   7.792  0.1741  0.5643 -0.7866
 5929SOL    HW229247   4.433   4.047   7.673 -2.6917 -0.3810 -1.3457
 5930SOL     OW29248   0.587   0.262   6.836  0.5971 -0.5332  0.3180
 5930SOL    HW129249   0.639   0.185   6.812  0.7403 -0.3100 -0.0797
 5930SOL    HW229250   0.498   0.228   6.830  0.4748 -0.0591 -0.4682
 5931SOL     OW29251   1.792   2.674  17.424 -0.3391 -0.4266 -0.1308
 5931SOL    HW129252   1.703   2.640  17.429 -0.2244 -0.7929 -0.5514
 5931SOL    HW229253   1.839   2.595  17.397  1.5267 -0.2048  2.4022
 5932SOL     OW29254   1.292   3.103   0.143 -0.0115 -0.5943  0.0164
 5932SOL    HW129255   1.285   3.082   0.236 -0.4644  1.6362  0.4737
 5932SOL    HW229256   1.254   3.190   0.131 -1.2179 -0.6336  3.5688
 5933SOL     OW29257   1.369   0.934   5.030  0.0798  0.0350  0.0782
 5933SOL    HW129258   1.400   0.962   5.117  2.7300 -2.6821 -0.0050
 5933SOL    HW229259   1.422   0.985   4.970 -0.3427  0.7725  0.3235
 5934SOL     OW29260   0.615   2.037  11.761 -0.1916 -0.1720  0.0234
 5934SOL    HW129261   0.650   2.075  11.842 -0.8671  1.3261 -0.4095
 5934SOL    HW229262   0.527   2.074  11.754  1.0743  2.8785  0.2997
 5935SOL     OW29263   1.678   3.851  15.994  0.3527 -0.3512  0.7096
 5935SOL    HW129264   1.620   3.827  16.067  0.9990 -3.7148  0.1092
 5935SOL    HW229265   1.633   3.808  15.921  0.3449  0.1919  0.3937
 5936SOL     OW29266   4.038   3.045  10.204  0.1266 -0.2508 -0.2865
 5936SOL    HW129267   4.100   3.098  10.254  0.3637 -0.4885 -0.3295
 5936SOL    HW229268   3.954   3.079  10.235  0.8675  0.4361  0.9978
 5937SOL     OW29269   2.497   2.035  14.884 -0.7535 -0.6569  0.1947
 5937SOL    HW129270   2.428   1.969  14.875 -2.1899  0.9667 -0.8075
 5937SOL    HW229271   2.440   2.106  14.913  0.9723  0.4227  0.8893
 5938SOL     OW29272   4.275   3.376   2.805  0.2001 -0.1331  0.2762
 5938SOL    HW129273   4.220   3.312   2.850  2.9267  0.5321  4.4729
 5938SOL    HW229274   4.211   3.417   2.746  1.6024 -0.7882 -1.7086
 5939SOL     OW29275   3.815   0.810   3.745 -0.1478  0.6782  0.0556
 5939SOL    HW129276   3.909   0.799   3.732 -0.4831 -2.4423  0.3895
 5939SOL    HW229277   3.800   0.845   3.833  2.0008  2.4006 -0.2648
 5940SOL     OW29278   1.768   4.675  15.261 -0.0116 -0.0412  0.1443
 5940SOL    HW129279   1.721   4.715  15.334  0.7174 -0.7891  1.0167
 5940SOL    HW229280   1.697   4.614  15.237  1.1032 -0.8552 -1.1102
 5941SOL     OW29281   2.463   1.175  10.577 -0.6369  0.4064 -0.4516
 5941SOL    HW129282   2.454   1.206  10.487  0.5986  1.7955 -0.0881
 5941SOL    HW229283   2.550   1.136  10.566 -0.9459 -0.1238 -1.0373
 5942SOL     OW29284   3.254   3.298   5.006 -0.6653  0.0344 -0.0858
 5942SOL    HW129285   3.206   3.372   4.968 -2.4962 -0.6699  0.8466
 5942SOL    HW229286   3.200   3.226   4.972 -0.9867 -1.1896  2.9569
 5943SOL     OW29287   0.065   3.981  15.130  0.0977 -0.1797 -0.3926
 5943SOL    HW129288   0.139   4.041  15.117  1.8568 -1.3952  3.8090
 5943SOL    HW229289   0.038   3.963  15.040 -2.2913  1.3767  0.0159
 5944SOL     OW29290   3.261   2.474   6.875 -0.1415  0.2967 -0.1859
 5944SOL    HW129291   3.291   2.402   6.931 -4.6633 -0.9477  0.6060
 5944SOL    HW229292   3.342   2.509   6.839  0.2221 -1.4046 -1.0372
 5945SOL     OW29293   0.730   1.559   8.001 -0.3018  0.2961  0.2078
 5945SOL    HW129294   0.796   1.569   7.932 -1.3535  1.3960 -0.6165
 5945SOL    HW229295   0.650   1.595   7.963  0.5239  0.3363 -1.4840
 5946SOL     OW29296   3.998   1.422  13.873 -0.5598  0.1672  0.4092
 5946SOL    HW129297   3.925   1.412  13.933 -1.6829  1.5741 -0.7304
 5946SOL    HW229298   4.009   1.341  13.823  2.2354  0.9913 -0.3142
 5947SOL     OW29299   2.661   2.749  10.469  0.0245  0.1305 -0.1198
 5947SOL    HW129300   2.737   2.785  10.515  0.0483 -1.4021  1.0277
 5947SOL    HW229301   2.676   2.655  10.472  0.8834  0.3286  1.7006
 5948SOL     OW29302   0.220   1.860   6.653 -0.2025 -0.2379 -0.5531
 5948SOL    HW129303   0.302   1.900   6.682 -0.7778 -1.0352  2.1915
 5948SOL    HW229304   0.203   1.789   6.715  1.6407 -0.5782 -0.4388
 5949SOL     OW29305   0.883   1.186   9.321  0.4367  0.7719 -0.5168
 5949SOL    HW129306   0.973   1.180   9.355 -1.2797 -0.0002  3.8743
 5949SOL    HW229307   0.864   1.280   9.330 -1.6622  0.3527 -0.5873
 5950SOL     OW29308   3.903   0.874   2.432  0.3755  0.2004  0.2626
 5950SOL    HW129309   3.875   0.839   2.516 -0.2997  1.1564  0.4378
 5950SOL    HW229310   3.938   0.796   2.388  1.4786  1.7189 -1.5668
 5951SOL     OW29311   0.048   2.937   9.576 -0.7320  0.0572 -0.3116
 5951SOL    HW129312   0.030   2.982   9.493  0.8889 -0.8880 -1.1625
 5951SOL    HW229313   4.683   2.913   9.602  0.3675 -0.0731  3.2747
 5952SOL     OW29314   3.809   2.737   6.524  0.4237  0.3258  0.3712
 5952SOL    HW129315   3.808   2.760   6.431  0.7472  0.8942  0.5070
 5952SOL    HW229316   3.889   2.786   6.544 -0.2039  1.3912  0.2866
 5953SOL     OW29317   1.221   4.203   6.612 -1.0071 -0.2282  0.1547
 5953SOL    HW129318   1.212   4.240   6.700  0.1552 -2.3087  1.1555
 5953SOL    HW229319   1.306   4.244   6.593  0.0175 -2.2646  0.3687
 5954SOL     OW29320   3.527   1.968   8.379 -0.2379  0.4019  0.8906
 5954SOL    HW129321   3.507   1.874   8.371 -0.2788  0.5309 -0.5885
 5954SOL    HW229322   3.448   1.998   8.422 -1.1094 -1.1533  0.3863
 5955SOL     OW29323   4.377   1.324   8.318 -0.6245 -0.4543 -0.1261
 5955SOL    HW129324   4.451   1.294   8.264  0.1336 -0.4477  0.9019
 5955SOL    HW229325   4.324   1.373   8.255  0.6740  3.8303  2.1300
 5956SOL     OW29326   2.151   2.454   3.947 -0.2522  0.6697  0.1733
 5956SOL    HW129327   2.120   2.518   3.883 -1.0958  1.4157  1.3053
 5956SOL    HW229328   2.087   2.474   4.016  0.8095 -1.2870  1.7404
 5957SOL     OW29329   0.190   2.836  16.003 -0.2242  0.4082  0.2844
 5957SOL    HW129330   0.141   2.918  16.000  1.2533  1.3378  1.5872
 5957SOL    HW229331   0.197   2.816  16.097  1.4341  1.0506  0.2990
 5958SOL     OW29332   3.984   1.914   8.698 -0.0125  0.0986 -0.3533
 5958SOL    HW129333   4.077   1.912   8.723  0.2974  1.1164 -1.4214
 5958SOL    HW229334   3.993   1.854   8.624 -2.8721 -0.3344 -0.3331
 5959SOL     OW29335   3.208   2.445   3.151  0.0494  0.0255  0.1972
 5959SOL    HW129336   3.119   2.409   3.153  0.9539 -2.1395  1.9735
 5959SOL    HW229337   3.203   2.500   3.073  0.3874 -1.2516 -0.7406
 5960SOL     OW29338   0.446   4.140   7.969 -0.4237  0.5990  0.3360
 5960SOL    HW129339   0.418   4.079   7.901  0.8844 -2.0667  2.2374
 5960SOL    HW229340   0.533   4.107   7.990 -0.0535  1.1781 -0.2484
 5961SOL     OW29341   0.121   3.380   9.233  0.6370 -0.8878 -0.2946
 5961SOL    HW129342   0.102   3.329   9.155 -0.0645 -0.8708 -0.1356
 5961SOL    HW229343   0.040   3.389   9.283  0.1657 -0.4079 -1.1577
 5962SOL     OW29344   4.657   2.616  17.242  0.4457  0.2713  0.3579
 5962SOL    HW129345   4.680   2.699  17.285  1.8133  0.1603 -0.1757
 5962SOL    HW229346   4.668   2.651  17.154  0.5429 -0.0360  0.2477
 5963SOL     OW29347   1.753   4.518   7.003  0.1542 -0.3456 -0.0414
 5963SOL    HW129348   1.807   4.551   7.075 -1.0048  0.2990  0.5334
 5963SOL    HW229349   1.771   4.585   6.938 -1.1963 -0.1298 -0.2004
 5964SOL     OW29350   1.266   3.928  11.752  0.1474 -0.0254 -0.5561
 5964SOL    HW129351   1.274   3.855  11.690  0.1558  0.4751 -1.1409
 5964SOL    HW229352   1.258   3.992  11.681  0.4643  1.6992  0.9442
 5965SOL     OW29353   2.462   1.375   4.782 -0.1280 -0.2747 -0.1913
 5965SOL    HW129354   2.488   1.296   4.829  1.6258  0.0537 -0.6012
 5965SOL    HW229355   2.510   1.449   4.821  0.9087 -1.7335  1.2974
 5966SOL     OW29356   3.216   2.017  15.327  0.4685 -0.2161  0.3133
 5966SOL    HW129357   3.297   2.036  15.374  0.3072 -1.1320  0.9646
 5966SOL    HW229358   3.247   2.044  15.241  1.8262 -1.2556  0.4602
 5967SOL     OW29359   4.599   3.362   9.408 -0.3189  0.5015 -0.3685
 5967SOL    HW129360   4.534   3.333   9.473 -1.9455  0.6726 -1.9115
 5967SOL    HW229361   4.653   3.421   9.460  3.6780 -1.0706 -2.7908
 5968SOL     OW29362   2.201   1.844   1.209 -0.4383 -0.3214  0.3648
 5968SOL    HW129363   2.199   1.940   1.203 -0.6574 -0.3348  0.1989
 5968SOL    HW229364   2.284   1.819   1.168 -0.6738  1.7518 -1.4017
 5969SOL     OW29365   0.413   2.267   4.816  0.0316  0.1001  0.1607
 5969SOL    HW129366   0.340   2.319   4.851  0.2378  0.3380  0.2403
 5969SOL    HW229367   0.428   2.304   4.729 -2.4271  0.1562 -0.2327
 5970SOL     OW29368   2.458   2.010   5.541 -0.3624  0.0867 -0.9129
 5970SOL    HW129369   2.515   1.960   5.482  0.0598  0.3659 -0.7384
 5970SOL    HW229370   2.376   1.972   5.508 -1.0667 -0.2965  1.2808
 5971SOL     OW29371   3.396   3.032   9.379  0.1676 -0.4241 -0.7709
 5971SOL    HW129372   3.348   3.016   9.460  2.9303 -1.3805  0.6697
 5971SOL    HW229373   3.325   3.066   9.325 -0.3901 -0.5279 -0.1020
 5972SOL     OW29374   1.317   0.470   4.262  0.7343  0.4531  0.0530
 5972SOL    HW129375   1.222   0.475   4.273  0.8730  0.8527  1.0826
 5972SOL    HW229376   1.334   0.527   4.187  3.0328 -0.4995 -0.1602
 5973SOL     OW29377   4.243   0.243   3.065 -0.3900  0.1052  0.9730
 5973SOL    HW129378   4.209   0.330   3.045 -1.4092  0.0237  2.3119
 5973SOL    HW229379   4.221   0.206   2.979  1.2158  2.4663 -0.4478
 5974SOL     OW29380   0.902   3.100   3.264 -0.7467  0.8571 -0.2941
 5974SOL    HW129381   0.979   3.153   3.243  0.8730 -0.3842  2.3976
 5974SOL    HW229382   0.938   3.014   3.238 -0.2168  0.4397  1.8068
 5975SOL     OW29383   4.382   1.040   8.008 -0.2312 -0.4156 -0.6969
 5975SOL    HW129384   4.357   0.948   8.000 -2.9433  0.2438  0.5020
 5975SOL    HW229385   4.414   1.040   8.098 -0.4965  0.2237 -0.6018
 5976SOL     OW29386   0.325   4.499   9.489  0.2746  0.0430 -0.2588
 5976SOL    HW129387   0.265   4.558   9.536 -0.0427 -0.5514  0.0770
 5976SOL    HW229388   0.290   4.512   9.400 -0.5683  0.6661  0.1599
 5977SOL     OW29389   3.917   2.912   5.557 -0.6005  0.4719 -0.4227
 5977SOL    HW129390   3.926   2.853   5.482 -2.1197  0.8218 -0.8736
 5977SOL    HW229391   3.958   2.986   5.512  0.3518 -0.6073 -1.3414
 5978SOL     OW29392   4.337   1.200   5.667 -0.4286 -0.0248  0.1726
 5978SOL    HW129393   4.263   1.252   5.699 -1.7389 -2.9307  1.8931
 5978SOL    HW229394   4.395   1.207   5.742  0.8602 -0.4527 -0.7895
 5979SOL     OW29395   2.223   4.092   7.033  0.3439  0.8155  0.7594
 5979SOL    HW129396   2.301   4.035   7.036 -1.7252 -1.9943  1.3257
 5979SOL    HW229397   2.152   4.030   7.050  1.0647 -0.5809 -1.2354
 5980SOL     OW29398   3.886   2.703  14.079 -0.1051  0.7565 -1.0794
 5980SOL    HW129399   3.857   2.756  14.005 -1.5369 -0.6672 -1.5318
 5980SOL    HW229400   3.892   2.781  14.135 -0.5064  0.0304 -0.0194
 5981SOL     OW29401   2.271   1.390   3.713 -0.0424  0.0287 -0.3734
 5981SOL    HW129402   2.251   1.418   3.623  1.2575  0.9147 -0.3823
 5981SOL    HW229403   2.269   1.474   3.759  2.4399  0.8492 -1.7572
 5982SOL     OW29404   2.689   1.539   1.046 -0.0755  0.4267 -0.3969
 5982SOL    HW129405   2.658   1.513   0.960 -1.9700  0.6430  0.2337
 5982SOL    HW229406   2.780   1.565   1.031 -0.2513  2.0209  1.3468
 5983SOL     OW29407   2.198   1.329   4.711 -0.4941  0.1793 -0.0033
 5983SOL    HW129408   2.207   1.304   4.619 -0.6550  0.6030 -0.1362
 5983SOL    HW229409   2.289   1.333   4.738 -0.1203 -0.1103 -1.2101
 5984SOL     OW29410   4.043   3.649   1.406  0.1505  0.5138 -0.2313
 5984SOL    HW129411   4.052   3.572   1.349 -0.7530  1.0019 -1.0441
 5984SOL    HW229412   4.108   3.711   1.375  0.5518  1.0698  1.7767
 5985SOL     OW29413   1.745   1.775  17.418  0.3049 -0.3610  0.3306
 5985SOL    HW129414   1.834   1.774  17.451  1.2377 -0.3033 -2.2076
 5985SOL    HW229415   1.760   1.819  17.334  2.4871 -2.0544 -0.1494
 5986SOL     OW29416   2.711   2.535   9.419  0.2627 -0.4213 -0.0574
 5986SOL    HW129417   2.712   2.539   9.323  0.4402  1.5234  0.0181
 5986SOL    HW229418   2.635   2.588   9.443 -0.7280 -1.2870 -1.3149
 5987SOL     OW29419   0.174   2.764   8.210 -0.7203 -0.0171  0.0295
 5987SOL    HW129420   0.148   2.855   8.221  0.6190 -0.2222  4.9907
 5987SOL    HW229421   0.098   2.731   8.162  0.6096 -2.6291 -0.2509
 5988SOL     OW29422   4.255   0.963   3.448  0.8087  0.1102 -0.6498
 5988SOL    HW129423   4.344   0.963   3.414  1.7495 -0.9124  1.8571
 5988SOL    HW229424   4.259   0.998   3.537 -2.1963 -0.4245 -0.2946
 5989SOL     OW29425   1.009   3.203   6.345 -0.0560  0.3289  0.4911
 5989SOL    HW129426   1.005   3.246   6.260 -3.4883  1.2675  1.1226
 5989SOL    HW229427   1.099   3.173   6.334 -0.6066 -1.5532  1.0801
 5990SOL     OW29428   3.620   3.293   1.104 -0.0517  0.4264 -0.3962
 5990SOL    HW129429   3.529   3.324   1.107 -0.5704 -1.2085  1.5731
 5990SOL    HW229430   3.630   3.265   1.195 -0.8622  0.7759 -0.2015
 5991SOL     OW29431   2.598   1.294   4.511 -0.2186 -0.1759  0.2970
 5991SOL    HW129432   2.553   1.301   4.595 -1.1672 -1.7178 -0.0929
 5991SOL    HW229433   2.682   1.335   4.530 -0.7798  0.8875  0.5030
 5992SOL     OW29434   2.601   1.055  11.802  0.4301  0.5327 -0.0045
 5992SOL    HW129435   2.645   1.075  11.720  1.8646  0.3918  0.7238
 5992SOL    HW229436   2.638   1.126  11.856 -0.0284  0.9621 -0.2490
 5993SOL     OW29437   4.655   2.085   0.750  0.3306 -0.8328 -0.0982
 5993SOL    HW129438   4.721   2.016   0.761  1.8858  0.6200 -0.3614
 5993SOL    HW229439   4.703   2.148   0.803 -2.4248  1.1340  0.0674
 5994SOL     OW29440   2.065   4.544   5.587 -0.1335 -0.2043  0.2414
 5994SOL    HW129441   1.992   4.537   5.649  1.6393 -0.8061  2.2602
 5994SOL    HW229442   2.126   4.594   5.640 -1.0545  0.6382  0.4972
 5995SOL     OW29443   1.091   1.030   0.220 -0.0901  0.4126  0.2632
 5995SOL    HW129444   1.143   1.024   0.299 -1.6298  0.0144  1.2392
 5995SOL    HW229445   1.159   1.018   0.154 -1.0780  1.7572 -1.0225
 5996SOL     OW29446   4.346   1.713   4.985 -0.0279 -0.6457 -0.1232
 5996SOL    HW129447   4.393   1.774   4.928 -0.7718  1.4565  1.5092
 5996SOL    HW229448   4.257   1.730   4.956 -0.2186  0.5402  1.1454
 5997SOL     OW29449   2.878   1.657   8.783  0.7977  0.1940  0.3017
 5997SOL    HW129450   2.964   1.624   8.758  0.1495 -0.2609 -1.2913
 5997SOL    HW229451   2.896   1.736   8.833 -3.4619  0.2621  1.7173
 5998SOL     OW29452   0.306   0.747   5.629  0.3070 -0.6849 -0.1192
 5998SOL    HW129453   0.360   0.754   5.550  1.4258  0.5955  0.7492
 5998SOL    HW229454   0.326   0.657   5.653  0.6922 -0.5794 -0.0406
 5999SOL     OW29455   0.349   3.469  15.308 -0.2613  0.2008 -0.1624
 5999SOL    HW129456   0.319   3.395  15.255 -1.3116  0.8176 -0.4086
 5999SOL    HW229457   0.439   3.467  15.273 -0.7695 -0.5902 -1.4195
 6000SOL     OW29458   2.723   0.797  10.176  0.2517  0.0375 -0.1911
 6000SOL    HW129459   2.774   0.717  10.189  2.7125  1.6365 -0.1185
 6000SOL    HW229460   2.696   0.770  10.088  1.5766 -0.0371 -0.5604
 6001SOL     OW29461   0.754   1.215  12.776 -0.4886 -0.3641  0.5086
 6001SOL    HW129462   0.821   1.224  12.844  1.3733  1.1469 -1.5445
 6001SOL    HW229463   0.717   1.303  12.784  1.1963  0.6849 -3.2362
 6002SOL     OW29464   4.312   1.188  16.704 -0.4507  0.1876 -0.3172
 6002SOL    HW129465   4.303   1.097  16.730  1.0938  0.5520  1.5028
 6002SOL    HW229466   4.246   1.229  16.760 -1.5913 -1.0062 -0.7964
 6003SOL     OW29467   0.285   3.086  15.333  0.2188  0.2849  0.2931
 6003SOL    HW129468   0.272   3.141  15.256 -3.7139 -0.3892  0.5014
 6003SOL    HW229469   0.344   3.018  15.300  0.8908  1.0280 -0.0486
 6004SOL     OW29470   4.144   2.774  14.955  0.1535  0.1600  0.3800
 6004SOL    HW129471   4.113   2.698  15.005  0.2600 -0.8480 -1.0640
 6004SOL    HW229472   4.231   2.775  14.996  0.6149  1.6648 -0.6480
 6005SOL     OW29473   1.186   0.846   8.508 -0.2260  0.2061  0.5149
 6005SOL    HW129474   1.271   0.834   8.548 -0.0037  1.0574  0.3028
 6005SOL    HW229475   1.145   0.909   8.568 -0.1814  0.7441 -0.0201
 6006SOL     OW29476   3.092   0.730   8.241  0.3435  0.0958 -0.1157
 6006SOL    HW129477   3.124   0.715   8.330  4.4467 -1.7096 -1.8839
 6006SOL    HW229478   3.166   0.753   8.185  1.1816 -0.6192  0.6921
 6007SOL     OW29479   3.415   4.691   6.803  0.1064 -0.3118 -0.0824
 6007SOL    HW129480   3.347   4.648   6.855 -0.0096  0.9888  0.8298
 6007SOL    HW229481   3.457   4.624   6.749 -2.0348  0.8000 -3.1900
 6008SOL     OW29482   3.186   1.938  14.022  0.2465 -0.1261  0.4968
 6008SOL    HW129483   3.104   1.985  14.038  1.2399  1.9402 -0.5587
 6008SOL    HW229484   3.254   2.003  14.003 -1.0640  0.6792 -1.4529
 6009SOL     OW29485   3.296   4.470   4.763  0.2388 -0.2023  0.5027
 6009SOL    HW129486   3.215   4.439   4.803 -0.4184  2.6679  1.3553
 6009SOL    HW229487   3.344   4.522   4.828 -0.2418  1.4936 -0.4889
 6010SOL     OW29488   1.351   4.010   5.753 -0.6173 -0.5827  0.0920
 6010SOL    HW129489   1.273   4.051   5.716 -0.4177 -2.2738 -2.1922
 6010SOL    HW229490   1.417   4.074   5.726 -1.4687 -0.0980 -0.8539
 6011SOL     OW29491   1.792   1.197   4.759 -0.2480 -0.2259  0.0231
 6011SOL    HW129492   1.838   1.264   4.709  2.0077 -1.6209  0.2414
 6011SOL    HW229493   1.834   1.216   4.842 -0.6897 -0.1834  0.2351
 6012SOL     OW29494   1.215   2.457   2.225 -0.1568 -0.1625  0.4231
 6012SOL    HW129495   1.138   2.430   2.175  0.8164  0.7702 -1.5873
 6012SOL    HW229496   1.261   2.519   2.168  0.1640 -0.2828  0.5489
 6013SOL     OW29497   4.717   4.343  11.264 -0.5790  0.2425 -0.0345
 6013SOL    HW129498   0.051   4.345  11.188 -0.6733 -0.4260 -0.1294
 6013SOL    HW229499   4.644   4.309  11.211 -0.4703  1.7575 -1.1582
 6014SOL     OW29500   2.567   0.945  15.042  0.6544 -0.1077 -0.3806
 6014SOL    HW129501   2.657   0.919  15.061  0.6397  0.4791  0.5032
 6014SOL    HW229502   2.535   0.855  15.034 -0.4958  0.3465 -0.8461
 6015SOL     OW29503   0.941   4.472   9.872  0.6300 -0.3361  0.6206
 6015SOL    HW129504   1.023   4.423   9.862 -0.0425 -0.9758 -1.6707
 6015SOL    HW229505   0.899   4.402   9.921 -0.2829 -0.4715 -0.3763
 6016SOL     OW29506   3.902   2.508   8.041  0.1044 -0.0982 -0.1719
 6016SOL    HW129507   3.926   2.560   7.964 -1.4039 -1.9068 -1.8802
 6016SOL    HW229508   3.807   2.516   8.047  0.1988  0.0563  1.1547
 6017SOL     OW29509   4.238   2.806   4.876  0.0288 -0.1762 -0.0435
 6017SOL    HW129510   4.275   2.826   4.962 -0.0962 -2.1028  0.4710
 6017SOL    HW229511   4.163   2.865   4.873 -1.0084 -1.4948  0.0426
 6018SOL     OW29512   2.480   0.463   6.199 -0.4062  0.0376 -0.2854
 6018SOL    HW129513   2.484   0.544   6.249 -2.8262 -0.0467  0.0510
 6018SOL    HW229514   2.451   0.407   6.271 -1.1063  0.0590 -0.5497
 6019SOL     OW29515   2.388   0.168   7.054 -0.1048  0.3583  0.2780
 6019SOL    HW129516   2.356   0.140   7.139 -1.1922  0.6877 -0.0301
 6019SOL    HW229517   2.402   0.081   7.016  0.3945  1.5115 -2.2282
 6020SOL     OW29518   0.259   2.827   9.349  0.2077  0.2105  0.7403
 6020SOL    HW129519   0.307   2.815   9.431  1.7983  1.0805 -0.0613
 6020SOL    HW229520   0.261   2.921   9.331 -1.4800 -0.3414 -2.3166
 6021SOL     OW29521   2.579   3.788   0.984 -0.3192 -0.3078 -0.1985
 6021SOL    HW129522   2.646   3.852   1.008 -3.0430  2.5744 -0.1767
 6021SOL    HW229523   2.514   3.854   0.959 -0.0139  0.5872  1.3562
 6022SOL     OW29524   3.435   0.709   4.319  0.4791  0.4617  0.4227
 6022SOL    HW129525   3.448   0.677   4.408 -0.0064  0.0011  0.3256
 6022SOL    HW229526   3.374   0.779   4.341  0.7692  0.5470  0.9438
 6023SOL     OW29527   2.652   0.492   9.992  0.2013  0.2994 -0.1414
 6023SOL    HW129528   2.699   0.529   9.918 -0.0345 -1.9930 -1.4291
 6023SOL    HW229529   2.725   0.437  10.022 -1.0949 -0.1877  2.1462
 6024SOL     OW29530   2.193   2.154   2.674  0.1306 -0.3269  0.3295
 6024SOL    HW129531   2.109   2.122   2.706  0.7284 -0.4231  1.7919
 6024SOL    HW229532   2.159   2.239   2.644  0.4302 -1.1399 -2.2764
 6025SOL     OW29533   3.833   2.413   7.588  0.6335 -0.2495 -0.0925
 6025SOL    HW129534   3.872   2.326   7.590  1.4018  0.1524  2.6941
 6025SOL    HW229535   3.743   2.390   7.566 -0.2723 -0.3063  3.6483
 6026SOL     OW29536   2.765   4.235  11.886  0.0706 -0.2680 -0.0134
 6026SOL    HW129537   2.670   4.239  11.890  0.1536  1.3298  0.6750
 6026SOL    HW229538   2.771   4.169  11.817 -0.4835 -1.5363  1.1428
 6027SOL     OW29539   2.007   3.510   3.112 -0.2412 -0.1668  0.2028
 6027SOL    HW129540   1.967   3.526   3.198  0.5726  0.9370  0.3742
 6027SOL    HW229541   2.094   3.549   3.108 -1.1070  1.5484 -1.7731
 6028SOL     OW29542   4.449   1.249   8.633  0.2973 -0.1276  0.2695
 6028SOL    HW129543   4.449   1.304   8.555  1.8272  0.0718  0.4119
 6028SOL    HW229544   4.513   1.302   8.681 -0.2691  0.8298 -0.0204
 6029SOL     OW29545   1.742   0.909   8.377  0.7913  0.1103 -0.3855
 6029SOL    HW129546   1.706   0.996   8.393 -0.2128 -0.5183  0.7423
 6029SOL    HW229547   1.765   0.878   8.465  1.4538 -0.8950 -0.9128
 6030SOL     OW29548   2.184   3.956   9.181 -0.1875 -0.2919  0.3184
 6030SOL    HW129549   2.277   3.976   9.173 -0.0717 -1.3819 -0.9821
 6030SOL    HW229550   2.194   3.868   9.217  1.4171 -0.9329 -1.7209
 6031SOL     OW29551   2.187   3.008  10.869 -0.1221  0.4585  0.1454
 6031SOL    HW129552   2.142   2.943  10.923  0.1401 -0.1838 -0.4033
 6031SOL    HW229553   2.139   3.084  10.903 -0.4028 -0.0006  0.7839
 6032SOL     OW29554   4.210   2.624   9.796  0.1991  0.4134 -0.3323
 6032SOL    HW129555   4.198   2.617   9.891  0.3576 -1.5096 -0.4442
 6032SOL    HW229556   4.161   2.704   9.779  0.7227  0.5841 -1.0375
 6033SOL     OW29557   1.650   3.176   6.606 -0.0588 -0.0989 -0.4070
 6033SOL    HW129558   1.633   3.110   6.674 -0.5632  1.2301  0.7592
 6033SOL    HW229559   1.621   3.121   6.533 -0.3586 -1.1231  0.4784
 6034SOL     OW29560   3.097   2.024   4.670  0.1647 -0.2876  0.0083
 6034SOL    HW129561   3.159   2.032   4.597 -1.4381  0.4651 -1.2641
 6034SOL    HW229562   3.117   2.106   4.715  0.4155 -0.2919 -0.0906
 6035SOL     OW29563   3.009   2.764   8.627 -0.4140 -0.5508  0.3212
 6035SOL    HW129564   2.950   2.709   8.575  0.2122  0.7792 -1.7728
 6035SOL    HW229565   3.025   2.841   8.574 -1.4365 -0.1826  0.5421
 6036SOL     OW29566   3.552   1.332   5.850 -0.8003 -0.0408 -0.0724
 6036SOL    HW129567   3.566   1.283   5.769  0.8149  1.2142 -0.5226
 6036SOL    HW229568   3.596   1.279   5.917  1.4865  0.4909 -1.1553
 6037SOL     OW29569   4.188   4.653  12.656 -0.3880  0.1702  0.5941
 6037SOL    HW129570   4.279   4.631  12.676 -0.4434  0.8923  1.6566
 6037SOL    HW229571   4.173   0.023  12.670 -1.7110 -0.0534  0.6103
 6038SOL     OW29572   2.942   4.389   9.272 -0.2444  0.2501  0.1449
 6038SOL    HW129573   2.939   4.385   9.177  3.9029  0.9411 -0.0095
 6038SOL    HW229574   2.963   4.297   9.291 -1.7969  0.5000  3.1146
 6039SOL     OW29575   2.921   0.664   2.883  0.0138  0.9117  0.1539
 6039SOL    HW129576   2.850   0.719   2.915 -0.8590  0.8715 -1.7032
 6039SOL    HW229577   2.954   0.717   2.810 -0.2114  0.6593 -0.1364
 6040SOL     OW29578   2.757   0.880  15.673 -0.4129 -0.5123  0.1824
 6040SOL    HW129579   2.793   0.849  15.590 -0.9303 -0.0563 -0.2107
 6040SOL    HW229580   2.835   0.894  15.728  0.1321 -3.7960  0.2235
 6041SOL     OW29581   1.827   4.459   8.030 -0.1558  0.2496 -0.3791
 6041SOL    HW129582   1.742   4.484   8.065  1.0326  0.8739  2.0187
 6041SOL    HW229583   1.882   4.515   8.085  1.6144  1.8212 -3.7543
 6042SOL     OW29584   1.670   3.484   2.413  0.0970  0.7680 -0.1212
 6042SOL    HW129585   1.594   3.454   2.463 -0.9282  1.9340 -0.9761
 6042SOL    HW229586   1.626   3.511   2.332 -0.2766  1.8393  0.4404
 6043SOL     OW29587   0.976   3.902   7.484  0.3635  0.2281  0.3042
 6043SOL    HW129588   1.020   3.900   7.569  0.2162  2.0107  0.4177
 6043SOL    HW229589   1.035   3.956   7.432  0.1987 -0.1175 -0.2451
 6044SOL     OW29590   2.167   1.493   6.630 -0.1586  0.3496 -0.1191
 6044SOL    HW129591   2.108   1.466   6.559  0.8845  0.7220 -1.1363
 6044SOL    HW229592   2.124   1.473   6.713 -1.8279 -1.8091 -1.5158
 6045SOL     OW29593   3.509   1.827   2.382 -0.3506 -0.2747  0.6149
 6045SOL    HW129594   3.476   1.799   2.296 -2.8985  0.3683  1.3715
 6045SOL    HW229595   3.599   1.838   2.353 -0.3272  2.3755  1.6600
 6046SOL     OW29596   3.883   1.634   4.761 -0.2978 -0.0977  0.2545
 6046SOL    HW129597   3.882   1.588   4.845  1.2225 -0.4812  0.0649
 6046SOL    HW229598   3.828   1.574   4.712  0.8333  0.0151 -1.1497
 6047SOL     OW29599   0.227   2.619   7.127 -0.4318  0.2436  0.4529
 6047SOL    HW129600   0.173   2.559   7.076 -0.2271  0.0465  0.4670
 6047SOL    HW229601   0.244   2.566   7.205 -1.3852 -1.1831 -0.3155
 6048SOL     OW29602   0.697   3.913   7.541  0.1555  0.3362  0.6116
 6048SOL    HW129603   0.705   4.009   7.543  1.6888  0.1764  2.0272
 6048SOL    HW229604   0.787   3.898   7.513 -0.1308 -1.9937  0.9389
 6049SOL     OW29605   3.332   1.450   6.020  0.1991 -0.0287  0.1101
 6049SOL    HW129606   3.400   1.432   5.956  1.5137  3.0935  0.5986
 6049SOL    HW229607   3.249   1.429   5.979  0.8553 -1.3190 -0.5408
 6050SOL     OW29608   1.846   4.300   8.631  0.0373  0.1969  0.1365
 6050SOL    HW129609   1.889   4.270   8.550  0.2334  1.2860 -0.1584
 6050SOL    HW229610   1.921   4.297   8.691  0.7233  1.2823 -0.6698
 6051SOL     OW29611   0.190   3.900   3.476 -0.0325  0.0684  0.0883
 6051SOL    HW129612   0.251   3.967   3.506  0.2363 -0.0692 -0.1561
 6051SOL    HW229613   0.227   3.818   3.509  0.4321  0.5188  0.6765
 6052SOL     OW29614   3.314   0.923   2.838 -0.1308  0.5320  0.2591
 6052SOL    HW129615   3.311   0.986   2.909 -1.1252 -1.4190  1.9574
 6052SOL    HW229616   3.404   0.893   2.844 -0.2081  0.0099 -1.0182
 6053SOL     OW29617   0.874   0.198   8.454 -0.3000  0.2115  0.6798
 6053SOL    HW129618   0.887   0.176   8.547  0.1140  2.4729  1.1429
 6053SOL    HW229619   0.888   0.109   8.420 -1.8915  0.2357 -0.0341
 6054SOL     OW29620   1.505   1.189   9.460 -0.2747  0.3965  0.2219
 6054SOL    HW129621   1.595   1.157   9.468 -0.4037  0.2004  0.9482
 6054SOL    HW229622   1.514   1.278   9.494 -1.1956  0.1660  1.0990
 6055SOL     OW29623   0.574   3.955   6.552 -0.0985 -0.3566 -0.6460
 6055SOL    HW129624   0.650   3.937   6.608 -1.2269 -1.1345  0.6431
 6055SOL    HW229625   0.591   3.885   6.490  0.1723  0.0166 -0.9911
 6056SOL     OW29626   4.718   4.597   1.895 -0.0726  0.1312  0.1452
 6056SOL    HW129627   4.716   4.665   1.962 -1.5538  0.8257 -0.6177
 6056SOL    HW229628   4.688   4.517   1.940  0.7850 -1.0548 -1.3947
 6057SOL     OW29629   3.862   1.379   8.675  0.1493  0.2641 -0.5033
 6057SOL    HW129630   3.768   1.392   8.682  0.4870  2.3315  0.4493
 6057SOL    HW229631   3.878   1.336   8.759  0.6338 -1.3174 -1.4028
 6058SOL     OW29632   2.308   1.205   9.422 -0.5063  0.0120  0.5128
 6058SOL    HW129633   2.373   1.248   9.477 -0.8484 -1.0480  1.7471
 6058SOL    HW229634   2.315   1.252   9.339  1.6404  1.9450  1.8064
 6059SOL     OW29635   0.019   4.507   3.599  0.3287  0.4796  0.3880
 6059SOL    HW129636   4.680   4.463   3.656  0.0361 -0.8241 -0.9691
 6059SOL    HW229637   4.691   4.507   3.519  0.4782 -2.2030  0.2986
 6060SOL     OW29638   4.190   2.175   4.896  0.5413 -0.4323 -0.1045
 6060SOL    HW129639   4.096   2.192   4.887  0.6797 -0.5353 -1.6812
 6060SOL    HW229640   4.224   2.264   4.885  1.2859 -0.6656  0.2856
 6061SOL     OW29641   4.086   0.921  10.568  0.1382 -0.3494 -0.1567
 6061SOL    HW129642   3.992   0.907  10.551  0.1441 -0.4324 -0.1225
 6061SOL    HW229643   4.083   1.015  10.586  1.7919 -0.2451 -0.4771
 6062SOL     OW29644   1.768   0.779   7.291 -0.0056  0.1970  0.2215
 6062SOL    HW129645   1.758   0.793   7.197  0.2018  0.3992  0.2282
 6062SOL    HW229646   1.772   0.684   7.285 -1.0302  0.2929 -1.9071
 6063SOL     OW29647   2.120   0.873  17.134  0.0904  0.1453  0.2641
 6063SOL    HW129648   2.129   0.790  17.180  1.0702  0.2093  0.1874
 6063SOL    HW229649   2.157   0.934  17.198 -0.6084  0.7144  0.1270
 6064SOL     OW29650   1.378   4.465   2.410 -0.4466 -0.1379 -0.1489
 6064SOL    HW129651   1.399   4.458   2.317  0.8990 -0.8372  0.2218
 6064SOL    HW229652   1.431   4.389   2.432  1.6488  1.7554  1.3039
 6065SOL     OW29653   4.088   4.587   3.050 -0.0729  0.7926  0.4224
 6065SOL    HW129654   4.108   4.589   3.143  0.7792 -0.6911  0.2662
 6065SOL    HW229655   3.999   4.622   3.049 -0.5856 -0.5254 -0.4600
 6066SOL     OW29656   0.707   0.459   1.997  0.2863  0.4820  0.4758
 6066SOL    HW129657   0.632   0.514   2.022 -0.0379 -0.3573  1.3711
 6066SOL    HW229658   0.677   0.415   1.918  0.2897  0.8752  0.2569
 6067SOL     OW29659   1.256   1.853   7.935  0.6826  0.0884 -0.8754
 6067SOL    HW129660   1.336   1.861   7.986  0.8090  2.9376 -1.5151
 6067SOL    HW229661   1.237   1.946   7.926 -1.6084 -0.0734  2.4268
 6068SOL     OW29662   2.126   0.379   8.563 -0.3652 -0.1189  0.0638
 6068SOL    HW129663   2.127   0.342   8.475  1.3031  0.1680 -0.0374
 6068SOL    HW229664   2.038   0.416   8.552 -0.4033 -0.0825  0.4903
 6069SOL     OW29665   0.541   4.117   6.962 -0.4120 -0.7108  0.0312
 6069SOL    HW129666   0.594   4.192   6.936  2.1896 -2.8848 -0.8356
 6069SOL    HW229667   0.489   4.106   6.882 -0.7760 -1.0886  0.3207
 6070SOL     OW29668   1.361   1.513   5.352  0.4206 -0.1053  0.5361
 6070SOL    HW129669   1.349   1.425   5.318 -1.0249  0.9229 -1.5928
 6070SOL    HW229670   1.424   1.551   5.291 -0.0481  2.2947  1.5369
 6071SOL     OW29671   3.319   1.163  11.876  0.1412  0.3216  0.1075
 6071SOL    HW129672   3.319   1.145  11.782 -1.7671  0.7736  0.0082
 6071SOL    HW229673   3.362   1.082  11.903 -0.4357 -0.2085 -0.5646
 6072SOL     OW29674   0.927   0.990   0.602  0.5005 -0.1018 -0.5176
 6072SOL    HW129675   0.881   0.918   0.643  0.7160  0.6203  0.9827
 6072SOL    HW229676   1.001   0.945   0.561  2.2096  0.9681  1.3849
 6073SOL     OW29677   3.644   3.039  10.065 -0.0405  0.7456  0.1142
 6073SOL    HW129678   3.740   3.030  10.063 -0.3108 -2.0836  0.1932
 6073SOL    HW229679   3.620   3.016   9.976 -0.2145  1.5187 -0.0387
 6074SOL     OW29680   1.883   0.237   4.315  0.0473  0.5400 -0.3826
 6074SOL    HW129681   1.915   0.324   4.294  0.6203  0.2520 -0.6794
 6074SOL    HW229682   1.797   0.233   4.273  1.6185 -1.6278 -3.3539
 6075SOL     OW29683   2.358   3.292   8.481 -0.2351 -0.7393 -0.1323
 6075SOL    HW129684   2.393   3.317   8.567 -1.1064  0.8360 -0.2132
 6075SOL    HW229685   2.292   3.360   8.466 -0.7344 -1.4396 -1.0443
 6076SOL     OW29686   0.808   1.734  15.599 -0.1444 -0.2307  0.4976
 6076SOL    HW129687   0.834   1.757  15.509  1.8923 -1.2667  0.8136
 6076SOL    HW229688   0.762   1.816  15.616 -1.1807 -0.6919 -0.0552
 6077SOL     OW29689   0.799   4.271   1.874  0.1518 -0.1935  0.1248
 6077SOL    HW129690   0.796   4.244   1.782  2.3430  1.3101 -0.4018
 6077SOL    HW229691   0.710   4.251   1.903 -0.6680  1.2410 -1.4074
 6078SOL     OW29692   4.112   1.961   9.312  0.3312  0.0664  0.0032
 6078SOL    HW129693   4.200   1.937   9.344 -0.0227 -0.1932  0.7983
 6078SOL    HW229694   4.076   2.000   9.391  0.7110 -1.3156  0.8735
 6079SOL     OW29695   0.358   0.323   6.299 -0.0067  0.7776  0.4365
 6079SOL    HW129696   0.325   0.402   6.255  0.3223  0.9436  0.4875
 6079SOL    HW229697   0.451   0.323   6.279  0.5016  2.8674  2.8243
 6080SOL     OW29698   2.627   1.719   9.353  0.4406 -0.3382  0.0098
 6080SOL    HW129699   2.538   1.749   9.338 -0.4467 -2.7668  0.4174
 6080SOL    HW229700   2.606   1.655   9.421 -0.1389 -0.9152 -0.7151
 6081SOL     OW29701   1.125   1.506   6.376 -0.1328  0.1435  0.2624
 6081SOL    HW129702   1.083   1.486   6.459 -0.1876 -0.0490  0.1876
 6081SOL    HW229703   1.050   1.516   6.318 -0.6950  3.1519  1.5489
 6082SOL     OW29704   3.250   4.437   9.720  0.0888  0.3913 -0.4452
 6082SOL    HW129705   3.206   4.519   9.744 -0.9303 -0.3052  0.0985
 6082SOL    HW229706   3.326   4.470   9.672 -0.7445  0.8860 -1.4257
 6083SOL     OW29707   4.355   3.187   6.232 -0.8664  0.5762  0.4403
 6083SOL    HW129708   4.418   3.160   6.165 -0.5982  1.9383  0.1243
 6083SOL    HW229709   4.380   3.280   6.237  0.1994  0.2789  0.5947
 6084SOL     OW29710   1.345   0.124  15.143 -0.5522  0.3782 -0.2998
 6084SOL    HW129711   1.286   0.132  15.069  0.1270  2.6585 -0.6024
 6084SOL    HW229712   1.299   0.191  15.193  0.2779  1.5668 -1.1176
 6085SOL     OW29713   2.587   1.836   3.104 -0.8394  0.4434 -0.2778
 6085SOL    HW129714   2.572   1.905   3.038  0.8219  1.3820  0.3243
 6085SOL    HW229715   2.537   1.864   3.181 -1.9899  0.2598 -0.9570
 6086SOL     OW29716   0.430   2.496   8.041  0.3105  0.1055  0.3036
 6086SOL    HW129717   0.405   2.578   7.998 -0.6947 -0.6954 -0.6292
 6086SOL    HW229718   0.354   2.478   8.097  1.3786 -0.5761  1.5590
 6087SOL     OW29719   0.083   0.627   7.047  0.1771 -0.2045 -0.2129
 6087SOL    HW129720   4.714   0.604   7.050  0.1052  0.2003  0.6399
 6087SOL    HW229721   0.108   0.620   7.139  0.4699 -0.9890 -0.3571
 6088SOL     OW29722   4.353   4.161   3.863  0.1447  0.8033 -0.0982
 6088SOL    HW129723   4.331   4.121   3.779 -0.4868 -1.1139  0.9787
 6088SOL    HW229724   4.357   4.080   3.913 -0.2648  0.2649 -0.9331
 6089SOL     OW29725   0.718   0.334   7.116  0.1058  0.0166  0.1326
 6089SOL    HW129726   0.803   0.360   7.153  0.4238 -2.8926  1.4349
 6089SOL    HW229727   0.681   0.418   7.088 -0.6323 -0.8976 -1.5518
 6090SOL     OW29728   1.458   3.229   5.776  0.2040  0.2477 -0.7603
 6090SOL    HW129729   1.378   3.255   5.730 -1.2352 -2.0551  0.4441
 6090SOL    HW229730   1.534   3.216   5.719  0.2425 -0.6138 -0.5069
 6091SOL     OW29731   2.392   2.697   2.031 -0.4203  0.3526 -0.0098
 6091SOL    HW129732   2.365   2.725   2.119  0.5903 -1.9529  1.0140
 6091SOL    HW229733   2.487   2.709   2.032 -0.4709  0.8482 -1.4802
 6092SOL     OW29734   2.009   4.021   5.622 -0.0645  1.1668 -0.4142
 6092SOL    HW129735   2.009   4.056   5.711  1.7727 -2.6136  1.0802
 6092SOL    HW229736   1.936   4.073   5.587 -0.4911  1.0849  0.3522
 6093SOL     OW29737   3.259   1.995   5.816  0.0859  0.0602  0.5460
 6093SOL    HW129738   3.213   2.076   5.836 -1.7499 -0.8317 -0.0499
 6093SOL    HW229739   3.254   2.003   5.721 -0.2274  1.1586  0.6555
 6094SOL     OW29740   3.313   0.371   3.887  0.3934 -0.9216 -0.4480
 6094SOL    HW129741   3.372   0.439   3.919 -1.4965  0.5595 -0.0921
 6094SOL    HW229742   3.350   0.290   3.922  1.7738 -0.0561  0.1117
 6095SOL     OW29743   2.055   0.621   6.607 -0.0999  0.3319 -0.2844
 6095SOL    HW129744   2.147   0.635   6.631  0.1441 -2.4679  0.4240
 6095SOL    HW229745   2.028   0.708   6.578 -0.0429  0.5476  0.3182
 6096SOL     OW29746   1.351   0.997   9.335  0.3814 -0.1600 -0.6113
 6096SOL    HW129747   1.414   1.047   9.386 -1.1236  0.2036  0.8675
 6096SOL    HW229748   1.318   0.934   9.399 -0.1402  0.3866 -0.3473
 6097SOL     OW29749   3.978   1.942  13.314  0.6260 -0.1824  0.0597
 6097SOL    HW129750   4.002   1.849  13.318  0.2842 -0.2291  1.1762
 6097SOL    HW229751   3.965   1.958  13.408 -0.9473  0.6068 -0.2909
 6098SOL     OW29752   0.714   3.057   8.186  0.0167 -0.2851  0.2603
 6098SOL    HW129753   0.631   3.082   8.226  0.2191  0.3220  0.2996
 6098SOL    HW229754   0.697   3.091   8.098  0.3636 -2.0305 -0.4863
 6099SOL     OW29755   1.029   0.093   6.340 -0.5334  0.0322  0.2951
 6099SOL    HW129756   1.049   0.019   6.397 -0.1016  0.1117  0.2462
 6099SOL    HW229757   1.079   0.054   6.268  0.1218  2.0636 -0.3262
 6100SOL     OW29758   0.061   0.531   2.870  0.3750 -0.0242  0.2035
 6100SOL    HW129759   4.720   0.466   2.844  0.0452 -0.4007  1.9695
 6100SOL    HW229760   0.118   0.521   2.794  0.5402  0.1014  0.3106
 6101SOL     OW29761   2.429   3.558   7.061  0.0984 -0.5240 -0.5653
 6101SOL    HW129762   2.392   3.574   6.974 -0.0348  2.7487  0.1149
 6101SOL    HW229763   2.424   3.462   7.064  0.2392 -0.4749  1.3349
 6102SOL     OW29764   0.421   0.509   0.845  0.4731 -0.4295 -0.4081
 6102SOL    HW129765   0.495   0.526   0.786 -1.1933  1.1228 -2.0525
 6102SOL    HW229766   0.442   0.422   0.878 -0.2348 -0.3356  0.2895
 6103SOL     OW29767   3.647   2.610   8.037  0.3730 -0.2529 -0.8278
 6103SOL    HW129768   3.634   2.524   8.077 -0.1727  0.5975  0.7768
 6103SOL    HW229769   3.628   2.672   8.107 -0.8324 -0.7282 -0.7420
 6104SOL     OW29770   1.140   4.209   2.768  0.2365 -0.8942  0.3163
 6104SOL    HW129771   1.087   4.269   2.716 -0.2586 -0.6399  1.1205
 6104SOL    HW229772   1.211   4.267   2.793 -0.5688  0.4205 -0.4676
 6105SOL     OW29773   1.635   1.039   5.653  0.3389 -0.1313  0.7722
 6105SOL    HW129774   1.637   1.119   5.600  0.8270 -0.5497  0.1553
 6105SOL    HW229775   1.707   0.989   5.614  1.2864  2.9971 -1.5519
 6106SOL     OW29776   0.834   1.827   9.159  0.0258 -0.5816 -0.2725
 6106SOL    HW129777   0.844   1.873   9.242 -0.5011 -0.5003 -0.2559
 6106SOL    HW229778   0.903   1.862   9.103 -1.0199 -1.2180 -1.9550
 6107SOL     OW29779   3.494   3.723   7.296  0.3335 -0.0855  0.2877
 6107SOL    HW129780   3.484   3.816   7.277 -0.5133 -0.0925  0.7042
 6107SOL    HW229781   3.557   3.728   7.368  0.3420 -1.4414  0.3730
 6108SOL     OW29782   4.162   0.851   1.309 -0.4092 -0.2116  1.0676
 6108SOL    HW129783   4.088   0.903   1.279  0.0654 -2.6196 -4.2204
 6108SOL    HW229784   4.229   0.919   1.301 -1.3741  0.9265  2.5368
 6109SOL     OW29785   2.510   3.815   5.734  0.1378  0.0863  0.0810
 6109SOL    HW129786   2.529   3.790   5.643  0.5318 -1.3230  0.5494
 6109SOL    HW229787   2.440   3.878   5.716  0.2865  0.2770  0.1730
 6110SOL     OW29788   0.274   0.087   6.220 -0.8848 -0.3751  0.0173
 6110SOL    HW129789   0.333   0.090   6.144 -2.0305  2.4656 -0.7805
 6110SOL    HW229790   0.286   0.175   6.256  0.5358  0.1161 -1.6609
 6111SOL     OW29791   0.942   3.159  16.767 -0.4774  0.1376  0.5617
 6111SOL    HW129792   0.993   3.078  16.775 -0.4638 -0.0106 -1.0988
 6111SOL    HW229793   0.860   3.122  16.800  0.1748 -0.5299  1.4396
 6112SOL     OW29794   0.452   1.395   5.295  0.3169 -0.1096 -0.3959
 6112SOL    HW129795   0.395   1.330   5.254  0.3276 -0.8564  0.7692
 6112SOL    HW229796   0.379   1.416   5.354  1.6407  0.6474  0.9657
 6113SOL     OW29797   1.972   4.714   7.517 -0.6141  0.0227 -0.0708
 6113SOL    HW129798   1.913   0.041   7.572  3.3783 -0.7153  4.9182
 6113SOL    HW229799   2.027   4.678   7.587 -0.8407 -1.6086 -0.7226
 6114SOL     OW29800   2.524   1.040   2.181  0.9102  0.2978 -0.0659
 6114SOL    HW129801   2.558   1.122   2.217  1.8902  0.9692 -2.5286
 6114SOL    HW229802   2.454   1.070   2.123 -0.2250 -0.3488  0.9649
 6115SOL     OW29803   0.431   2.100   7.764 -0.7172 -0.5453 -0.8635
 6115SOL    HW129804   0.352   2.056   7.797 -1.0901  0.2091 -0.7497
 6115SOL    HW229805   0.438   2.051   7.682 -0.5788  0.4242 -1.4320
 6116SOL     OW29806   3.146   3.618   9.844 -0.3120 -0.1558 -0.1456
 6116SOL    HW129807   3.208   3.629   9.916  1.8318 -1.9982 -1.7174
 6116SOL    HW229808   3.067   3.658   9.881  0.0146 -0.8845  1.3518
 6117SOL     OW29809   0.084   4.317  14.970  0.3684  0.2102 -0.4736
 6117SOL    HW129810   0.003   4.342  14.926  0.8677 -0.1374 -1.5936
 6117SOL    HW229811   0.104   4.398  15.017  0.2237 -0.6144  0.9987
 6118SOL     OW29812   1.885   3.161  16.072 -0.4128 -0.4684 -0.0139
 6118SOL    HW129813   1.952   3.229  16.078 -1.5044  0.6464 -0.4160
 6118SOL    HW229814   1.930   3.086  16.034 -1.5933 -1.3454  0.3285
 6119SOL     OW29815   2.046   4.605   2.531 -0.0264 -0.5332 -0.1795
 6119SOL    HW129816   2.132   4.645   2.540  0.1923 -1.2146  0.7184
 6119SOL    HW229817   2.033   4.607   2.436 -3.1336 -0.8058  0.2345
 6120SOL     OW29818   4.216   1.504   4.727 -0.4317 -0.2226 -0.2735
 6120SOL    HW129819   4.249   1.559   4.656  0.5460 -0.5191 -0.0437
 6120SOL    HW229820   4.176   1.576   4.775 -1.1590 -0.2657 -0.8072
 6121SOL     OW29821   4.298   1.678  13.456 -0.2579  0.3999 -0.2016
 6121SOL    HW129822   4.309   1.725  13.538  0.0134 -1.3657  0.7739
 6121SOL    HW229823   4.205   1.697  13.443 -0.6231 -0.4607  1.2322
 6122SOL     OW29824   0.519   3.722  15.423  0.2734  0.4152 -0.1499
 6122SOL    HW129825   0.439   3.763  15.392  1.1272 -0.1513 -3.1306
 6122SOL    HW229826   0.512   3.637  15.379 -1.0597  0.4412  0.0353
 6123SOL     OW29827   3.949   0.158   0.020 -0.5456 -0.7077  0.6369
 6123SOL    HW129828   3.931   0.089   0.084 -0.1538 -1.6631 -0.2787
 6123SOL    HW229829   3.862   0.179  17.682  0.1895  1.3072  0.0373
 6124SOL     OW29830   2.161   3.786  13.299 -0.1224  0.1658  0.1712
 6124SOL    HW129831   2.131   3.842  13.371  1.7147 -0.5419  1.5049
 6124SOL    HW229832   2.246   3.757  13.334  0.1992 -1.6711 -2.1735
 6125SOL     OW29833   4.380   0.349  17.681  0.0137  0.2164  0.1658
 6125SOL    HW129834   4.421   0.374   0.067  1.1187  0.0772 -0.3259
 6125SOL    HW229835   4.334   0.270   0.011  2.2526 -0.6603  1.4097
 6126SOL     OW29836   3.034   2.283   7.695 -0.1251 -0.0983  0.2058
 6126SOL    HW129837   2.972   2.257   7.627  0.9488 -2.2212  0.0193
 6126SOL    HW229838   3.029   2.378   7.684 -0.9561 -0.4785 -2.5441
 6127SOL     OW29839   0.862   2.506   8.442  0.4267 -0.0875  0.2475
 6127SOL    HW129840   0.821   2.440   8.387 -0.9351  1.7257 -0.8961
 6127SOL    HW229841   0.788   2.567   8.449  1.2626  1.1063 -1.3149
 6128SOL     OW29842   1.680   0.048   2.575  0.0395 -0.1876  0.5667
 6128SOL    HW129843   1.641   0.130   2.544  1.4936 -0.0880 -1.0435
 6128SOL    HW229844   1.689   4.722   2.493 -0.0676  0.8767 -0.0957
 6129SOL     OW29845   3.254   1.021   7.873 -0.0811  0.4665 -0.3721
 6129SOL    HW129846   3.302   0.969   7.809 -0.4282 -0.6511  0.2728
 6129SOL    HW229847   3.245   0.960   7.946 -0.3947  1.1859  0.1942
 6130SOL     OW29848   0.201   2.029   0.285 -0.2880 -0.2931 -0.0145
 6130SOL    HW129849   0.160   2.043   0.200  1.2256  1.0890 -0.5161
 6130SOL    HW229850   0.134   1.988   0.339 -0.0508 -0.8008 -0.0988
 6131SOL     OW29851   3.953   0.558   3.282  0.4725  0.5244  0.0372
 6131SOL    HW129852   3.966   0.648   3.313  0.1075  0.2176  1.0661
 6131SOL    HW229853   3.864   0.540   3.311  0.5317 -0.0770 -0.1721
 6132SOL     OW29854   3.784   4.432   9.748  0.3662  0.0210  0.6522
 6132SOL    HW129855   3.769   4.467   9.836  0.1986 -0.3650  0.7781
 6132SOL    HW229856   3.867   4.385   9.752 -0.2856 -1.1066  0.9117
 6133SOL     OW29857   0.706   3.914   5.013  0.9636 -0.4045 -0.4083
 6133SOL    HW129858   0.618   3.876   5.010 -0.3866  2.4442  2.6361
 6133SOL    HW229859   0.694   3.998   4.969  0.0486  0.0846  0.7878
 6134SOL     OW29860   2.916   4.168   7.837  0.2998 -0.3105 -0.0717
 6134SOL    HW129861   2.875   4.083   7.852  0.6701 -0.0042  2.5820
 6134SOL    HW229862   2.902   4.182   7.743 -5.0551 -0.6491  0.6980
 6135SOL     OW29863   0.101   0.671   1.937 -0.0531  0.0246  0.4729
 6135SOL    HW129864   0.020   0.646   1.893  0.6661  3.3899 -2.6859
 6135SOL    HW229865   0.168   0.647   1.872  1.5012  1.1302  1.6619
 6136SOL     OW29866   0.081   3.854  13.870  0.5490  0.2022 -0.3454
 6136SOL    HW129867   0.128   3.844  13.788  0.7936 -1.5782  0.0036
 6136SOL    HW229868   0.151   3.826  13.929  0.5563 -0.4243 -0.6495
 6137SOL     OW29869   1.716   3.044   3.810 -0.5029 -0.0482 -0.3149
 6137SOL    HW129870   1.796   3.061   3.760  0.1151  0.0917  0.7197
 6137SOL    HW229871   1.719   2.951   3.832  0.6916 -0.0982 -0.7387
 6138SOL     OW29872   0.311   0.238  12.506  0.4194  0.0037 -0.1016
 6138SOL    HW129873   0.304   0.194  12.590  0.8269 -1.2521 -0.7294
 6138SOL    HW229874   0.247   0.183  12.461  0.6527 -0.0525 -0.3662
 6139SOL     OW29875   1.899   3.695   7.793  0.3250 -0.7799 -0.4187
 6139SOL    HW129876   1.872   3.773   7.745  2.7616 -1.0627 -2.2710
 6139SOL    HW229877   1.838   3.629   7.758 -0.2390  0.6003 -2.0176
 6140SOL     OW29878   3.680   2.836   6.295  0.2256  0.3716  0.2568
 6140SOL    HW129879   3.620   2.856   6.223  1.4674  0.6464 -0.6841
 6140SOL    HW229880   3.697   2.921   6.335  2.3592 -0.5587  1.3131
 6141SOL     OW29881   3.451   2.847   4.834  0.2469  0.1495 -0.6692
 6141SOL    HW129882   3.435   2.911   4.904 -0.0501 -0.2543 -0.3715
 6141SOL    HW229883   3.486   2.911   4.771 -0.2495 -0.0633 -1.1565
 6142SOL     OW29884   0.175   4.665   9.619  0.4864 -0.2727 -0.0081
 6142SOL    HW129885   0.142   4.593   9.673  1.9494 -1.1241 -0.2417
 6142SOL    HW229886   0.105   4.667   9.554 -0.1982  0.6299  0.7663
 6143SOL     OW29887   1.179   0.111   3.605 -0.2700  0.0918 -0.0801
 6143SOL    HW129888   1.187   0.023   3.642  1.1074  0.2332 -0.0110
 6143SOL    HW229889   1.086   0.128   3.619 -0.4261 -0.7272 -0.1746
 6144SOL     OW29890   0.108   2.070  16.988  0.1652  0.3907  1.2074
 6144SOL    HW129891   0.042   2.058  17.056 -1.4633  0.3771 -0.3869
 6144SOL    HW229892   0.058   2.133  16.937  0.1326  1.0108  2.0013
 6145SOL     OW29893   3.251   3.506   8.348  0.2496 -0.1641 -0.3337
 6145SOL    HW129894   3.342   3.488   8.373  0.6819  2.4807  0.0471
 6145SOL    HW229895   3.228   3.569   8.417  0.3393  0.0403 -0.4883
 6146SOL     OW29896   3.693   0.146   0.396 -0.1588 -0.0840 -0.2076
 6146SOL    HW129897   3.698   0.225   0.342  0.0505 -0.2241 -0.3900
 6146SOL    HW229898   3.604   0.150   0.432  0.4490  1.0532  1.1651
 6147SOL     OW29899   1.887   1.637   9.425  0.1029  0.1178  0.6332
 6147SOL    HW129900   1.970   1.613   9.384  0.3262 -1.6357  2.1236
 6147SOL    HW229901   1.816   1.598   9.375  0.2691  0.5145  0.0854
 6148SOL     OW29902   1.168   3.364   7.203  0.2437 -0.0267  0.2545
 6148SOL    HW129903   1.075   3.360   7.226  0.1853  0.5464  0.1108
 6148SOL    HW229904   1.151   3.418   7.126  1.1397  0.6131  0.4990
 6149SOL     OW29905   2.900   3.243  15.087 -0.0756  0.1408  0.7888
 6149SOL    HW129906   2.937   3.306  15.149  1.2213  0.1446  0.0153
 6149SOL    HW229907   2.969   3.178  15.074  1.1524  1.4328  0.7821
 6150SOL     OW29908   3.598   4.169  14.710  0.4600 -0.2199 -0.0896
 6150SOL    HW129909   3.652   4.116  14.768 -0.5593  0.3790  1.4052
 6150SOL    HW229910   3.591   4.249  14.763 -2.1298  0.5818 -1.6470
 6151SOL     OW29911   0.819   2.929  15.931 -0.5438 -0.1109  0.2264
 6151SOL    HW129912   0.829   2.915  16.025  3.4131 -3.1480 -0.6592
 6151SOL    HW229913   0.766   3.008  15.929 -0.4049  0.0139  1.5622
 6152SOL     OW29914   4.555   1.804   2.396 -0.5333  0.3101 -0.6205
 6152SOL    HW129915   4.574   1.723   2.347  0.8828  0.4135 -0.2168
 6152SOL    HW229916   4.547   1.762   2.481  0.1499 -0.5003 -0.9585
 6153SOL     OW29917   0.075   4.456   1.630 -0.4346 -1.1748  0.3126
 6153SOL    HW129918   0.076   4.409   1.547 -1.0510  0.2893 -0.5211
 6153SOL    HW229919   0.008   4.409   1.680 -1.9506 -0.3922 -0.9974
 6154SOL     OW29920   4.470   2.436   9.318 -0.0040  0.0786  0.4520
 6154SOL    HW129921   4.430   2.359   9.277  1.6790 -0.8348  0.5314
 6154SOL    HW229922   4.453   2.426   9.412  0.6978 -1.0175  0.4513
 6155SOL     OW29923   2.022   1.863   7.460 -0.5931  0.2760 -0.3891
 6155SOL    HW129924   2.088   1.799   7.432 -1.9151 -1.7088  1.0804
 6155SOL    HW229925   1.980   1.833   7.540  1.9542 -0.4456  0.6929
 6156SOL     OW29926   0.060   0.702   6.181  0.5339 -0.0396  0.2707
 6156SOL    HW129927   0.035   0.664   6.265  0.2092 -0.3989  0.0112
 6156SOL    HW229928   0.070   0.793   6.210  0.3751 -0.0429  0.3339
 6157SOL     OW29929   3.670   0.877   3.146 -0.7663 -0.0223 -0.1901
 6157SOL    HW129930   3.634   0.961   3.118 -0.7963  0.0381  0.0307
 6157SOL    HW229931   3.669   0.826   3.065  0.4832 -1.1168  0.4845
 6158SOL     OW29932   4.494   0.459  10.477  0.2025 -0.3067  0.2401
 6158SOL    HW129933   4.403   0.453  10.507  0.2862 -0.9427  0.3528
 6158SOL    HW229934   4.490   0.421  10.389  0.0301 -0.7050  0.4190
 6159SOL     OW29935   1.707   2.502   7.375 -0.0975  0.6553 -0.0860
 6159SOL    HW129936   1.772   2.562   7.341  1.8801 -1.7233 -0.5294
 6159SOL    HW229937   1.697   2.440   7.302 -1.1882 -1.1681  1.5837
 6160SOL     OW29938   3.249   1.960  13.397 -0.3079 -0.1175 -0.4391
 6160SOL    HW129939   3.274   1.919  13.480 -0.4369 -2.6007 -1.6110
 6160SOL    HW229940   3.164   1.918  13.381 -0.1194 -0.4506 -0.5812
 6161SOL     OW29941   1.459   1.400   9.255  0.1072 -0.1042  0.7607
 6161SOL    HW129942   1.453   1.313   9.296 -2.0268 -0.3353 -0.0446
 6161SOL    HW229943   1.391   1.448   9.302  1.2081  1.1293  1.0871
 6162SOL     OW29944   1.019   3.008   4.434 -0.5901  0.0612  0.5233
 6162SOL    HW129945   1.017   2.968   4.520 -0.6714  0.2649  0.6164
 6162SOL    HW229946   0.929   3.004   4.400 -0.6610  1.1183  0.5797
 6163SOL     OW29947   1.122   2.896   2.939 -0.1817 -0.0845 -0.0697
 6163SOL    HW129948   1.142   2.860   3.025 -2.3885  1.8764  1.2379
 6163SOL    HW229949   1.062   2.837   2.894  0.3448  1.2779 -2.5826
 6164SOL     OW29950   0.349   4.665   2.870 -0.0900 -0.2288  0.3326
 6164SOL    HW129951   0.382   4.595   2.814  2.4130  1.4464 -0.2976
 6164SOL    HW229952   0.385   4.634   2.953  2.5324  1.4179 -0.1722
 6165SOL     OW29953   3.926   2.731   3.202  0.4207  0.1266  0.0109
 6165SOL    HW129954   3.928   2.752   3.109  0.9054  0.3933  0.0814
 6165SOL    HW229955   3.832   2.715   3.215  0.2899  1.2942  0.5275
 6166SOL     OW29956   0.770   3.817  10.428  0.5376  0.1295  0.2747
 6166SOL    HW129957   0.712   3.772  10.489  0.1595 -0.1875 -0.3149
 6166SOL    HW229958   0.855   3.773  10.435 -0.6359 -2.6483 -2.9073
 6167SOL     OW29959   0.006   4.518  13.456  0.3484 -0.0679 -0.0654
 6167SOL    HW129960   0.040   4.607  13.445  0.4594 -0.0961  0.0470
 6167SOL    HW229961   0.055   4.472  13.388 -0.2991 -0.7183 -0.0867
 6168SOL     OW29962   1.450   2.727   3.008 -0.4931 -0.3124 -0.4217
 6168SOL    HW129963   1.543   2.705   2.999 -0.5359  0.3994 -2.6004
 6168SOL    HW229964   1.417   2.718   2.919 -0.4043 -2.1712 -0.2747
 6169SOL     OW29965   3.319   1.009  15.164 -0.3151 -0.7640 -0.4168
 6169SOL    HW129966   3.350   0.938  15.219  4.2663  1.8009  0.3949
 6169SOL    HW229967   3.401   1.041  15.125 -1.1734  2.9502  0.7928
 6170SOL     OW29968   2.585   3.239  13.424  0.2897  0.4211  0.8001
 6170SOL    HW129969   2.567   3.275  13.511  0.3738  0.8870  0.6267
 6170SOL    HW229970   2.611   3.325  13.390 -1.2115  1.6709  2.8112
 6171SOL     OW29971   0.765   2.122   5.983 -0.0531  0.4095  0.3721
 6171SOL    HW129972   0.716   2.068   5.920  2.1020 -3.2564  1.8485
 6171SOL    HW229973   0.701   2.168   6.037 -2.6300  2.0693 -4.1007
 6172SOL     OW29974   3.267   3.459  14.592 -0.6907  0.0089  0.2131
 6172SOL    HW129975   3.234   3.406  14.519  0.2019  0.5147 -0.5480
 6172SOL    HW229976   3.232   3.415  14.670  1.2296 -1.5884  0.1617
 6173SOL     OW29977   3.135   1.023   9.204  0.1804  0.0751 -0.3503
 6173SOL    HW129978   3.097   1.067   9.127  0.7100 -0.5350 -0.9634
 6173SOL    HW229979   3.062   1.029   9.265 -0.4227  0.3821 -1.0915
 6174SOL     OW29980   0.655   0.083   6.297  0.1605 -0.0536 -0.1287
 6174SOL    HW129981   0.563   0.108   6.293  0.4925  1.0194 -1.0501
 6174SOL    HW229982   0.676   0.077   6.204  0.8296  0.1567  0.0031
 6175SOL     OW29983   2.813   4.445  12.051 -0.1769  0.2463  0.2893
 6175SOL    HW129984   2.875   4.489  11.992 -1.4392 -0.4216 -1.5223
 6175SOL    HW229985   2.817   4.361  12.006 -2.0077 -0.8129  2.1226
 6176SOL     OW29986   3.269   3.749   9.385  0.2927 -0.2336 -0.4918
 6176SOL    HW129987   3.211   3.679   9.416  0.9155 -0.4484  0.1757
 6176SOL    HW229988   3.356   3.728   9.419  0.0546 -2.0390 -0.9974
 6177SOL     OW29989   0.188   1.841  14.996 -0.5765 -0.0215 -0.0510
 6177SOL    HW129990   0.105   1.876  14.962 -0.2911  1.1373  0.4458
 6177SOL    HW229991   0.255   1.880  14.941 -1.9758  2.9821  0.3540
 6178SOL     OW29992   1.364   0.892   4.526  0.1710  0.0998  0.3529
 6178SOL    HW129993   1.305   0.826   4.560  0.3450  0.4640  1.3891
 6178SOL    HW229994   1.433   0.878   4.592  1.1583 -2.8569 -1.3235
 6179SOL     OW29995   2.723   1.521  11.687  0.0465  0.3193  0.3260
 6179SOL    HW129996   2.643   1.571  11.705 -0.2395 -0.6387  1.7338
 6179SOL    HW229997   2.774   1.583  11.636  0.6047 -0.6058 -0.2494
 6180SOL     OW29998   4.461   3.623  12.141 -0.1439  0.2160  0.9494
 6180SOL    HW129999   4.510   3.652  12.064  0.8255 -3.3481  0.2396
 6180SOL    HW230000   4.456   3.703  12.193  0.2888 -0.6789  2.3551
 6181SOL     OW30001   4.622   4.658   5.481 -0.7142 -0.0712 -0.6614
 6181SOL    HW130002   4.571   4.717   5.426  0.6150  2.3837  0.7342
 6181SOL    HW230003   4.552   4.612   5.528 -1.1463  0.6368 -0.6069
 6182SOL     OW30004   3.801   1.044  12.033  0.0330 -0.3617 -0.6165
 6182SOL    HW130005   3.817   1.016  11.942  0.0435 -0.3788 -0.6095
 6182SOL    HW230006   3.713   1.081  12.027 -0.9779 -2.6959 -0.3820
 6183SOL     OW30007   0.126   1.963   7.704 -0.5876  0.0238 -0.1796
 6183SOL    HW130008   0.074   2.040   7.683 -1.0363  0.5460  2.7893
 6183SOL    HW230009   0.127   1.960   7.800  0.6145  0.6321 -0.1685
 6184SOL     OW30010   0.598   4.162   3.170 -0.6024 -0.0536 -0.5935
 6184SOL    HW130011   0.559   4.079   3.197  0.1498  0.0945  0.9841
 6184SOL    HW230012   0.670   4.146   3.110  0.3371 -0.6719  0.6841
 6185SOL     OW30013   3.231   0.312   3.003  0.6247  0.5319 -1.3174
 6185SOL    HW130014   3.214   0.377   2.935 -1.1580 -0.4277 -1.8016
 6185SOL    HW230015   3.197   0.235   2.956 -1.0538 -0.2138  1.0715
 6186SOL     OW30016   1.040   3.574   5.010  0.5132 -0.3331  0.3750
 6186SOL    HW130017   0.991   3.608   5.084  0.9573 -0.0318  0.5341
 6186SOL    HW230018   1.010   3.631   4.940 -0.1323  0.7689  1.5470
 6187SOL     OW30019   3.314   2.620   2.015 -0.0736 -0.2423  0.4224
 6187SOL    HW130020   3.287   2.711   2.028  0.4686 -0.1467  0.8835
 6187SOL    HW230021   3.342   2.624   1.924  1.1418  3.5920  0.9456
 6188SOL     OW30022   1.171   2.467   6.315  0.3661 -0.6252  0.4617
 6188SOL    HW130023   1.155   2.382   6.357 -3.0355  0.1213  0.6053
 6188SOL    HW230024   1.130   2.533   6.371  0.3447 -0.5537  0.3605
 6189SOL     OW30025   2.869   3.624   9.717  0.7140  0.1283  0.4531
 6189SOL    HW130026   2.803   3.647   9.782  0.2858  0.1483  0.0097
 6189SOL    HW230027   2.882   3.534   9.746 -2.2186 -0.0902  1.0185
 6190SOL     OW30028   2.220   0.039   4.717 -0.2948  0.1020 -0.3978
 6190SOL    HW130029   2.243   0.019   4.626  1.5642 -0.4331  0.1888
 6190SOL    HW230030   2.170   0.121   4.708 -0.0191  0.1641 -1.3293
 6191SOL     OW30031   1.551   3.235   7.981  0.1026 -0.2156 -0.7080
 6191SOL    HW130032   1.482   3.298   7.958 -0.1194 -0.3371 -0.3898
 6191SOL    HW230033   1.597   3.230   7.898  0.6803  2.6419 -0.5643
 6192SOL     OW30034   1.710   3.564   3.257  0.0820 -0.0882  0.1703
 6192SOL    HW130035   1.622   3.584   3.228  1.0553  1.4346 -1.7069
 6192SOL    HW230036   1.736   3.644   3.304 -1.0938  1.6547 -2.1589
 6193SOL     OW30037   3.644   4.264   8.322 -0.4732 -0.6686 -0.1063
 6193SOL    HW130038   3.736   4.257   8.350 -0.3029  0.0020 -0.5074
 6193SOL    HW230039   3.610   4.200   8.385  0.2485  0.1798  1.1521
 6194SOL     OW30040   0.065   4.448   5.533  0.0189 -0.0221 -0.1740
 6194SOL    HW130041   0.087   4.492   5.615 -2.2255  0.6585  0.0596
 6194SOL    HW230042   0.032   4.523   5.482  0.0119 -2.1026 -3.2474
 6195SOL     OW30043   0.959   1.380   8.118  0.0063 -0.1894  0.2232
 6195SOL    HW130044   0.935   1.289   8.106 -2.5617  0.5915 -0.6274
 6195SOL    HW230045   0.874   1.419   8.097  1.0792  2.2534  0.3761
 6196SOL     OW30046   1.939   1.102   1.551  0.0786 -0.4273 -0.2492
 6196SOL    HW130047   1.942   1.043   1.627  2.0734  0.7744  0.6020
 6196SOL    HW230048   1.878   1.170   1.576 -1.1073 -1.2971 -0.7923
 6197SOL     OW30049   2.352   1.837   6.972 -0.1044  0.3050  0.1120
 6197SOL    HW130050   2.388   1.856   6.885 -1.5076  3.3960  0.1746
 6197SOL    HW230051   2.260   1.858   6.951 -0.0045  1.5397  0.9203
 6198SOL     OW30052   2.016   4.341   2.485 -0.0837  0.6667 -0.0403
 6198SOL    HW130053   2.089   4.346   2.422 -0.4626  1.6208 -0.3950
 6198SOL    HW230054   2.009   4.433   2.507 -1.4993  0.0286  2.1130
 6199SOL     OW30055   4.348   4.311   5.774 -0.0460 -0.2017 -0.2276
 6199SOL    HW130056   4.361   4.378   5.841  1.2259 -0.1164 -0.5643
 6199SOL    HW230057   4.437   4.315   5.741  0.6268  1.3439  1.8126
 6200SOL     OW30058   1.551   2.854   5.734 -0.2969 -0.0040  0.2812
 6200SOL    HW130059   1.463   2.876   5.764  0.1652  0.7668  1.0808
 6200SOL    HW230060   1.531   2.794   5.663  1.8726 -0.2463 -0.1265
 6201SOL     OW30061   1.237   2.040   7.510  0.4504 -0.2372 -0.3344
 6201SOL    HW130062   1.282   1.999   7.437  0.0011  1.1403 -1.3946
 6201SOL    HW230063   1.292   2.117   7.524  2.0485 -1.3470 -0.4974
 6202SOL     OW30064   2.731   0.771   7.566  0.0399  0.1608  0.1065
 6202SOL    HW130065   2.766   0.836   7.627 -1.7047  3.7875 -2.7426
 6202SOL    HW230066   2.797   0.704   7.583 -0.7211 -0.5739  0.1918
 6203SOL     OW30067   0.580   3.632  16.270 -0.1355 -0.3374 -0.1192
 6203SOL    HW130068   0.504   3.617  16.214  0.4758 -0.0101 -1.0423
 6203SOL    HW230069   0.607   3.549  16.308  1.5213  1.2160  2.1411
 6204SOL     OW30070   2.272   3.421  13.844 -0.6166  0.2378 -0.6626
 6204SOL    HW130071   2.312   3.335  13.831 -1.1291  0.0382 -0.9796
 6204SOL    HW230072   2.315   3.451  13.924  1.9071 -1.6852 -1.3035
 6205SOL     OW30073   4.261   2.823   5.899 -0.2782 -0.1826 -0.2689
 6205SOL    HW130074   4.246   2.918   5.900  0.5666 -0.0355 -1.0907
 6205SOL    HW230075   4.178   2.792   5.935  0.0540 -0.7355  0.0061
 6206SOL     OW30076   0.056   1.170   5.430 -0.0241  0.8281 -0.4964
 6206SOL    HW130077   0.000   1.092   5.426 -0.2135  0.9820 -0.8295
 6206SOL    HW230078   0.006   1.238   5.384  0.3954  0.1671 -1.9299
 6207SOL     OW30079   2.890   3.368  17.447 -0.1507 -0.5641  0.0224
 6207SOL    HW130080   2.815   3.311  17.464 -0.7712  0.1255 -0.4082
 6207SOL    HW230081   2.844   3.451  17.453  2.0240  0.8068 -2.2274
 6208SOL     OW30082   3.667   3.772   2.249  0.1883  0.0486 -0.1315
 6208SOL    HW130083   3.720   3.716   2.193  0.2779 -1.5421  1.5442
 6208SOL    HW230084   3.735   3.795   2.313  0.1221  0.1430 -0.0948
 6209SOL     OW30085   4.422   3.622  13.182  0.5488  0.0385  0.4132
 6209SOL    HW130086   4.397   3.694  13.241 -2.1545 -0.8804  0.3962
 6209SOL    HW230087   4.514   3.605  13.203  1.1419  1.3390 -1.1162
 6210SOL     OW30088   0.388   0.467  16.739 -0.4113  0.3232  0.3047
 6210SOL    HW130089   0.312   0.409  16.728 -0.6437  0.5113  0.9338
 6210SOL    HW230090   0.455   0.412  16.779  1.3877  1.3873 -1.2807
 6211SOL     OW30091   2.596   1.901   2.438  0.1514  0.3022 -0.0751
 6211SOL    HW130092   2.656   1.965   2.477  1.2296 -0.5316 -0.3711
 6211SOL    HW230093   2.507   1.920   2.468  0.9521  1.4596  1.6233
 6212SOL     OW30094   2.461   1.540   6.245 -0.5652  0.5000 -0.1349
 6212SOL    HW130095   2.481   1.615   6.188 -0.8513  0.3504 -0.4335
 6212SOL    HW230096   2.413   1.479   6.189 -1.4106  0.4447  0.6529
 6213SOL     OW30097   2.762   4.363   4.259 -0.3255 -0.1417  0.1436
 6213SOL    HW130098   2.845   4.317   4.244 -0.7908 -0.5684 -1.1481
 6213SOL    HW230099   2.786   4.455   4.269  2.3858 -0.7163 -1.2119
 6214SOL     OW30100   4.109   1.338   8.170 -0.2031  0.1319  0.0669
 6214SOL    HW130101   4.117   1.434   8.169 -0.8031  0.1629 -2.3170
 6214SOL    HW230102   4.083   1.324   8.261  0.9720 -2.0057  0.0661
 6215SOL     OW30103   0.077   1.943   7.309  0.4728  0.0607  0.1088
 6215SOL    HW130104   0.042   1.878   7.370  0.1421  0.1479  0.0111
 6215SOL    HW230105   0.004   2.005   7.301  0.1429 -0.2035  1.0120
 6216SOL     OW30106   4.288   1.114   1.921  0.7725  0.2499  0.4174
 6216SOL    HW130107   4.371   1.070   1.907  0.9084  0.3217  1.0111
 6216SOL    HW230108   4.319   1.201   1.946  0.5371  0.4293  0.0824
 6217SOL     OW30109   3.984   2.866   6.033 -0.0248 -0.0713  0.0483
 6217SOL    HW130110   3.983   2.781   6.076  0.9524 -0.3277 -0.4412
 6217SOL    HW230111   3.953   2.931   6.096 -3.7946 -1.6822 -0.1995
 6218SOL     OW30112   2.616   4.160   5.960 -0.5209 -0.1987  0.0623
 6218SOL    HW130113   2.616   4.187   5.868  1.3171  0.2214  0.1797
 6218SOL    HW230114   2.682   4.093   5.944  0.5148  0.7159  0.5074
 6219SOL     OW30115   0.434   3.006   2.708 -0.5053  0.1584 -0.5230
 6219SOL    HW130116   0.417   3.016   2.614 -2.6150 -0.2806 -0.1945
 6219SOL    HW230117   0.528   2.989   2.702 -0.6202 -0.0377 -1.7371
 6220SOL     OW30118   3.568   0.509   5.725 -0.2044 -0.1124 -1.0267
 6220SOL    HW130119   3.563   0.559   5.644  0.1283 -0.6345 -1.3703
 6220SOL    HW230120   3.484   0.514   5.770  0.9789 -0.2355  1.1822
 6221SOL     OW30121   4.354   1.370   2.038  0.1487 -0.0231 -0.0394
 6221SOL    HW130122   4.310   1.363   2.123  2.2825  0.2439  1.1044
 6221SOL    HW230123   4.449   1.380   2.048  0.1160 -0.0835  0.3310
 6222SOL     OW30124   0.789   0.957   4.463  0.4848  0.4434  0.1240
 6222SOL    HW130125   0.804   1.051   4.463 -0.6318  0.6210 -2.3011
 6222SOL    HW230126   0.823   0.934   4.549 -2.0542 -0.6137  0.8448
 6223SOL     OW30127   2.590   4.582  17.670 -0.4156  0.2316 -0.1304
 6223SOL    HW130128   2.541   4.604   0.052 -0.6956 -3.5301  0.7644
 6223SOL    HW230129   2.613   4.668  17.635  1.4103 -0.9156 -1.7236
 6224SOL     OW30130   2.488   2.820   4.744  0.1001 -0.1618 -0.2462
 6224SOL    HW130131   2.522   2.856   4.662  0.9564  0.3383  0.3275
 6224SOL    HW230132   2.493   2.727   4.722  0.2732 -0.2345  0.0998
 6225SOL     OW30133   3.345   0.723  13.643 -0.1145 -0.1679  0.4271
 6225SOL    HW130134   3.343   0.633  13.676 -1.6667 -0.1507  0.3789
 6225SOL    HW230135   3.415   0.731  13.580 -0.5228  2.7519  0.3598
 6226SOL     OW30136   1.874   0.812   3.794 -0.1733 -0.2328 -0.4168
 6226SOL    HW130137   1.840   0.879   3.735 -0.8283  0.7709  1.1077
 6226SOL    HW230138   1.816   0.825   3.869 -1.3664 -1.4048 -1.1414
 6227SOL     OW30139   4.247   2.865  10.114 -0.7536 -0.2401  0.3865
 6227SOL    HW130140   4.173   2.925  10.123 -1.5809 -1.2016 -0.0111
 6227SOL    HW230141   4.289   2.898  10.035  0.3512 -0.7398  0.7654
 6228SOL     OW30142   0.605   4.399   4.690 -0.3257  0.9227 -0.1265
 6228SOL    HW130143   0.657   4.406   4.769 -1.5131  0.3221  0.7033
 6228SOL    HW230144   0.524   4.434   4.727 -0.4433  0.9366 -0.3914
 6229SOL     OW30145   4.330   2.132   1.479  0.8247  0.3261 -0.6160
 6229SOL    HW130146   4.256   2.082   1.515  0.2121  0.4351 -1.7279
 6229SOL    HW230147   4.287   2.216   1.463 -0.4308 -0.1738  0.1211
 6230SOL     OW30148   2.339   3.763   1.822 -0.0760 -0.5843  0.1719
 6230SOL    HW130149   2.352   3.670   1.839  0.0240 -0.9509 -1.8976
 6230SOL    HW230150   2.275   3.759   1.751  0.1567 -0.0650 -0.0658
 6231SOL     OW30151   0.990   0.825   7.258 -0.0323 -0.1373 -0.1156
 6231SOL    HW130152   0.936   0.902   7.275 -1.1200 -0.9836  0.2996
 6231SOL    HW230153   0.926   0.756   7.237 -1.4086  0.6513  1.5406
 6232SOL     OW30154   4.580   3.118   7.890  0.4865 -0.6469 -0.1475
 6232SOL    HW130155   4.609   3.189   7.947  0.2237 -2.4878  2.2456
 6232SOL    HW230156   4.545   3.052   7.950 -0.2473 -0.1193  0.0108
 6233SOL     OW30157   3.320   3.620   5.223  0.0215 -0.1127 -0.2665
 6233SOL    HW130158   3.399   3.665   5.254 -0.8903  2.3345 -1.4928
 6233SOL    HW230159   3.256   3.690   5.220  0.2049  0.1647  2.2323
 6234SOL     OW30160   1.420   2.267   0.521  0.2285  0.3911 -0.7783
 6234SOL    HW130161   1.350   2.290   0.582  1.2328 -1.6413  1.1811
 6234SOL    HW230162   1.498   2.277   0.576  1.5324  0.8151 -2.6996
 6235SOL     OW30163   0.011   3.132  16.349  0.3392 -0.0530  0.4857
 6235SOL    HW130164   0.066   3.115  16.425 -0.1730  0.9636  1.0844
 6235SOL    HW230165   4.698   3.045  16.335  1.1389 -0.0625 -1.4664
 6236SOL     OW30166   1.947   4.556   3.086 -0.0218 -0.0415  0.1603
 6236SOL    HW130167   1.986   4.619   3.147 -1.2740 -0.5980  1.5321
 6236SOL    HW230168   1.911   4.483   3.135  1.9511 -0.8036  0.4879
 6237SOL     OW30169   2.956   1.233   1.891 -0.3187 -0.2328 -0.2166
 6237SOL    HW130170   2.955   1.165   1.958 -2.2709 -0.3719 -0.3813
 6237SOL    HW230171   2.862   1.250   1.887 -0.0945  1.0315  0.0209
 6238SOL     OW30172   2.631   4.467  10.349  0.2253  0.0390 -0.3357
 6238SOL    HW130173   2.545   4.430  10.331  0.8966 -1.4784 -0.3844
 6238SOL    HW230174   2.694   4.404  10.316 -0.1782  0.4837 -1.9533
 6239SOL     OW30175   4.359   2.465   9.609  0.3405  0.0005 -0.0584
 6239SOL    HW130176   4.346   2.371   9.618 -3.1569  0.4765  0.0438
 6239SOL    HW230177   4.305   2.503   9.679 -0.6839 -0.3784 -0.6443
 6240SOL     OW30178   2.483   4.068  11.950 -0.6619 -0.4303 -0.1274
 6240SOL    HW130179   2.440   3.985  11.929 -1.0184  0.0015 -1.1166
 6240SOL    HW230180   2.412   4.130  11.967 -0.3540 -0.1414  0.1030
 6241SOL     OW30181   2.746   2.358   6.889  0.0964 -0.2353 -0.5058
 6241SOL    HW130182   2.665   2.307   6.898  1.9073 -3.1842 -0.9199
 6241SOL    HW230183   2.778   2.344   6.978  2.3906 -2.9095 -1.7505
 6242SOL     OW30184   2.809   4.374  14.956 -0.1387  0.4471 -0.1773
 6242SOL    HW130185   2.748   4.435  14.997 -1.0249 -0.5584  0.0040
 6242SOL    HW230186   2.840   4.324  15.032 -0.8562  1.4400  0.7695
 6243SOL     OW30187   2.132   3.255  10.402 -0.0390 -0.2159  0.0411
 6243SOL    HW130188   2.153   3.334  10.451 -2.7194 -0.3554  1.3955
 6243SOL    HW230189   2.154   3.196  10.474  0.5768  0.7805  0.6647
 6244SOL     OW30190   2.278   3.496  13.260 -1.0247 -0.6679  0.2329
 6244SOL    HW130191   2.308   3.522  13.173  3.4520 -1.4181  1.5346
 6244SOL    HW230192   2.221   3.568  13.288  0.1683  0.6151 -0.6116
 6245SOL     OW30193   1.566   2.400  12.622 -0.5481  0.5654 -0.1441
 6245SOL    HW130194   1.558   2.490  12.590  3.0176  1.7184  2.2100
 6245SOL    HW230195   1.554   2.346  12.544  2.0705  0.1798 -0.2818
 6246SOL     OW30196   4.470   4.530  11.615 -0.2917  0.0441 -0.5468
 6246SOL    HW130197   4.505   4.441  11.605  1.6209  0.6713  0.6006
 6246SOL    HW230198   4.513   4.581  11.546 -0.8281  0.4747 -0.5639
 6247SOL     OW30199   2.678   4.261  11.184 -0.2308  0.0555 -0.9565
 6247SOL    HW130200   2.590   4.257  11.149 -1.7658  1.6907  2.7625
 6247SOL    HW230201   2.726   4.243  11.103  0.7793  0.8938 -0.5523
 6248SOL     OW30202   4.129   4.461   8.869  0.0363 -0.0555  0.8861
 6248SOL    HW130203   4.173   4.388   8.914  0.8163 -0.5980 -0.7822
 6248SOL    HW230204   4.047   4.473   8.917 -0.9962 -1.7083 -0.4628
 6249SOL     OW30205   3.740   3.645   7.136 -0.2238 -0.1723  0.0292
 6249SOL    HW130206   3.797   3.717   7.161  0.2779 -0.5040 -0.1396
 6249SOL    HW230207   3.655   3.661   7.177 -0.4290  0.2399 -0.5604
 6250SOL     OW30208   2.661   3.493   9.896 -0.3727 -0.0748  0.2110
 6250SOL    HW130209   2.644   3.429   9.965  0.7972 -1.7075 -1.0332
 6250SOL    HW230210   2.579   3.542   9.902  0.1800  1.0791 -1.6322
 6251SOL     OW30211   3.731   2.577   3.559  0.2021 -0.6636  0.0625
 6251SOL    HW130212   3.786   2.544   3.629 -0.1255 -1.3063  0.0274
 6251SOL    HW230213   3.643   2.554   3.590  0.0546 -2.3120 -1.5199
 6252SOL     OW30214   2.181   1.393   2.696 -0.5098 -0.1545  0.2241
 6252SOL    HW130215   2.249   1.453   2.726 -1.4757  1.5907 -1.0735
 6252SOL    HW230216   2.244   1.327   2.667 -0.0851 -0.9063  2.9273
 6253SOL     OW30217   3.800   0.321   1.236  0.0163  0.4633 -0.0941
 6253SOL    HW130218   3.782   0.295   1.327  1.2579  0.4487  0.1550
 6253SOL    HW230219   3.730   0.384   1.221 -0.3440 -0.1019 -0.7835
 6254SOL     OW30220   4.664   3.969   4.989 -0.2537 -0.2235 -0.1036
 6254SOL    HW130221   4.682   4.018   4.909  0.3166  0.2688  0.3163
 6254SOL    HW230222   4.620   4.038   5.039 -0.4172  0.1804 -0.7972
 6255SOL     OW30223   2.525   3.272   4.775  0.2457  0.2422 -0.4212
 6255SOL    HW130224   2.432   3.248   4.776 -0.2375  2.1195 -1.0015
 6255SOL    HW230225   2.528   3.314   4.860 -2.1178 -0.3359 -0.0400
 6256SOL     OW30226   1.450   1.085   3.296  0.2379  0.1793  0.1844
 6256SOL    HW130227   1.416   1.005   3.337 -0.0029  0.5672  0.7478
 6256SOL    HW230228   1.469   1.049   3.210  0.0770 -2.0798  1.0972
 6257SOL     OW30229   4.074   3.944   4.486 -0.0008 -0.7870  0.4399
 6257SOL    HW130230   4.161   3.907   4.466 -0.6159 -2.0987  0.2122
 6257SOL    HW230231   4.096   4.037   4.483  0.5777 -0.9692 -1.4123
 6258SOL     OW30232   0.391   0.649   8.459  0.6972  0.2010 -0.5748
 6258SOL    HW130233   0.473   0.599   8.453  1.4313  1.0007  3.3368
 6258SOL    HW230234   0.342   0.581   8.414  0.8107 -0.1017 -0.2415
 6259SOL     OW30235   0.575   4.381   2.128  0.0341  0.5444  0.0004
 6259SOL    HW130236   0.586   4.371   2.033  0.4688  1.4059 -0.0345
 6259SOL    HW230237   0.637   4.314   2.156 -0.0707 -0.6236 -2.4750
 6260SOL     OW30238   3.122   1.410  11.755 -0.5388 -0.1742  0.2744
 6260SOL    HW130239   3.069   1.337  11.724  0.5444 -1.5829  1.7577
 6260SOL    HW230240   3.109   1.408  11.850  0.2118  2.0922  0.4155
 6261SOL     OW30241   1.435   2.850  16.916 -0.4657  0.0646 -0.6281
 6261SOL    HW130242   1.362   2.885  16.968  2.4155  3.7290  1.0130
 6261SOL    HW230243   1.471   2.931  16.879  0.6214  1.2526  2.9318
 6262SOL     OW30244   1.199   0.397   7.644 -0.3440  0.2053 -0.1587
 6262SOL    HW130245   1.258   0.326   7.671 -1.3608  0.0121  1.5917
 6262SOL    HW230246   1.162   0.428   7.726  0.8332 -1.3640  0.9760
 6263SOL     OW30247   1.273   3.516   9.745  0.3283 -0.4958 -0.3519
 6263SOL    HW130248   1.283   3.444   9.807  0.0231  1.1407  1.6216
 6263SOL    HW230249   1.321   3.580   9.799 -3.7204  1.7066  0.6260
 6264SOL     OW30250   2.735   2.969   8.877 -0.4123  0.1548 -0.2960
 6264SOL    HW130251   2.738   2.876   8.901 -0.5313 -0.1683 -1.5525
 6264SOL    HW230252   2.817   3.008   8.907 -0.1344  0.1345 -1.0557
 6265SOL     OW30253   0.545   1.716   6.948  0.3874  0.1840 -0.0707
 6265SOL    HW130254   0.574   1.661   7.021  2.3233  3.6104  1.7628
 6265SOL    HW230255   0.456   1.735   6.979  0.0748 -2.6704  0.7719
 6266SOL     OW30256   4.524   1.741   7.331  0.0944  0.1386 -0.0745
 6266SOL    HW130257   4.441   1.720   7.375  0.0954 -0.8219 -0.5284
 6266SOL    HW230258   4.591   1.724   7.396  0.3146 -2.3382 -0.9754
 6267SOL     OW30259   0.388   1.584   3.860  0.1341  0.3577 -0.0601
 6267SOL    HW130260   0.362   1.498   3.829 -1.7297  1.0652 -0.4333
 6267SOL    HW230261   0.305   1.613   3.898  0.6467 -0.6427  1.8284
 6268SOL     OW30262   3.073   0.072   6.476  0.8475 -0.3094 -0.2868
 6268SOL    HW130263   3.069   0.030   6.390  0.1816 -0.5467 -0.1441
 6268SOL    HW230264   3.069   4.718   6.531 -0.0401 -0.7674 -0.9963
 6269SOL     OW30265   4.087   4.432   8.579 -0.7274  0.2698  0.1113
 6269SOL    HW130266   4.091   4.417   8.673 -2.4219  1.9062  0.4546
 6269SOL    HW230267   4.046   4.519   8.584  0.4092  0.7148  1.6916
 6270SOL     OW30268   1.705   3.359   1.343  0.4048 -0.0699  0.4146
 6270SOL    HW130269   1.705   3.448   1.308  1.1142  0.2156  1.1342
 6270SOL    HW230270   1.779   3.372   1.401  1.7032  1.2437 -1.5394
 6271SOL     OW30271   2.893   0.872   1.062  0.4457  0.1363 -0.0501
 6271SOL    HW130272   2.906   0.779   1.042 -1.5340  0.6717 -3.8961
 6271SOL    HW230273   2.892   0.886   1.156  1.0720  1.4635 -0.2344
 6272SOL     OW30274   1.487   2.836  11.120  0.5850 -0.0572 -0.2190
 6272SOL    HW130275   1.401   2.834  11.162 -0.1684 -0.6430 -1.7890
 6272SOL    HW230276   1.515   2.765  11.177 -1.8055  1.3656  2.7298
 6273SOL     OW30277   1.395   1.422  11.372  0.0820 -0.1963  0.3074
 6273SOL    HW130278   1.445   1.349  11.335  0.0237  0.0480 -0.2484
 6273SOL    HW230279   1.308   1.400  11.338  0.0642  1.1469 -0.5111
 6274SOL     OW30280   0.009   4.171   0.217  0.5709  0.2480  0.2421
 6274SOL    HW130281   0.067   4.134   0.151  0.5315 -0.3011  0.5230
 6274SOL    HW230282   0.034   4.116   0.291  1.9353  1.3549  0.6091
 6275SOL     OW30283   2.145   3.005   2.629 -0.4068  0.3741 -0.0126
 6275SOL    HW130284   2.187   2.922   2.605 -1.2000  0.0758 -0.3648
 6275SOL    HW230285   2.054   2.978   2.620 -0.1340 -0.6659  0.3031
 6276SOL     OW30286   0.334   1.580   3.265 -0.3926 -0.0245 -0.0642
 6276SOL    HW130287   0.247   1.596   3.228  0.1236 -1.5544 -1.9288
 6276SOL    HW230288   0.383   1.605   3.187  1.5516 -0.2714  1.0810
 6277SOL     OW30289   3.927   2.714   4.491 -0.2387 -0.1061  0.6192
 6277SOL    HW130290   3.995   2.737   4.554 -0.3083 -2.7324  1.6580
 6277SOL    HW230291   3.947   2.625   4.460 -1.1030  0.6704 -2.1158
 6278SOL     OW30292   1.954   3.263   8.831  0.1200  0.3708 -0.2047
 6278SOL    HW130293   2.030   3.295   8.782  0.1093 -0.8908 -1.0510
 6278SOL    HW230294   1.992   3.264   8.919  0.1352 -1.7585 -0.1810
 6279SOL     OW30295   2.225   3.060   7.045 -0.0014  0.0909 -0.0565
 6279SOL    HW130296   2.237   2.982   7.100  0.2920  0.3330  0.2276
 6279SOL    HW230297   2.134   3.048   7.018 -0.0102 -1.4133  0.6489
 6280SOL     OW30298   3.040   2.207  13.052 -0.3078 -0.0887  0.0754
 6280SOL    HW130299   3.000   2.223  13.138  0.8113  0.4906  0.4754
 6280SOL    HW230300   2.971   2.184  12.989  1.6527  0.2979 -2.2208
 6281SOL     OW30301   1.054   1.206   7.030  0.2049 -0.1579 -0.3194
 6281SOL    HW130302   1.147   1.222   7.014  0.4318 -1.3420 -0.1451
 6281SOL    HW230303   1.036   1.246   7.116  2.5826 -1.4910  0.7717
 6282SOL     OW30304   0.426   3.778   4.951 -0.1019  0.0211  0.3405
 6282SOL    HW130305   0.359   3.709   4.946  1.1296 -1.1211 -0.4100
 6282SOL    HW230306   0.383   3.861   4.969  1.0930  1.3120 -2.8081
 6283SOL     OW30307   2.465   2.969  11.712  0.7577 -0.2054  0.6856
 6283SOL    HW130308   2.474   3.021  11.791 -1.3498  1.3914 -0.1190
 6283SOL    HW230309   2.556   2.983  11.689  0.4342 -0.4193 -0.7364
 6284SOL     OW30310   0.662   4.631   1.685 -0.4971  0.7001  0.5415
 6284SOL    HW130311   0.697   4.701   1.630  3.4914 -1.8250 -0.1596
 6284SOL    HW230312   0.714   4.639   1.765  1.8718  1.5329 -1.0812
 6285SOL     OW30313   2.525   0.008   3.592 -0.5342  0.1526  0.6313
 6285SOL    HW130314   2.511   0.044   3.505  1.1747 -0.4196  0.1315
 6285SOL    HW230315   2.567   0.086   3.628 -1.5785 -0.4332  3.1133
 6286SOL     OW30316   4.514   2.229   4.117 -0.2979 -0.5160 -0.1948
 6286SOL    HW130317   4.560   2.239   4.034  1.7536  1.5775  1.2003
 6286SOL    HW230318   4.515   2.321   4.145 -0.2168 -0.4271 -0.4980
 6287SOL     OW30319   3.388   2.860   1.795 -0.4380 -0.0489 -0.3726
 6287SOL    HW130320   3.396   2.898   1.707 -0.0709  0.5468 -0.0848
 6287SOL    HW230321   3.385   2.766   1.775  1.3441 -0.3416  0.7766
 6288SOL     OW30322   4.359   3.259   2.552 -0.2834 -0.5732 -0.3045
 6288SOL    HW130323   4.344   3.270   2.646  1.6259 -1.2987  0.0778
 6288SOL    HW230324   4.316   3.173   2.553 -1.9728  0.2780  0.9954
 6289SOL     OW30325   2.865   3.226   7.990 -0.4304 -0.6674 -0.5091
 6289SOL    HW130326   2.893   3.309   7.952 -1.1505  0.5704  1.7257
 6289SOL    HW230327   2.839   3.182   7.908  1.0313 -4.0757  0.8830
 6290SOL     OW30328   3.202   2.249   9.665  0.5593  0.1754  0.3345
 6290SOL    HW130329   3.208   2.327   9.720 -0.7334  0.0017  0.7204
 6290SOL    HW230330   3.293   2.223   9.683  0.8138  0.2269 -0.8758
 6291SOL     OW30331   1.094   3.960   9.464 -0.1439 -0.1820  0.0594
 6291SOL    HW130332   1.010   3.941   9.505  0.0373  3.2861  2.0274
 6291SOL    HW230333   1.113   4.046   9.501  0.8289  0.1739 -1.2760
 6292SOL     OW30334   4.598   1.607  14.360 -0.4827  0.2476 -0.1531
 6292SOL    HW130335   4.642   1.675  14.411 -2.9611  1.5152  0.2948
 6292SOL    HW230336   4.657   1.608  14.284 -1.5390  2.8880 -0.9625
 6293SOL     OW30337   3.435   4.061   5.029  0.2654 -0.2863 -0.3090
 6293SOL    HW130338   3.360   4.012   5.064 -1.6918  0.8072 -2.9446
 6293SOL    HW230339   3.419   4.038   4.938  1.7909 -0.1998 -0.5986
 6294SOL     OW30340   0.943   3.309   4.277  0.8074 -0.3226  0.1030
 6294SOL    HW130341   1.001   3.359   4.334 -1.2060  0.2932  1.5964
 6294SOL    HW230342   1.008   3.271   4.218 -1.0125 -1.2084 -1.3654
 6295SOL     OW30343   0.453   3.948   3.241 -0.2305 -0.4858  0.3909
 6295SOL    HW130344   0.479   3.874   3.297 -0.2461 -0.4703  0.4185
 6295SOL    HW230345   0.365   3.964   3.275  0.5407  1.5761  1.3806
 6296SOL     OW30346   4.537   2.038   0.152  0.0564  0.2188  0.2368
 6296SOL    HW130347   4.499   1.966   0.103 -0.9925  0.8554  0.1194
 6296SOL    HW230348   4.624   2.041   0.111  0.5352  0.0477  1.2283
 6297SOL     OW30349   1.094   0.591  15.741 -0.3375 -0.8222  0.3093
 6297SOL    HW130350   1.129   0.660  15.797  1.1074 -2.6768  1.6743
 6297SOL    HW230351   1.166   0.534  15.715  0.1397  0.6709 -1.6191
 6298SOL     OW30352   3.397   4.685   7.993 -0.3512  0.4116  0.1247
 6298SOL    HW130353   3.480   4.687   8.040 -0.1690  1.7009 -0.2517
 6298SOL    HW230354   3.406   4.599   7.952  0.7200  0.6832 -0.1969
 6299SOL     OW30355   2.516   2.405   8.395  0.0365  0.1367  0.1238
 6299SOL    HW130356   2.528   2.481   8.338 -0.7899 -0.6589 -1.1060
 6299SOL    HW230357   2.426   2.415   8.427  0.3771  1.1650  0.7418
 6300SOL     OW30358   3.997   2.386   9.077  1.0404 -0.1667 -0.1087
 6300SOL    HW130359   4.014   2.479   9.088  1.2183 -0.2331  0.1902
 6300SOL    HW230360   3.919   2.385   9.022 -0.8448 -2.0011  2.5904
 6301SOL     OW30361   1.058   2.358   2.023 -0.1323 -0.0042  0.5561
 6301SOL    HW130362   1.084   2.399   1.941 -1.7869 -2.6501 -1.2866
 6301SOL    HW230363   0.993   2.289   2.006 -0.5762  1.0378 -1.9755
 6302SOL     OW30364   1.540   2.171  15.001  0.3912  0.4773 -0.5673
 6302SOL    HW130365   1.461   2.210  14.963 -0.6422 -1.4217 -0.3643
 6302SOL    HW230366   1.548   2.086  14.958  0.5138 -0.4087  1.2080
 6303SOL     OW30367   2.396   2.274   6.812  0.7828  0.1418 -0.7168
 6303SOL    HW130368   2.427   2.194   6.769  2.7175  1.1136 -1.1395
 6303SOL    HW230369   2.416   2.341   6.747 -1.3709 -0.2514 -1.8049
 6304SOL     OW30370   4.270   2.152   2.151  0.1985  0.3757  0.2268
 6304SOL    HW130371   4.343   2.194   2.106  2.0074 -1.4127  1.4855
 6304SOL    HW230372   4.224   2.224   2.193  0.2206 -0.5574  1.8732
 6305SOL     OW30373   3.548   2.784   6.870 -0.2997  0.0621 -0.3939
 6305SOL    HW130374   3.468   2.828   6.896 -0.2754 -0.2104  0.1418
 6305SOL    HW230375   3.546   2.773   6.774 -0.1873  0.1521 -0.4062
 6306SOL     OW30376   3.279   0.291   5.950  0.0387 -0.0056  0.1665
 6306SOL    HW130377   3.321   0.372   5.979  0.9132 -1.0777  1.9164
 6306SOL    HW230378   3.357   0.238   5.968  0.0715  0.8610  2.5943
 6307SOL     OW30379   0.548   1.999   6.988  0.1298 -0.3732 -0.4522
 6307SOL    HW130380   0.628   2.050   6.973  0.2327 -0.7865 -1.3216
 6307SOL    HW230381   0.576   1.908   6.987 -1.2781 -0.8251  0.3530
 6308SOL     OW30382   4.392   1.714   6.033  0.0641 -0.0782 -0.4586
 6308SOL    HW130383   4.351   1.628   6.027 -1.8284  0.6970  1.2380
 6308SOL    HW230384   4.435   1.714   5.948  0.6791  2.5695 -0.1578
 6309SOL     OW30385   0.254   4.297   3.570  0.1543 -0.5414  0.3498
 6309SOL    HW130386   0.177   4.287   3.514 -0.4225 -1.7315  1.3436
 6309SOL    HW230387   0.205   4.330   3.646  1.8936  0.5510  1.0026
 6310SOL     OW30388   4.242   0.404  10.512 -0.3369 -0.1054 -0.1978
 6310SOL    HW130389   4.206   0.492  10.498  0.1076  0.4275  2.0154
 6310SOL    HW230390   4.179   0.358  10.458 -1.5836  1.2467  0.1026
 6311SOL     OW30391   2.049   0.010  11.712  0.5826  0.2408 -0.2919
 6311SOL    HW130392   2.047   4.643  11.679 -1.0812 -0.0729  0.7001
 6311SOL    HW230393   2.140   0.030  11.688  0.5099  0.6336 -0.2389
 6312SOL     OW30394   0.006   1.905   0.463  0.1310 -0.0890  0.2524
 6312SOL    HW130395   4.721   1.859   0.547  0.0022  0.0772  0.3322
 6312SOL    HW230396   4.685   1.988   0.483  0.5752  0.6766 -1.9054
 6313SOL     OW30397   0.996   0.069   7.329 -0.0983 -0.7128 -0.0359
 6313SOL    HW130398   0.934   0.093   7.397 -0.1271  0.8628 -0.5976
 6313SOL    HW230399   1.066   0.132   7.345 -0.0088 -0.9736  0.5907
 6314SOL     OW30400   3.898   4.687   7.995 -0.2093 -0.4525 -0.1786
 6314SOL    HW130401   3.908   4.593   8.013  2.0847 -0.0718  0.4366
 6314SOL    HW230402   3.981   4.703   7.951  1.0296  1.8447  3.0550
 6315SOL     OW30403   0.410   0.310  15.876 -0.0758 -0.5558 -0.2510
 6315SOL    HW130404   0.465   0.341  15.805  0.3702  0.1538  0.4051
 6315SOL    HW230405   0.463   0.333  15.953  0.0273  0.3461 -0.5877
 6316SOL     OW30406   4.036   2.891   6.484 -0.6439  0.4009 -0.6814
 6316SOL    HW130407   4.101   2.907   6.415  1.1388 -0.7020  0.7231
 6316SOL    HW230408   4.097   2.847   6.543 -1.5852 -1.5864 -1.2029
 6317SOL     OW30409   4.391   2.797   7.289  0.6860  0.6888 -0.3798
 6317SOL    HW130410   4.401   2.892   7.289  0.8649  0.6625  1.6190
 6317SOL    HW230411   4.485   2.782   7.299  0.7427 -0.2767 -2.2316
 6318SOL     OW30412   3.958   2.812   1.028  0.1471  0.0624 -0.0140
 6318SOL    HW130413   3.943   2.724   1.063 -2.0120  0.7061  0.6781
 6318SOL    HW230414   3.874   2.856   1.043  0.4325 -0.4784  3.0682
 6319SOL     OW30415   0.228   4.108   8.375  0.4172  0.3596 -0.2718
 6319SOL    HW130416   0.258   4.173   8.312  0.9242  0.1331 -0.2605
 6319SOL    HW230417   0.304   4.054   8.397 -0.5495 -0.6824  0.5292
 6320SOL     OW30418   3.905   3.752  16.494  0.0363  1.1969 -0.2258
 6320SOL    HW130419   3.926   3.700  16.416 -3.3612  0.2166 -0.4752
 6320SOL    HW230420   3.947   3.696  16.559 -0.4376  0.1704 -0.7923
 6321SOL     OW30421   3.153   3.145  13.773 -0.1583 -0.3631  0.6533
 6321SOL    HW130422   3.064   3.166  13.746 -0.2405 -0.9850  0.4296
 6321SOL    HW230423   3.196   3.182  13.695  2.0808  0.7648  2.4175
 6322SOL     OW30424   3.600   0.600   2.753  0.6600  0.2225  0.1131
 6322SOL    HW130425   3.578   0.563   2.667 -2.0676  0.2834  0.7603
 6322SOL    HW230426   3.598   0.527   2.815 -2.7189 -0.0519 -0.2995
 6323SOL     OW30427   2.136   4.665   4.950  0.0224 -0.2828 -0.1545
 6323SOL    HW130428   2.147   4.679   4.856 -0.1443  0.4764 -0.0620
 6323SOL    HW230429   2.160   4.573   4.959 -0.0824 -0.1378  1.6656
 6324SOL     OW30430   1.907   4.543  15.966  0.1360 -0.2590  0.5002
 6324SOL    HW130431   1.961   4.550  16.045 -0.2433 -0.7088  0.8014
 6324SOL    HW230432   1.831   4.487  15.985 -0.9362  0.2962 -2.2387
 6325SOL     OW30433   1.686   2.629   9.830 -0.5428 -0.2223 -0.2286
 6325SOL    HW130434   1.763   2.659   9.877 -1.4460  1.1606  0.3519
 6325SOL    HW230435   1.655   2.558   9.886  1.8233 -0.0924  1.2234
 6326SOL     OW30436   1.427   0.957   5.316  0.0226  0.0676 -0.1210
 6326SOL    HW130437   1.465   0.890   5.373  0.3152 -1.0596 -1.6164
 6326SOL    HW230438   1.333   0.942   5.329 -0.2481 -0.3902 -2.4679
 6327SOL     OW30439   2.080   2.911  12.136  0.3731 -0.1186 -0.0232
 6327SOL    HW130440   2.052   2.888  12.048 -0.9652  4.1573 -0.6867
 6327SOL    HW230441   2.172   2.922  12.113  0.4443 -0.9673 -0.1691
 6328SOL     OW30442   3.746   3.071   5.282 -0.6735 -0.0600 -0.3891
 6328SOL    HW130443   3.823   3.086   5.338  1.3162 -3.2460 -2.2695
 6328SOL    HW230444   3.721   2.980   5.298 -0.7473  0.7953  4.4151
 6329SOL     OW30445   1.272   0.126   4.637  0.5776 -0.0061  0.7046
 6329SOL    HW130446   1.362   0.144   4.611 -0.0808 -0.8492 -2.1671
 6329SOL    HW230447   1.227   0.100   4.557 -1.1114  1.3532  1.2102
 6330SOL     OW30448   3.131   0.579  10.605  0.1257  0.3568 -0.0827
 6330SOL    HW130449   3.104   0.669  10.583  0.2696 -0.0135 -1.7693
 6330SOL    HW230450   3.178   0.560  10.524  0.0827 -1.3664  0.3046
 6331SOL     OW30451   3.670   3.729   3.708  0.5691 -0.3265  0.8034
 6331SOL    HW130452   3.720   3.752   3.786 -0.1627 -1.4088  1.5912
 6331SOL    HW230453   3.598   3.681   3.749  0.3568  0.3322  1.2019
 6332SOL     OW30454   2.691   4.031   1.024  0.1768 -0.2036  0.0727
 6332SOL    HW130455   2.782   4.062   1.024 -0.7348  2.4345 -0.3574
 6332SOL    HW230456   2.643   4.107   0.992 -1.4605 -0.7898  1.1353
 6333SOL     OW30457   2.420   4.276  14.650 -0.1137  0.0330 -0.2380
 6333SOL    HW130458   2.363   4.341  14.609  0.4567  0.5738 -0.1769
 6333SOL    HW230459   2.477   4.260  14.575 -1.2394  1.3738 -1.3851
 6334SOL     OW30460   0.103   0.117   7.283 -0.1303 -0.3047 -0.0093
 6334SOL    HW130461   0.127   0.146   7.195 -1.8988  0.4172 -0.2455
 6334SOL    HW230462   0.190   0.118   7.324  0.8100  0.0413 -2.0017
 6335SOL     OW30463   1.054   1.546   8.746 -0.5771 -0.1089  0.2084
 6335SOL    HW130464   1.096   1.561   8.661  0.5623 -2.0142  0.4387
 6335SOL    HW230465   1.086   1.457   8.761 -1.7413  0.0143  3.5271
 6336SOL     OW30466   0.092   4.389  15.570  0.1515 -0.9947  0.6878
 6336SOL    HW130467   0.072   4.452  15.639 -1.8890  0.5964 -1.3409
 6336SOL    HW230468   0.181   4.354  15.578  0.8811  0.3651 -1.5672
 6337SOL     OW30469   2.293   4.650   9.757 -0.2929  0.7530  0.0713
 6337SOL    HW130470   2.265   4.631   9.847  1.9490 -1.5796  0.3056
 6337SOL    HW230471   2.269   0.018   9.771 -0.9554  0.5374  0.3580
 6338SOL     OW30472   3.545   2.745   6.595  0.3291  0.3285  0.0279
 6338SOL    HW130473   3.640   2.731   6.593  0.7374  3.0405  0.8753
 6338SOL    HW230474   3.538   2.827   6.546  1.4555  1.0962  1.1460
 6339SOL     OW30475   1.293   0.513  17.567 -0.2486  0.2016  0.0274
 6339SOL    HW130476   1.283   0.590  17.624  1.0384  1.6894 -1.7664
 6339SOL    HW230477   1.361   0.541  17.506 -0.1902 -1.0809 -0.4869
 6340SOL     OW30478   0.441   3.070   9.861  0.0985 -0.0025 -0.0030
 6340SOL    HW130479   0.521   3.123   9.855 -0.7715  1.1947 -0.8746
 6340SOL    HW230480   0.388   3.118   9.798 -1.0392 -1.0594  0.1455
 6341SOL     OW30481   3.843   4.016  14.395 -0.0571 -0.6702 -0.1729
 6341SOL    HW130482   3.753   4.025  14.363  0.0301 -1.5350 -0.6665
 6341SOL    HW230483   3.873   4.078  14.328 -0.3236 -0.2516  0.1007
 6342SOL     OW30484   2.476   2.465   6.634  0.2471 -0.0791 -0.6779
 6342SOL    HW130485   2.560   2.442   6.594  0.2791  0.7384 -1.0629
 6342SOL    HW230486   2.488   2.555   6.664 -1.6074  0.1887 -0.7267
 6343SOL     OW30487   0.494   4.574   6.043  0.1911  0.7237 -0.7194
 6343SOL    HW130488   0.569   4.541   6.093 -0.9577 -1.5780 -0.5148
 6343SOL    HW230489   0.497   4.670   6.035 -0.9466  0.8462  0.3252
 6344SOL     OW30490   1.989   3.826   2.356  0.7199 -0.1993 -0.0541
 6344SOL    HW130491   1.902   3.861   2.375  0.2740 -1.2706 -0.1312
 6344SOL    HW230492   1.968   3.753   2.415 -0.0861  0.0125 -0.0724
 6345SOL     OW30493   0.944   3.643   2.790 -0.4939 -0.4929  0.5136
 6345SOL    HW130494   0.945   3.646   2.695 -0.0225  2.7602  0.6222
 6345SOL    HW230495   0.892   3.722   2.803  1.5715  0.9259  0.1128
 6346SOL     OW30496   0.992   1.438   6.092  0.4146  0.2604 -0.2853
 6346SOL    HW130497   1.080   1.457   6.062  0.0527  1.2646 -0.7105
 6346SOL    HW230498   0.942   1.487   6.027 -3.1458 -2.7433  0.1774
 6347SOL     OW30499   1.714   1.766   8.532 -0.0900 -0.1985 -0.2251
 6347SOL    HW130500   1.797   1.811   8.515  0.8049 -0.6768  2.8294
 6347SOL    HW230501   1.717   1.776   8.628 -1.3669 -2.1364  0.0109
 6348SOL     OW30502   2.113   4.711   3.262 -0.5824  0.5268  0.5221
 6348SOL    HW130503   2.137   0.045   3.334  0.6259 -0.9785  1.3318
 6348SOL    HW230504   2.167   0.007   3.185  1.5855 -0.8285  1.6897
 6349SOL     OW30505   2.272   0.872   0.605 -0.1294 -0.4332 -0.8853
 6349SOL    HW130506   2.190   0.852   0.651  0.1362  1.9810  0.6454
 6349SOL    HW230507   2.246   0.849   0.516  0.0633  0.7816 -1.2443
 6350SOL     OW30508   0.885   4.612   7.549 -0.5599 -0.2469 -0.4352
 6350SOL    HW130509   0.973   4.644   7.565  0.2924 -2.5570 -0.4392
 6350SOL    HW230510   0.847   4.697   7.529 -1.3692 -0.0203  2.1537
 6351SOL     OW30511   2.343   2.905   6.734 -0.4856  0.1150 -0.3453
 6351SOL    HW130512   2.257   2.898   6.777  1.7453 -2.2495  3.7227
 6351SOL    HW230513   2.344   2.842   6.661 -1.3236 -2.8904  2.2181
 6352SOL     OW30514   3.806   3.119   6.104  0.3053 -0.2443 -0.1786
 6352SOL    HW130515   3.729   3.164   6.068  0.3318  0.2709  0.3916
 6352SOL    HW230516   3.873   3.135   6.038 -0.1975  1.4519 -0.2942
 6353SOL     OW30517   1.800   4.163   3.396  0.3413 -0.2515  0.5583
 6353SOL    HW130518   1.746   4.226   3.348  1.3020  0.4341  0.3987
 6353SOL    HW230519   1.876   4.210   3.429  0.8205 -0.3316 -0.4384
 6354SOL     OW30520   2.357   2.847   3.034  0.0376 -0.0784 -0.1217
 6354SOL    HW130521   2.446   2.820   3.010 -0.6256 -0.1912 -2.4036
 6354SOL    HW230522   2.331   2.766   3.078 -0.9393  0.6131  0.5633
 6355SOL     OW30523   3.825   0.987   4.680  0.1641 -0.3504  0.2615
 6355SOL    HW130524   3.784   0.985   4.767 -1.0719  0.1237 -0.3111
 6355SOL    HW230525   3.899   1.045   4.697  0.6513 -0.9568  0.1957
 6356SOL     OW30526   1.349   0.361   9.725 -0.1776  0.2182 -0.0821
 6356SOL    HW130527   1.389   0.403   9.801 -0.8784 -1.1493  1.0608
 6356SOL    HW230528   1.357   0.422   9.652 -0.4306  0.6494  0.2511
 6357SOL     OW30529   1.107   2.347   0.546  0.2173  0.0912 -0.0289
 6357SOL    HW130530   1.115   2.435   0.581 -0.2739  0.2932 -0.4318
 6357SOL    HW230531   1.102   2.288   0.621  0.1464 -1.2811 -1.1032
 6358SOL     OW30532   1.630   1.374   7.652  0.5809  0.4121  0.2267
 6358SOL    HW130533   1.613   1.280   7.652  0.0795  0.5114  3.1883
 6358SOL    HW230534   1.695   1.376   7.582 -0.7210 -0.5156 -1.0064
 6359SOL     OW30535   3.252   1.863   1.128 -0.4212 -0.3006 -0.3433
 6359SOL    HW130536   3.196   1.851   1.052 -0.8173  1.3444 -0.3030
 6359SOL    HW230537   3.332   1.894   1.085 -1.0013 -1.4909 -2.2499
 6360SOL     OW30538   0.692   1.608   5.710  0.7481 -0.0006 -0.3847
 6360SOL    HW130539   0.707   1.682   5.651 -0.5835  1.0200  0.5574
 6360SOL    HW230540   0.750   1.627   5.784  1.2859  1.3849 -1.1620
 6361SOL     OW30541   0.165   1.489  16.403 -0.6221  0.5988  0.1988
 6361SOL    HW130542   0.210   1.573  16.393 -0.5166  0.2881 -2.0134
 6361SOL    HW230543   0.222   1.437  16.347  0.8629  1.2503  1.1336
 6362SOL     OW30544   0.955   2.179   5.282  0.4549 -0.4530 -0.2477
 6362SOL    HW130545   1.026   2.126   5.317  0.1865 -1.0387 -0.5905
 6362SOL    HW230546   0.991   2.199   5.196  3.3014  2.0373  1.5401
 6363SOL     OW30547   0.276   4.432   6.031  0.6136 -0.2001  0.1532
 6363SOL    HW130548   0.351   4.489   6.050  0.9305 -1.4226  2.5337
 6363SOL    HW230549   0.257   4.464   5.943  1.5307  0.2569  0.1275
 6364SOL     OW30550   1.925   3.387   0.708 -0.7894  0.3662 -0.0980
 6364SOL    HW130551   1.860   3.453   0.732  0.8415  1.5621  1.0297
 6364SOL    HW230552   2.008   3.432   0.722 -0.7557  0.1949  0.2536
 6365SOL     OW30553   3.562   2.431   7.482 -0.4123  1.0744 -0.1186
 6365SOL    HW130554   3.586   2.408   7.393 -2.2778  0.9437 -0.5910
 6365SOL    HW230555   3.498   2.502   7.472 -3.2129 -1.6269 -1.5451
 6366SOL     OW30556   4.218   0.998  15.963 -0.1735 -0.9785  0.1359
 6366SOL    HW130557   4.191   0.962  15.878  0.5942 -2.1501  0.3897
 6366SOL    HW230558   4.176   0.932  16.018 -1.9025  0.2559  0.2786
 6367SOL     OW30559   4.266   1.915   7.984 -0.3061 -0.2118 -0.5571
 6367SOL    HW130560   4.172   1.929   7.971 -0.1255 -1.5498 -3.2634
 6367SOL    HW230561   4.282   1.980   8.052 -0.7070 -0.3779 -0.3035
 6368SOL     OW30562   0.997   2.501  16.146  0.1368 -0.1507 -0.5793
 6368SOL    HW130563   1.026   2.471  16.060 -0.9148  3.0590 -2.0195
 6368SOL    HW230564   1.000   2.596  16.143 -1.1032 -0.0102  2.5212
 6369SOL     OW30565   4.309   4.450   3.227 -0.0437 -0.1580 -0.5942
 6369SOL    HW130566   4.284   4.541   3.240  0.2890 -0.5266  2.4154
 6369SOL    HW230567   4.274   4.417   3.310  1.0639  0.1582 -0.0011
 6370SOL     OW30568   1.877   1.797   2.659  0.1698  0.2105 -0.3224
 6370SOL    HW130569   1.916   1.712   2.682 -0.5391  0.0175  0.1670
 6370SOL    HW230570   1.917   1.830   2.578 -0.2094  1.8227  0.1480
 6371SOL     OW30571   0.239   2.312   6.858 -0.3858 -0.1218 -0.1640
 6371SOL    HW130572   0.149   2.305   6.888 -0.7071  1.9852 -0.6501
 6371SOL    HW230573   0.263   2.376   6.924  2.3230 -1.1308 -0.1492
 6372SOL     OW30574   0.902   1.879   7.317 -0.0621  0.0782 -0.4686
 6372SOL    HW130575   0.812   1.910   7.318  0.0661  0.4771 -1.6504
 6372SOL    HW230576   0.910   1.823   7.395  0.9354 -0.5357 -1.0083
 6373SOL     OW30577   3.527   1.845   2.929  0.0981 -0.2309  0.1267
 6373SOL    HW130578   3.614   1.866   2.897  0.3430  0.1424  1.0296
 6373SOL    HW230579   3.544   1.852   3.023 -0.0064 -0.4463  0.1619
 6374SOL     OW30580   3.061   2.179   5.927  0.0460 -0.9494 -0.3006
 6374SOL    HW130581   3.011   2.178   6.008  2.4500  1.6081  1.2127
 6374SOL    HW230582   3.111   2.260   5.938 -0.6100 -0.4538 -0.8792
 6375SOL     OW30583   1.055   3.920   3.520 -0.4038 -0.6758 -0.2059
 6375SOL    HW130584   1.079   3.951   3.433 -1.2943  1.3869  0.2762
 6375SOL    HW230585   1.107   3.839   3.519  0.5213 -0.0650 -1.0353
 6376SOL     OW30586   3.780   1.738   3.953 -0.4473  0.2688 -0.7321
 6376SOL    HW130587   3.835   1.781   3.887  1.5759 -1.9990 -0.5138
 6376SOL    HW230588   3.828   1.743   4.035 -2.6937 -0.8480  0.6607
 6377SOL     OW30589   4.378   2.124   1.743  0.4704 -0.2145 -0.0385
 6377SOL    HW130590   4.380   2.158   1.654 -0.3803  2.4820  0.9524
 6377SOL    HW230591   4.290   2.094   1.767 -0.0757  2.6266  1.5092
 6378SOL     OW30592   0.378   0.643   5.011 -0.3074 -0.3239 -0.4336
 6378SOL    HW130593   0.322   0.715   5.041 -1.3810 -1.5592  0.5522
 6378SOL    HW230594   0.322   0.620   4.937  0.4142  1.3406 -1.5030
 6379SOL     OW30595   1.656   3.635   1.889  0.1365 -0.5585 -0.2820
 6379SOL    HW130596   1.630   3.666   1.976 -0.6849  1.3523 -1.2088
 6379SOL    HW230597   1.698   3.713   1.852 -2.6986  0.1832 -1.9491
 6380SOL     OW30598   1.782   4.284   9.096  0.5097  0.4839 -0.7470
 6380SOL    HW130599   1.795   4.189   9.085  1.0101  0.6065 -1.2335
 6380SOL    HW230600   1.834   4.320   9.024  0.4013  1.4675 -0.3291
 6381SOL     OW30601   3.610   4.187   0.726 -0.3725 -0.4884 -0.3181
 6381SOL    HW130602   3.688   4.197   0.671  0.0633  0.5806  0.4892
 6381SOL    HW230603   3.543   4.246   0.693  1.4752  0.7307 -1.9351
 6382SOL     OW30604   3.268   1.077   2.373  0.1953  0.1098  0.3162
 6382SOL    HW130605   3.323   1.154   2.354 -0.2895  0.0979 -1.0811
 6382SOL    HW230606   3.201   1.087   2.306  0.4808  0.2184  0.0495
 6383SOL     OW30607   1.431   1.085   7.144  0.0903  0.0622  0.2144
 6383SOL    HW130608   1.377   1.009   7.165  1.9047 -1.0372  0.8888
 6383SOL    HW230609   1.503   1.072   7.206  0.0573 -0.3050  0.1705
 6384SOL     OW30610   3.589   2.810   1.970  0.1165 -0.6462  0.2045
 6384SOL    HW130611   3.513   2.819   1.912  0.1393  2.0054  0.5714
 6384SOL    HW230612   3.611   2.902   1.989  0.0615 -0.7700  0.8685
 6385SOL     OW30613   4.503   4.407   8.783  0.1609 -0.0982  0.1012
 6385SOL    HW130614   4.487   4.405   8.877 -1.3873  2.9706 -0.0894
 6385SOL    HW230615   4.594   4.377   8.783  0.1069 -0.2661 -0.8902
 6386SOL     OW30616   2.619   1.644   5.412 -0.2817  0.2876  0.6874
 6386SOL    HW130617   2.523   1.634   5.408 -0.3732  1.6658 -0.5190
 6386SOL    HW230618   2.647   1.581   5.345 -2.7139 -1.4670  1.3109
 6387SOL     OW30619   4.225   0.219   4.586  0.2041  0.6254 -0.0759
 6387SOL    HW130620   4.223   0.221   4.490  1.9110 -0.7118 -0.1426
 6387SOL    HW230621   4.211   0.131   4.622  0.3886  0.6520  0.0594
 6388SOL     OW30622   1.882   0.029   3.661 -0.3933 -0.4319 -0.1186
 6388SOL    HW130623   1.851   0.038   3.571  0.2258  3.0971  0.0535
 6388SOL    HW230624   1.916   0.116   3.681  0.3644 -1.3810  2.7410
 6389SOL     OW30625   2.007   3.216   3.654  0.0593  0.1383 -0.1750
 6389SOL    HW130626   1.925   3.185   3.615  0.6634 -0.7916 -0.7191
 6389SOL    HW230627   2.073   3.186   3.591  3.1641  0.3101  2.9527
 6390SOL     OW30628   1.001   0.195   9.386 -0.0180 -0.1149  0.3306
 6390SOL    HW130629   0.983   0.287   9.407 -0.1890  0.0261 -0.4488
 6390SOL    HW230630   1.081   0.172   9.435  0.8110 -1.5604 -1.6827
 6391SOL     OW30631   3.263   1.786  10.090  0.4411 -0.8554  0.4839
 6391SOL    HW130632   3.316   1.839  10.149  0.8806  0.4164 -1.0825
 6391SOL    HW230633   3.327   1.757  10.025 -0.8959 -0.5161 -0.9690
 6392SOL     OW30634   0.123   2.471  13.435  0.2545  0.6590  0.6497
 6392SOL    HW130635   0.174   2.550  13.455  1.3051  0.2102 -0.2344
 6392SOL    HW230636   0.147   2.415  13.508  0.4292 -1.6045 -1.1414
 6393SOL     OW30637   0.410   3.863   4.649 -0.1904 -0.4116 -0.3022
 6393SOL    HW130638   0.415   3.817   4.732  0.8100  0.7895  0.2935
 6393SOL    HW230639   0.455   3.944   4.672  0.6237 -1.1934  0.8295
 6394SOL     OW30640   1.810   2.280   8.668  0.1055 -0.4727  0.8166
 6394SOL    HW130641   1.787   2.373   8.669  2.0036 -0.0088  0.3387
 6394SOL    HW230642   1.831   2.267   8.761 -0.6444 -0.6236  0.9673
 6395SOL     OW30643   4.607   3.447   5.571  0.4657 -0.2232  0.0326
 6395SOL    HW130644   4.559   3.388   5.513  0.6054 -1.0119  0.7185
 6395SOL    HW230645   4.564   3.532   5.560 -0.2098 -0.2984  2.1563
 6396SOL     OW30646   1.200   2.658   4.602 -0.3443  0.1429  0.2955
 6396SOL    HW130647   1.247   2.618   4.675 -0.6609 -1.5179 -0.4073
 6396SOL    HW230648   1.210   2.587   4.538 -1.4836 -1.3872  1.8206
 6397SOL     OW30649   1.415   3.940   9.523 -0.3107  1.0145  0.8042
 6397SOL    HW130650   1.324   3.930   9.494  0.1733  0.1533 -0.3997
 6397SOL    HW230651   1.407   4.019   9.576 -0.3150  0.2097  2.0030
 6398SOL     OW30652   2.724   0.968   8.641 -0.4932  0.0963  0.2564
 6398SOL    HW130653   2.685   1.053   8.661 -0.1055  0.2209  0.4949
 6398SOL    HW230654   2.707   0.912   8.716  1.4392  0.1213  0.7218
 6399SOL     OW30655   3.281   0.855  10.953 -0.3184 -0.2538  0.0878
 6399SOL    HW130656   3.299   0.775  10.903 -0.7731  0.0201 -0.5075
 6399SOL    HW230657   3.241   0.907  10.883  2.1660  2.7315  0.8724
 6400SOL     OW30658   2.857   1.554   7.229  0.6298 -0.5778  0.1939
 6400SOL    HW130659   2.948   1.527   7.216  0.6199 -0.7450  0.4946
 6400SOL    HW230660   2.833   1.462   7.239  0.1050 -1.0026 -4.5390
 6401SOL     OW30661   0.178   0.925   3.253  0.0867  0.8199  0.0390
 6401SOL    HW130662   0.087   0.923   3.223  0.4493  0.8732 -1.0793
 6401SOL    HW230663   0.224   0.896   3.174 -1.6641  0.5543 -0.8814
 6402SOL     OW30664   2.848   4.328  10.765 -0.3494  0.2786 -0.6956
 6402SOL    HW130665   2.885   4.263  10.705 -0.8222 -2.4289  1.9610
 6402SOL    HW230666   2.818   4.391  10.700  1.2262  2.1775  0.4327
 6403SOL     OW30667   3.694   1.279   6.622 -0.1811 -0.1552  0.0471
 6403SOL    HW130668   3.650   1.212   6.674 -1.9962  0.4437 -0.7246
 6403SOL    HW230669   3.625   1.344   6.607  0.0328 -0.0068 -0.3156
 6404SOL     OW30670   4.112   2.072  12.899 -0.1668 -0.1217  0.1355
 6404SOL    HW130671   4.100   2.014  12.824 -0.1597  0.6439 -0.4600
 6404SOL    HW230672   4.137   2.007  12.964  3.7365  0.2702 -0.9657
 6405SOL     OW30673   4.608   0.659   9.113 -0.2503 -0.3087  0.0458
 6405SOL    HW130674   4.643   0.747   9.106  0.7724 -0.5255  2.4226
 6405SOL    HW230675   4.601   0.629   9.022 -0.7639  0.9380 -0.3221
 6406SOL     OW30676   3.230   2.310   9.255  0.2337  0.1712 -0.2795
 6406SOL    HW130677   3.160   2.376   9.253 -0.7303 -0.7625  1.8459
 6406SOL    HW230678   3.294   2.365   9.300 -0.5803  1.6629 -0.9193
 6407SOL     OW30679   0.972   4.359   4.052  0.1275  0.0399  0.7359
 6407SOL    HW130680   0.889   4.406   4.046  0.1889  0.2490  1.5272
 6407SOL    HW230681   1.019   4.434   4.089 -1.4361  0.3213  2.1849
 6408SOL     OW30682   2.753   3.577  17.527  0.1234  0.2024  0.7628
 6408SOL    HW130683   2.752   3.671  17.511  1.3426 -0.2491 -1.9818
 6408SOL    HW230684   2.667   3.556  17.489  1.4653  0.5138 -2.4792
 6409SOL     OW30685   0.533   0.440   3.477  0.4892 -0.1243 -0.1782
 6409SOL    HW130686   0.498   0.359   3.441 -0.4542  0.2414 -0.0737
 6409SOL    HW230687   0.619   0.461   3.441 -0.2217  0.5871 -1.4816
 6410SOL     OW30688   0.416   1.624   1.056 -0.4366  0.3303  0.7916
 6410SOL    HW130689   0.440   1.558   0.991  0.7038  0.9221  0.6110
 6410SOL    HW230690   0.501   1.644   1.094  1.9623 -0.3136 -4.2742
 6411SOL     OW30691   4.601   0.398   3.857 -0.3249  0.6703 -0.0569
 6411SOL    HW130692   4.612   0.434   3.945 -0.9860  0.4135  0.1298
 6411SOL    HW230693   4.646   0.464   3.806 -1.3509  0.4924 -1.1874
 6412SOL     OW30694   4.635   1.761   4.066 -0.1214 -0.0537  0.1069
 6412SOL    HW130695   4.555   1.811   4.078 -1.1980 -2.3162  2.2212
 6412SOL    HW230696   4.627   1.687   4.126  0.8902 -1.4066 -1.3985
 6413SOL     OW30697   2.783   1.832   3.285 -0.0244  0.0971  0.4784
 6413SOL    HW130698   2.712   1.812   3.225  0.3044 -0.9645  0.4434
 6413SOL    HW230699   2.734   1.827   3.367 -0.2586 -3.4967  0.1511
 6414SOL     OW30700   2.345   3.450   1.577 -0.0460  0.1191 -0.3912
 6414SOL    HW130701   2.333   3.403   1.660 -0.7963 -0.3968 -0.7955
 6414SOL    HW230702   2.269   3.508   1.565 -0.2183  0.1736  0.9459
 6415SOL     OW30703   4.472   1.486   1.562  0.4035 -0.1107 -1.0032
 6415SOL    HW130704   4.511   1.486   1.650 -0.3818 -1.2674 -0.6575
 6415SOL    HW230705   4.541   1.537   1.519  1.3926  0.1389  0.8966
 6416SOL     OW30706   1.952   1.634  13.165 -0.0210 -0.1901 -0.5406
 6416SOL    HW130707   2.008   1.557  13.173  0.4219  0.0020 -1.7664
 6416SOL    HW230708   1.963   1.641  13.070  1.8592 -2.4873 -0.5104
 6417SOL     OW30709   3.394   0.288   3.243  0.0617 -0.5348  0.1743
 6417SOL    HW130710   3.319   0.314   3.189  0.0896  2.1479  1.4029
 6417SOL    HW230711   3.424   0.212   3.193 -2.8331 -2.6647  1.6261
 6418SOL     OW30712   1.290   3.364   7.971  0.2957  0.0164 -0.1261
 6418SOL    HW130713   1.223   3.386   7.907  0.1602  2.0555  0.7351
 6418SOL    HW230714   1.269   3.271   7.980 -0.6332  0.3389  0.9736
 6419SOL     OW30715   1.182   1.985   9.672  0.3964  0.2486  0.4476
 6419SOL    HW130716   1.149   1.996   9.583  1.6987 -1.5851 -0.2642
 6419SOL    HW230717   1.270   2.016   9.649  0.4435  0.1116  0.4445
 6420SOL     OW30718   2.814   1.228   9.552 -0.0693 -0.0407  0.1077
 6420SOL    HW130719   2.889   1.254   9.498  0.8011  0.1403  1.4077
 6420SOL    HW230720   2.824   1.293   9.621  1.6183  2.6986 -2.7045
 6421SOL     OW30721   0.700   3.378   1.234  0.3646 -0.5784  0.6108
 6421SOL    HW130722   0.676   3.471   1.228 -0.0282 -0.6826  0.5267
 6421SOL    HW230723   0.733   3.360   1.146  1.6085 -1.1398  1.1944
 6422SOL     OW30724   1.531   4.247  16.550  0.2416 -0.2720 -0.4984
 6422SOL    HW130725   1.589   4.176  16.575 -0.3418 -0.9189 -0.9589
 6422SOL    HW230726   1.589   4.308  16.504 -0.0148 -0.0153 -0.4826
 6423SOL     OW30727   0.539   1.800   4.089 -0.1227  0.1683 -0.5152
 6423SOL    HW130728   0.469   1.753   4.135  1.4346 -1.9779 -0.3341
 6423SOL    HW230729   0.517   1.762   4.003  2.5326 -2.5586 -0.0108
 6424SOL     OW30730   1.921   1.253  14.346 -0.1441  0.1184 -0.5209
 6424SOL    HW130731   1.854   1.255  14.414  0.3172 -0.1918 -0.0565
 6424SOL    HW230732   1.989   1.208  14.396 -0.7658  0.2024  0.4049
 6425SOL     OW30733   3.746   1.581   3.416 -0.0132  0.1930 -0.3930
 6425SOL    HW130734   3.742   1.498   3.464  2.0916 -0.3539 -1.1749
 6425SOL    HW230735   3.723   1.648   3.481  2.5030  0.3735  0.3126
 6426SOL     OW30736   4.487   3.191   6.649 -0.4009 -0.3438 -0.1093
 6426SOL    HW130737   4.579   3.215   6.661 -0.2021 -0.9450 -0.4087
 6426SOL    HW230738   4.455   3.281   6.654 -0.3803 -0.2790 -1.1326
 6427SOL     OW30739   0.944   4.365   5.780 -0.8802 -0.1407 -0.3165
 6427SOL    HW130740   0.877   4.314   5.825 -2.4989  2.0239 -0.2809
 6427SOL    HW230741   1.008   4.295   5.764 -0.5259 -0.3196  1.8927
 6428SOL     OW30742   4.221   2.573   1.035 -0.1656  0.4201  0.2451
 6428SOL    HW130743   4.231   2.663   1.002 -0.6281  0.3628 -0.0557
 6428SOL    HW230744   4.145   2.585   1.093 -0.7988 -1.6251 -0.1766
 6429SOL     OW30745   2.874   2.088   9.246  0.2420 -0.0224  0.6080
 6429SOL    HW130746   2.969   2.102   9.254  0.5966 -1.6264 -0.6347
 6429SOL    HW230747   2.849   2.123   9.332  1.2302 -2.7863  2.0370
 6430SOL     OW30748   2.600   3.345   5.699  0.1211  0.1738  0.4496
 6430SOL    HW130749   2.628   3.281   5.765  0.1704  0.1847  0.4394
 6430SOL    HW230750   2.545   3.280   5.656  0.5155  0.9185 -1.1573
 6431SOL     OW30751   2.654   3.557   2.175 -0.3333 -0.7107  0.9396
 6431SOL    HW130752   2.748   3.566   2.190 -0.4634  3.4942 -0.8497
 6431SOL    HW230753   2.643   3.494   2.104 -1.4487  1.4917 -0.8362
 6432SOL     OW30754   0.899   3.772   8.067  0.1363  0.2638  0.1280
 6432SOL    HW130755   0.907   3.774   8.163  0.3781  0.3292  0.1060
 6432SOL    HW230756   0.871   3.681   8.058 -0.2157  0.7179 -3.1686
 6433SOL     OW30757   2.180   1.998  12.785 -0.1945 -0.0872  0.3329
 6433SOL    HW130758   2.140   1.981  12.871 -1.5296 -1.4162 -0.5511
 6433SOL    HW230759   2.125   2.068  12.750  1.7257  1.3258  0.1851
 6434SOL     OW30760   0.795   0.536   7.396 -0.5533 -0.3046 -0.4827
 6434SOL    HW130761   0.888   0.541   7.372  0.4118  0.6736  3.4449
 6434SOL    HW230762   0.758   0.606   7.343  1.2802  0.1431 -1.1975
 6435SOL     OW30763   3.883   0.638   7.770  0.1938 -0.4220  0.3296
 6435SOL    HW130764   3.820   0.704   7.799 -0.1080 -1.2650  1.5740
 6435SOL    HW230765   3.844   0.630   7.683 -1.2345  1.1453  0.8217
 6436SOL     OW30766   2.673   0.657   9.575 -0.5394  0.5462  0.1503
 6436SOL    HW130767   2.613   0.590   9.608  0.6038  0.1885  1.4945
 6436SOL    HW230768   2.755   0.618   9.604 -0.9263  0.4276  1.0786
 6437SOL     OW30769   2.589   0.407   5.596 -0.0453  0.1672  0.7733
 6437SOL    HW130770   2.524   0.384   5.663  2.7788 -0.5496  3.2987
 6437SOL    HW230771   2.669   0.407   5.649 -0.5783 -0.1781  1.5761
 6438SOL     OW30772   4.526   0.099   5.301  0.7414  0.1458 -0.2877
 6438SOL    HW130773   4.582   0.158   5.250 -1.2752  0.5326 -2.0668
 6438SOL    HW230774   4.441   0.138   5.282  0.1478 -2.0770 -2.2664
 6439SOL     OW30775   0.383   0.731   7.283 -0.4578 -0.6808 -0.1035
 6439SOL    HW130776   0.416   0.803   7.230  0.3304  0.3295  1.7735
 6439SOL    HW230777   0.288   0.745   7.273 -0.4533 -0.1165  0.7060
 6440SOL     OW30778   2.901   4.494  11.732 -0.5689  0.1665 -0.2341
 6440SOL    HW130779   2.955   4.492  11.653  2.1708  1.0243  1.6163
 6440SOL    HW230780   2.939   4.415  11.769  0.8269  1.6410  1.5177
 6441SOL     OW30781   0.466   4.610   6.858 -0.6095 -0.2063 -0.2582
 6441SOL    HW130782   0.492   4.642   6.944  2.0108  2.6480 -2.1344
 6441SOL    HW230783   0.400   4.671   6.824 -1.2953 -0.3989  0.7238
 6442SOL     OW30784   3.143   0.625   9.313 -0.0924 -0.9137  0.1074
 6442SOL    HW130785   3.193   0.593   9.238  1.5399 -0.2348  0.9019
 6442SOL    HW230786   3.146   0.548   9.369 -0.9841 -0.1064  1.2674
 6443SOL     OW30787   2.340   3.317  11.070  0.5584  0.0649 -0.5493
 6443SOL    HW130788   2.382   3.380  11.128  2.4655 -0.2580 -1.5616
 6443SOL    HW230789   2.345   3.240  11.126  0.3517 -1.4683 -2.6452
 6444SOL     OW30790   2.548   2.264   5.561 -0.4266 -0.3718  0.1490
 6444SOL    HW130791   2.639   2.266   5.531 -0.4916 -0.0977 -0.0224
 6444SOL    HW230792   2.531   2.169   5.559  0.8829 -0.6203  1.0377
 6445SOL     OW30793   0.792   3.393  10.317  0.2967  0.4713  0.3340
 6445SOL    HW130794   0.740   3.468  10.345  1.6799  1.5818 -0.0404
 6445SOL    HW230795   0.790   3.343  10.398 -2.0986 -0.5251 -0.3575
 6446SOL     OW30796   3.416   3.647  13.516  0.3362 -0.1350 -0.6299
 6446SOL    HW130797   3.321   3.660  13.521  0.2055 -1.0142 -0.7548
 6446SOL    HW230798   3.416   3.551  13.512 -0.3924 -0.1756  0.3862
 6447SOL     OW30799   1.596   3.300   7.714 -0.2065 -0.5525  0.1034
 6447SOL    HW130800   1.676   3.315   7.663 -1.7140  1.9651 -1.4733
 6447SOL    HW230801   1.542   3.375   7.692  2.2895  1.8307  2.0804
 6448SOL     OW30802   2.825   4.298   8.078  0.6104  0.6886  0.0897
 6448SOL    HW130803   2.871   4.294   7.994  1.2644  0.7234  0.4454
 6448SOL    HW230804   2.824   4.393   8.090  0.1631  0.7805 -0.7030
 6449SOL     OW30805   1.767   1.212   2.877 -0.0145  0.9833 -0.1060
 6449SOL    HW130806   1.828   1.173   2.815  0.0817  0.6162  0.2160
 6449SOL    HW230807   1.816   1.280   2.924  1.6752 -0.7071  0.5861
 6450SOL     OW30808   4.533   0.148   3.885  0.7568 -1.1074  0.3312
 6450SOL    HW130809   4.602   0.126   3.948 -0.3565 -0.6363  1.7329
 6450SOL    HW230810   4.552   0.241   3.876 -0.6819 -1.0410 -1.7381
 6451SOL     OW30811   3.747   1.955   2.819  0.0059  0.6804  0.2753
 6451SOL    HW130812   3.712   2.024   2.875 -0.1037  0.2050  0.7934
 6451SOL    HW230813   3.843   1.966   2.818  0.0866  0.1090  1.5498
 6452SOL     OW30814   1.630   1.798   1.574 -0.2933 -0.5651  0.1246
 6452SOL    HW130815   1.671   1.784   1.659  0.1133 -2.2163 -0.3430
 6452SOL    HW230816   1.616   1.706   1.549 -0.2900 -0.5319  0.0029
 6453SOL     OW30817   2.772   0.181  10.804  0.1301  0.7177 -0.1902
 6453SOL    HW130818   2.858   0.143  10.824  0.0590  1.3950  1.4692
 6453SOL    HW230819   2.725   0.160  10.885 -1.3473  0.8800 -1.0086
 6454SOL     OW30820   0.508   4.607   9.817 -0.3386 -0.7431 -0.1905
 6454SOL    HW130821   0.450   4.628   9.890 -0.0220  0.2482 -0.2298
 6454SOL    HW230822   0.568   4.680   9.805 -0.9950 -0.1623  0.0972
 6455SOL     OW30823   4.335   4.271   4.257 -0.4080 -0.1964  0.2915
 6455SOL    HW130824   4.430   4.271   4.250 -0.3618 -3.7425  0.8194
 6455SOL    HW230825   4.314   4.346   4.201 -1.2744 -0.4457  0.2736
 6456SOL     OW30826   2.335   3.073   4.575  0.7841 -0.9633  0.2446
 6456SOL    HW130827   2.327   2.989   4.529  1.5877 -1.1858  0.5105
 6456SOL    HW230828   2.273   3.131   4.531  0.7080  1.2543  3.2651
 6457SOL     OW30829   1.046   0.074   5.691 -0.1079  0.5262 -0.2654
 6457SOL    HW130830   1.068   0.149   5.747 -1.7365 -0.1715  1.3123
 6457SOL    HW230831   1.041   0.110   5.602  1.0750 -1.8299 -1.2781
 6458SOL     OW30832   0.562   0.783  12.525  0.3987 -0.2829  0.2676
 6458SOL    HW130833   0.622   0.818  12.460 -1.8543 -1.5682 -2.4993
 6458SOL    HW230834   0.515   0.726  12.465  0.6211  0.6177 -0.7713
 6459SOL     OW30835   4.290   3.264   7.761 -0.1393 -0.0136 -0.2812
 6459SOL    HW130836   4.298   3.297   7.672 -1.1077  0.7912 -0.0611
 6459SOL    HW230837   4.245   3.180   7.749  1.8342 -1.2763  1.0942
 6460SOL     OW30838   1.328   2.850   0.575 -0.8268 -0.5224 -0.0572
 6460SOL    HW130839   1.424   2.848   0.573 -0.8143  1.9105 -0.9080
 6460SOL    HW230840   1.305   2.814   0.661  0.0701 -1.2301 -0.1097
 6461SOL     OW30841   3.859   2.112   5.793  0.2972  0.1192 -0.1498
 6461SOL    HW130842   3.930   2.116   5.728 -1.2783  1.8086 -1.7653
 6461SOL    HW230843   3.784   2.158   5.755 -0.4578 -1.9695 -1.1780
 6462SOL     OW30844   4.144   3.961   7.872 -0.3626  0.7592  0.4206
 6462SOL    HW130845   4.116   4.049   7.847  0.0900  0.5202 -0.9035
 6462SOL    HW230846   4.232   3.954   7.834 -0.8579 -0.8001 -0.4233
 6463SOL     OW30847   2.084   2.489   6.837  0.2172 -0.1262 -0.0181
 6463SOL    HW130848   2.097   2.582   6.854  1.0183 -0.1873 -0.3308
 6463SOL    HW230849   1.992   2.492   6.810  0.2459 -0.8267 -0.1942
 6464SOL     OW30850   0.036   3.766   7.639 -0.0604  0.0350 -0.1508
 6464SOL    HW130851   4.671   3.786   7.668 -0.0834  0.5656 -0.5808
 6464SOL    HW230852   0.090   3.842   7.664  0.8679  0.2355 -2.7538
 6465SOL     OW30853   2.285   4.579  16.696 -0.2928 -0.0851 -0.1956
 6465SOL    HW130854   2.374   4.548  16.714  0.1750  1.2530 -0.2096
 6465SOL    HW230855   2.242   4.540  16.772 -2.2827 -1.3409 -1.9441
 6466SOL     OW30856   1.463   2.812   0.975  0.2113 -0.0047  0.1855
 6466SOL    HW130857   1.400   2.753   0.933 -1.7660  2.7462 -0.7699
 6466SOL    HW230858   1.419   2.895   0.954  0.5965 -0.1182 -1.0723
 6467SOL     OW30859   0.783   4.433  13.197  0.4153 -0.3660  0.1076
 6467SOL    HW130860   0.853   4.498  13.190  0.8755 -1.0424 -1.6317
 6467SOL    HW230861   0.713   4.478  13.244  0.2151  0.5246 -1.0406
 6468SOL     OW30862   4.402   2.408   4.558 -0.4113 -0.0855  0.6436
 6468SOL    HW130863   4.355   2.481   4.599 -1.9170 -2.1698  2.6312
 6468SOL    HW230864   4.462   2.382   4.628  0.0136  0.3996  0.4565
 6469SOL     OW30865   0.807   1.259   5.120 -0.4372  0.3221  0.1422
 6469SOL    HW130866   0.716   1.243   5.146 -0.1642 -2.2346 -0.5189
 6469SOL    HW230867   0.808   1.355   5.118  0.6417  0.3263  1.2586
 6470SOL     OW30868   4.149   1.759  17.119  0.2769  0.2483  0.3607
 6470SOL    HW130869   4.131   1.730  17.209  2.3089  0.8648  0.9677
 6470SOL    HW230870   4.057   1.780  17.100 -0.0125 -1.6170 -0.3182
 6471SOL     OW30871   2.935   2.509   5.160 -0.1306 -0.0811  0.2015
 6471SOL    HW130872   2.878   2.442   5.197 -1.8837 -0.1426 -2.6509
 6471SOL    HW230873   3.005   2.510   5.226  2.5143 -1.3585 -2.6137
 6472SOL     OW30874   1.408   4.425   2.147  0.5596 -0.6577 -0.2975
 6472SOL    HW130875   1.441   4.337   2.128 -1.2164 -1.3061 -0.3578
 6472SOL    HW230876   1.370   4.450   2.063 -0.5452  0.0346  0.4068
 6473SOL     OW30877   3.164   0.888   4.651 -0.7772 -0.0595 -0.1249
 6473SOL    HW130878   3.120   0.972   4.664  0.2225  0.4659 -0.1245
 6473SOL    HW230879   3.226   0.903   4.580 -0.1969 -0.6050  0.2692
 6474SOL     OW30880   4.010   4.144   3.187  0.8340 -0.6340 -0.8103
 6474SOL    HW130881   4.032   4.214   3.125  0.5540  0.0191 -0.1853
 6474SOL    HW230882   3.958   4.187   3.256  2.0954  0.1289 -0.3443
 6475SOL     OW30883   1.783   4.617   7.764 -0.2790  0.3804  0.1264
 6475SOL    HW130884   1.780   4.703   7.722 -1.2823  0.5267  0.4872
 6475SOL    HW230885   1.798   4.645   7.855 -2.1493  1.4273  0.1226
 6476SOL     OW30886   1.906   3.364   2.309  0.0887  0.1477 -0.4909
 6476SOL    HW130887   1.861   3.429   2.363 -1.2414 -0.8387 -0.4068
 6476SOL    HW230888   1.836   3.302   2.288  2.1122 -2.5526  0.5881
 6477SOL     OW30889   2.778   1.198  13.510 -0.5048 -0.6877  0.1701
 6477SOL    HW130890   2.753   1.112  13.545  0.4763 -2.1534 -2.7472
 6477SOL    HW230891   2.732   1.257  13.569 -0.4014 -1.2531  0.8128
 6478SOL     OW30892   1.504   0.277   5.495  0.1788 -0.5102  0.4056
 6478SOL    HW130893   1.499   0.363   5.455  0.5865 -1.2123 -1.1568
 6478SOL    HW230894   1.467   0.227   5.422 -1.3844 -1.1144  1.5994
 6479SOL     OW30895   0.251   3.055  12.100  0.1919 -0.1777  0.5139
 6479SOL    HW130896   0.274   3.072  12.009  1.8185 -0.0946  0.9471
 6479SOL    HW230897   0.321   3.101  12.146  0.0283  0.0897  0.4971
 6480SOL     OW30898   4.293   0.641  16.524 -0.0669 -0.1897  0.7388
 6480SOL    HW130899   4.302   0.561  16.576 -2.5800 -1.5572 -0.9246
 6480SOL    HW230900   4.385   0.663  16.512  0.3451 -1.3608  1.7019
 6481SOL     OW30901   0.412   0.656   3.471 -0.1779  0.8345  0.2453
 6481SOL    HW130902   0.400   0.660   3.376  0.2549  1.0751  0.2000
 6481SOL    HW230903   0.464   0.576   3.476 -0.2305  0.8322  0.8112
 6482SOL     OW30904   0.354   3.502   6.194  0.1308 -0.5043  0.3637
 6482SOL    HW130905   0.409   3.436   6.237  2.4930  0.4718 -1.1589
 6482SOL    HW230906   0.339   3.455   6.112 -0.8476 -1.5875  1.1557
 6483SOL     OW30907   4.374   0.141   3.472  0.2331  0.7419  0.2877
 6483SOL    HW130908   4.420   0.220   3.500 -0.4480  1.4446 -0.5849
 6483SOL    HW230909   4.449   0.082   3.475  0.3352  0.8597  0.0248
 6484SOL     OW30910   1.137   3.515   8.201  0.2411 -0.0212  0.3388
 6484SOL    HW130911   1.050   3.551   8.219  0.1977 -0.9888  2.1771
 6484SOL    HW230912   1.123   3.501   8.108 -0.8740  1.0882  0.3312
 6485SOL     OW30913   0.451   0.511   2.127  0.2414 -0.4730 -0.1391
 6485SOL    HW130914   0.470   0.598   2.160  1.2993 -0.4680 -0.7646
 6485SOL    HW230915   0.393   0.471   2.191  0.4852 -1.0714 -0.2854
 6486SOL     OW30916   0.984   1.509   4.586 -0.2390  0.3521 -0.4965
 6486SOL    HW130917   0.920   1.517   4.657  0.6762 -1.2288  0.5388
 6486SOL    HW230918   0.918   1.501   4.518  1.4512 -0.0874 -2.0749
 6487SOL     OW30919   3.552   3.319   0.839 -0.3189  0.1450 -0.0807
 6487SOL    HW130920   3.568   3.289   0.929 -0.7490  0.7438  0.2000
 6487SOL    HW230921   3.529   3.236   0.797  1.6477 -0.8276  0.7698
 6488SOL     OW30922   4.277   1.552   3.814  0.0938 -0.6174  0.1371
 6488SOL    HW130923   4.301   1.533   3.905 -0.5780 -0.4954  0.3417
 6488SOL    HW230924   4.255   1.470   3.770  1.0926 -1.0534  0.4586
 6489SOL     OW30925   3.424   4.719   7.683  0.2204  0.4404  0.1260
 6489SOL    HW130926   3.467   0.068   7.727  1.4489 -0.0958 -0.1831
 6489SOL    HW230927   3.507   4.671   7.679 -1.0950 -1.9896  1.7017
 6490SOL     OW30928   0.654   0.312  12.609 -0.3015 -0.2601 -0.0532
 6490SOL    HW130929   0.595   0.331  12.536 -0.2325  0.1019 -0.0114
 6490SOL    HW230930   0.689   0.226  12.586 -1.2191 -0.4594 -0.7298
 6491SOL     OW30931   3.378   2.175   0.686  0.2469 -0.3712 -0.5091
 6491SOL    HW130932   3.453   2.217   0.728 -0.0208  0.5560 -0.9563
 6491SOL    HW230933   3.421   2.136   0.610  0.4105 -0.1299 -0.5403
 6492SOL     OW30934   1.096   2.936   6.981 -0.4445  0.0593 -0.3625
 6492SOL    HW130935   1.052   3.004   6.931 -0.5050  0.0752 -0.2864
 6492SOL    HW230936   1.026   2.891   7.028 -1.5098 -0.4825 -2.4852
 6493SOL     OW30937   4.269   3.861   6.552  0.0267  0.3336  0.2703
 6493SOL    HW130938   4.317   3.944   6.553 -1.6642  1.3044  1.1782
 6493SOL    HW230939   4.247   3.868   6.645  1.2039 -0.1515  0.5834
 6494SOL     OW30940   2.936   0.661   9.877 -0.0850  0.5148  0.0909
 6494SOL    HW130941   2.961   0.637   9.967 -0.7269 -0.9370 -0.1236
 6494SOL    HW230942   2.860   0.720   9.883 -0.2240  0.2297  1.2111
 6495SOL     OW30943   4.109   0.125   5.452  0.0135 -0.0971 -0.2325
 6495SOL    HW130944   4.063   0.061   5.398 -0.4889  0.2385 -0.2036
 6495SOL    HW230945   4.049   0.127   5.527  0.2841 -2.1988  0.0480
 6496SOL     OW30946   0.425   0.304  17.654 -0.3952  0.4742 -0.0744
 6496SOL    HW130947   0.489   0.362  17.695 -1.2968  1.4786 -0.0718
 6496SOL    HW230948   0.357   0.371  17.642 -0.2666  0.6698  0.2889
 6497SOL     OW30949   2.894   3.519   6.282 -0.3503  0.2254  0.2454
 6497SOL    HW130950   2.947   3.598   6.277 -1.3384  0.9206  0.8058
 6497SOL    HW230951   2.923   3.481   6.365  1.3112 -0.4209 -0.6258
 6498SOL     OW30952   3.615   3.106   7.777 -0.0468 -0.5922  0.1727
 6498SOL    HW130953   3.550   3.174   7.793  0.0957 -0.1200 -1.2322
 6498SOL    HW230954   3.563   3.038   7.820  0.3635 -0.1326  1.4106
 6499SOL     OW30955   4.110   2.981  14.788 -0.0081 -0.7094 -0.2862
 6499SOL    HW130956   4.087   2.921  14.858 -0.6105 -0.7186 -0.4916
 6499SOL    HW230957   4.138   2.924  14.716 -0.0765 -0.4588 -0.5146
 6500SOL     OW30958   1.491   1.550   2.660 -0.0332 -0.1908 -0.0859
 6500SOL    HW130959   1.555   1.615   2.632 -0.2469  0.4958  1.0406
 6500SOL    HW230960   1.544   1.478   2.626  0.2760 -0.1208  0.2522
 6501SOL     OW30961   2.822   4.137   8.700 -0.4327  0.2431 -0.4571
 6501SOL    HW130962   2.862   4.063   8.653 -0.7606  0.2398 -0.7342
 6501SOL    HW230963   2.905   4.169   8.735  0.5801 -2.4828 -0.3646
 6502SOL     OW30964   1.249   4.500   9.601  0.3880 -0.2535  0.4662
 6502SOL    HW130965   1.323   4.459   9.558  0.5064  0.5079 -0.0701
 6502SOL    HW230966   1.283   4.584   9.633  0.3123  0.2888 -0.8543
 6503SOL     OW30967   1.467   1.349   8.973  0.0564  0.6330  0.2015
 6503SOL    HW130968   1.503   1.406   9.042 -0.1554 -2.8544  3.2130
 6503SOL    HW230969   1.394   1.326   9.031  0.6737  1.1021  1.1780
 6504SOL     OW30970   1.446   4.316   4.850 -0.0229 -0.1094  0.1310
 6504SOL    HW130971   1.441   4.411   4.838  0.9400  0.0946  1.4383
 6504SOL    HW230972   1.367   4.309   4.904  0.7274  2.8579  1.5853
 6505SOL     OW30973   0.792   4.541   3.621  0.1558 -0.0540 -0.2395
 6505SOL    HW130974   0.809   4.570   3.531  3.1712  0.8850  0.6318
 6505SOL    HW230975   0.697   4.531   3.613  0.0706  0.5995 -0.0453
 6506SOL     OW30976   1.451   2.150   4.871 -0.3129 -0.0150  0.2589
 6506SOL    HW130977   1.408   2.164   4.786  0.3640 -0.1438 -0.1045
 6506SOL    HW230978   1.492   2.234   4.890  1.0071 -0.5709 -0.0967
 6507SOL     OW30979   0.948   3.700   8.806 -0.1311  0.1819 -0.2926
 6507SOL    HW130980   0.986   3.648   8.877  0.8165  0.1737 -0.8083
 6507SOL    HW230981   0.973   3.787   8.836 -1.1280 -0.5965  2.8043
 6508SOL     OW30982   2.054   3.609   4.360 -0.2498 -0.4329 -0.0525
 6508SOL    HW130983   1.992   3.589   4.431  0.0612 -0.1947  0.2864
 6508SOL    HW230984   1.999   3.662   4.303 -0.4481 -0.5664  0.0117
 6509SOL     OW30985   2.801   0.795   6.707  0.1337 -0.0636  0.3531
 6509SOL    HW130986   2.878   0.830   6.751  0.3587 -0.2603  0.1147
 6509SOL    HW230987   2.770   0.875   6.665  0.4360  0.3626  0.9511
 6510SOL     OW30988   3.169   1.684   6.406 -0.2186 -0.2249 -0.0948
 6510SOL    HW130989   3.148   1.774   6.429 -1.0722 -0.5998  0.6162
 6510SOL    HW230990   3.258   1.707   6.378 -0.1744  0.2145  0.4200
 6511SOL     OW30991   3.440   4.006   1.645 -0.1667 -0.1214 -0.1688
 6511SOL    HW130992   3.471   4.091   1.678 -0.8221  0.1698 -0.3078
 6511SOL    HW230993   3.425   3.968   1.731 -0.4257 -0.7853 -0.5142
 6512SOL     OW30994   0.164   2.519   2.487  0.3914  0.3872 -0.0493
 6512SOL    HW130995   0.219   2.584   2.443 -0.3562  0.3689 -0.9889
 6512SOL    HW230996   0.110   2.490   2.414 -0.6681  0.2448  0.7931
 6513SOL     OW30997   2.314   0.091   6.231 -0.1389 -0.5549 -0.6698
 6513SOL    HW130998   2.331   4.722   6.246  0.3316 -0.0484  1.9882
 6513SOL    HW230999   2.359   0.136   6.303 -2.9816 -0.0001  0.7535
 6514SOL     OW31000   3.062   4.380   1.202 -0.1174 -0.2038 -0.6279
 6514SOL    HW131001   3.002   4.340   1.140 -1.2053  2.3374 -1.2284
 6514SOL    HW231002   3.006   4.400   1.277  0.2963  0.1112 -0.4061
 6515SOL     OW31003   2.723   1.249  11.604 -0.0763 -0.3955  0.0858
 6515SOL    HW131004   2.702   1.342  11.617  0.9857 -0.2791  0.8881
 6515SOL    HW231005   2.812   1.249  11.569  0.1608 -1.2882  0.6942
 6516SOL     OW31006   4.580   1.911   3.431 -0.5157 -0.3117  0.8491
 6516SOL    HW131007   4.567   1.831   3.380 -1.3503 -0.5621  1.4536
 6516SOL    HW231008   4.595   1.875   3.519 -2.7884 -2.2261  0.4441
 6517SOL     OW31009   2.241   0.351   8.250  0.2827 -0.1310  0.1566
 6517SOL    HW131010   2.314   0.326   8.306 -0.1938 -1.2871  0.2542
 6517SOL    HW231011   2.250   0.446   8.240  2.2844 -0.2452  0.9153
 6518SOL     OW31012   1.442   2.190  10.039  0.5805 -0.0475  0.1289
 6518SOL    HW131013   1.424   2.129   9.967 -1.5649 -1.3257  1.7587
 6518SOL    HW231014   1.479   2.132  10.106 -0.5588  0.8052  1.4723
 6519SOL     OW31015   4.532   4.706   8.006 -0.3815 -0.6271 -0.0307
 6519SOL    HW131016   4.577   0.007   8.087  2.3533 -1.0085 -1.4348
 6519SOL    HW231017   4.574   0.040   7.942  1.1228 -0.1303  1.3820
 6520SOL     OW31018   2.409   2.998   5.218 -0.1509 -0.1692 -0.2291
 6520SOL    HW131019   2.493   2.995   5.265  0.2700  0.1894 -0.9695
 6520SOL    HW231020   2.445   2.989   5.130 -0.8133 -0.1687 -0.4954
 6521SOL     OW31021   3.638   1.402   7.353 -0.0932 -0.2245 -0.2675
 6521SOL    HW131022   3.724   1.359   7.359 -0.6544 -1.3625 -0.5097
 6521SOL    HW231023   3.657   1.477   7.410 -0.7612  0.0809 -0.4576
 6522SOL     OW31024   3.839   2.367   4.650 -0.0983  0.1441 -0.1868
 6522SOL    HW131025   3.914   2.332   4.601 -3.1339 -2.2078 -3.1579
 6522SOL    HW231026   3.842   2.458   4.620 -0.2552  0.0998 -0.3380
 6523SOL     OW31027   0.439   0.809   8.130  0.0275  0.7148 -0.3503
 6523SOL    HW131028   0.481   0.727   8.104  0.9590  1.3917 -1.0429
 6523SOL    HW231029   0.508   0.871   8.103 -0.8016  0.6240 -2.7170
 6524SOL     OW31030   0.399   2.143   7.159  0.0984  0.2175 -0.2278
 6524SOL    HW131031   0.436   2.086   7.091  0.3262 -0.5523  0.5489
 6524SOL    HW231032   0.447   2.222   7.137  2.2764 -0.8230  0.8566
 6525SOL     OW31033   2.692   3.785   8.863 -0.6628  0.0442 -0.1480
 6525SOL    HW131034   2.598   3.796   8.874 -0.4156  1.8173  0.0997
 6525SOL    HW231035   2.695   3.764   8.769  0.0281  1.1366 -0.3734
 6526SOL     OW31036   0.875   1.707   3.774  0.1560 -0.0922  0.0797
 6526SOL    HW131037   0.861   1.711   3.868  3.6224  0.8480  0.5558
 6526SOL    HW231038   0.790   1.682   3.740 -0.6596  0.3855  1.7985
 6527SOL     OW31039   4.019   3.407   0.840  0.1835 -0.6304 -0.6719
 6527SOL    HW131040   4.032   3.474   0.773 -2.3294  1.2387  0.7016
 6527SOL    HW231041   3.967   3.453   0.906  0.9874 -1.5646  0.6267
 6528SOL     OW31042   4.031   4.075   7.107  0.1987  0.5110 -0.0912
 6528SOL    HW131043   4.102   4.075   7.172  0.0931 -0.6174  0.0274
 6528SOL    HW231044   4.074   4.128   7.041  0.0859 -0.2638 -0.7857
 6529SOL     OW31045   0.858   3.228   7.597 -0.3215  0.9399 -0.3991
 6529SOL    HW131046   0.814   3.279   7.666 -0.5739  1.2762 -0.8086
 6529SOL    HW231047   0.781   3.181   7.565 -0.8041  0.0777  1.9842
 6530SOL     OW31048   3.064   0.476   6.700 -0.2943  0.2973 -0.3343
 6530SOL    HW131049   3.054   0.490   6.606 -0.9761  1.5928 -0.0727
 6530SOL    HW231050   2.987   0.522   6.733  0.3009 -1.0035  2.8436
 6531SOL     OW31051   2.607   2.990   8.431 -0.0818  0.3895 -0.5733
 6531SOL    HW131052   2.623   2.979   8.337 -0.7717 -1.0323 -0.5276
 6531SOL    HW231053   2.514   3.010   8.430  0.4807  2.9407 -0.2149
 6532SOL     OW31054   3.072   2.850   6.379  0.1823  0.0312  0.0347
 6532SOL    HW131055   3.150   2.834   6.433  0.3347 -0.6060 -0.3645
 6532SOL    HW231056   3.030   2.928   6.414 -0.9195 -0.2618 -0.6546
 6533SOL     OW31057   0.936   0.858   5.082  0.1614  1.1683 -0.2955
 6533SOL    HW131058   0.982   0.941   5.093 -0.1590  1.4017 -0.7315
 6533SOL    HW231059   0.963   0.835   4.994 -0.3595 -1.4313  0.2126
 6534SOL     OW31060   4.554   2.396   1.049  0.4414  0.0200 -0.1878
 6534SOL    HW131061   4.480   2.373   0.993  0.9093 -0.1865 -0.7288
 6534SOL    HW231062   4.507   2.440   1.119  1.8395 -1.8621  1.9351
 6535SOL     OW31063   0.130   1.833  12.079 -0.4820 -0.3453 -0.3749
 6535SOL    HW131064   0.156   1.873  12.162 -1.8535  0.8875 -0.5398
 6535SOL    HW231065   0.117   1.744  12.114  0.3270  0.3912  1.7530
 6536SOL     OW31066   1.327   1.243   8.525 -0.0319 -0.8223  0.3596
 6536SOL    HW131067   1.413   1.205   8.540  0.9496  0.7195 -1.3198
 6536SOL    HW231068   1.359   1.331   8.548 -0.0686 -0.6045 -0.4311
 6537SOL     OW31069   1.455   4.599  13.132 -0.4756 -0.0345 -0.1828
 6537SOL    HW131070   1.411   4.677  13.098 -0.8290  0.6937  1.9320
 6537SOL    HW231071   1.541   4.639  13.140  0.5526 -1.6739 -3.1090
 6538SOL     OW31072   3.484   4.365   5.639  0.6796 -0.0532 -0.4817
 6538SOL    HW131073   3.534   4.284   5.625 -0.1969 -0.4386 -1.3691
 6538SOL    HW231074   3.539   4.406   5.706  1.6707 -2.0325 -0.0590
 6539SOL     OW31075   3.687   0.464  15.598  0.1738  0.2416 -0.2710
 6539SOL    HW131076   3.663   0.435  15.686 -0.3165  0.5253 -0.3064
 6539SOL    HW231077   3.757   0.527  15.615  0.0927  0.3612 -0.3751
 6540SOL     OW31078   1.644   1.178   5.090 -0.2835  0.0425 -0.5549
 6540SOL    HW131079   1.651   1.082   5.099 -0.4236 -0.0095 -0.9930
 6540SOL    HW231080   1.594   1.188   5.009 -0.9427 -0.5670 -0.2279
 6541SOL     OW31081   3.891   2.370   1.318  0.3302  0.1838  0.7827
 6541SOL    HW131082   3.798   2.380   1.298  0.2894  0.5462  1.1520
 6541SOL    HW231083   3.900   2.275   1.315  0.0558  0.1791  0.1499
 6542SOL     OW31084   3.457   4.573  16.753 -0.0586  0.2524  0.2285
 6542SOL    HW131085   3.521   4.543  16.689 -1.8546  0.9369 -1.8668
 6542SOL    HW231086   3.410   4.645  16.710 -0.3875 -0.5215 -0.6939
 6543SOL     OW31087   1.126   4.028   7.297 -0.2663 -0.2099  0.0831
 6543SOL    HW131088   1.071   4.052   7.222 -0.3693  1.3673  0.6675
 6543SOL    HW231089   1.185   4.103   7.306 -0.7193  0.1337  0.1774
 6544SOL     OW31090   3.656   1.246   5.590 -0.1815  0.5291 -0.7390
 6544SOL    HW131091   3.639   1.300   5.512 -0.7173 -1.0805 -1.7391
 6544SOL    HW231092   3.672   1.162   5.547  3.0940 -0.2034  1.9786
 6545SOL     OW31093   3.766   0.614   5.902  0.6632  0.1958  0.8768
 6545SOL    HW131094   3.748   0.558   5.978  1.7316 -0.7036  0.4754
 6545SOL    HW231095   3.706   0.570   5.843  2.0352 -0.5744  0.0503
 6546SOL     OW31096   3.131   4.093   0.841  0.2297  0.2316  0.0204
 6546SOL    HW131097   3.190   4.046   0.900  1.0027  1.5261  0.2714
 6546SOL    HW231098   3.118   4.176   0.888  3.2667  2.2776 -2.8193
 6547SOL     OW31099   2.445   1.288   8.065  0.1468  0.1751 -0.4210
 6547SOL    HW131100   2.508   1.358   8.084  0.3313 -0.2111  0.3648
 6547SOL    HW231101   2.482   1.227   8.128  1.4846 -1.6610 -3.0048
 6548SOL     OW31102   3.127   0.734  13.496 -0.1776 -0.0365 -0.6783
 6548SOL    HW131103   3.207   0.752  13.546  0.3372 -1.0890 -1.1369
 6548SOL    HW231104   3.155   0.660  13.443 -1.0995 -0.7595 -0.1544
 6549SOL     OW31105   0.435   0.210   4.340 -0.3034  0.1738  0.1805
 6549SOL    HW131106   0.479   0.178   4.261 -0.7255  2.8234 -1.1050
 6549SOL    HW231107   0.411   0.297   4.308  0.3410  0.4235  0.3817
 6550SOL     OW31108   3.196   0.260  11.688  0.5301 -0.1126 -0.0334
 6550SOL    HW131109   3.185   0.254  11.783  1.1275 -2.4936 -0.1202
 6550SOL    HW231110   3.168   0.170  11.674  0.4269  0.0392 -0.8012
 6551SOL     OW31111   0.307   3.002   1.387  0.7809  0.3830  0.1988
 6551SOL    HW131112   0.340   3.084   1.424 -1.4063  1.1978  0.3369
 6551SOL    HW231113   0.323   3.012   1.294 -1.1574 -0.1976 -0.1961
 6552SOL     OW31114   0.829   0.584  15.671  0.2495 -0.1583  0.8378
 6552SOL    HW131115   0.906   0.585  15.728 -0.4654  1.2633  1.7716
 6552SOL    HW231116   0.831   0.489  15.656 -0.4857  0.1282 -0.9787
 6553SOL     OW31117   1.082   1.563   5.730 -0.3841  0.1856 -0.3460
 6553SOL    HW131118   1.175   1.572   5.708 -0.4524 -2.5161 -1.7171
 6553SOL    HW231119   1.040   1.584   5.647 -1.1960  0.2165  0.0792
 6554SOL     OW31120   3.747   3.742   3.968  0.2735  0.1610  0.2019
 6554SOL    HW131121   3.711   3.657   3.993  2.0335 -0.3648  0.9696
 6554SOL    HW231122   3.833   3.727   4.007  0.3859  0.6725  0.1601
 6555SOL     OW31123   3.251   4.609   3.324  0.3925  0.5611  0.1264
 6555SOL    HW131124   3.319   4.644   3.268  0.9677 -0.7041  0.0336
 6555SOL    HW231125   3.293   4.595   3.409 -0.0565  0.6746  0.3660
 6556SOL     OW31126   0.921   4.598   8.089 -0.3634 -0.5521 -0.1175
 6556SOL    HW131127   0.952   4.658   8.157  0.5918  0.9079 -1.8563
 6556SOL    HW231128   0.906   4.660   8.018  0.9229  0.9529  0.9146
 6557SOL     OW31129   0.058   0.541   6.411  0.0504 -0.0847  0.0930
 6557SOL    HW131130   0.149   0.540   6.440  0.7828  0.3381 -2.1592
 6557SOL    HW231131   0.028   0.459   6.450 -1.4910  0.5534  0.2582
 6558SOL     OW31132   4.227   0.803   0.820  0.1538 -0.0392 -0.2944
 6558SOL    HW131133   4.314   0.786   0.856  0.4411  0.3893 -0.7863
 6558SOL    HW231134   4.168   0.785   0.894  0.6242 -3.1008 -0.6706
 6559SOL     OW31135   0.810   0.550  15.966  0.3243 -0.2338  0.1164
 6559SOL    HW131136   0.738   0.489  15.952 -0.0278  0.3745 -0.7195
 6559SOL    HW231137   0.810   0.608  15.890 -0.5167  2.2551  1.9970
 6560SOL     OW31138   1.105   3.258   1.687  0.5190 -0.1649 -0.4997
 6560SOL    HW131139   1.189   3.286   1.722  1.4367 -1.7595 -1.4214
 6560SOL    HW231140   1.088   3.180   1.739 -0.6881  1.6722  1.8535
 6561SOL     OW31141   1.332   2.994   7.111 -0.1925  0.5364  0.0579
 6561SOL    HW131142   1.411   2.968   7.064 -0.2904 -0.9467  0.7259
 6561SOL    HW231143   1.261   2.943   7.074  0.5194 -1.4756  1.4813
 6562SOL     OW31144   3.372   2.880   4.354  0.4631 -0.3275  0.0426
 6562SOL    HW131145   3.293   2.907   4.399  0.7220 -0.1496  0.3918
 6562SOL    HW231146   3.364   2.918   4.267  0.6697 -2.6936 -1.0188
 6563SOL     OW31147   2.907   2.017  12.288 -0.4100  0.8485 -0.2434
 6563SOL    HW131148   2.844   2.044  12.354 -1.0329  2.9111 -1.6759
 6563SOL    HW231149   2.983   1.984  12.337 -0.9036 -1.9824 -1.3925
 6564SOL     OW31150   0.002   0.095  12.728  0.2024 -0.3188 -0.2730
 6564SOL    HW131151   4.652   0.131  12.778  1.8531 -0.5436  2.2856
 6564SOL    HW231152   0.020   0.016  12.779  1.2122 -1.7546 -2.8341
 6565SOL     OW31153   1.657   4.602  17.639 -0.5034 -0.1557 -0.1481
 6565SOL    HW131154   1.596   4.648  17.580  1.3257  0.2291 -1.7579
 6565SOL    HW231155   1.650   4.514  17.602  1.6186  0.4414 -1.9680
 6566SOL     OW31156   3.760   3.069  12.866  0.2076  0.5555  0.4410
 6566SOL    HW131157   3.755   3.148  12.920 -1.0022  2.2815 -2.2132
 6566SOL    HW231158   3.756   3.120  12.785 -0.1355  0.6934  0.5455
 6567SOL     OW31159   1.656   2.621  16.434 -0.3339  0.0251 -0.4717
 6567SOL    HW131160   1.726   2.586  16.489 -2.0779 -1.4507  0.7946
 6567SOL    HW231161   1.638   2.551  16.372  1.8673 -1.2836  0.3575
 6568SOL     OW31162   3.633   3.696  17.291 -0.9772 -0.1679 -0.3653
 6568SOL    HW131163   3.678   3.780  17.295  1.6374 -1.5816 -0.0307
 6568SOL    HW231164   3.579   3.699  17.370  0.3429  0.4072  0.5057
 6569SOL     OW31165   1.647   2.489   8.689  0.0732 -0.5433  0.4996
 6569SOL    HW131166   1.602   2.432   8.626  0.7334  0.1678 -0.6084
 6569SOL    HW231167   1.595   2.477   8.769 -1.5675 -0.7550 -0.5821
 6570SOL     OW31168   4.498   2.942   9.656  0.4123  0.3927 -0.2954
 6570SOL    HW131169   4.482   2.864   9.709 -1.0753  0.4501 -0.6560
 6570SOL    HW231170   4.496   3.013   9.721  1.9922  0.7057 -0.5786
 6571SOL     OW31171   0.313   3.039   2.404  0.1585 -0.2051 -0.3265
 6571SOL    HW131172   0.244   3.051   2.338 -1.1416  0.2363  1.1114
 6571SOL    HW231173   0.390   3.033   2.348  0.6472  1.0512  0.2059
 6572SOL     OW31174   3.180   0.130   8.139  0.2932 -0.3704 -0.2824
 6572SOL    HW131175   3.260   0.182   8.154  0.0433 -0.0782  0.0641
 6572SOL    HW231176   3.163   0.168   8.053 -1.5043  0.0208  0.2496
 6573SOL     OW31177   0.557   4.706   5.249 -0.2689  0.3911  0.1358
 6573SOL    HW131178   0.617   4.714   5.175  0.1080  0.6722  0.4778
 6573SOL    HW231179   0.592   4.626   5.287 -1.3637 -1.4383 -2.7067
 6574SOL     OW31180   0.192   1.503   9.433  0.0686 -0.0941  0.3134
 6574SOL    HW131181   0.145   1.423   9.409 -1.9185  0.6871  1.5250
 6574SOL    HW231182   0.195   1.490   9.528  2.4188  2.1724  0.5414
 6575SOL     OW31183   3.682   2.562  15.953 -0.4118  0.2548  0.3572
 6575SOL    HW131184   3.687   2.610  15.870  1.6637 -0.9104 -0.1864
 6575SOL    HW231185   3.686   2.630  16.020 -1.8402 -0.0819  0.7902
 6576SOL     OW31186   1.735   4.345   2.316 -0.3453 -0.5001 -0.1661
 6576SOL    HW131187   1.732   4.321   2.408  1.4166 -1.2234 -0.2882
 6576SOL    HW231188   1.668   4.285   2.281  0.5222 -1.8726  0.5295
 6577SOL     OW31189   2.892   3.456  14.624  0.3520 -0.4707 -0.3218
 6577SOL    HW131190   2.819   3.471  14.684  1.4690 -1.2518  1.2182
 6577SOL    HW231191   2.937   3.536  14.649 -3.1039  1.5599 -0.6210
 6578SOL     OW31192   3.010   0.479   4.435 -0.0234 -0.3357  0.0162
 6578SOL    HW131193   2.919   0.483   4.405 -0.4797  0.5530  1.5205
 6578SOL    HW231194   3.009   0.533   4.514  0.6048  0.9350 -0.8439
 6579SOL     OW31195   3.687   1.085   0.804  0.0400 -0.0623 -0.2557
 6579SOL    HW131196   3.747   1.130   0.744  0.5671 -0.8796 -0.3492
 6579SOL    HW231197   3.709   0.993   0.789 -2.6956 -0.1970 -3.3691
 6580SOL     OW31198   4.253   3.127   6.500 -0.1108 -0.0412 -0.1528
 6580SOL    HW131199   4.322   3.159   6.559 -0.3511  0.9675 -0.4121
 6580SOL    HW231200   4.283   3.149   6.412  0.4547  1.4732  0.4143
 6581SOL     OW31201   3.293   1.142  16.115  0.0246  0.0787  0.0565
 6581SOL    HW131202   3.246   1.113  16.193  1.5244 -2.8560 -0.1493
 6581SOL    HW231203   3.337   1.061  16.089  0.0019 -0.3978  1.4802
 6582SOL     OW31204   3.032   3.252  14.480  0.8940  0.2512 -0.1858
 6582SOL    HW131205   3.038   3.186  14.549  0.4616  2.1565  1.6745
 6582SOL    HW231206   2.992   3.322  14.531  0.1159 -1.7687  2.0215
 6583SOL     OW31207   3.518   4.513  14.407  0.5704  0.1599 -0.5171
 6583SOL    HW131208   3.596   4.567  14.420 -0.9576  2.1289  0.4380
 6583SOL    HW231209   3.548   4.429  14.442 -0.6551 -0.4403 -0.9297
 6584SOL     OW31210   4.701   1.712   9.373 -0.8883  0.2750  0.2571
 6584SOL    HW131211   0.023   1.787   9.412  2.2639 -1.5848  0.1557
 6584SOL    HW231212   0.039   1.641   9.391  0.0047  0.6577 -1.2796
 6585SOL     OW31213   2.864   2.640   7.563 -0.3945 -0.0589  0.3547
 6585SOL    HW131214   2.854   2.589   7.644 -0.4386 -3.4144 -1.7735
 6585SOL    HW231215   2.956   2.622   7.545 -0.8724 -2.3959  0.1811
 6586SOL     OW31216   4.108   3.311  16.086 -0.0891 -0.3003 -0.1866
 6586SOL    HW131217   4.048   3.376  16.122  0.0791 -0.6783  0.7864
 6586SOL    HW231218   4.159   3.369  16.029  0.5144  1.3985  2.1078
 6587SOL     OW31219   1.610   1.203   4.441  0.1394 -0.5313 -0.3546
 6587SOL    HW131220   1.539   1.239   4.494  0.6410 -0.5467  0.3391
 6587SOL    HW231221   1.604   1.108   4.449 -3.0371 -0.2723  0.4199
 6588SOL     OW31222   3.762   4.128   7.881  0.9092 -0.0291 -0.4112
 6588SOL    HW131223   3.692   4.067   7.904  2.7902 -2.3011 -0.7574
 6588SOL    HW231224   3.722   4.187   7.817 -0.3997 -0.0093  0.4294
 6589SOL     OW31225   4.260   2.545   7.218 -0.0850  0.3129 -0.0521
 6589SOL    HW131226   4.274   2.632   7.253 -1.2961  0.0725  1.0461
 6589SOL    HW231227   4.299   2.565   7.133  2.3407 -1.6410  0.5770
 6590SOL     OW31228   0.622   2.630   7.239 -0.5262 -0.5233  0.6038
 6590SOL    HW131229   0.580   2.715   7.234 -2.2526 -1.2436  2.9031
 6590SOL    HW231230   0.622   2.625   7.335 -2.0649  0.1775  0.6341
 6591SOL     OW31231   1.525   2.042   3.033 -0.4283  0.1835 -0.2335
 6591SOL    HW131232   1.513   2.093   3.114  1.7156 -0.4838  0.5057
 6591SOL    HW231233   1.552   1.956   3.064  1.2883  0.0200 -2.2390
 6592SOL     OW31234   1.527   0.903   3.087 -0.4414  0.6375 -0.2424
 6592SOL    HW131235   1.610   0.864   3.113  0.1248  2.3899  0.5615
 6592SOL    HW231236   1.461   0.834   3.101 -1.5624  2.2791  2.3593
 6593SOL     OW31237   4.369   1.963   9.127  0.1524  0.3918  0.3498
 6593SOL    HW131238   4.455   1.977   9.167  1.0300 -1.3430 -0.9452
 6593SOL    HW231239   4.315   2.028   9.171 -1.5297  0.5655 -1.9558
 6594SOL     OW31240   1.869   0.256   4.984  0.2480 -0.2559  0.1527
 6594SOL    HW131241   1.822   0.200   4.921 -0.9950  1.8187 -0.7611
 6594SOL    HW231242   1.819   0.337   4.973  0.8473  0.3537  2.1096
 6595SOL     OW31243   0.815   0.656   0.430 -0.0403  0.2270 -0.9341
 6595SOL    HW131244   0.798   0.578   0.377  0.5167 -0.4419 -0.1298
 6595SOL    HW231245   0.798   0.723   0.364 -2.6483  0.2409 -0.2361
 6596SOL     OW31246   0.177   3.684   4.808 -0.0892 -0.0275 -0.7588
 6596SOL    HW131247   0.112   3.739   4.764 -2.0748  0.3767  2.6771
 6596SOL    HW231248   0.188   3.608   4.750 -0.2920 -1.0488  0.5414
 6597SOL     OW31249   4.509   1.649   7.078  0.2867  0.2960  0.6875
 6597SOL    HW131250   4.482   1.734   7.042  2.4182  0.7835  0.2245
 6597SOL    HW231251   4.515   1.672   7.170  2.1915  1.7827  0.1998
 6598SOL     OW31252   1.477   4.319   6.632 -0.2241 -0.0352  0.2322
 6598SOL    HW131253   1.471   4.335   6.538 -0.3017 -2.6015 -0.1876
 6598SOL    HW231254   1.568   4.347   6.645 -0.1029 -0.0762 -0.5018
 6599SOL     OW31255   3.167   1.388   2.559  0.1971  0.0358  0.1914
 6599SOL    HW131256   3.213   1.436   2.490  0.3976 -1.0898 -0.4540
 6599SOL    HW231257   3.226   1.400   2.634 -0.6089  1.4291  0.6074
 6600SOL     OW31258   3.083   4.332   3.530  0.1863  0.1218 -0.8223
 6600SOL    HW131259   3.100   4.243   3.560  1.4165  0.1774 -1.3443
 6600SOL    HW231260   3.123   4.326   3.443 -0.7001 -1.3029 -1.1198
 6601SOL     OW31261   1.168   3.644  10.660 -0.0797  0.3128 -0.7684
 6601SOL    HW131262   1.097   3.673  10.603 -1.0764  1.1174  0.8625
 6601SOL    HW231263   1.211   3.582  10.602 -2.8533 -1.0490 -1.3511
 6602SOL     OW31264   4.118   4.148   5.698  0.2341 -0.2345  0.1529
 6602SOL    HW131265   4.189   4.209   5.675  0.8022 -0.7453  0.5418
 6602SOL    HW231266   4.046   4.181   5.645 -0.0785  0.5544  1.0687
 6603SOL     OW31267   1.707   4.097   7.486 -0.0968  0.2654 -0.6605
 6603SOL    HW131268   1.723   4.088   7.392  2.0831  1.3841 -0.3957
 6603SOL    HW231269   1.617   4.129   7.489  0.7720  2.4233  2.0477
 6604SOL     OW31270   3.481   2.677   7.406  0.3991  0.3776 -0.3077
 6604SOL    HW131271   3.522   2.727   7.477 -1.0462  0.3601  0.5350
 6604SOL    HW231272   3.426   2.746   7.370  2.0405  0.7248 -2.1607
 6605SOL     OW31273   0.549   4.127   4.962 -0.2948 -0.0468 -0.6382
 6605SOL    HW131274   0.525   4.137   4.870  1.8515  0.8367 -1.1112
 6605SOL    HW231275   0.476   4.079   5.001 -0.1885 -0.1600 -0.5776
 6606SOL     OW31276   2.720   1.625   6.622 -0.1713  0.0678 -0.5646
 6606SOL    HW131277   2.733   1.592   6.533  0.8100  3.8411 -1.8048
 6606SOL    HW231278   2.632   1.589   6.635  0.1631 -0.1355  1.1280
 6607SOL     OW31279   1.673   4.078   8.727  0.2867 -0.3047 -0.3341
 6607SOL    HW131280   1.725   4.157   8.711  0.6161 -0.0906  1.8647
 6607SOL    HW231281   1.702   4.018   8.659 -0.9732 -1.1806 -0.0753
 6608SOL     OW31282   4.698   3.551  15.409 -0.7088  0.0262  0.5155
 6608SOL    HW131283   4.636   3.564  15.481 -1.6655 -1.8367  0.0211
 6608SOL    HW231284   4.682   3.637  15.371 -0.1670  0.6783  1.7677
 6609SOL     OW31285   1.835   1.788   4.388 -0.0360 -0.0505  0.2731
 6609SOL    HW131286   1.783   1.764   4.311  0.3623  0.7154 -0.2447
 6609SOL    HW231287   1.913   1.732   4.386 -0.9099 -1.3184  1.5461
 6610SOL     OW31288   1.658   3.364   8.466 -0.3068 -0.3049  0.4177
 6610SOL    HW131289   1.613   3.289   8.506 -0.3636 -0.7858 -0.5591
 6610SOL    HW231290   1.645   3.350   8.373 -0.5730 -0.5146  0.4855
 6611SOL     OW31291   3.927   0.355  16.540 -0.1067 -0.0924  0.3582
 6611SOL    HW131292   3.986   0.311  16.478  1.6405  1.6033  0.8090
 6611SOL    HW231293   3.904   0.276  16.589  2.7183 -0.7221  0.6922
 6612SOL     OW31294   3.987   4.170   6.790  0.2978  0.1010  0.9239
 6612SOL    HW131295   4.058   4.127   6.838  0.3080  0.9810  1.7053
 6612SOL    HW231296   4.042   4.210   6.722 -0.5445 -0.8587 -0.3136
 6613SOL     OW31297   1.624   1.793   3.062  0.8610 -0.3397 -0.4362
 6613SOL    HW131298   1.694   1.757   3.007  1.5686  0.1736  0.1181
 6613SOL    HW231299   1.549   1.740   3.037  0.7798  0.0883 -1.1065
 6614SOL     OW31300   3.078   0.882   2.424 -0.4325  0.0140  0.8227
 6614SOL    HW131301   3.150   0.944   2.410 -0.5516 -0.1609 -0.6179
 6614SOL    HW231302   3.080   0.844   2.336  2.0558 -0.1120  0.9212
 6615SOL     OW31303   2.655   4.164   7.151  0.7814  0.2383  0.3190
 6615SOL    HW131304   2.723   4.106   7.186 -0.0946 -0.6717  0.5110
 6615SOL    HW231305   2.599   4.109   7.096  0.6588 -0.7494  1.4267
 6616SOL     OW31306   1.365   3.058   2.996 -0.7179  0.4537  0.1443
 6616SOL    HW131307   1.298   2.996   2.967 -2.8916  1.7004  2.5040
 6616SOL    HW231308   1.441   3.039   2.943 -0.4054  1.7494  0.1193
 6617SOL     OW31309   0.324   3.416   1.641  0.2611  0.0920  0.2986
 6617SOL    HW131310   0.418   3.426   1.624 -0.0516  1.1070 -0.8374
 6617SOL    HW231311   0.322   3.324   1.615 -0.5997  0.3900 -0.6487
 6618SOL     OW31312   0.168   4.183   3.035 -0.2664  0.0013 -0.7761
 6618SOL    HW131313   0.132   4.267   3.061  0.6579  0.4159 -0.8355
 6618SOL    HW231314   0.185   4.154   3.124  0.4096  0.1045 -0.8680
 6619SOL     OW31315   0.527   1.127   3.632 -0.1517  0.1339 -0.2742
 6619SOL    HW131316   0.553   1.036   3.646  3.8304  1.5772  1.7246
 6619SOL    HW231317   0.445   1.110   3.585 -1.0878  0.5540  1.1786
 6620SOL     OW31318   0.669   4.047  10.992  0.1525 -0.1250  0.6384
 6620SOL    HW131319   0.604   4.113  11.013 -0.2782 -0.0603 -0.8539
 6620SOL    HW231320   0.691   4.085  10.907 -3.8884  1.2686  0.2192
 6621SOL     OW31321   3.166   3.538   4.885  0.1629  0.0738 -0.2478
 6621SOL    HW131322   3.235   3.602   4.902 -1.6487  1.7384  0.8366
 6621SOL    HW231323   3.172   3.535   4.790  1.9824 -0.7069 -0.1099
 6622SOL     OW31324   0.829   0.002   7.866 -0.3310 -0.0203 -0.2177
 6622SOL    HW131325   0.809   4.660   7.800  0.4548 -0.7979  0.3216
 6622SOL    HW231326   0.741   0.016   7.900 -0.3965 -1.3492  0.1532
 6623SOL     OW31327   2.761   3.264   2.494 -0.3593 -0.4106 -0.2514
 6623SOL    HW131328   2.705   3.206   2.442 -0.0463 -1.0989  0.1788
 6623SOL    HW231329   2.732   3.355   2.483  2.5343  0.5446 -0.0436
 6624SOL     OW31330   0.925   0.215  14.217 -0.5677 -0.2557  0.0169
 6624SOL    HW131331   0.842   0.248  14.251  0.2720  1.3342  0.5127
 6624SOL    HW231332   0.967   0.187  14.299  1.1549  1.1955 -0.3681
 6625SOL     OW31333   4.421   1.862  17.230 -0.5279 -0.1608  0.0185
 6625SOL    HW131334   4.480   1.872  17.155 -1.6327 -0.4360 -0.8862
 6625SOL    HW231335   4.391   1.771  17.224  2.0990 -0.9843 -0.8826
 6626SOL     OW31336   2.017   4.166   2.698 -0.2307 -0.6754 -0.1298
 6626SOL    HW131337   1.934   4.120   2.682  0.0202 -1.2913  0.3128
 6626SOL    HW231338   2.012   4.223   2.622 -2.1322 -2.6820 -1.5120
 6627SOL     OW31339   2.492   2.035   8.859 -0.1600 -0.0643  0.5802
 6627SOL    HW131340   2.471   2.067   8.946 -0.5819 -0.6296  0.6814
 6627SOL    HW231341   2.573   2.083   8.838 -1.0078  1.3825  0.6211
 6628SOL     OW31342   1.073   0.416   6.861 -0.3087  0.7326 -0.4715
 6628SOL    HW131343   1.150   0.365   6.838  1.5247  2.8261  1.0473
 6628SOL    HW231344   1.010   0.366   6.809  0.0046  0.6754 -0.7895
 6629SOL     OW31345   1.215   3.702   3.504  0.0191 -0.4619 -0.4357
 6629SOL    HW131346   1.247   3.620   3.466  0.8674 -1.5521  2.6321
 6629SOL    HW231347   1.283   3.759   3.468 -1.6418  0.7593 -1.6593
 6630SOL     OW31348   0.176   3.953   4.538 -0.1180  0.3014 -0.5002
 6630SOL    HW131349   0.121   3.905   4.600  0.9323 -0.3616 -0.0875
 6630SOL    HW231350   0.261   3.926   4.572 -1.9431  0.1451  4.0191
 6631SOL     OW31351   2.525   3.495   3.346  0.4379  0.5224 -0.6088
 6631SOL    HW131352   2.495   3.424   3.402  1.5172  0.2491 -0.3783
 6631SOL    HW231353   2.462   3.562   3.373  1.3165  0.8219  0.7015
 6632SOL     OW31354   1.729   3.634   6.769 -0.2022 -0.1736 -0.5711
 6632SOL    HW131355   1.652   3.677   6.807 -0.4827 -1.6316  0.4840
 6632SOL    HW231356   1.690   3.583   6.698 -1.5319 -1.1315  0.8638
 6633SOL     OW31357   1.733   1.926   4.601  0.0848  0.0925  0.4797
 6633SOL    HW131358   1.820   1.938   4.640 -0.7199  0.9890  1.9722
 6633SOL    HW231359   1.761   1.871   4.527  0.8789 -1.6067  2.0234
 6634SOL     OW31360   4.038   2.485   7.783  0.2113  0.3171  0.4934
 6634SOL    HW131361   4.073   2.567   7.748 -0.1042  0.7579  1.2252
 6634SOL    HW231362   3.970   2.464   7.719  0.2545  1.3517  0.1003
 6635SOL     OW31363   0.312   2.488   7.359 -0.4018 -0.0371  0.9046
 6635SOL    HW131364   0.366   2.543   7.416  1.7341  0.2206 -1.3850
 6635SOL    HW231365   0.369   2.411   7.356 -0.4089 -0.0671  1.5385
 6636SOL     OW31366   0.912   3.734  17.033 -0.1405  0.3516 -0.0637
 6636SOL    HW131367   0.857   3.685  16.971 -2.0332  0.3289  1.6526
 6636SOL    HW231368   0.869   3.711  17.115  1.4599 -0.4161  0.5555
 6637SOL     OW31369   3.388   3.866   1.922 -0.7169  0.5344  0.2420
 6637SOL    HW131370   3.293   3.872   1.934 -0.4494  1.3922  1.9197
 6637SOL    HW231371   3.411   3.864   2.015  0.7049 -2.3842 -0.1570
 6638SOL     OW31372   2.691   3.367   4.580  0.2580  0.0537  0.0184
 6638SOL    HW131373   2.673   3.275   4.564  3.5258 -0.5628 -0.1138
 6638SOL    HW231374   2.610   3.389   4.627 -0.9255 -1.6202 -1.2794
 6639SOL     OW31375   0.879   2.062  17.544 -0.5016 -0.6358  0.1011
 6639SOL    HW131376   0.892   2.086  17.452 -0.9995  0.0215  0.2020
 6639SOL    HW231377   0.817   1.990  17.532 -0.5556 -0.7248  0.9564
 6640SOL     OW31378   1.491   3.523  17.316 -0.2658  0.2590 -0.2720
 6640SOL    HW131379   1.517   3.431  17.312 -1.0699 -0.0619  1.9862
 6640SOL    HW231380   1.489   3.535  17.221  1.4810  1.5451 -0.1575
 6641SOL     OW31381   2.957   2.380   9.008  0.6136  0.5108 -0.3672
 6641SOL    HW131382   2.980   2.421   8.925  0.2533  0.6473 -0.3989
 6641SOL    HW231383   3.000   2.445   9.064  2.6812 -0.2712 -1.0297
 6642SOL     OW31384   4.283   3.847   7.324  0.4727 -0.2897  0.3265
 6642SOL    HW131385   4.253   3.931   7.360 -0.7479  0.1635 -1.7368
 6642SOL    HW231386   4.363   3.870   7.277  0.1367 -1.1704 -0.6762
 6643SOL     OW31387   4.111   3.576   8.816  0.5584  0.0873  0.5892
 6643SOL    HW131388   4.121   3.485   8.842 -1.5002  0.2857  2.0566
 6643SOL    HW231389   4.032   3.580   8.763 -0.6054 -0.0608  2.3144
 6644SOL     OW31390   1.835   0.112  15.028  0.2416 -0.4301  0.0358
 6644SOL    HW131391   1.858   0.098  15.120 -0.6018 -2.3607 -0.0415
 6644SOL    HW231392   1.743   0.085  15.033 -0.1418  0.9772  0.6418
 6645SOL     OW31393   1.450   3.011  17.238 -0.0676 -0.4388 -0.6332
 6645SOL    HW131394   1.413   3.095  17.265  0.0806 -0.7686  0.5729
 6645SOL    HW231395   1.524   3.005  17.298 -1.0688 -0.2986  0.6075
 6646SOL     OW31396   2.035   3.458  13.668  0.3672  0.0015 -0.1915
 6646SOL    HW131397   1.993   3.533  13.710  0.2501 -0.2181  0.0814
 6646SOL    HW231398   2.100   3.418  13.726  0.8577 -0.2615 -0.9189
 6647SOL     OW31399   0.337   2.931   5.312  0.4329  0.1231 -0.1214
 6647SOL    HW131400   0.302   3.019   5.318  0.4652 -0.0194  1.9197
 6647SOL    HW231401   0.403   2.932   5.381 -0.4578  3.2078  0.6701
 6648SOL     OW31402   1.404   4.343   8.124  0.2551  0.1999  0.5695
 6648SOL    HW131403   1.474   4.309   8.179  1.9565  3.3853  0.3921
 6648SOL    HW231404   1.332   4.283   8.144 -0.5787  0.2156 -2.3325
 6649SOL     OW31405   2.543   0.537   6.887  0.0650  0.4200 -0.2586
 6649SOL    HW131406   2.562   0.461   6.941 -1.9315  0.8290  0.9990
 6649SOL    HW231407   2.625   0.582   6.909 -0.3172  1.4463 -0.9002
 6650SOL     OW31408   2.281   0.692   3.078 -0.3210  0.5071  0.0456
 6650SOL    HW131409   2.231   0.654   3.006  1.9528  1.1860 -1.9046
 6650SOL    HW231410   2.290   0.613   3.132  1.4369  0.7784  0.1579
 6651SOL     OW31411   1.111   1.091   1.966  0.1319 -0.1906  0.0575
 6651SOL    HW131412   1.042   1.026   1.978 -0.7503  0.8764  0.7500
 6651SOL    HW231413   1.155   1.089   2.051  1.1951  0.8660 -0.4654
 6652SOL     OW31414   0.748   3.323   3.188  0.0386  0.2561  0.8124
 6652SOL    HW131415   0.798   3.247   3.217 -0.7579 -0.1491  1.1157
 6652SOL    HW231416   0.805   3.379   3.134 -0.0287  0.1186  0.5987
 6653SOL     OW31417   3.251   1.224   4.609 -0.4459 -0.2430  0.8021
 6653SOL    HW131418   3.183   1.165   4.643 -1.5585  1.1924  1.0697
 6653SOL    HW231419   3.197   1.296   4.575 -0.5187 -0.6963 -0.0454
 6654SOL     OW31420   4.651   1.011  11.807  0.1669 -0.6595  0.4128
 6654SOL    HW131421   4.632   1.022  11.900 -1.9852  1.9685 -0.3427
 6654SOL    HW231422   4.599   0.935  11.781  0.4426 -1.7197  2.9843
 6655SOL     OW31423   0.997   4.256   5.469  0.1320  0.3930  0.3057
 6655SOL    HW131424   0.991   4.216   5.556  0.8200  1.6315  0.9218
 6655SOL    HW231425   1.090   4.235   5.457  0.3191  1.0914  0.5385
 6656SOL     OW31426   3.435   0.482   7.242  0.5230 -0.5348  0.7545
 6656SOL    HW131427   3.508   0.421   7.242  1.1141  0.1683  0.8990
 6656SOL    HW231428   3.488   0.545   7.192 -0.2577 -0.6041 -0.1617
 6657SOL     OW31429   2.721   0.445   2.555  0.5332  0.2240 -0.2902
 6657SOL    HW131430   2.640   0.428   2.508 -0.2344  3.0701  0.0250
 6657SOL    HW231431   2.755   0.519   2.506  2.3817  0.5976  1.5373
 6658SOL     OW31432   3.096   1.877   2.811  0.1630 -0.1220 -0.1123
 6658SOL    HW131433   3.114   1.937   2.739  0.3142  0.1264  0.1306
 6658SOL    HW231434   3.175   1.823   2.813 -0.6914 -1.3285  0.6625
 6659SOL     OW31435   0.847   2.193  13.050  0.7317 -0.1339 -0.1359
 6659SOL    HW131436   0.914   2.170  12.985  0.7371  0.2669 -0.2705
 6659SOL    HW231437   0.876   2.137  13.121  1.4342 -0.8918 -1.0182
 6660SOL     OW31438   4.126   1.600   8.144  0.2730 -1.0935 -0.0107
 6660SOL    HW131439   4.045   1.589   8.194  1.3000 -0.6487  1.7764
 6660SOL    HW231440   4.097   1.652   8.070 -0.3182 -0.5482  0.6128
 6661SOL     OW31441   4.305   0.434  17.206  0.0513  0.7138 -0.3684
 6661SOL    HW131442   4.292   0.509  17.148  0.5040 -1.4819 -3.3829
 6661SOL    HW231443   4.307   0.471  17.294  0.9034 -0.5264  0.1471
 6662SOL     OW31444   2.410   3.343   1.319  0.0344 -0.6468 -0.3275
 6662SOL    HW131445   2.332   3.288   1.315 -0.8005  0.6639 -2.1879
 6662SOL    HW231446   2.395   3.387   1.403  0.1388  0.1700 -0.7395
 6663SOL     OW31447   4.474   1.243   3.843 -0.5192  0.2880  0.1020
 6663SOL    HW131448   4.413   1.288   3.784 -0.5787  0.8495  0.5864
 6663SOL    HW231449   4.556   1.274   3.805 -0.6545 -1.7006 -1.8302
 6664SOL     OW31450   1.004   0.199   4.012  0.1870 -0.0008 -0.0677
 6664SOL    HW131451   1.088   0.200   3.965  0.0482 -0.8949 -0.3291
 6664SOL    HW231452   0.968   0.268   3.956 -0.3383 -1.1378 -1.1324
 6665SOL     OW31453   2.951   3.474   7.138  0.0843  0.1464  0.4745
 6665SOL    HW131454   2.895   3.468   7.060  0.6811 -1.2869  0.1534
 6665SOL    HW231455   2.893   3.506   7.207  0.9024  2.3285  0.1653
 6666SOL     OW31456   0.909   2.981   2.267 -0.4068  0.0222 -0.5307
 6666SOL    HW131457   0.868   2.897   2.246  0.5426 -0.4133 -0.6443
 6666SOL    HW231458   0.997   2.951   2.291 -0.6321 -1.5584 -1.6704
 6667SOL     OW31459   1.081   2.452  15.886 -0.4669  0.7017  0.8384
 6667SOL    HW131460   1.167   2.483  15.858 -0.8961  2.5990  1.6622
 6667SOL    HW231461   1.026   2.499  15.824 -0.2833  2.5319  2.0748
 6668SOL     OW31462   0.077   3.129  12.704 -0.4236 -0.2553  0.1814
 6668SOL    HW131463   0.025   3.064  12.751 -0.2700  0.3924  1.2447
 6668SOL    HW231464   0.050   3.110  12.614  0.7023 -0.9212 -0.0285
 6669SOL     OW31465   2.892   2.226   7.475 -0.6554  0.3976 -0.1846
 6669SOL    HW131466   2.811   2.182   7.448  0.5684 -1.1929 -1.2642
 6669SOL    HW231467   2.916   2.284   7.402  1.2550  0.8275  0.7996
 6670SOL     OW31468   3.185   4.596  10.010  0.6991 -0.6052 -0.4103
 6670SOL    HW131469   3.159   4.616   9.920 -0.0602 -0.6677 -0.2067
 6670SOL    HW231470   3.253   4.661  10.030  1.7381 -2.3625  1.7926
 6671SOL     OW31471   1.226   2.422   7.334  0.0922 -0.3493  0.3485
 6671SOL    HW131472   1.306   2.462   7.368 -0.6158  1.7065 -0.3637
 6671SOL    HW231473   1.164   2.429   7.406 -0.0112 -0.9323  0.3148
 6672SOL     OW31474   2.697   1.252   8.281  0.4643  0.6398 -0.4778
 6672SOL    HW131475   2.760   1.209   8.224 -1.4122 -2.6583 -0.0368
 6672SOL    HW231476   2.751   1.330   8.295 -0.0913  0.6961  1.3298
 6673SOL     OW31477   1.179   2.833  10.435  0.5163 -0.1840  0.0138
 6673SOL    HW131478   1.199   2.851  10.343  2.8631 -3.1639 -0.0882
 6673SOL    HW231479   1.264   2.846  10.478 -0.2038  1.1730  1.0044
 6674SOL     OW31480   3.063   1.636  10.224 -0.1702 -0.3808 -0.4231
 6674SOL    HW131481   3.150   1.643  10.263 -1.1323 -0.4540  1.7435
 6674SOL    HW231482   3.027   1.579  10.292 -1.2751 -0.2740 -0.9148
 6675SOL     OW31483   0.167   0.887   7.407 -0.2272  0.1956  0.4893
 6675SOL    HW131484   0.225   0.952   7.366  0.7512 -1.1746 -0.2802
 6675SOL    HW231485   0.092   0.884   7.347  0.5942 -0.7858 -0.4845
 6676SOL     OW31486   2.031   0.778  16.193 -0.3121  0.4235 -0.1648
 6676SOL    HW131487   2.096   0.776  16.123 -0.6445 -1.2866 -0.4345
 6676SOL    HW231488   1.990   0.692  16.183 -0.0190  0.2470  0.1659
 6677SOL     OW31489   1.503   4.523   5.762  0.2795 -0.8015 -0.2782
 6677SOL    HW131490   1.450   4.568   5.828 -0.6775 -1.2162 -0.7594
 6677SOL    HW231491   1.562   4.472   5.818  0.6378 -0.0728  0.0061
 6678SOL     OW31492   3.266   2.389   7.310  0.4951  0.4654  0.1538
 6678SOL    HW131493   3.279   2.357   7.220  0.0096  2.6887 -0.7070
 6678SOL    HW231494   3.297   2.316   7.363  0.6618  0.1679 -0.3526
 6679SOL     OW31495   4.560   1.881   8.149  0.4055 -0.2120  0.0274
 6679SOL    HW131496   4.581   1.959   8.097  2.5090 -2.0340 -1.8800
 6679SOL    HW231497   4.625   1.814   8.130 -0.2297 -0.9775  0.5715
 6680SOL     OW31498   1.273   4.255   3.098 -0.6462  0.1767 -0.1246
 6680SOL    HW131499   1.306   4.303   3.022  1.2817 -0.1174  0.5411
 6680SOL    HW231500   1.211   4.323   3.124 -0.1635  0.7411 -0.4486
 6681SOL     OW31501   1.942   3.892   9.332 -0.6902 -0.3562  0.0810
 6681SOL    HW131502   1.989   3.811   9.350 -1.5045 -1.0516 -0.9111
 6681SOL    HW231503   1.954   3.909   9.238 -1.3067  1.0150  0.2538
 6682SOL     OW31504   1.896   2.937  10.288 -0.1629 -0.2151  0.0663
 6682SOL    HW131505   1.908   3.031  10.274 -2.2642  0.0927  0.2942
 6682SOL    HW231506   1.985   2.906  10.305  1.2156  2.4333 -2.3272
 6683SOL     OW31507   3.374   2.264   5.652 -0.6213 -0.4284 -0.7018
 6683SOL    HW131508   3.456   2.215   5.646 -2.0010 -2.6895 -0.9213
 6683SOL    HW231509   3.303   2.219   5.608 -0.3492  0.1896 -1.7705
 6684SOL     OW31510   2.542   3.641   3.685 -0.2247  0.2396  0.2206
 6684SOL    HW131511   2.610   3.620   3.749 -0.1097  0.5526  0.2001
 6684SOL    HW231512   2.538   3.558   3.639 -3.0974  1.0691 -0.9998
 6685SOL     OW31513   0.649   0.219   9.088 -0.2433 -0.5922  0.1751
 6685SOL    HW131514   0.588   0.146   9.097 -1.7605  0.8114  1.3304
 6685SOL    HW231515   0.733   0.174   9.092 -1.0392 -1.9549  1.5229
 6686SOL     OW31516   0.546   4.680   7.601 -0.1453  0.5411  0.1323
 6686SOL    HW131517   0.611   4.638   7.546  0.1478  0.9921  0.1322
 6686SOL    HW231518   0.521   4.607   7.658  0.6809 -0.3147 -0.6138
 6687SOL     OW31519   1.252   1.542  12.383  0.5521  0.0606  0.0408
 6687SOL    HW131520   1.185   1.580  12.326  0.0905 -3.1769 -1.6034
 6687SOL    HW231521   1.327   1.536  12.325  1.7428 -0.5602  1.6530
 6688SOL     OW31522   0.780   2.932   6.811  0.1291  0.3018  0.0588
 6688SOL    HW131523   0.834   3.004   6.845  0.2165  0.7526 -1.0556
 6688SOL    HW231524   0.796   2.939   6.717 -0.1331  0.6953  0.0390
 6689SOL     OW31525   0.789   3.919   3.795  0.7263 -0.6586  0.8651
 6689SOL    HW131526   0.762   3.878   3.877  0.8704 -0.4909  0.9968
 6689SOL    HW231527   0.791   4.014   3.805 -0.2853 -0.5340 -0.0942
 6690SOL     OW31528   2.111   2.399  10.490 -0.2609  0.3591 -0.7399
 6690SOL    HW131529   2.079   2.385  10.579 -0.3842  0.8845 -0.7061
 6690SOL    HW231530   2.172   2.328  10.470 -1.4135 -0.8104 -0.1093
 6691SOL     OW31531   3.110   0.386   7.637 -0.5738 -0.2148 -0.6638
 6691SOL    HW131532   3.184   0.372   7.578 -0.5859  1.0500 -0.9820
 6691SOL    HW231533   3.061   0.453   7.590 -0.5609 -0.5863 -1.2092
 6692SOL     OW31534   0.730   4.364  11.557  0.5760 -0.1543 -0.4011
 6692SOL    HW131535   0.727   4.279  11.602  0.8705  0.5034  0.8536
 6692SOL    HW231536   0.714   4.424  11.629 -0.4206 -0.1810 -0.6032
 6693SOL     OW31537   4.038   3.083   0.250  0.6646  0.7190 -0.4031
 6693SOL    HW131538   4.096   3.099   0.175  0.5415  1.7009 -0.2835
 6693SOL    HW231539   4.061   2.995   0.282  0.2809 -0.0988 -2.3396
 6694SOL     OW31540   0.090   1.613   6.489  0.7716 -0.6014  0.5674
 6694SOL    HW131541   0.172   1.569   6.510  1.2220 -0.2078 -0.3773
 6694SOL    HW231542   0.123   1.661   6.413 -2.9711 -0.2286 -0.8356
 6695SOL     OW31543   0.399   0.820   7.727 -0.2948 -0.4034  0.0560
 6695SOL    HW131544   0.481   0.820   7.776  0.1484  2.4346 -0.7080
 6695SOL    HW231545   0.334   0.782   7.786  0.5791  1.3795  2.1606
 6696SOL     OW31546   0.752   2.110  11.513 -0.4764  0.0558  0.0027
 6696SOL    HW131547   0.708   2.071  11.589  0.5922  1.4217  1.3358
 6696SOL    HW231548   0.674   2.121  11.459  0.6733  1.7668 -1.2981
 6697SOL     OW31549   0.698   1.803  11.596  0.2535 -0.5257 -0.5388
 6697SOL    HW131550   0.606   1.823  11.613  0.7607  1.6513 -0.4187
 6697SOL    HW231551   0.741   1.847  11.669 -0.6148 -1.3731  0.4627
 6698SOL     OW31552   4.704   3.613   5.852 -0.2577  0.3902  0.0346
 6698SOL    HW131553   4.704   3.657   5.767  0.3006 -0.8450 -0.6071
 6698SOL    HW231554   0.009   3.526   5.825 -2.4246 -0.1371 -0.5481
 6699SOL     OW31555   2.996   2.527   3.997 -0.0753  0.3074  0.1582
 6699SOL    HW131556   2.989   2.513   3.903 -0.2584  0.2067  0.1885
 6699SOL    HW231557   3.063   2.596   4.001  0.2910 -0.1026  1.0156
 6700SOL     OW31558   2.368   1.964  16.639  0.1027 -0.0852 -0.6682
 6700SOL    HW131559   2.417   2.039  16.672  0.2880  0.2348 -1.6769
 6700SOL    HW231560   2.279   2.000  16.632  0.4406  0.9222  0.2526
 6701SOL     OW31561   0.758   2.701   2.219  0.4601 -0.0783  0.5408
 6701SOL    HW131562   0.663   2.697   2.234  0.5706 -3.5326  0.5275
 6701SOL    HW231563   0.776   2.609   2.238 -0.9309 -0.0110  2.1587
 6702SOL     OW31564   3.854   1.528   7.061  0.2568  0.0471  0.3754
 6702SOL    HW131565   3.810   1.613   7.061  0.3561  0.1046  1.2872
 6702SOL    HW231566   3.894   1.519   6.974  2.4374 -0.5194  1.4236
 6703SOL     OW31567   0.919   1.802   8.511  0.0170  0.0791  0.4971
 6703SOL    HW131568   1.008   1.832   8.529  0.1935 -0.0828 -0.1092
 6703SOL    HW231569   0.893   1.846   8.430  1.4173  2.2610  1.2258
 6704SOL     OW31570   1.144   0.796   8.873  0.4251  0.3931  0.0066
 6704SOL    HW131571   1.222   0.828   8.916  1.3779  1.6834 -2.6827
 6704SOL    HW231572   1.082   0.826   8.940  0.2660 -0.9854  0.4816
 6705SOL     OW31573   2.851   3.664   7.584 -0.3186  0.0645  0.2934
 6705SOL    HW131574   2.833   3.700   7.672 -0.1545  1.3682 -0.2053
 6705SOL    HW231575   2.928   3.715   7.560  0.3190 -0.7285  0.6708
 6706SOL     OW31576   1.580   2.072   5.268  0.6845  0.3270 -0.1548
 6706SOL    HW131577   1.647   2.070   5.199  0.2633  0.5374 -0.5664
 6706SOL    HW231578   1.583   2.167   5.280  1.0764  0.5256 -1.8759
 6707SOL     OW31579   0.421   2.718   8.280  0.1260  0.1544  0.1511
 6707SOL    HW131580   0.409   2.716   8.375  1.5247  1.5998  0.3643
 6707SOL    HW231581   0.332   2.744   8.259  0.1234 -0.6668 -0.8977
 6708SOL     OW31582   1.564   3.577   8.797  0.6934  0.2083  0.3173
 6708SOL    HW131583   1.610   3.655   8.828  0.9544  0.7992 -1.5670
 6708SOL    HW231584   1.639   3.527   8.766 -1.1808 -0.7551 -2.6308
 6709SOL     OW31585   1.505   2.980   5.994 -0.2989 -0.1303 -0.1660
 6709SOL    HW131586   1.420   2.948   5.963  0.4183 -1.6576 -0.5316
 6709SOL    HW231587   1.566   2.929   5.940  0.3105  0.9657 -0.5139
 6710SOL     OW31588   0.060   1.177   9.173 -0.2302 -0.1720  0.1556
 6710SOL    HW131589   0.045   1.092   9.214  0.8144 -0.6402 -0.4214
 6710SOL    HW231590   0.006   1.239   9.223 -2.0646 -1.4142 -0.2915
 6711SOL     OW31591   3.066   2.714   2.287  0.2251  0.0950 -0.2639
 6711SOL    HW131592   3.096   2.659   2.360 -1.7326  0.0693  0.5249
 6711SOL    HW231593   3.139   2.774   2.275  1.3387 -1.4622 -1.2287
 6712SOL     OW31594   3.601   4.539   0.721 -0.3212  0.4767 -0.3622
 6712SOL    HW131595   3.526   4.482   0.704  0.3736 -0.9754  1.4726
 6712SOL    HW231596   3.565   4.619   0.760  0.9241  0.5563  0.6225
 6713SOL     OW31597   1.968   1.735  12.912  0.1005 -0.3735 -0.6955
 6713SOL    HW131598   2.013   1.804  12.961  1.2127 -2.0683  0.6503
 6713SOL    HW231599   1.921   1.792  12.851 -0.9354 -2.2479 -1.6481
 6714SOL     OW31600   2.484   2.272  15.327  0.0773 -0.1552 -0.0642
 6714SOL    HW131601   2.440   2.308  15.250  1.2720  2.0296  0.2671
 6714SOL    HW231602   2.430   2.317  15.391  0.7432 -0.5150  0.7414
 6715SOL     OW31603   0.201   0.766   8.889 -0.3991  0.0398  0.6465
 6715SOL    HW131604   0.113   0.782   8.856 -0.1541 -2.2607 -1.1898
 6715SOL    HW231605   0.230   0.847   8.931 -0.6088 -0.3412  1.5102
 6716SOL     OW31606   3.858   4.539  10.315 -0.0268 -0.5995 -0.3121
 6716SOL    HW131607   3.889   4.470  10.257  0.0017 -0.3866 -0.5502
 6716SOL    HW231608   3.915   4.614  10.293 -0.0777 -0.4880 -0.0652
 6717SOL     OW31609   1.931   0.431   3.469 -0.6855 -0.9403  0.2764
 6717SOL    HW131610   1.965   0.450   3.382 -1.9510 -0.4156 -0.1044
 6717SOL    HW231611   1.928   0.521   3.502  1.1621 -0.6937 -0.2129
 6718SOL     OW31612   3.571   0.712   6.146  0.1454  0.2063  0.3364
 6718SOL    HW131613   3.551   0.785   6.205  1.1322 -1.2961  2.5532
 6718SOL    HW231614   3.579   0.644   6.214  1.4057  1.2715  1.2550
 6719SOL     OW31615   4.722   1.832  13.981 -0.0625 -0.3431 -0.2048
 6719SOL    HW131616   0.021   1.750  14.024  2.0205  0.9389  1.1547
 6719SOL    HW231617   4.646   1.853  14.035 -1.1137 -1.6369 -1.1934
 6720SOL     OW31618   0.947   2.423   6.530 -0.1307  0.2661  0.1823
 6720SOL    HW131619   1.011   2.385   6.590  1.4061 -1.5070 -2.5558
 6720SOL    HW231620   0.919   2.358   6.466 -0.6610  0.9214 -0.2561
 6721SOL     OW31621   4.219   0.130  13.501  0.1700  0.1679  0.0231
 6721SOL    HW131622   4.155   0.072  13.542 -1.2535  0.0474 -2.3481
 6721SOL    HW231623   4.292   0.126  13.562  0.4431  0.4639 -0.2808
 6722SOL     OW31624   0.966   3.710   9.358 -0.2769 -0.1620 -0.9563
 6722SOL    HW131625   1.039   3.651   9.376  0.4988  1.8679  2.4891
 6722SOL    HW231626   1.010   3.795   9.368 -1.0450  0.1587 -0.3467
 6723SOL     OW31627   4.041   3.999   1.363 -0.6053  0.2983  0.1508
 6723SOL    HW131628   4.085   3.955   1.436 -2.6551 -0.8893  0.6629
 6723SOL    HW231629   4.090   3.968   1.287 -1.2557  0.6308 -0.4043
 6724SOL     OW31630   4.700   2.430  10.172  0.8151  0.2483  0.0199
 6724SOL    HW131631   4.689   2.352  10.226 -2.4026  1.8917  1.7081
 6724SOL    HW231632   0.071   2.432  10.158  0.9258  1.6792  0.9969
 6725SOL     OW31633   1.744   1.987   9.061  0.3717 -0.0357 -0.4258
 6725SOL    HW131634   1.831   2.026   9.069  0.1323  0.3864  0.0638
 6725SOL    HW231635   1.778   1.900   9.081 -1.0165 -0.3980  0.3568
 6726SOL     OW31636   3.216   2.564   6.574  0.5075  0.2546  0.2203
 6726SOL    HW131637   3.262   2.637   6.533  0.3781  1.3369  2.0300
 6726SOL    HW231638   3.291   2.519   6.614  1.6446  2.0354  0.1138
 6727SOL     OW31639   4.363   1.356   5.288  0.3845  0.0639 -0.4243
 6727SOL    HW131640   4.455   1.353   5.316 -0.3999  1.2237  2.2992
 6727SOL    HW231641   4.364   1.420   5.217 -3.4382 -0.0881 -0.6288
 6728SOL     OW31642   2.706   2.763   7.972 -0.0898  0.0562  0.6945
 6728SOL    HW131643   2.722   2.816   7.893 -0.0438 -0.6287  0.2437
 6728SOL    HW231644   2.793   2.743   8.006 -0.1906 -0.4370  0.6480
 6729SOL     OW31645   3.735   0.512   0.475  0.0503 -0.1527 -0.2195
 6729SOL    HW131646   3.660   0.561   0.508 -0.5645 -0.0813 -1.7319
 6729SOL    HW231647   3.799   0.580   0.495  0.5219 -1.1595  1.7782
 6730SOL     OW31648   0.225   4.137  14.660 -0.4141 -0.0773 -0.4393
 6730SOL    HW131649   0.246   4.070  14.595  2.3739  2.1829 -1.8579
 6730SOL    HW231650   0.182   4.199  14.601  0.4419  0.4733 -0.4860
 6731SOL     OW31651   2.064   1.554   7.227  0.6313 -0.2014 -0.2767
 6731SOL    HW131652   2.155   1.536   7.203  1.3547  1.0404  1.5280
 6731SOL    HW231653   2.089   1.561   7.320 -2.4761  0.0490  0.5396
 6732SOL     OW31654   3.609   3.985   5.900 -0.3573 -0.4237  0.3662
 6732SOL    HW131655   3.564   4.067   5.919  2.6395  0.5681  3.1864
 6732SOL    HW231656   3.620   3.944   5.986  1.4898 -2.6770 -0.9337
 6733SOL     OW31657   1.095   1.374   4.214 -0.2863 -0.1956  0.4183
 6733SOL    HW131658   1.170   1.430   4.193 -0.6393  0.2534  0.3440
 6733SOL    HW231659   1.035   1.386   4.140  1.8799  1.0924 -1.1350
 6734SOL     OW31660   2.590   2.767   4.378 -0.1487  0.5607  0.5671
 6734SOL    HW131661   2.657   2.720   4.328 -0.5313  1.0146 -0.3814
 6734SOL    HW231662   2.574   2.839   4.317 -0.1179 -1.0193 -1.3256
 6735SOL     OW31663   2.851   3.545   8.118  0.0284  0.0706  0.2399
 6735SOL    HW131664   2.885   3.576   8.202  2.3226 -0.5012 -0.4656
 6735SOL    HW231665   2.820   3.460   8.147 -0.9226  0.3884  0.1515
 6736SOL     OW31666   0.492   1.512   2.869 -0.5029  0.0216 -0.2167
 6736SOL    HW131667   0.522   1.601   2.854 -0.6601  0.1819  0.4083
 6736SOL    HW231668   0.502   1.515   2.964  0.1340  0.0508 -0.2853
 6737SOL     OW31669   0.256   1.983  14.488  0.0632  0.0145  0.1857
 6737SOL    HW131670   0.328   1.921  14.495  1.6653  1.6947 -1.1340
 6737SOL    HW231671   0.265   2.017  14.398 -0.1413 -0.2600  0.0636
 6738SOL     OW31672   4.691   0.756   5.142 -0.0859 -0.6185  0.2657
 6738SOL    HW131673   0.054   0.740   5.104  0.0266  0.4115  0.0824
 6738SOL    HW231674   4.659   0.666   5.143  1.0759 -1.0454 -0.6515
 6739SOL     OW31675   2.787   3.717   3.573 -0.2890 -0.2189 -0.6652
 6739SOL    HW131676   2.737   3.796   3.592  2.4886  1.4622 -0.2788
 6739SOL    HW231677   2.709   3.664   3.588 -0.8529  0.8829  0.2225
 6740SOL     OW31678   3.934   2.329   9.319  0.0542 -0.0504  0.2809
 6740SOL    HW131679   3.936   2.347   9.225  1.1158 -1.0961  0.1090
 6740SOL    HW231680   4.017   2.282   9.332  0.9492  1.5750  0.5557
 6741SOL     OW31681   2.269   0.447  11.706  0.0163  1.0601  0.8104
 6741SOL    HW131682   2.261   0.372  11.646 -0.0568  0.0845  2.0252
 6741SOL    HW231683   2.325   0.405  11.771 -1.7692 -0.1961  1.5319
 6742SOL     OW31684   0.452   2.783   4.381 -0.7286  0.6189  0.4580
 6742SOL    HW131685   0.380   2.817   4.327 -1.2011 -0.7297  0.2487
 6742SOL    HW231686   0.471   2.697   4.343 -0.4494  0.1002  1.7672
 6743SOL     OW31687   3.671   2.550  13.524  0.3001 -0.4807 -0.4664
 6743SOL    HW131688   3.674   2.593  13.609  0.6128  3.3673 -2.4084
 6743SOL    HW231689   3.581   2.566  13.497  0.4566  2.9138  1.0904
 6744SOL     OW31690   0.127   0.201   9.764  0.1565  0.0688  0.1142
 6744SOL    HW131691   0.049   0.254   9.744  0.2187  0.8073  1.7839
 6744SOL    HW231692   0.097   0.120   9.723 -1.6792  0.6692  0.2709
 6745SOL     OW31693   2.759   2.614  14.213  0.0000 -0.5639 -0.4430
 6745SOL    HW131694   2.812   2.559  14.271  0.1367  1.1826  1.0586
 6745SOL    HW231695   2.796   2.701  14.228 -0.2179 -0.6906  0.8110
 6746SOL     OW31696   4.115   4.514   7.090  0.1613 -0.2002 -0.0417
 6746SOL    HW131697   4.041   4.519   7.029 -0.8499  0.5063  1.2451
 6746SOL    HW231698   4.165   4.595   7.082  1.4891 -0.9210  1.0416
 6747SOL     OW31699   1.402   1.531   8.149 -0.8094 -0.3167 -0.1385
 6747SOL    HW131700   1.365   1.563   8.232 -2.2485 -0.2733 -0.7932
 6747SOL    HW231701   1.497   1.527   8.156 -0.8650 -2.7671 -0.9642
 6748SOL     OW31702   3.052   3.417  10.040 -0.0532 -0.1472  0.4329
 6748SOL    HW131703   3.044   3.396   9.946 -0.6512  1.2198  0.1816
 6748SOL    HW231704   3.140   3.453  10.044  0.9927 -2.4668 -1.6216
 6749SOL     OW31705   2.299   0.832   4.243 -0.5246 -0.3207  0.1789
 6749SOL    HW131706   2.310   0.921   4.209 -1.9590  0.4798  1.8707
 6749SOL    HW231707   2.340   0.837   4.329 -3.9803 -1.9369  1.8959
 6750SOL     OW31708   0.550   4.456   0.243  0.5657 -0.0720  0.2080
 6750SOL    HW131709   0.588   4.377   0.280  0.6732 -0.5312 -0.8800
 6750SOL    HW231710   0.620   4.490   0.187  2.5694 -1.1773  2.0249
 6751SOL     OW31711   4.677   3.111   7.288  0.9561  0.0388  0.3983
 6751SOL    HW131712   4.703   3.040   7.347 -2.4243 -0.0691  1.7930
 6751SOL    HW231713   4.584   3.115   7.311  1.0432 -1.2478  0.9869
 6752SOL     OW31714   1.064   2.354   9.603 -0.0663 -0.0051 -0.1909
 6752SOL    HW131715   1.138   2.339   9.662  0.3473  0.7748 -0.5137
 6752SOL    HW231716   1.062   2.449   9.613 -0.8706 -0.3234  2.7271
 6753SOL     OW31717   2.283   0.382   5.520 -0.5427  0.1621 -0.0920
 6753SOL    HW131718   2.231   0.436   5.580  1.0580  0.6009  0.9070
 6753SOL    HW231719   2.360   0.437   5.513 -1.1793  1.2758  1.4600
 6754SOL     OW31720   4.667   4.016   5.580 -1.0155 -0.1298  0.4360
 6754SOL    HW131721   4.611   3.984   5.651 -2.5987 -1.3699 -1.3912
 6754SOL    HW231722   4.722   3.939   5.568 -2.0059 -0.7500 -0.0818
 6755SOL     OW31723   4.359   2.335  15.257  0.2790  0.6449  0.8371
 6755SOL    HW131724   4.284   2.376  15.301  0.0461  1.9815 -0.7922
 6755SOL    HW231725   4.364   2.388  15.177  2.3006 -0.1376  0.4476
 6756SOL     OW31726   1.402   1.837   0.388  0.4016  0.0940 -0.6935
 6756SOL    HW131727   1.364   1.797   0.467 -1.8725  1.5980 -1.0321
 6756SOL    HW231728   1.356   1.920   0.395 -0.3077 -0.2193 -1.7642
 6757SOL     OW31729   2.684   2.447   7.279  0.0063  0.3730 -0.6907
 6757SOL    HW131730   2.777   2.431   7.266 -0.2802 -1.0811 -0.9910
 6757SOL    HW231731   2.648   2.369   7.237  0.5247 -0.3365  0.1962
 6758SOL     OW31732   0.666   2.745  14.964  0.4469 -0.6389  0.2730
 6758SOL    HW131733   0.752   2.718  14.933  1.0172 -0.5888  1.7923
 6758SOL    HW231734   0.617   2.664  14.952 -1.0313  0.6385 -2.2753
 6759SOL     OW31735   1.303   1.036   0.078 -0.3399  0.3520 -0.7909
 6759SOL    HW131736   1.323   1.057  17.683  3.5842  4.2479  0.9441
 6759SOL    HW231737   1.385   1.055   0.124 -0.1100 -0.6051 -0.8068
 6760SOL     OW31738   4.576   4.415   3.418 -0.2038 -0.1353  0.0655
 6760SOL    HW131739   4.572   4.433   3.324 -1.1410  3.4241  0.8010
 6760SOL    HW231740   4.493   4.451   3.449 -0.7295 -0.1682 -1.3047
 6761SOL     OW31741   1.509   3.726  11.692  0.0926  0.1139  0.1828
 6761SOL    HW131742   1.445   3.692  11.629 -0.4640  0.5690  0.5087
 6761SOL    HW231743   1.518   3.647  11.745 -0.4129 -0.5108 -0.6551
 6762SOL     OW31744   2.785   1.874  15.236 -0.5047 -0.0448  0.1024
 6762SOL    HW131745   2.697   1.894  15.204 -0.5538  0.8717  0.8300
 6762SOL    HW231746   2.771   1.787  15.275 -0.9691 -0.7037 -1.5063
 6763SOL     OW31747   3.750   3.815   5.683 -0.2506  0.3908  0.2213
 6763SOL    HW131748   3.666   3.772   5.697  0.3139 -0.5448  0.8166
 6763SOL    HW231749   3.764   3.862   5.765  0.3969  1.8135 -0.7086
 6764SOL     OW31750   0.048   1.102  10.018  0.4213  0.4191  0.9535
 6764SOL    HW131751   0.106   1.061   9.953 -0.2893  0.4706  0.2849
 6764SOL    HW231752   0.091   1.188  10.019  0.4469  0.4515 -3.6850
 6765SOL     OW31753   3.617   2.816  16.062 -0.3001  0.0153  0.6108
 6765SOL    HW131754   3.604   2.897  16.113 -1.8458  0.5914 -0.6993
 6765SOL    HW231755   3.524   2.795  16.071  0.2250 -1.2213  3.2399
 6766SOL     OW31756   4.558   4.589   6.217  0.3118 -0.4642 -0.4223
 6766SOL    HW131757   4.625   4.631   6.163 -1.0316  2.0615 -0.0921
 6766SOL    HW231758   4.560   4.638   6.299 -1.3469 -1.0073 -0.0581
 6767SOL     OW31759   3.796   3.072   6.396 -0.5337 -0.7866 -0.5285
 6767SOL    HW131760   3.889   3.072   6.416  0.0674 -0.7863 -3.3122
 6767SOL    HW231761   3.792   3.087   6.302  0.8480 -0.4720 -0.5321
 6768SOL     OW31762   3.125   3.808   5.996  0.1814 -0.5381  0.0610
 6768SOL    HW131763   3.080   3.784   5.915 -0.8783  0.2432  0.4248
 6768SOL    HW231764   3.189   3.738   6.010 -0.0939 -0.7946  0.0421
 6769SOL     OW31765   3.126   0.277   6.892  0.0785 -0.0707 -0.1919
 6769SOL    HW131766   3.095   0.347   6.835 -0.5837 -0.3573 -0.1814
 6769SOL    HW231767   3.040   0.241   6.916  1.0339 -2.0650  0.3065
 6770SOL     OW31768   0.294   3.090   9.281 -0.0145 -0.3277  0.3885
 6770SOL    HW131769   0.388   3.078   9.297 -0.1324 -0.0474  1.3004
 6770SOL    HW231770   0.284   3.171   9.332 -1.2077 -0.6365  0.6304
 6771SOL     OW31771   3.452   2.559   0.688 -0.4609  0.4419 -0.3882
 6771SOL    HW131772   3.360   2.577   0.708 -0.1906  1.6898 -0.2665
 6771SOL    HW231773   3.461   2.606   0.605  2.5349  2.6868  1.2142
 6772SOL     OW31774   2.994   0.359   1.259 -0.1279 -0.0007  0.1455
 6772SOL    HW131775   3.025   0.274   1.292  0.9662  0.4219  0.2153
 6772SOL    HW231776   2.985   0.339   1.165  1.6729 -0.2058  0.0189
 6773SOL     OW31777   4.068   0.244   7.247  0.2572  0.2622 -0.0975
 6773SOL    HW131778   4.141   0.302   7.225  0.8196 -0.5118 -0.2794
 6773SOL    HW231779   4.112   0.159   7.249 -1.1378 -0.3623  5.1017
 6774SOL     OW31780   2.336   2.342   9.649  0.0948 -0.1508  0.2270
 6774SOL    HW131781   2.253   2.333   9.603 -0.6134  1.6836  1.1060
 6774SOL    HW231782   2.304   2.320   9.737  0.5379 -0.0054  0.4278
 6775SOL     OW31783   2.589   2.473   3.116  0.4745 -0.0158  0.1157
 6775SOL    HW131784   2.673   2.515   3.136  0.8084 -0.7852  0.2971
 6775SOL    HW231785   2.575   2.420   3.194  1.8627  0.4765  0.7118
 6776SOL     OW31786   2.082   4.104   9.437  0.8399 -0.0866  0.4932
 6776SOL    HW131787   2.058   4.189   9.400  1.5895 -2.1010 -4.7174
 6776SOL    HW231788   2.058   4.038   9.371 -0.9496 -0.4222  1.5035
 6777SOL     OW31789   1.776   3.967   9.590  0.0698 -0.6256  0.1329
 6777SOL    HW131790   1.856   3.945   9.542  1.1875  1.7478  0.8871
 6777SOL    HW231791   1.798   4.039   9.650  1.2627 -1.3001  0.5017
 6778SOL     OW31792   1.318   4.354   4.402  0.0468  0.1348  0.1401
 6778SOL    HW131793   1.401   4.360   4.450  0.5787  0.2720 -0.7981
 6778SOL    HW231794   1.319   4.441   4.362 -1.2359 -1.1620 -2.6923
 6779SOL     OW31795   1.469   4.207   9.660 -0.3655  0.1030  0.3759
 6779SOL    HW131796   1.431   4.264   9.727 -2.3218 -1.7373  0.8607
 6779SOL    HW231797   1.557   4.188   9.694  0.6639  2.9490 -0.7571
 6780SOL     OW31798   4.137   0.263   6.215  0.7104 -0.4096 -0.2893
 6780SOL    HW131799   4.170   0.330   6.154 -0.5201  0.1813 -0.2961
 6780SOL    HW231800   4.144   0.184   6.161  0.2452 -0.3497 -0.4385
 6781SOL     OW31801   3.430   2.738   2.396  0.3793  0.2586 -0.2821
 6781SOL    HW131802   3.448   2.677   2.324 -0.8066 -0.3254 -0.0840
 6781SOL    HW231803   3.412   2.815   2.341  2.2260  0.8999  0.0294
 6782SOL     OW31804   4.122   2.276   3.768 -0.0508  0.4165 -0.2800
 6782SOL    HW131805   4.178   2.204   3.737 -0.1431 -0.2325  1.0906
 6782SOL    HW231806   4.080   2.243   3.847  0.5630 -1.4903 -0.7395
 6783SOL     OW31807   4.259   3.092   8.118 -0.2278 -0.3192 -0.2727
 6783SOL    HW131808   4.331   3.036   8.090  1.2323  0.9532  0.9274
 6783SOL    HW231809   4.305   3.171   8.146 -1.8300  0.6842 -0.4660
 6784SOL     OW31810   4.115   0.301   8.141  0.8700  0.1538 -0.1827
 6784SOL    HW131811   4.171   0.223   8.146 -0.3175 -0.7073 -0.2324
 6784SOL    HW231812   4.086   0.301   8.050 -2.1862  1.2462  0.7691
 6785SOL     OW31813   2.397   2.226   2.436 -0.0605  0.0821  0.3901
 6785SOL    HW131814   2.393   2.226   2.531 -1.0330 -2.4740  0.3380
 6785SOL    HW231815   2.348   2.147   2.414  1.0490 -0.0169 -1.7750
 6786SOL     OW31816   4.527   4.017   0.779  0.7920  0.0605  0.3015
 6786SOL    HW131817   4.574   3.936   0.758 -0.3453  0.1845 -2.6700
 6786SOL    HW231818   4.540   4.072   0.702 -2.8257 -0.4724 -0.6534
 6787SOL     OW31819   1.933   2.312   1.137  0.0376 -0.7349 -0.3054
 6787SOL    HW131820   1.884   2.327   1.056  1.2002 -3.7720 -1.5757
 6787SOL    HW231821   1.914   2.387   1.193 -0.1845 -1.8604  1.1037
 6788SOL     OW31822   4.479   3.723  15.016 -0.1330 -0.1689 -0.3810
 6788SOL    HW131823   4.533   3.712  15.094  0.7182 -0.5388 -1.0231
 6788SOL    HW231824   4.496   3.639  14.973 -0.5013  1.0099 -2.8554
 6789SOL     OW31825   1.321   2.577   1.067 -0.1203  0.0300 -0.2522
 6789SOL    HW131826   1.317   2.636   1.142  0.0275 -2.8753  2.0668
 6789SOL    HW231827   1.336   2.494   1.114  0.1746 -0.4455 -1.1962
 6790SOL     OW31828   3.610   3.775   4.277  0.5068  0.4695  0.4536
 6790SOL    HW131829   3.696   3.815   4.290  0.9668  0.0990 -1.4444
 6790SOL    HW231830   3.597   3.811   4.189 -0.7713 -0.9581  0.0582
 6791SOL     OW31831   3.794   3.219  17.096  0.2055 -0.1168 -0.1767
 6791SOL    HW131832   3.750   3.137  17.117  1.0992 -0.5028  0.1633
 6791SOL    HW231833   3.739   3.278  17.148  1.6028  0.8507  0.2097
 6792SOL     OW31834   2.625   2.295   2.146 -0.1557 -0.2800  0.2543
 6792SOL    HW131835   2.616   2.219   2.204  1.9433 -1.6490 -1.2512
 6792SOL    HW231836   2.533   2.317   2.129  0.2980  1.4138 -0.0387
 6793SOL     OW31837   1.040   0.782  14.414 -0.3218 -0.0288  0.3927
 6793SOL    HW131838   0.956   0.792  14.460  0.3634 -1.2999  1.8773
 6793SOL    HW231839   1.065   0.871  14.389  1.9839 -0.7771  0.0998
 6794SOL     OW31840   1.885   1.540  14.675 -0.0397 -1.0579 -0.0152
 6794SOL    HW131841   1.893   1.574  14.585 -1.0604  1.3202  0.8027
 6794SOL    HW231842   1.943   1.464  14.674 -1.7260 -2.3411 -0.4009
 6795SOL     OW31843   4.191   0.600   6.540  0.4284 -0.3386 -0.3070
 6795SOL    HW131844   4.178   0.505   6.532  1.4240 -0.6485  1.9143
 6795SOL    HW231845   4.280   0.586   6.570  0.6321  0.2483 -0.6497
 6796SOL     OW31846   4.463   1.919   1.424  0.4904  0.3425 -0.4765
 6796SOL    HW131847   4.433   1.887   1.339  1.4074  0.1646 -0.7305
 6796SOL    HW231848   4.439   2.011   1.414  1.0399  0.5129 -0.2437
 6797SOL     OW31849   0.244   1.509   5.969 -1.0063  0.4469  0.3761
 6797SOL    HW131850   0.338   1.504   5.950 -0.5350  0.9614  2.5618
 6797SOL    HW231851   0.227   1.585   5.914 -2.0392 -0.0603 -0.0026
 6798SOL     OW31852   0.684   0.994  15.221 -0.1134 -0.0376  0.0457
 6798SOL    HW131853   0.597   1.034  15.215 -1.2794 -2.6996 -0.5002
 6798SOL    HW231854   0.728   1.065  15.269 -1.0402 -0.3762  1.3948
 6799SOL     OW31855   4.356   1.744  12.698 -0.2414 -0.3235  0.1548
 6799SOL    HW131856   4.417   1.812  12.728 -1.1090  1.1399 -1.3996
 6799SOL    HW231857   4.295   1.795  12.644  1.1923 -0.0035 -1.1537
 6800SOL     OW31858   1.654   1.359  11.529  0.1176 -0.5161 -0.0063
 6800SOL    HW131859   1.637   1.326  11.441 -0.0225 -0.3513 -0.0406
 6800SOL    HW231860   1.567   1.397  11.542  1.3128  0.9395  3.9240
 6801SOL     OW31861   3.022   3.730  10.206 -0.2258 -0.2221 -0.3565
 6801SOL    HW131862   2.954   3.676  10.164  0.1064 -0.5319 -0.5052
 6801SOL    HW231863   3.096   3.678  10.172  0.7799  1.4073 -0.6447
 6802SOL     OW31864   2.595   3.163   2.299 -0.1160  0.2994  0.1765
 6802SOL    HW131865   2.508   3.159   2.339  1.0872  0.6917  2.8151
 6802SOL    HW231866   2.580   3.191   2.209  3.2235  0.6224 -0.2770
 6803SOL     OW31867   3.659   1.113  16.848 -0.7344 -0.3744  0.2411
 6803SOL    HW131868   3.610   1.195  16.855 -1.1428 -0.6175  0.2808
 6803SOL    HW231869   3.611   1.048  16.797  0.8540 -1.5413  0.2262
 6804SOL     OW31870   2.715   4.270   1.820 -0.0024 -0.1872 -0.4580
 6804SOL    HW131871   2.777   4.261   1.747 -1.3966 -0.5723 -1.5802
 6804SOL    HW231872   2.686   4.361   1.810 -1.4023 -0.5080  0.7295
 6805SOL     OW31873   4.194   1.810   3.794 -0.1905 -0.6945 -0.0353
 6805SOL    HW131874   4.223   1.804   3.703 -2.7310 -0.4194 -0.8564
 6805SOL    HW231875   4.217   1.721   3.821  0.0368 -0.8567 -0.7601
 6806SOL     OW31876   0.742   1.190   8.596 -0.3377  0.1116 -0.2075
 6806SOL    HW131877   0.784   1.240   8.526 -1.3901  1.6744  0.2869
 6806SOL    HW231878   0.706   1.120   8.541  0.0732  0.8483 -1.4101
 6807SOL     OW31879   2.416   2.780   7.692 -0.6395  0.0355  0.4742
 6807SOL    HW131880   2.509   2.785   7.670 -0.5354  0.1782  0.9492
 6807SOL    HW231881   2.426   2.762   7.785  3.1132 -0.0608  0.0287
 6808SOL     OW31882   3.057   3.118   5.265  0.1111 -0.6764 -0.1194
 6808SOL    HW131883   3.119   3.047   5.282  0.8858 -0.3806 -1.7352
 6808SOL    HW231884   3.008   3.069   5.198 -2.9309  1.8683  0.2284
 6809SOL     OW31885   2.522   3.510   7.714  0.2069  0.5711 -0.4344
 6809SOL    HW131886   2.578   3.459   7.655  0.2708  0.1029  0.0301
 6809SOL    HW231887   2.435   3.493   7.680  1.1567 -0.8767 -2.1237
 6810SOL     OW31888   0.049   3.949   2.952 -0.2429 -0.5365 -0.6490
 6810SOL    HW131889   0.099   3.908   2.882  2.1673  2.0124 -0.4320
 6810SOL    HW231890   0.083   4.039   2.958 -1.0908 -0.2956  0.6415
 6811SOL     OW31891   1.236   0.334   0.423  0.0019 -0.2446 -0.0646
 6811SOL    HW131892   1.198   0.349   0.509  2.9478  1.8667  0.8429
 6811SOL    HW231893   1.276   0.419   0.402 -2.3091  0.9141  0.1919
 6812SOL     OW31894   2.413   1.431   5.786  0.2392  0.0581 -0.7809
 6812SOL    HW131895   2.339   1.382   5.747  0.7068 -0.2828 -1.2416
 6812SOL    HW231896   2.377   1.462   5.869  3.0552  1.0321  0.0714
 6813SOL     OW31897   4.431   4.659   1.723 -0.0931 -0.1586  0.1070
 6813SOL    HW131898   4.492   4.586   1.711 -1.1251 -1.3914  2.4692
 6813SOL    HW231899   4.373   4.643   1.648 -0.0447  1.5375 -0.3076
 6814SOL     OW31900   2.962   1.706   3.092 -0.4657 -0.3566 -1.0009
 6814SOL    HW131901   2.903   1.755   3.149 -1.4074 -0.6193 -1.7489
 6814SOL    HW231902   3.041   1.739   3.135 -0.5879 -0.7411 -0.4750
 6815SOL     OW31903   2.284   0.967   9.549 -0.1615 -0.2995  0.0898
 6815SOL    HW131904   2.378   0.951   9.547 -0.0233  0.5941 -0.5391
 6815SOL    HW231905   2.280   1.059   9.523 -0.7054 -0.2061  0.4944
 6816SOL     OW31906   0.124   3.856   8.330  0.6222  0.1410  0.5763
 6816SOL    HW131907   0.126   3.950   8.314 -2.7403 -0.1474 -1.6272
 6816SOL    HW231908   0.072   3.852   8.411  0.5114 -0.2886  0.4850
 6817SOL     OW31909   2.675   2.248  11.638 -0.0211  0.0810 -0.2096
 6817SOL    HW131910   2.702   2.164  11.675 -0.8277 -0.2448 -0.3512
 6817SOL    HW231911   2.746   2.298  11.677  0.1750 -0.5756  0.2861
 6818SOL     OW31912   2.693   1.413   8.978  0.1160  0.3710  0.2608
 6818SOL    HW131913   2.616   1.426   8.922 -1.1511  0.9024  2.0970
 6818SOL    HW231914   2.692   1.498   9.021 -1.8852 -0.6889  2.3692
 6819SOL     OW31915   0.387   3.366  14.799 -0.1581 -0.1952 -0.1554
 6819SOL    HW131916   0.422   3.419  14.871  0.5091 -0.0256 -0.6029
 6819SOL    HW231917   0.294   3.386  14.793  0.0252  0.8602  0.5967
 6820SOL     OW31918   3.935   3.778   7.911 -0.0802 -0.0444 -0.3583
 6820SOL    HW131919   4.004   3.844   7.912  0.4308 -0.5349 -2.7949
 6820SOL    HW231920   3.893   3.805   7.992  0.8110 -2.6136  0.9712
 6821SOL     OW31921   0.821   3.676   4.561  0.2959  0.4273 -0.2596
 6821SOL    HW131922   0.743   3.646   4.515  0.3532 -0.6851  0.3524
 6821SOL    HW231923   0.890   3.611   4.546  0.7619  0.8796 -0.0751
 6822SOL     OW31924   0.059   4.625  14.007 -0.1687  0.3694 -0.2933
 6822SOL    HW131925   0.031   4.625  13.916  1.1966 -0.6066 -0.7098
 6822SOL    HW231926   0.063   4.717  14.035  0.8330  0.1007  0.4223
 6823SOL     OW31927   3.402   1.094  11.632 -0.2706  0.0721  0.3991
 6823SOL    HW131928   3.370   1.062  11.547 -1.7019  1.9770  0.2081
 6823SOL    HW231929   3.477   1.041  11.658 -1.3188 -0.7148  1.7897
 6824SOL     OW31930   0.937   3.975   8.957  0.3403 -0.1700 -0.3164
 6824SOL    HW131931   0.877   4.035   8.912  0.5252 -0.1897 -0.5880
 6824SOL    HW231932   0.964   4.019   9.037 -0.0547 -0.1894 -0.1693
 6825SOL     OW31933   3.615   3.012  17.160 -0.1983 -0.5740  0.1300
 6825SOL    HW131934   3.574   3.036  17.243  0.4599 -0.2601  0.3598
 6825SOL    HW231935   3.537   3.022  17.105  0.1132 -2.3196 -0.6342
 6826SOL     OW31936   3.135   0.817  14.820  0.0417 -0.2015 -0.4862
 6826SOL    HW131937   3.201   0.792  14.756 -0.3336 -1.9199 -0.1936
 6826SOL    HW231938   3.058   0.815  14.763 -0.5985  0.1010  0.3618
 6827SOL     OW31939   0.373   0.893  13.917  0.1444  0.0611  0.2704
 6827SOL    HW131940   0.414   0.890  13.831 -0.3800 -0.1456  0.0237
 6827SOL    HW231941   0.440   0.942  13.964 -2.0373  1.4466  1.9262
 6828SOL     OW31942   0.362   2.479   5.228  0.0402  0.2313 -0.1793
 6828SOL    HW131943   0.452   2.501   5.256 -0.1305  0.8238 -0.0811
 6828SOL    HW231944   0.375   2.405   5.169  0.0947  1.0448 -1.1845
 6829SOL     OW31945   3.974   0.513  17.090  0.0415 -0.4411 -0.4135
 6829SOL    HW131946   3.917   0.588  17.070 -0.4134 -0.0234  2.4750
 6829SOL    HW231947   4.030   0.500  17.014 -0.9187 -1.7817 -0.8959
 6830SOL     OW31948   0.702   2.303   3.644  0.1914  0.1938  0.5051
 6830SOL    HW131949   0.789   2.275   3.673 -0.3553 -2.0004  0.0331
 6830SOL    HW231950   0.692   2.256   3.561  0.4826  1.3059 -0.1564
 6831SOL     OW31951   0.340   1.985  11.949 -0.6919  0.5949 -0.0307
 6831SOL    HW131952   0.263   1.942  11.987  0.3703 -1.7597 -0.4842
 6831SOL    HW231953   0.372   1.922  11.884  2.5736  1.3496  0.8783
 6832SOL     OW31954   3.841   2.951   7.212 -0.1417 -0.1938  0.2509
 6832SOL    HW131955   3.898   3.028   7.203 -1.0289  0.0892 -2.9400
 6832SOL    HW231956   3.757   2.993   7.226  1.0385  1.9793  0.8295
 6833SOL     OW31957   2.058   1.110   7.906 -0.8157  0.1443 -0.5073
 6833SOL    HW131958   2.101   1.194   7.919 -1.4887  0.4263 -0.0930
 6833SOL    HW231959   2.010   1.128   7.825  0.2717 -0.7994 -1.3631
 6834SOL     OW31960   3.039   4.544  15.024  0.3094 -0.7165  0.8679
 6834SOL    HW131961   2.971   4.497  14.976  0.4954 -0.6375  0.5180
 6834SOL    HW231962   3.070   4.604  14.956  0.4571 -0.1590  1.4361
 6835SOL     OW31963   3.223   3.124   2.047  0.2950 -0.2134 -0.1715
 6835SOL    HW131964   3.187   3.203   2.087  0.0552  0.8151 -2.4683
 6835SOL    HW231965   3.309   3.147   2.012 -0.1659 -0.5051 -1.4885
 6836SOL     OW31966   2.452   1.802  16.238  0.3630 -0.5020 -0.3265
 6836SOL    HW131967   2.474   1.821  16.330 -2.2863 -0.0232  0.2202
 6836SOL    HW231968   2.377   1.744  16.246  1.3322 -1.5218  1.2931
 6837SOL     OW31969   1.505   2.287  17.301 -0.2510  0.3035  0.1285
 6837SOL    HW131970   1.493   2.193  17.282  0.3889 -0.0896  1.7039
 6837SOL    HW231971   1.507   2.325  17.213  0.7836 -0.1820 -0.0570
 6838SOL     OW31972   0.085   1.434   8.999 -0.5169  0.0965 -0.3592
 6838SOL    HW131973   0.018   1.416   9.065 -0.2223  0.5650  0.0737
 6838SOL    HW231974   0.134   1.354   9.019  1.2579  1.0948 -0.7138
 6839SOL     OW31975   0.750   2.142   8.505 -0.8395 -0.0368 -0.0750
 6839SOL    HW131976   0.773   2.096   8.586  0.8087  0.6908 -0.1235
 6839SOL    HW231977   0.734   2.067   8.448 -2.5891  1.3018 -1.3619
 6840SOL     OW31978   3.096   1.000   9.607 -0.2160  0.3192 -0.5455
 6840SOL    HW131979   3.152   0.949   9.549  1.3257 -1.3652  2.4757
 6840SOL    HW231980   3.131   1.088   9.589 -2.0760  1.0411 -0.6111
 6841SOL     OW31981   3.920   3.179  14.773 -0.7241  0.1248 -0.4466
 6841SOL    HW131982   3.989   3.113  14.782 -2.4968 -1.3340  2.3160
 6841SOL    HW231983   3.915   3.179  14.677 -0.2367  0.0059 -0.4692
 6842SOL     OW31984   4.036   4.012   8.477  0.1203 -0.5052 -0.8000
 6842SOL    HW131985   3.961   4.064   8.450  1.1355  1.7883  0.7316
 6842SOL    HW231986   4.091   4.015   8.399  3.9932 -1.3319  1.8848
 6843SOL     OW31987   1.032   4.415  12.039 -0.2089  0.0483 -0.0281
 6843SOL    HW131988   1.098   4.467  12.085 -0.2251 -0.0208  0.0711
 6843SOL    HW231989   0.957   4.416  12.099 -0.0637 -0.3714  0.1561
 6844SOL     OW31990   0.603   0.720  11.493 -0.6105 -0.5364  0.0874
 6844SOL    HW131991   0.680   0.737  11.547  1.5341 -2.3215 -2.3936
 6844SOL    HW231992   0.640   0.743  11.408  0.1142 -1.8880  0.0286
 6845SOL     OW31993   2.954   0.794   7.747  0.1224 -0.1428  0.1981
 6845SOL    HW131994   2.964   0.707   7.787 -0.8794 -0.1127  0.5090
 6845SOL    HW231995   2.910   0.840   7.818  2.5027  0.1390  1.4920
 6846SOL     OW31996   3.924   1.703   2.669 -0.4069 -0.5562  0.2060
 6846SOL    HW131997   3.942   1.678   2.760 -0.4154  0.3604  0.4578
 6846SOL    HW231998   3.920   1.624   2.614 -2.0185 -0.5664  0.3347
 6847SOL     OW31999   4.609   4.264   7.585 -0.1055  0.0391 -0.0251
 6847SOL    HW132000   4.614   4.326   7.657 -1.3611  1.7773 -1.4571
 6847SOL    HW232001   4.625   4.314   7.505 -1.8247  0.9547  0.2175
 6848SOL     OW32002   1.159   2.631   5.140  0.0968 -0.1508 -0.3912
 6848SOL    HW132003   1.173   2.576   5.217 -0.2991  0.4253  0.0923
 6848SOL    HW232004   1.101   2.697   5.177 -0.3806  0.4591 -2.2420
 6849SOL     OW32005   1.899   2.221   7.487 -0.2760 -0.7863 -0.5074
 6849SOL    HW132006   1.932   2.165   7.557 -2.3335 -0.9319  0.3513
 6849SOL    HW232007   1.902   2.168   7.407 -0.1082 -0.8286 -0.4731
 6850SOL     OW32008   2.596   0.621   3.638  0.7727  0.1675  0.5883
 6850SOL    HW132009   2.619   0.546   3.584  4.0983  1.0640  0.7886
 6850SOL    HW232010   2.569   0.577   3.719 -0.1030  0.2872  0.3640
 6851SOL     OW32011   1.198   3.103   7.863  0.8495  0.6588 -0.0954
 6851SOL    HW132012   1.163   3.154   7.790 -0.0149 -1.5260 -1.1880
 6851SOL    HW232013   1.277   3.061   7.831  0.0391 -2.7099  2.3300
 6852SOL     OW32014   2.713   0.828   2.210  0.1382 -0.3412 -0.2719
 6852SOL    HW132015   2.636   0.877   2.181 -0.1438 -0.1268  0.8360
 6852SOL    HW232016   2.771   0.898   2.240  0.5122 -0.3475 -0.9721
 6853SOL     OW32017   3.726   3.045   4.930  0.4513 -0.2836  0.3906
 6853SOL    HW132018   3.725   3.137   4.955 -1.4817 -0.1984  0.0342
 6853SOL    HW232019   3.636   3.014   4.941  0.2830  0.2408  0.4965
 6854SOL     OW32020   1.072   3.628   1.618  0.0980 -0.5797  0.2932
 6854SOL    HW132021   1.131   3.703   1.623  2.1801 -2.2815  0.9273
 6854SOL    HW232022   1.136   3.560   1.638 -0.5819 -0.8674  1.4889
 6855SOL     OW32023   1.553   2.976  14.088  0.4329  0.4663  0.6357
 6855SOL    HW132024   1.488   3.018  14.031  0.5587 -0.6683 -0.3378
 6855SOL    HW232025   1.620   2.969  14.020 -0.5930 -0.1885 -0.2996
 6856SOL     OW32026   0.395   0.494  12.606  0.0110 -0.6308 -0.3839
 6856SOL    HW132027   0.389   0.540  12.522  0.6600  0.8934  0.4137
 6856SOL    HW232028   0.392   0.403  12.576  1.4338 -0.1089 -2.1449
 6857SOL     OW32029   2.699   2.356   3.830  0.1852 -0.4854 -0.2818
 6857SOL    HW132030   2.685   2.302   3.752 -1.8290  0.3100 -0.4808
 6857SOL    HW232031   2.772   2.407   3.795  0.0671 -1.3727 -1.8626
 6858SOL     OW32032   0.040   3.813   6.687  0.8887  0.4534  0.5567
 6858SOL    HW132033   0.125   3.787   6.723  1.2333  1.3336  0.3564
 6858SOL    HW232034   4.710   3.742   6.723  1.8467 -2.2674 -3.4046
 6859SOL     OW32035   0.562   2.979  16.350 -0.3226  0.2142  0.2671
 6859SOL    HW132036   0.528   3.048  16.407  0.8053  1.5936 -0.7400
 6859SOL    HW232037   0.505   2.904  16.369  0.3029 -0.8955 -2.1345
 6860SOL     OW32038   0.694   0.038   0.310 -0.1162 -0.5077  0.0831
 6860SOL    HW132039   0.709   4.696   0.378  1.4862  1.6181  1.8230
 6860SOL    HW232040   0.693   0.117   0.364 -0.7142 -0.8850  0.6226
 6861SOL     OW32041   1.465   0.291  14.778 -0.1361 -0.2128  0.1589
 6861SOL    HW132042   1.449   0.213  14.831  0.1347 -0.6630 -0.4219
 6861SOL    HW232043   1.482   0.356  14.846  1.1764 -0.1562 -0.2213
 6862SOL     OW32044   0.270   2.490   4.018  0.2122  0.0739  0.3462
 6862SOL    HW132045   0.276   2.409   3.968 -1.3587  0.5528 -0.6353
 6862SOL    HW232046   0.179   2.482   4.048 -0.2441 -0.7276 -1.2700
 6863SOL     OW32047   4.193   1.580  14.522  0.4054  0.0437 -0.3135
 6863SOL    HW132048   4.114   1.605  14.570  0.3907 -1.0829  0.2436
 6863SOL    HW232049   4.195   1.636  14.445 -1.0207 -0.2165 -0.5477
 6864SOL     OW32050   2.973   0.913  16.707  0.1334 -0.5714 -0.0763
 6864SOL    HW132051   3.040   0.981  16.711  1.0473 -1.5357  1.0417
 6864SOL    HW232052   2.901   0.966  16.673 -1.3001 -0.8595  2.5533
 6865SOL     OW32053   0.999   1.500   3.411 -0.1026  0.3700 -0.1021
 6865SOL    HW132054   1.020   1.417   3.454  0.2441  0.4590 -0.0987
 6865SOL    HW232055   1.026   1.562   3.479  0.1205  1.3683 -1.1086
 6866SOL     OW32056   4.609   3.141   6.106  0.0464 -0.1461  0.3974
 6866SOL    HW132057   4.618   3.069   6.043  1.6546 -0.3395  0.8406
 6866SOL    HW232058   4.690   3.191   6.116 -0.3140  0.8595 -1.6984
 6867SOL     OW32059   4.430   1.956  11.720 -0.1137  0.0797 -0.7429
 6867SOL    HW132060   4.517   1.918  11.711 -0.2329 -0.1953 -0.7146
 6867SOL    HW232061   4.453   2.049  11.722 -0.1627  0.0462  0.7714
 6868SOL     OW32062   1.729   3.790   2.106  0.4689  0.1434  0.6258
 6868SOL    HW132063   1.740   3.831   2.192 -1.0610 -0.7506  1.2403
 6868SOL    HW232064   1.808   3.736   2.109  1.1592  1.0861 -0.3438
 6869SOL     OW32065   3.337   2.200   3.043  0.1945 -0.7878  0.7578
 6869SOL    HW132066   3.319   2.206   2.950  0.2360 -2.6647  0.6368
 6869SOL    HW232067   3.315   2.291   3.061 -0.3921 -0.7989  0.0740
 6870SOL     OW32068   1.240   2.349  15.610 -0.2847 -0.0488 -0.0484
 6870SOL    HW132069   1.259   2.345  15.516  3.7026  0.2964  0.7408
 6870SOL    HW232070   1.282   2.429  15.641  0.7742 -0.3079 -0.8388
 6871SOL     OW32071   3.832   3.549   9.947 -0.1233 -0.7335 -0.2546
 6871SOL    HW132072   3.762   3.601   9.986  2.3275  3.2465 -1.1875
 6871SOL    HW232073   3.879   3.530  10.028 -1.2604  0.9126  0.8064
 6872SOL     OW32074   0.865   3.829   2.082 -0.0755 -0.4179  0.0836
 6872SOL    HW132075   0.918   3.909   2.086 -0.0608 -0.5404  2.4250
 6872SOL    HW232076   0.926   3.768   2.041  1.2101  0.5888  0.5157
 6873SOL     OW32077   4.615   1.531  10.732  0.3969  0.4762  0.2642
 6873SOL    HW132078   4.562   1.610  10.745  1.7226  1.9328 -3.1823
 6873SOL    HW232079   4.701   1.569  10.716  0.1625  0.4086 -1.1943
 6874SOL     OW32080   0.395   2.761  10.715 -0.2973  0.3288  0.1726
 6874SOL    HW132081   0.320   2.809  10.679  0.8249  0.8622 -1.4497
 6874SOL    HW232082   0.343   2.688  10.748  1.0241  0.0439  1.6437
 6875SOL     OW32083   3.869   3.076   7.700 -0.2817  0.4384 -0.0557
 6875SOL    HW132084   3.871   3.139   7.771 -0.4853  0.1791  0.1812
 6875SOL    HW232085   3.775   3.065   7.716  0.0763 -1.0586  1.0194
 6876SOL     OW32086   0.140   1.861   3.263 -0.3280 -0.3127  0.4887
 6876SOL    HW132087   0.100   1.943   3.294  0.2059 -0.0011  0.3584
 6876SOL    HW232088   0.087   1.821   3.194 -1.3779  1.5562  0.1883
 6877SOL     OW32089   4.554   4.366   1.775  0.1747 -0.3107 -1.1111
 6877SOL    HW132090   4.509   4.282   1.778  0.7436 -0.6560 -2.6398
 6877SOL    HW232091   4.535   4.404   1.861  1.1956  0.5345 -1.2481
 6878SOL     OW32092   1.680   3.999   9.324  1.1062 -0.4355 -0.3414
 6878SOL    HW132093   1.776   3.994   9.315  1.1337 -0.6317  0.0447
 6878SOL    HW232094   1.666   3.974   9.415  0.5613  0.1233 -0.2714
 6879SOL     OW32095   3.926   3.148   2.756 -0.0306 -1.0859 -0.6115
 6879SOL    HW132096   3.950   3.145   2.664 -0.4247 -0.2345 -0.7387
 6879SOL    HW232097   3.857   3.082   2.761  0.7877 -1.8661  0.5529
 6880SOL     OW32098   0.346   2.028  16.227  0.0463 -0.1094 -0.2032
 6880SOL    HW132099   0.332   2.030  16.133  0.5090  2.3243 -0.2072
 6880SOL    HW232100   0.303   2.103  16.269  1.9422  0.7382  0.2363
 6881SOL     OW32101   3.394   4.643   2.174 -0.4575 -0.0102 -0.2507
 6881SOL    HW132102   3.424   4.690   2.252 -3.0819 -1.6050  1.7447
 6881SOL    HW232103   3.302   4.670   2.171 -0.0211  1.3128 -1.3681
 6882SOL     OW32104   1.208   0.406  15.005  0.1763 -0.1890 -0.7666
 6882SOL    HW132105   1.219   0.480  15.064  0.5784 -0.1936 -0.8371
 6882SOL    HW232106   1.272   0.429  14.937 -1.7370  0.3013 -2.4228
 6883SOL     OW32107   0.516   1.106   6.309  0.0546  0.5004  0.0533
 6883SOL    HW132108   0.594   1.056   6.283 -1.3667 -2.7167  1.9128
 6883SOL    HW232109   0.522   1.187   6.259 -0.7697  0.0254 -0.8383
 6884SOL     OW32110   3.787   0.013  16.736  0.0780 -0.3019 -0.3069
 6884SOL    HW132111   3.714   0.008  16.674  0.6714 -0.1359 -1.0171
 6884SOL    HW232112   3.771   0.093  16.787 -1.0317 -0.4581 -0.4055
 6885SOL     OW32113   2.242   4.172   6.244  0.4153 -0.0873  0.1766
 6885SOL    HW132114   2.174   4.168   6.310  1.1529  1.9034  1.0483
 6885SOL    HW232115   2.288   4.089   6.261  3.4762  1.3381 -1.0583
 6886SOL     OW32116   3.967   0.520   9.698 -0.5695 -0.1164 -0.4259
 6886SOL    HW132117   4.038   0.536   9.635  0.0397 -1.7494 -0.1536
 6886SOL    HW232118   3.915   0.467   9.638 -1.0894 -0.5133  0.3766
 6887SOL     OW32119   4.105   3.814  10.913  0.3266 -0.1197  0.6904
 6887SOL    HW132120   4.126   3.769  10.831 -0.1837  1.1440 -0.1227
 6887SOL    HW232121   4.019   3.773  10.923 -0.8318  1.9835 -0.8407
 6888SOL     OW32122   4.510   2.600  10.322 -0.1844 -0.4034  0.4917
 6888SOL    HW132123   4.602   2.572  10.333  0.3472  1.0762 -0.2827
 6888SOL    HW232124   4.466   2.517  10.303 -0.8618  0.1316 -0.2293
 6889SOL     OW32125   4.632   1.167   6.425  0.3687  0.4815 -0.2851
 6889SOL    HW132126   4.581   1.229   6.373  0.0850  1.1192  0.7407
 6889SOL    HW232127   4.615   1.199   6.513 -0.6103 -2.1228  0.4717
 6890SOL     OW32128   1.672   4.385  15.898  0.7735  0.5303  0.1315
 6890SOL    HW132129   1.580   4.372  15.919  0.4015  0.8879 -1.2754
 6890SOL    HW232130   1.720   4.331  15.960  2.1238  1.5140 -0.0429
 6891SOL     OW32131   3.037   3.895   9.475  0.2746 -0.2495  0.4600
 6891SOL    HW132132   3.079   3.809   9.474 -0.6247 -0.6881 -0.4633
 6891SOL    HW232133   3.094   3.948   9.531 -0.8197  0.1858  1.1564
 6892SOL     OW32134   3.203   2.740   8.244 -0.3142  0.0824 -0.8118
 6892SOL    HW132135   3.221   2.795   8.168 -0.1232 -1.6440 -2.0112
 6892SOL    HW232136   3.175   2.658   8.203 -1.7843 -0.1134  0.5614
 6893SOL     OW32137   4.060   3.553  13.204  0.4734  0.7359  0.2743
 6893SOL    HW132138   4.047   3.518  13.116 -3.6374  0.2313  1.0988
 6893SOL    HW232139   4.054   3.647  13.187  2.3075  0.5262 -1.5819
 6894SOL     OW32140   3.256   1.961  17.672 -0.0902 -0.5347 -0.3291
 6894SOL    HW132141   3.286   2.040  17.626 -1.3865  0.2778  0.2263
 6894SOL    HW232142   3.326   1.896  17.671  1.3154  0.9818 -0.5260
 6895SOL     OW32143   3.402   3.965   2.792 -0.1775  0.1363  0.4927
 6895SOL    HW132144   3.497   3.950   2.799  0.2394  1.6100 -2.2677
 6895SOL    HW232145   3.395   3.937   2.701 -0.5827 -0.1301  0.6053
 6896SOL     OW32146   2.408   3.787   8.842 -0.0616 -0.0231 -0.1058
 6896SOL    HW132147   2.316   3.766   8.857 -0.4985  1.3687 -0.8524
 6896SOL    HW232148   2.401   3.864   8.787 -3.1116 -0.5958 -0.5088
 6897SOL     OW32149   3.738   3.867  15.766  0.1729 -0.1167 -0.4370
 6897SOL    HW132150   3.711   3.908  15.849 -1.8436 -2.3269 -0.0051
 6897SOL    HW232151   3.711   3.934  15.704  0.5737  0.1840 -0.2919
 6898SOL     OW32152   2.919   0.072   7.908 -0.5523  0.6092  0.3241
 6898SOL    HW132153   2.851   0.071   7.976 -0.9147  1.1210 -0.0303
 6898SOL    HW232154   2.964   0.157   7.909 -0.3329  0.4719  2.1348
 6899SOL     OW32155   2.162   4.315   2.863 -0.6138 -0.1632 -0.2861
 6899SOL    HW132156   2.106   4.257   2.812  0.6919 -1.3096 -0.4390
 6899SOL    HW232157   2.103   4.352   2.929 -1.0194 -0.3679 -0.5384
 6900SOL     OW32158   0.909   0.520  11.212 -0.7749  0.4608 -0.0933
 6900SOL    HW132159   0.916   0.587  11.143 -1.6393 -0.5954 -1.2077
 6900SOL    HW232160   0.934   0.574  11.286  1.6998 -0.0063 -0.5651
 6901SOL     OW32161   3.994   1.090   5.725  0.4028 -0.8752  0.4931
 6901SOL    HW132162   3.987   1.172   5.677 -1.8792 -1.0976  0.4425
 6901SOL    HW232163   3.965   1.025   5.660 -0.3577 -1.0385  0.9911
 6902SOL     OW32164   3.996   4.023   2.897  0.2793  0.6234 -0.5707
 6902SOL    HW132165   4.034   4.109   2.916 -1.8349  1.1429  1.2853
 6902SOL    HW232166   3.979   3.990   2.985 -1.2546  0.2618 -0.9973
 6903SOL     OW32167   1.637   0.783   5.856 -0.1347  0.5171 -0.1688
 6903SOL    HW132168   1.625   0.790   5.950 -2.5248  0.1895 -0.4488
 6903SOL    HW232169   1.565   0.833   5.818 -1.2860 -1.9563 -1.2614
 6904SOL     OW32170   0.727   0.559  14.325  0.3668  0.8052 -0.4246
 6904SOL    HW132171   0.686   0.474  14.310  2.2764 -0.0434 -0.8012
 6904SOL    HW232172   0.676   0.608  14.261 -1.1777  1.1840  1.0752
 6905SOL     OW32173   2.818   1.185   2.897  0.1505  0.3119 -0.2449
 6905SOL    HW132174   2.850   1.259   2.846 -0.7268  0.1962 -0.9752
 6905SOL    HW232175   2.842   1.214   2.985 -1.4487  1.1841 -0.0897
 6906SOL     OW32176   3.300   2.392   2.156 -0.3307 -0.1604  0.1271
 6906SOL    HW132177   3.222   2.345   2.125 -1.1230  1.7126 -0.7377
 6906SOL    HW232178   3.307   2.472   2.104  0.5506 -0.2624  0.0867
 6907SOL     OW32179   2.663   4.166   9.738 -0.4438 -0.5408 -0.1491
 6907SOL    HW132180   2.751   4.185   9.771 -1.6738  4.6215  0.1651
 6907SOL    HW232181   2.617   4.142   9.818 -1.4660 -1.2497 -0.9403
 6908SOL     OW32182   3.946   1.249  12.125  0.0260  0.3028 -0.2204
 6908SOL    HW132183   4.006   1.205  12.064  0.0899 -0.2847  0.2707
 6908SOL    HW232184   3.885   1.177  12.138 -1.7678  2.1804  1.4664
 6909SOL     OW32185   2.541   3.771   7.778  0.7015 -0.4754 -0.7556
 6909SOL    HW132186   2.455   3.810   7.761  0.6611  1.0302  2.8978
 6909SOL    HW232187   2.527   3.679   7.756 -2.3057  0.6088 -3.5078
 6910SOL     OW32188   3.508   3.736   8.720  0.0030  0.2355 -0.1773
 6910SOL    HW132189   3.603   3.734   8.728 -0.1489 -0.7737  1.5744
 6910SOL    HW232190   3.490   3.660   8.664 -0.6186 -0.8554  1.4914
 6911SOL     OW32191   2.007   3.492   7.178  0.0688  0.5230 -0.0398
 6911SOL    HW132192   1.977   3.530   7.096 -1.3891 -1.2523 -0.3313
 6911SOL    HW232193   1.948   3.417   7.175  0.8164 -0.1976  3.3230
 6912SOL     OW32194   4.560   0.320  14.626 -0.1554  0.0176  0.4052
 6912SOL    HW132195   4.552   0.225  14.617  1.5950 -0.1881  0.9557
 6912SOL    HW232196   4.650   0.345  14.602 -0.4767 -2.2390 -3.1549
 6913SOL     OW32197   3.822   4.377   3.290 -0.1920  0.1382  0.9387
 6913SOL    HW132198   3.732   4.394   3.261  0.0023 -0.7022 -0.2110
 6913SOL    HW232199   3.850   4.464   3.263 -1.7063 -0.4733 -2.6439
 6914SOL     OW32200   4.016   3.893   2.655  0.1960  0.3949  0.1846
 6914SOL    HW132201   4.007   3.952   2.730  0.7721  1.6394 -0.7147
 6914SOL    HW232202   4.105   3.871   2.681 -0.3433 -1.2006  0.6664
 6915SOL     OW32203   0.045   0.266   0.728  0.3848  0.3203  0.2900
 6915SOL    HW132204   0.075   0.193   0.782  0.4281 -1.3876 -2.0606
 6915SOL    HW232205   0.121   0.323   0.740 -1.1565  2.5147 -0.3586
 6916SOL     OW32206   3.276   3.355   0.813 -0.0298 -0.1257  0.1656
 6916SOL    HW132207   3.317   3.407   0.744 -1.3202 -0.6885 -1.0186
 6916SOL    HW232208   3.350   3.337   0.871  0.8697  1.1933 -0.5641
 6917SOL     OW32209   3.434   0.558  15.526  0.5365 -0.3435  0.6476
 6917SOL    HW132210   3.373   0.486  15.543 -0.0737 -0.1347 -0.6337
 6917SOL    HW232211   3.511   0.528  15.574  1.8057 -1.1801 -1.9484
 6918SOL     OW32212   2.199   3.714  14.242 -0.1174  0.3009  0.0476
 6918SOL    HW132213   2.223   3.637  14.294  0.0686  1.6811  1.9826
 6918SOL    HW232214   2.234   3.689  14.156  0.2208  0.3049  0.1841
 6919SOL     OW32215   0.908   0.851   4.123  0.2260 -0.1661 -0.1138
 6919SOL    HW132216   0.993   0.856   4.167 -0.4192 -2.1663  1.3263
 6919SOL    HW232217   0.886   0.944   4.130  1.0760  0.2832 -3.5698
 6920SOL     OW32218   1.779   0.919   8.855 -0.0247 -0.3084 -0.1313
 6920SOL    HW132219   1.725   0.998   8.866 -2.0593 -1.4635 -1.7936
 6920SOL    HW232220   1.768   0.879   8.942 -1.1474 -0.5663 -0.3810
 6921SOL     OW32221   0.968   3.738   5.753 -0.5982  0.0941 -0.0987
 6921SOL    HW132222   1.015   3.662   5.789 -0.0474  0.8617  0.8065
 6921SOL    HW232223   0.954   3.793   5.831 -0.5029  0.1945 -0.1533
 6922SOL     OW32224   3.652   3.142   2.921 -0.0328 -0.1602  0.4563
 6922SOL    HW132225   3.715   3.213   2.933  0.2062 -0.0776 -1.2331
 6922SOL    HW232226   3.572   3.174   2.963  0.0104  0.3834  0.1268
 6923SOL     OW32227   1.752   0.781   3.134 -0.1849  0.2881  0.2459
 6923SOL    HW132228   1.817   0.735   3.081  0.7330  2.8204 -0.8250
 6923SOL    HW232229   1.792   0.800   3.219 -0.6643  0.6034  0.4029
 6924SOL     OW32230   0.930   4.034  10.576 -0.1073  1.0255 -0.1005
 6924SOL    HW132231   0.977   4.016  10.494 -0.5314 -0.9818  0.0817
 6924SOL    HW232232   0.844   4.032  10.534 -0.4533 -1.4090  0.7195
 6925SOL     OW32233   3.142   2.246   4.360  0.0441  0.3850  0.2013
 6925SOL    HW132234   3.109   2.241   4.270  1.5175  2.1934 -0.4194
 6925SOL    HW232235   3.204   2.174   4.372  0.7610  1.0199  0.2471
 6926SOL     OW32236   4.394   2.266   5.946 -0.0014  0.5735  0.5478
 6926SOL    HW132237   4.323   2.238   5.888  1.8287  0.3445 -1.5958
 6926SOL    HW232238   4.427   2.184   5.983  2.4965  1.5880  0.5370
 6927SOL     OW32239   1.927   0.015   8.973  0.4584  0.2312 -0.0826
 6927SOL    HW132240   1.853   0.062   9.010 -0.7074  0.0480 -2.1874
 6927SOL    HW232241   1.897   4.715   8.885 -1.9702  3.8668 -0.2290
 6928SOL     OW32242   3.436   0.958  12.185 -0.1008  0.7193  0.6145
 6928SOL    HW132243   3.342   0.968  12.201 -0.4079 -1.8607  0.5147
 6928SOL    HW232244   3.442   0.927  12.095  1.5888  1.6675  0.4203
 6929SOL     OW32245   1.933   2.160   3.960  0.3681  0.1661  0.9237
 6929SOL    HW132246   1.943   2.134   4.051 -0.0530 -1.9018  0.3819
 6929SOL    HW232247   1.850   2.125   3.928  0.2770  2.0650 -0.9517
 6930SOL     OW32248   0.893   1.662  16.540  0.1741 -0.7517 -0.3039
 6930SOL    HW132249   0.873   1.628  16.453  3.0203 -2.3182 -0.3168
 6930SOL    HW232250   0.812   1.668  16.592  0.1754 -0.8548 -0.2898
 6931SOL     OW32251   0.061   1.753   8.092  0.5776  0.3750  0.7607
 6931SOL    HW132252   0.069   1.807   8.013 -1.7961 -0.5782 -0.1252
 6931SOL    HW232253   0.059   1.666   8.053 -2.3803  1.4519 -1.4424
 6932SOL     OW32254   3.321   2.899   2.220 -0.1533  0.0242  0.0273
 6932SOL    HW132255   3.325   2.959   2.146  1.1979 -0.1061  0.0114
 6932SOL    HW232256   3.296   2.958   2.292  2.1787 -2.2274  2.6723
 6933SOL     OW32257   2.536   2.514   7.505  0.0927  0.6033 -0.4951
 6933SOL    HW132258   2.577   2.477   7.426  3.8280  1.7388  0.9265
 6933SOL    HW232259   2.605   2.494   7.569 -0.5549  1.7595  0.5571
 6934SOL     OW32260   3.245   0.121   3.595 -0.2474  0.2030 -0.5073
 6934SOL    HW132261   3.259   0.034   3.634 -1.2624 -0.4163 -1.5393
 6934SOL    HW232262   3.336   0.140   3.571  0.3572 -1.7288  0.2953
 6935SOL     OW32263   1.520   2.555   5.996  0.2729 -0.3855 -0.0363
 6935SOL    HW132264   1.466   2.613   6.050  0.2299  0.2896 -0.7979
 6935SOL    HW232265   1.454   2.526   5.932  0.5460 -0.9253 -0.0715
 6936SOL     OW32266   0.061   3.603   8.647 -0.7026  0.8250  0.1464
 6936SOL    HW132267   0.101   3.665   8.707  0.9279  2.2027 -2.3761
 6936SOL    HW232268   0.137   3.598   8.590 -1.0936  0.3499 -0.3384
 6937SOL     OW32269   4.444   1.138   2.297  0.1821  0.1082 -0.2036
 6937SOL    HW132270   4.520   1.186   2.330  1.2606 -2.0416  0.4063
 6937SOL    HW232271   4.478   1.052   2.271  1.6055  0.4855  0.4335
 6938SOL     OW32272   1.866   0.510   4.865  0.2359 -0.0297  0.1375
 6938SOL    HW132273   1.882   0.576   4.799 -1.8278  0.8688  0.5270
 6938SOL    HW232274   1.775   0.486   4.847  0.4102 -0.5648 -0.0339
 6939SOL     OW32275   0.434   2.577   5.766 -0.3800 -0.3331  0.0389
 6939SOL    HW132276   0.349   2.552   5.803  0.3884 -2.3756  0.4300
 6939SOL    HW232277   0.477   2.492   5.777  2.4433  1.1169  0.2715
 6940SOL     OW32278   0.884   3.643   5.257  0.0182  0.0461  0.1793
 6940SOL    HW132279   0.804   3.608   5.219 -0.6620  2.3809 -0.5003
 6940SOL    HW232280   0.868   3.625   5.350 -2.6787 -0.4391 -0.3785
 6941SOL     OW32281   0.471   2.456   8.402  0.1796 -0.2403  0.2403
 6941SOL    HW132282   0.482   2.524   8.335 -0.7032  2.8722  3.2381
 6941SOL    HW232283   0.472   2.376   8.350  1.0779 -0.4361  0.5613
 6942SOL     OW32284   4.418   2.000  10.762  0.5730 -0.3591 -0.0342
 6942SOL    HW132285   4.382   2.037  10.681 -0.6507  0.8008  1.0433
 6942SOL    HW232286   4.347   2.020  10.823 -0.5738 -0.4771 -1.3109
 6943SOL     OW32287   3.531   0.520  12.771 -0.2478  0.2970 -0.2889
 6943SOL    HW132288   3.528   0.431  12.806  0.7546 -0.5004 -2.2001
 6943SOL    HW232289   3.458   0.515  12.709 -0.0470  0.8953 -0.5773
 6944SOL     OW32290   3.209   4.120   5.618 -0.1289  0.5284 -0.6395
 6944SOL    HW132291   3.271   4.079   5.557 -0.8123  0.8357 -1.5489
 6944SOL    HW232292   3.227   4.082   5.703 -0.2494 -1.4143 -1.4903
 6945SOL     OW32293   3.269   1.303   5.383  0.0063  0.5535 -0.4140
 6945SOL    HW132294   3.279   1.386   5.336  0.4945  0.2223 -0.8875
 6945SOL    HW232295   3.193   1.268   5.338 -1.5428  1.1612  1.7208
 6946SOL     OW32296   1.827   1.228   1.995  0.5325 -0.1751 -0.4365
 6946SOL    HW132297   1.898   1.220   1.932  0.5435 -0.5878 -0.3738
 6946SOL    HW232298   1.752   1.237   1.936  0.1499 -0.2307  0.0352
 6947SOL     OW32299   0.990   3.551  10.238  0.4489  0.2570 -0.1077
 6947SOL    HW132300   0.920   3.489  10.257  1.8265 -1.6787 -1.2451
 6947SOL    HW232301   1.047   3.497  10.182  2.1720  0.2523  1.6178
 6948SOL     OW32302   3.127   0.332   3.714  0.1358 -0.3846 -0.9493
 6948SOL    HW132303   3.175   0.257   3.678  1.4579 -0.8934  1.9299
 6948SOL    HW232304   3.184   0.348   3.789  1.3196 -0.3075 -1.8621
 6949SOL     OW32305   2.275   3.655  17.464  0.4072  0.6209 -0.2912
 6949SOL    HW132306   2.226   3.737  17.454 -0.8847 -0.0338  0.5555
 6949SOL    HW232307   2.222   3.596  17.519  0.3070 -0.3494 -1.4197
 6950SOL     OW32308   2.349   4.500   6.168 -0.2295  0.1231 -0.1902
 6950SOL    HW132309   2.366   4.419   6.121 -0.6604 -1.3425  2.1916
 6950SOL    HW232310   2.383   4.474   6.254  1.3630  0.2054 -0.7906
 6951SOL     OW32311   2.935   0.859   7.310  0.5786 -0.8861  0.1865
 6951SOL    HW132312   3.026   0.857   7.341  0.2581 -1.6363  1.0755
 6951SOL    HW232313   2.925   0.953   7.329  0.3300 -1.0820  1.0421
 6952SOL     OW32314   1.496   1.599  11.718  0.5990 -0.2734  0.1614
 6952SOL    HW132315   1.445   1.630  11.792 -0.3341  1.4078 -1.1671
 6952SOL    HW232316   1.589   1.615  11.736  0.5384  2.3194 -1.9002
 6953SOL     OW32317   0.128   3.453   1.086  0.1656 -0.2456  0.1029
 6953SOL    HW132318   0.101   3.414   1.169  1.7235  0.7034  1.0607
 6953SOL    HW232319   0.217   3.420   1.082  0.1356 -0.3336  0.1561
 6954SOL     OW32320   2.678   1.292   1.891 -0.2355 -0.0614 -0.1080
 6954SOL    HW132321   2.593   1.254   1.868  0.3575 -1.2319 -0.3412
 6954SOL    HW232322   2.647   1.365   1.945  0.6757  0.5156 -0.3604
 6955SOL     OW32323   1.899   1.701   8.739 -0.3709 -0.2243  0.4749
 6955SOL    HW132324   1.960   1.630   8.717 -2.0742 -1.2137 -1.0460
 6955SOL    HW232325   1.962   1.771   8.725  2.9025 -3.3524 -0.5373
 6956SOL     OW32326   3.177   3.414  12.882  0.1339 -0.0611 -0.2805
 6956SOL    HW132327   3.251   3.405  12.822  0.9050  1.3458  0.4836
 6956SOL    HW232328   3.136   3.485  12.834  1.4008  0.4716 -0.5727
 6957SOL     OW32329   0.692   3.585   2.994 -0.8694 -0.2864  0.1982
 6957SOL    HW132330   0.635   3.549   2.927  1.8000 -0.8119 -1.7786
 6957SOL    HW232331   0.770   3.534   2.974 -0.1129  1.2300 -0.6825
 6958SOL     OW32332   2.153   1.922   4.124 -0.3820 -0.0896  0.2648
 6958SOL    HW132333   2.134   1.834   4.092 -1.1953 -0.1710  0.9684
 6958SOL    HW232334   2.247   1.915   4.109 -0.1634  3.3386 -0.1424
 6959SOL     OW32335   2.052   3.756   6.615  0.0702 -0.3838 -0.3773
 6959SOL    HW132336   2.060   3.729   6.706  1.3519  0.4779 -0.2423
 6959SOL    HW232337   2.017   3.672   6.584  1.3983 -0.5350 -1.4659
 6960SOL     OW32338   1.372   4.278   0.019 -0.2571  0.0035  0.0555
 6960SOL    HW132339   1.428   4.289   0.096 -0.8226 -4.1706  1.0352
 6960SOL    HW232340   1.324   4.361   0.026 -1.1166 -0.7206  2.8942
 6961SOL     OW32341   0.352   0.139  11.577 -0.3372  0.4822  0.2201
 6961SOL    HW132342   0.430   0.093  11.547  0.8038  1.8999  1.0448
 6961SOL    HW232343   0.348   0.225  11.535  4.1760  0.8957  0.6572
 6962SOL     OW32344   2.409   1.680   1.098  0.1853  0.2306 -0.2094
 6962SOL    HW132345   2.465   1.604   1.088 -0.5124 -0.9425  4.7299
 6962SOL    HW232346   2.358   1.681   1.017 -1.5866  0.9722  0.9209
 6963SOL     OW32347   4.078   1.567   7.219 -0.2384 -0.0906  0.0662
 6963SOL    HW132348   4.009   1.512   7.183  0.1970 -2.1698  2.4237
 6963SOL    HW232349   4.034   1.649   7.238 -3.6328 -2.2951  1.6265
 6964SOL     OW32350   3.698   0.760  12.820 -0.1673 -0.0086  0.3077
 6964SOL    HW132351   3.755   0.765  12.744 -0.4352  2.4763  0.2695
 6964SOL    HW232352   3.645   0.681  12.811 -0.6880  0.3469  0.2024
 6965SOL     OW32353   0.947   4.103   7.084 -0.4795 -0.1352  0.2750
 6965SOL    HW132354   0.864   4.056   7.076 -0.4324 -0.4491  1.6280
 6965SOL    HW232355   0.932   4.180   7.029 -1.1537  0.3743  1.1751
 6966SOL     OW32356   1.440   0.522   5.406 -0.5614 -0.0230 -0.4643
 6966SOL    HW132357   1.449   0.609   5.445  0.3425  0.0846 -0.9086
 6966SOL    HW232358   1.393   0.548   5.326 -0.5238 -0.7215 -0.7166
 6967SOL     OW32359   1.968   0.993   5.159 -0.3308  0.1361  0.3863
 6967SOL    HW132360   2.030   0.920   5.163  1.3869  1.5111 -1.3155
 6967SOL    HW232361   2.025   1.056   5.115 -0.2383  0.2091  0.6100
 6968SOL     OW32362   1.332   1.727   0.704 -0.2040  0.2496 -0.5354
 6968SOL    HW132363   1.293   1.735   0.791  1.2283 -0.4745  0.1750
 6968SOL    HW232364   1.259   1.766   0.656 -1.1886 -0.1156  0.6772
 6969SOL     OW32365   0.869   2.770  16.382 -0.2810 -0.2740  0.4621
 6969SOL    HW132366   0.835   2.816  16.458 -0.7038 -0.2433  0.2577
 6969SOL    HW232367   0.898   2.687  16.418  2.6687 -0.7113 -2.9336
 6970SOL     OW32368   0.123   2.758   3.540  0.0858  0.4256 -0.1817
 6970SOL    HW132369   0.195   2.714   3.586  0.6765 -1.9433 -3.3566
 6970SOL    HW232370   0.057   2.734   3.605  0.7048 -0.7475  0.0131
 6971SOL     OW32371   0.668   0.712   0.121 -0.5749 -0.2208  0.4873
 6971SOL    HW132372   0.756   0.744   0.143  0.2870 -1.5818 -0.9123
 6971SOL    HW232373   0.664   0.625   0.161  0.2197 -0.6584 -0.3645
 6972SOL     OW32374   3.348   2.292   3.997  0.4166 -0.2488  0.0026
 6972SOL    HW132375   3.371   2.364   4.055 -0.6590  0.1961 -0.1372
 6972SOL    HW232376   3.389   2.219   4.043 -0.1926 -0.6788 -0.1414
 6973SOL     OW32377   3.522   0.834  13.494  0.3258 -0.0006  0.3607
 6973SOL    HW132378   3.558   0.776  13.427 -1.9543 -0.6712 -0.2833
 6973SOL    HW232379   3.538   0.921  13.459  0.0427  0.3888  1.1980
 6974SOL     OW32380   2.772   1.833  17.411 -0.0360 -0.0989  0.3141
 6974SOL    HW132381   2.737   1.905  17.359 -1.5836 -0.4707  0.8607
 6974SOL    HW232382   2.748   1.860  17.500  0.3038 -1.2702  0.7650
 6975SOL     OW32383   3.218   3.372   3.293  0.5025  0.1726  0.6274
 6975SOL    HW132384   3.272   3.446   3.321  0.8251  0.5819 -1.0698
 6975SOL    HW232385   3.186   3.401   3.208 -1.1275  0.3229  1.2921
 6976SOL     OW32386   4.110   1.105   2.158 -0.7003  0.0231  0.2465
 6976SOL    HW132387   4.120   1.017   2.196 -0.8992 -0.7452 -1.4609
 6976SOL    HW232388   4.160   1.096   2.077 -0.2307 -1.3918  0.6871
 6977SOL     OW32389   1.909   3.641   2.523  0.3024 -0.6371 -0.8058
 6977SOL    HW132390   1.915   3.649   2.618 -1.1432 -2.8696 -0.5207
 6977SOL    HW232391   1.843   3.572   2.516 -2.1735  1.8502 -2.0546
 6978SOL     OW32392   0.146   4.573   4.590  0.0876 -0.6282  0.7411
 6978SOL    HW132393   0.082   4.623   4.641 -0.0886  0.6727 -0.7655
 6978SOL    HW232394   0.212   4.636   4.562 -1.2151  0.9632  1.2199
 6979SOL     OW32395   4.009   3.021   8.040  0.1066 -0.7654 -0.3009
 6979SOL    HW132396   4.081   3.053   8.094 -0.8292 -1.1830  1.1697
 6979SOL    HW232397   3.978   3.099   7.994  1.4084 -0.5341 -0.7944
 6980SOL     OW32398   1.652   3.937  11.784 -0.5393 -0.0445 -0.2936
 6980SOL    HW132399   1.636   4.014  11.729 -1.4308  0.7665  1.0737
 6980SOL    HW232400   1.585   3.876  11.754  1.8684 -1.9852 -1.7740
 6981SOL     OW32401   1.747   3.432   3.799  0.0714 -0.2540 -0.1050
 6981SOL    HW132402   1.679   3.495   3.822  0.6129  0.3808 -0.2759
 6981SOL    HW232403   1.733   3.374   3.873  0.6947  2.0303  1.7782
 6982SOL     OW32404   4.166   2.048  10.554 -0.3333 -0.2182  0.1905
 6982SOL    HW132405   4.213   1.965  10.559 -1.0540 -0.7925 -2.6236
 6982SOL    HW232406   4.082   2.028  10.512  0.2866 -0.6636 -0.8271
 6983SOL     OW32407   0.493   4.454  16.935 -0.1280  0.6211 -0.3414
 6983SOL    HW132408   0.519   4.497  17.017  0.5272 -0.5656  0.0720
 6983SOL    HW232409   0.424   4.516  16.911 -0.3048  0.7120  0.3975
 6984SOL     OW32410   1.508   1.125   2.923 -0.0494  0.4497  0.1058
 6984SOL    HW132411   1.592   1.159   2.893  0.4433 -0.8404  0.0465
 6984SOL    HW232412   1.530   1.040   2.962 -1.3518 -0.3361 -0.8734
 6985SOL     OW32413   0.731   2.669   6.831  0.1207  0.1393 -0.3060
 6985SOL    HW132414   0.777   2.623   6.902 -1.0055 -1.3484 -0.5530
 6985SOL    HW232415   0.754   2.761   6.842  2.0193 -0.4606  0.8503
 6986SOL     OW32416   3.041   0.190   7.315 -0.0021  0.5688  0.0899
 6986SOL    HW132417   3.105   0.205   7.385  0.7524 -2.5281  0.0425
 6986SOL    HW232418   3.079   0.118   7.266  1.5423  1.7269 -0.4343
 6987SOL     OW32419   2.098   1.847   7.925 -0.6914 -0.4845 -0.6006
 6987SOL    HW132420   2.154   1.922   7.942 -3.3519  0.4332  4.1068
 6987SOL    HW232421   2.050   1.845   8.008  1.3335  0.0190  0.5979
 6988SOL     OW32422   1.007   4.585  14.960  0.2724  0.1932 -0.6500
 6988SOL    HW132423   1.069   4.525  14.919 -0.3622 -1.3738  0.7285
 6988SOL    HW232424   1.048   4.666  14.929 -1.1686  1.2522  0.2447
 6989SOL     OW32425   2.696   3.737  11.653 -0.3706  0.0486  0.2299
 6989SOL    HW132426   2.771   3.700  11.608  1.0997  0.1621  2.5836
 6989SOL    HW232427   2.628   3.707  11.593  1.2488  0.3467 -1.7492
 6990SOL     OW32428   0.801   4.222  11.913 -0.4635 -0.0346 -0.5845
 6990SOL    HW132429   0.750   4.177  11.845 -0.9730 -0.4179  0.0526
 6990SOL    HW232430   0.769   4.310  11.890 -1.2459  0.1073  1.0228
 6991SOL     OW32431   3.811   0.456   4.663 -0.3663  0.0512  0.7177
 6991SOL    HW132432   3.795   0.403   4.585 -0.2484  1.3452 -0.1838
 6991SOL    HW232433   3.847   0.400   4.732 -1.4072 -0.4618  0.8471
 6992SOL     OW32434   3.994   0.629   2.366 -0.8171  0.0347 -0.1667
 6992SOL    HW132435   3.968   0.561   2.304  0.6927 -0.4356 -0.2819
 6992SOL    HW232436   4.047   0.581   2.429 -1.1018 -0.1470 -0.0686
 6993SOL     OW32437   4.065   1.250   6.179 -0.4128  0.1550  0.1346
 6993SOL    HW132438   3.996   1.215   6.124  0.6522  0.3676 -1.3333
 6993SOL    HW232439   4.014   1.304   6.239 -0.7774  0.6719 -0.6432
 6994SOL     OW32440   3.043   3.463   8.582  0.1024  0.4016  0.0102
 6994SOL    HW132441   3.107   3.525   8.617  1.6319 -0.4387 -1.3019
 6994SOL    HW232442   3.071   3.385   8.630 -1.4659  0.2848  0.7569
 6995SOL     OW32443   0.938   2.974   8.709 -0.8327  0.0737 -0.3711
 6995SOL    HW132444   0.982   2.900   8.753 -0.0631  0.7269 -0.0482
 6995SOL    HW232445   0.998   2.992   8.637 -0.4650 -0.9814 -0.3309
 6996SOL     OW32446   1.380   1.594   7.499 -0.1981 -0.1450  0.4948
 6996SOL    HW132447   1.419   1.577   7.584  1.1548 -0.3317 -0.1641
 6996SOL    HW232448   1.318   1.666   7.508  0.9483  0.9501 -0.3522
 6997SOL     OW32449   3.248   2.661   2.975  0.0286 -0.2168 -0.0953
 6997SOL    HW132450   3.238   2.659   2.880  1.5263 -0.7075 -0.2335
 6997SOL    HW232451   3.339   2.632   2.979  0.1042 -0.0054 -0.3502
 6998SOL     OW32452   0.515   3.524  12.497 -0.4606  0.0863  0.3883
 6998SOL    HW132453   0.572   3.516  12.574 -1.3444  1.4300  1.1823
 6998SOL    HW232454   0.449   3.581  12.536 -0.3279  0.3504  0.2278
 6999SOL     OW32455   1.519   2.957   4.286  0.9159 -0.2065  0.1229
 6999SOL    HW132456   1.485   2.891   4.346 -0.9194 -0.6765 -1.4177
 6999SOL    HW232457   1.551   3.026   4.344 -0.2915  0.0737  0.4589
 7000SOL     OW32458   1.672   4.006   8.130 -0.4465  0.5843 -0.0478
 7000SOL    HW132459   1.707   3.935   8.184  0.5818  0.0287 -1.4510
 7000SOL    HW232460   1.585   3.970   8.111 -0.6818 -0.4389  2.8697
 7001SOL     OW32461   3.767   1.414   3.191 -0.1166 -0.5503 -0.2448
 7001SOL    HW132462   3.819   1.458   3.124  0.0197  0.0064  0.2355
 7001SOL    HW232463   3.764   1.481   3.259 -1.5401 -0.3578 -0.4923
 7002SOL     OW32464   0.938   1.619   5.517  0.3560  0.1620 -0.5039
 7002SOL    HW132465   0.886   1.695   5.543  0.5109  0.5567 -1.3678
 7002SOL    HW232466   0.975   1.663   5.440  2.0570  1.2060  0.9165
 7003SOL     OW32467   4.388   0.119  16.493 -0.2342  0.1850 -0.0075
 7003SOL    HW132468   4.316   0.062  16.519  0.0063 -0.4491 -0.7115
 7003SOL    HW232469   4.464   0.065  16.470 -0.4238 -0.9086  1.9041
 7004SOL     OW32470   3.247   0.845   9.430  0.3737  0.6446  0.0015
 7004SOL    HW132471   3.307   0.795   9.485 -0.8270  0.1378  0.8427
 7004SOL    HW232472   3.221   0.774   9.371  0.9814 -0.4383  1.0474
 7005SOL     OW32473   0.119   3.522   2.355 -0.0125 -0.0826  0.4849
 7005SOL    HW132474   0.135   3.602   2.304  3.0403 -1.2803 -0.4062
 7005SOL    HW232475   0.206   3.496   2.385  0.3054 -0.6295 -0.9034
 7006SOL     OW32476   3.125   2.967   4.489  0.1332 -0.2025  0.7107
 7006SOL    HW132477   3.037   2.933   4.471  0.4747 -0.7851  0.1943
 7006SOL    HW232478   3.134   2.908   4.564 -0.5011  1.7338  2.3396
 7007SOL     OW32479   1.812   1.014   9.839 -0.3224  0.1157  0.3371
 7007SOL    HW132480   1.891   1.005   9.785 -2.1487 -0.9088 -2.1654
 7007SOL    HW232481   1.810   1.106   9.865 -0.7268  0.1015  0.3483
 7008SOL     OW32482   1.452   0.536   7.978  0.2042 -0.4113  0.0063
 7008SOL    HW132483   1.427   0.529   8.071  0.4358  2.0817  0.2770
 7008SOL    HW232484   1.415   0.622   7.958  0.1033 -0.3837  0.3096
 7009SOL     OW32485   4.549   2.521   4.234 -0.1264 -0.3726 -0.0943
 7009SOL    HW132486   4.609   2.515   4.309 -1.9218 -1.2954  1.2842
 7009SOL    HW232487   4.609   2.558   4.170 -0.8535  1.2908  0.1848
 7010SOL     OW32488   3.325   2.087  16.581 -0.2773 -0.4632 -0.0597
 7010SOL    HW132489   3.280   2.067  16.663  2.2838  1.8301  1.8923
 7010SOL    HW232490   3.350   2.002  16.544  0.9797 -0.1626  0.1045
 7011SOL     OW32491   3.281   2.819   6.531  0.5528 -0.1940 -0.2513
 7011SOL    HW132492   3.291   2.847   6.622 -0.4100  0.0020 -0.1948
 7011SOL    HW232493   3.338   2.884   6.490  0.3677 -0.8398 -1.5502
 7012SOL     OW32494   0.078   2.254  11.201  0.2706 -0.4071 -0.4487
 7012SOL    HW132495   0.060   2.329  11.144 -0.2686 -0.7782 -0.7655
 7012SOL    HW232496   0.048   2.297  11.281 -0.5021 -2.8796  0.5852
 7013SOL     OW32497   2.961   2.529   9.986  0.3453 -0.3145 -0.1398
 7013SOL    HW132498   3.028   2.497   9.926  0.2416 -0.8246  0.0140
 7013SOL    HW232499   2.967   2.624   9.976  0.6504 -0.5207 -1.9362
 7014SOL     OW32500   3.338   0.492   6.531 -0.4220 -0.0895  0.0573
 7014SOL    HW132501   3.301   0.418   6.483  0.3180 -1.1444  1.1321
 7014SOL    HW232502   3.261   0.548   6.540  0.8574  1.9547 -1.5080
 7015SOL     OW32503   0.824   4.249  14.993  0.0555 -0.3329  0.1625
 7015SOL    HW132504   0.879   4.183  14.952 -0.0691 -1.5178  1.8867
 7015SOL    HW232505   0.734   4.232  14.965  0.6144 -0.9971 -1.2213
 7016SOL     OW32506   0.730   0.103   6.039 -0.7401 -0.1533  0.4824
 7016SOL    HW132507   0.760   0.193   6.027 -0.8143  0.0300  1.7428
 7016SOL    HW232508   0.761   0.072   5.954  1.1520  2.1169  0.3510
 7017SOL     OW32509   2.949   0.272   0.992  0.2231 -0.5039  0.3725
 7017SOL    HW132510   2.885   0.201   0.993 -1.9322  1.4054  0.1745
 7017SOL    HW232511   2.914   0.322   0.918 -1.7369 -0.2505  1.4564
 7018SOL     OW32512   2.618   4.509   6.310 -0.2624  0.6079  0.0317
 7018SOL    HW132513   2.608   4.414   6.299 -2.5513  1.0962 -1.9659
 7018SOL    HW232514   2.661   4.504   6.396 -1.6342 -0.8030  0.6522
 7019SOL     OW32515   3.910   4.638   0.147 -0.5492 -0.5168 -0.0638
 7019SOL    HW132516   3.926   4.627   0.053 -1.0481  0.6410 -0.2842
 7019SOL    HW232517   3.971   4.573   0.184  0.0315 -0.5682 -1.1027
 7020SOL     OW32518   3.962   1.946   9.092  0.2111 -0.3450 -0.4046
 7020SOL    HW132519   4.000   2.005   9.027 -0.7753 -1.3315 -1.8630
 7020SOL    HW232520   4.035   1.944   9.154  1.2948 -0.6191 -1.6744
 7021SOL     OW32521   2.840   1.977   2.902  0.3604 -0.2277 -0.6691
 7021SOL    HW132522   2.927   1.958   2.868  0.2291 -0.9694 -0.6025
 7021SOL    HW232523   2.814   1.886   2.920  2.3083  0.2294  4.4749
 7022SOL     OW32524   0.655   0.026   4.606 -0.4172  0.2223  0.6364
 7022SOL    HW132525   0.713   4.705   4.668  4.1565  3.2699 -1.4370
 7022SOL    HW232526   0.595   4.678   4.587  1.8839 -0.8074 -2.8152
 7023SOL     OW32527   3.277   2.058   8.511  0.2379 -0.5052  0.0218
 7023SOL    HW132528   3.309   2.140   8.549 -0.1817 -1.1064  1.7034
 7023SOL    HW232529   3.293   1.990   8.577 -1.5517 -0.0725  0.9076
 7024SOL     OW32530   4.096   1.536   5.185 -0.2815 -1.1275 -0.2015
 7024SOL    HW132531   4.086   1.626   5.216  2.8505 -0.8273 -0.1253
 7024SOL    HW232532   4.142   1.508   5.265  3.3196  0.8144 -1.6231
 7025SOL     OW32533   1.450   4.359   9.002  0.6389 -0.1142  0.3035
 7025SOL    HW132534   1.516   4.391   9.063  1.1516 -1.2895  0.3658
 7025SOL    HW232535   1.368   4.393   9.037  0.5861  0.0335  0.0378
 7026SOL     OW32536   2.576   4.120   3.421  0.1792 -0.0202 -0.2476
 7026SOL    HW132537   2.485   4.105   3.397  0.8329 -1.6965 -1.7407
 7026SOL    HW232538   2.579   4.214   3.436  1.5379  0.0986 -1.2096
 7027SOL     OW32539   0.611   0.894   0.661  0.3018 -0.1590  0.1366
 7027SOL    HW132540   0.615   0.874   0.567 -0.7010  0.9069 -0.1267
 7027SOL    HW232541   0.689   0.854   0.700 -1.0835 -1.3306  1.7029
 7028SOL     OW32542   1.191   0.287  16.510  0.2175 -0.3543  0.0685
 7028SOL    HW132543   1.187   0.382  16.518  0.9741 -0.3900  0.8733
 7028SOL    HW232544   1.245   0.261  16.584 -0.2019 -0.3298  0.3874
 7029SOL     OW32545   1.261   3.921   8.837 -0.1118 -0.4982  0.2221
 7029SOL    HW132546   1.323   3.992   8.856  0.6331 -1.3600  1.0303
 7029SOL    HW232547   1.276   3.866   8.914  1.2420 -0.6803 -0.1596
 7030SOL     OW32548   0.943   2.116   9.778 -0.3002  0.0535  0.1630
 7030SOL    HW132549   1.030   2.082   9.761 -0.3297 -0.6306  1.4640
 7030SOL    HW232550   0.936   2.179   9.706 -0.3468 -0.9266 -0.6886
 7031SOL     OW32551   0.273   0.495  17.524 -0.3982  0.0196  0.1306
 7031SOL    HW132552   0.345   0.544  17.564  0.2319 -0.4688 -0.4318
 7031SOL    HW232553   0.255   0.546  17.445 -0.7007 -0.2485  0.0255
 7032SOL     OW32554   1.337   4.167  16.886  0.2988 -0.3670  0.0225
 7032SOL    HW132555   1.317   4.223  16.812  0.0105 -0.7876 -0.2141
 7032SOL    HW232556   1.388   4.231  16.937 -1.0081 -0.4888  1.4889
 7033SOL     OW32557   3.522   3.214   6.582 -0.4063  0.5003  0.1312
 7033SOL    HW132558   3.589   3.235   6.646 -1.6730 -3.3463  2.6808
 7033SOL    HW232559   3.441   3.209   6.633 -1.0662  0.8815 -0.8792
 7034SOL     OW32560   3.349   3.821   6.982 -0.3777  0.4221  0.0922
 7034SOL    HW132561   3.421   3.803   6.922 -0.8414 -0.7970 -0.0970
 7034SOL    HW232562   3.280   3.810   6.917 -0.7404 -3.5628  1.1232
 7035SOL     OW32563   3.118   2.741  15.787 -0.5640  0.1007  0.5392
 7035SOL    HW132564   3.084   2.664  15.741 -0.0894 -0.6681  1.4735
 7035SOL    HW232565   3.212   2.738  15.770 -0.8814 -2.2912 -0.7293
 7036SOL     OW32566   2.205   3.190   4.349  0.7546 -0.7820  0.3210
 7036SOL    HW132567   2.158   3.121   4.302  0.1912 -0.8536  0.9916
 7036SOL    HW232568   2.238   3.235   4.271  0.4454  1.8130  1.6633
 7037SOL     OW32569   2.405   2.358   3.282 -0.0878 -0.2238 -0.2204
 7037SOL    HW132570   2.420   2.431   3.342  0.2404 -0.5342  0.0797
 7037SOL    HW232571   2.318   2.325   3.304 -0.1399  0.7878  1.0708
 7038SOL     OW32572   1.521   4.675   8.809  0.1980 -0.3310 -0.3483
 7038SOL    HW132573   1.568   4.593   8.794 -0.1529 -0.9229  1.8850
 7038SOL    HW232574   1.481   4.684   8.722 -0.9023 -2.3560 -0.0416
 7039SOL     OW32575   3.866   3.292   6.711 -0.6826  0.0979 -0.4451
 7039SOL    HW132576   3.926   3.225   6.678  2.3824  1.6574  2.0185
 7039SOL    HW232577   3.809   3.241   6.769 -0.4836 -0.8116 -1.0499
 7040SOL     OW32578   2.209   3.591  11.980 -0.3982 -0.2245 -0.1546
 7040SOL    HW132579   2.118   3.615  11.994 -0.3897 -1.5583  2.2620
 7040SOL    HW232580   2.241   3.575  12.069 -0.6432 -1.7364 -0.3457
 7041SOL     OW32581   4.422   2.182   5.621 -0.1728  0.0232  0.0662
 7041SOL    HW132582   4.456   2.106   5.668  0.5884 -0.1247 -0.7409
 7041SOL    HW232583   4.328   2.163   5.621  0.3958 -2.7183 -1.0197
 7042SOL     OW32584   0.710   1.672  16.093 -0.2872  0.1803  0.2361
 7042SOL    HW132585   0.743   1.710  16.012  0.6584  0.6162  0.8350
 7042SOL    HW232586   0.622   1.710  16.102 -0.4779 -0.0114 -0.8694
 7043SOL     OW32587   3.580   3.213   5.984 -0.8986 -0.3797 -0.0389
 7043SOL    HW132588   3.563   3.297   6.026  0.5595 -0.9440  1.6521
 7043SOL    HW232589   3.516   3.218   5.912 -1.9182 -1.2212  0.8001
 7044SOL     OW32590   0.038   3.726   5.555  0.2706  0.8116  0.1774
 7044SOL    HW132591   0.015   3.758   5.468 -1.6928  1.5440  0.9816
 7044SOL    HW232592   0.121   3.686   5.526  0.2992  1.6101 -0.8782
 7045SOL     OW32593   4.458   1.669   5.799  0.4075  0.7050  0.2881
 7045SOL    HW132594   4.541   1.622   5.803 -0.0334 -0.0950 -0.1421
 7045SOL    HW232595   4.414   1.617   5.732 -3.0713  1.3633  2.0632
 7046SOL     OW32596   2.068   2.246   6.295 -0.0814 -0.4545 -0.1871
 7046SOL    HW132597   1.996   2.276   6.350 -0.8675  0.5877 -1.8070
 7046SOL    HW232598   2.135   2.303   6.333  0.3645  0.4295 -2.3268
 7047SOL     OW32599   1.308   2.849   7.492  0.2725 -0.3033  0.0974
 7047SOL    HW132600   1.228   2.841   7.543  1.0784  4.3967  2.1165
 7047SOL    HW232601   1.352   2.928   7.526 -0.4382 -0.1128  0.5707
 7048SOL     OW32602   0.632   0.401   6.175  0.0219  0.4023  0.5411
 7048SOL    HW132603   0.711   0.386   6.122  0.0616 -2.1105  1.3144
 7048SOL    HW232604   0.601   0.491   6.166  0.2958  0.3859 -0.6585
 7049SOL     OW32605   3.762   0.460   6.797  0.3557  0.3491  0.1755
 7049SOL    HW132606   3.776   0.516   6.721  2.1354 -0.8093 -0.3446
 7049SOL    HW232607   3.668   0.471   6.808 -0.0691 -1.8737 -1.1387
 7050SOL     OW32608   4.126   4.197   4.436  0.0632  0.4335  0.4097
 7050SOL    HW132609   4.200   4.186   4.377 -0.1994  0.3717  0.0907
 7050SOL    HW232610   4.170   4.213   4.519 -0.7820 -0.8482  1.0916
 7051SOL     OW32611   3.165   2.226  11.322  0.6429  0.0290  0.2004
 7051SOL    HW132612   3.174   2.224  11.418  1.9050 -2.2352  0.0454
 7051SOL    HW232613   3.085   2.277  11.309  0.6224  0.7168  2.9820
 7052SOL     OW32614   4.188   3.783  10.119  0.4832  0.1323  0.2944
 7052SOL    HW132615   4.183   3.798  10.025 -0.8720 -0.3116  0.2927
 7052SOL    HW232616   4.122   3.847  10.145 -0.2930 -1.5157  2.4775
 7053SOL     OW32617   1.593   2.320  16.494  0.5483 -0.3697  0.2761
 7053SOL    HW132618   1.630   2.252  16.437  0.8506 -1.5364  1.8494
 7053SOL    HW232619   1.515   2.349  16.447  0.2622 -1.9114 -0.1956
 7054SOL     OW32620   3.792   1.561   7.823 -0.0797  0.0306 -0.4713
 7054SOL    HW132621   3.784   1.634   7.762 -1.2084  1.0596  0.9246
 7054SOL    HW232622   3.878   1.584   7.858  0.4254 -1.0115 -0.9976
 7055SOL     OW32623   3.111   3.149  16.992  0.1686 -0.0582 -0.5593
 7055SOL    HW132624   3.037   3.097  17.023  0.8895  0.4510  2.0259
 7055SOL    HW232625   3.068   3.232  16.972 -0.2999 -0.8119 -2.7237
 7056SOL     OW32626   2.430   1.865   8.099  0.3900  0.4839  0.3864
 7056SOL    HW132627   2.376   1.936   8.134 -0.3355 -0.2305  0.7227
 7056SOL    HW232628   2.508   1.912   8.071  1.0496  0.2825  1.8560
 7057SOL     OW32629   0.336   1.149   7.463  0.0586  0.0038 -0.3198
 7057SOL    HW132630   0.358   1.152   7.370  1.2161 -0.3542 -0.0465
 7057SOL    HW232631   0.413   1.192   7.498 -0.3982  0.6286 -0.0807
 7058SOL     OW32632   1.802   1.933   1.117 -0.1002 -0.0212 -0.3605
 7058SOL    HW132633   1.837   1.850   1.085  0.1452 -1.4334  3.5276
 7058SOL    HW232634   1.757   1.961   1.037  0.1958  2.5064  0.3667
 7059SOL     OW32635   0.327   0.368  13.551  0.2071  0.2184  0.7579
 7059SOL    HW132636   0.373   0.410  13.479  0.5410  2.1023  2.0485
 7059SOL    HW232637   0.249   0.423  13.560  0.4303  0.9901 -2.2790
 7060SOL     OW32638   0.021   1.751   0.707  0.3048 -0.0531 -0.0732
 7060SOL    HW132639   0.095   1.789   0.753 -1.7601  1.6657  1.8227
 7060SOL    HW232640   4.692   1.700   0.769 -2.5934 -0.0392 -2.5254
 7061SOL     OW32641   3.928   2.125   8.227 -0.2318 -0.1006  0.4769
 7061SOL    HW132642   3.946   2.120   8.133 -1.4843 -0.1009  0.2353
 7061SOL    HW232643   3.960   2.042   8.262  2.5305  0.5947 -0.4444
 7062SOL     OW32644   0.639   2.269   4.258  0.0904 -0.0287  0.1789
 7062SOL    HW132645   0.675   2.200   4.203  0.9384  0.0460  0.6357
 7062SOL    HW232646   0.670   2.348   4.213 -1.7028  0.9437  0.6402
 7063SOL     OW32647   1.681   3.749  13.889 -0.5188  0.5362 -0.3827
 7063SOL    HW132648   1.654   3.745  13.981 -0.8512 -0.5331 -0.5250
 7063SOL    HW232649   1.601   3.776  13.845 -0.4325  0.8317 -0.3609
 7064SOL     OW32650   0.418   0.998   9.556 -0.2823 -0.1535 -0.4468
 7064SOL    HW132651   0.488   1.051   9.593 -1.8374  0.8378  1.0579
 7064SOL    HW232652   0.445   0.912   9.590  1.7220  1.3761  1.7983
 7065SOL     OW32653   0.045   3.535   9.496  0.2485  0.4031 -0.0485
 7065SOL    HW132654   0.122   3.524   9.552 -0.2749 -0.2646  0.5468
 7065SOL    HW232655   0.063   3.627   9.476  1.3941  0.6412  2.1362
 7066SOL     OW32656   1.062   3.999   3.242 -0.1741 -0.6396 -0.5685
 7066SOL    HW132657   1.051   4.069   3.177 -0.1794  0.0972  0.2377
 7066SOL    HW232658   1.155   3.979   3.231  0.2267  1.2924 -0.6685
 7067SOL     OW32659   2.212   0.481   8.851 -0.5345  0.1930  0.9954
 7067SOL    HW132660   2.301   0.448   8.866  0.4173  1.4490 -1.9011
 7067SOL    HW232661   2.199   0.463   8.758  0.9560 -4.0741  1.6210
 7068SOL     OW32662   1.686   3.255   3.986 -0.9134  0.6248 -0.2740
 7068SOL    HW132663   1.722   3.182   3.936 -2.1476  1.0961 -1.8415
 7068SOL    HW232664   1.596   3.225   3.987 -0.7840  0.2689  1.0216
 7069SOL     OW32665   3.218   3.899   5.094 -0.3100 -0.2825 -0.6884
 7069SOL    HW132666   3.138   3.932   5.054 -0.6788  0.5660  0.7464
 7069SOL    HW232667   3.182   3.890   5.182  0.2945 -1.1221 -0.5210
 7070SOL     OW32668   2.080   1.660   4.072 -0.4850  0.3895  0.2991
 7070SOL    HW132669   2.117   1.573   4.057 -0.2470  0.4130  0.7551
 7070SOL    HW232670   1.992   1.654   4.035  0.4643  1.2956 -2.1253
 7071SOL     OW32671   1.837   0.932   4.610  0.1043 -0.0337 -0.3656
 7071SOL    HW132672   1.808   0.882   4.686  0.3879  0.5523  0.1204
 7071SOL    HW232673   1.873   1.007   4.656  0.6972 -0.0375 -0.8164
 7072SOL     OW32674   0.956   2.854   6.252  0.3283 -0.7652 -0.4833
 7072SOL    HW132675   0.970   2.864   6.158  3.8753 -0.2617  0.0908
 7072SOL    HW232676   0.867   2.820   6.242 -0.2008  0.6347 -0.5128
 7073SOL     OW32677   1.554   3.792  13.547 -0.2189  0.1931  0.2655
 7073SOL    HW132678   1.501   3.765  13.621  0.1321  0.8246  0.7536
 7073SOL    HW232679   1.578   3.881  13.572 -1.5569 -0.2148  2.9427
 7074SOL     OW32680   3.234   4.331   5.445  0.1492 -0.2544 -0.3550
 7074SOL    HW132681   3.237   4.275   5.523  0.6958  0.8710  0.4414
 7074SOL    HW232682   3.309   4.391   5.453  0.9407 -1.0088 -2.1018
 7075SOL     OW32683   0.030   0.810   0.586  0.2301  0.0433  0.6953
 7075SOL    HW132684   0.075   0.888   0.619  1.1736 -0.3644  0.3757
 7075SOL    HW232685   4.661   0.827   0.599 -0.6156 -2.5440 -1.9608
 7076SOL     OW32686   2.980   2.573   9.589 -0.2186 -0.4052  0.0066
 7076SOL    HW132687   3.023   2.623   9.659  0.9180 -2.4014  0.7460
 7076SOL    HW232688   2.935   2.505   9.638 -0.3509  0.9879  1.8289
 7077SOL     OW32689   1.414   1.532   2.200  0.2794 -0.3645  0.1125
 7077SOL    HW132690   1.397   1.588   2.275 -0.4713  0.3306 -0.5787
 7077SOL    HW232691   1.410   1.444   2.238  0.6574 -0.4974 -0.1558
 7078SOL     OW32692   3.873   1.797   6.580  0.1897  0.1105 -0.2915
 7078SOL    HW132693   3.922   1.715   6.593  2.0362  1.8508  3.7020
 7078SOL    HW232694   3.946   1.857   6.591  0.7074 -0.9586  2.1631
 7079SOL     OW32695   4.338   4.387   5.422  0.1680  0.1166 -0.1519
 7079SOL    HW132696   4.422   4.366   5.382  1.4601  2.6849  1.2040
 7079SOL    HW232697   4.317   4.464   5.370  0.0465  0.1780 -0.0113
 7080SOL     OW32698   0.174   3.620   5.069  0.6411 -0.1142  0.4936
 7080SOL    HW132699   0.139   3.648   4.984  1.2755  0.6583  0.4961
 7080SOL    HW232700   0.162   3.525   5.066  1.1347 -0.0729 -2.2899
 7081SOL     OW32701   3.194   1.039   8.695 -0.2151  0.0608 -0.2836
 7081SOL    HW132702   3.134   1.070   8.627  0.6093  0.4296 -0.8370
 7081SOL    HW232703   3.140   0.973   8.740  2.8921 -0.5145  2.5994
 7082SOL     OW32704   1.097   0.027   0.737  0.7166  0.2271  0.0514
 7082SOL    HW132705   1.171   4.717   0.688  0.5367 -0.5433  0.3024
 7082SOL    HW232706   1.122   0.018   0.829 -0.0558  1.9169  0.4251
 7083SOL     OW32707   4.600   0.735   1.759 -0.5396  0.4111  0.0387
 7083SOL    HW132708   4.651   0.740   1.678 -0.1165 -0.0636  0.2774
 7083SOL    HW232709   4.517   0.756   1.716 -0.1109  1.9351 -0.0578
 7084SOL     OW32710   3.623   3.813   8.362  0.2091  0.3557  0.0552
 7084SOL    HW132711   3.694   3.837   8.421 -0.2985 -0.8981  1.1796
 7084SOL    HW232712   3.638   3.877   8.292  0.3798  0.6000  0.3150
 7085SOL     OW32713   0.612   2.509   5.316 -0.4071  0.0243 -0.5674
 7085SOL    HW132714   0.706   2.520   5.305 -0.5649  1.2103 -0.6750
 7085SOL    HW232715   0.595   2.545   5.402  0.7645  0.7561 -0.6508
 7086SOL     OW32716   1.350   3.990  12.276 -0.2371 -0.1969  0.0045
 7086SOL    HW132717   1.323   4.067  12.227  1.7036  0.1378 -0.5471
 7086SOL    HW232718   1.283   3.929  12.246  0.9435 -1.0496 -0.9024
 7087SOL     OW32719   3.572   4.412   7.456 -0.0252  0.1369  0.0515
 7087SOL    HW132720   3.498   4.425   7.515 -0.5545  1.0244 -0.8039
 7087SOL    HW232721   3.580   4.497   7.412 -0.6341  1.9980  3.5032
 7088SOL     OW32722   3.645   2.271   7.782  0.0294  0.2924 -0.0316
 7088SOL    HW132723   3.738   2.263   7.806 -0.3797  0.6511  1.6752
 7088SOL    HW232724   3.637   2.225   7.699 -0.3204 -0.5305  0.4694
 7089SOL     OW32725   4.123   3.037   9.368 -0.2623 -0.3890  0.0857
 7089SOL    HW132726   4.115   2.943   9.379  0.5514 -0.3038  1.3263
 7089SOL    HW232727   4.218   3.040   9.371 -0.4219  1.9216  2.8438
 7090SOL     OW32728   1.735   1.734   8.232  0.2587  0.0213  0.2734
 7090SOL    HW132729   1.745   1.737   8.327 -0.7873 -1.5884  0.4288
 7090SOL    HW232730   1.726   1.643   8.204  0.3517  1.1791 -3.4782
 7091SOL     OW32731   4.699   4.371   4.554 -0.0965  0.2428 -0.3425
 7091SOL    HW132732   0.056   4.420   4.538  1.3035 -0.5332  4.4592
 7091SOL    HW232733   4.683   4.321   4.474 -1.0299 -0.3045  0.1856
 7092SOL     OW32734   2.810   2.148   3.265  0.0923 -0.4099  0.3067
 7092SOL    HW132735   2.830   2.058   3.290  1.2880 -0.0625  0.5763
 7092SOL    HW232736   2.884   2.184   3.217 -0.9915  0.5495 -0.6513
 7093SOL     OW32737   1.578   2.089   8.321 -0.3068  0.4517 -0.2497
 7093SOL    HW132738   1.588   2.002   8.361  0.8189  0.5984 -0.2023
 7093SOL    HW232739   1.635   2.099   8.245 -2.5111 -0.1169 -1.9611
 7094SOL     OW32740   4.645   0.834   5.925  0.1565  0.0648 -0.5916
 7094SOL    HW132741   4.717   0.896   5.912 -1.7126  2.2180 -0.6122
 7094SOL    HW232742   4.594   0.831   5.845  0.7185 -2.2975 -0.8707
 7095SOL     OW32743   4.535   0.164   6.620 -1.0155  0.1387 -1.0605
 7095SOL    HW132744   4.515   0.254   6.594 -1.8101 -0.2458 -1.8099
 7095SOL    HW232745   4.518   0.110   6.543  1.7769 -4.7093  1.6800
 7096SOL     OW32746   1.973   3.996  12.898  0.0514 -0.0635 -0.8191
 7096SOL    HW132747   1.930   3.969  12.817 -1.9159 -0.3972  0.3313
 7096SOL    HW232748   2.018   4.076  12.869 -0.3843  0.5415  0.1949
 7097SOL     OW32749   4.025   1.965   4.149  0.3453  0.1677  0.0397
 7097SOL    HW132750   4.095   1.955   4.214 -0.7200 -0.7427  1.0414
 7097SOL    HW232751   3.971   1.890   4.172 -0.9151  0.5757 -1.6204
 7098SOL     OW32752   0.800   0.989  12.638  0.0748 -0.2669  0.2546
 7098SOL    HW132753   0.708   0.986  12.614  0.6407  1.0017 -2.0575
 7098SOL    HW232754   0.794   1.059  12.703 -0.2340 -1.0416  1.0663
 7099SOL     OW32755   3.452   2.788  13.497  0.5932  0.5588 -0.2192
 7099SOL    HW132756   3.427   2.760  13.409 -1.0080 -1.4501  0.8723
 7099SOL    HW232757   3.371   2.769  13.545  0.6888 -0.0061 -0.2788
 7100SOL     OW32758   1.923   2.053   2.805 -0.1326 -0.5515 -0.2339
 7100SOL    HW132759   1.854   1.987   2.799  0.1994 -0.7648 -1.6641
 7100SOL    HW232760   1.872   2.130   2.827  0.1010 -0.2800 -0.6442
 7101SOL     OW32761   4.198   3.904   5.557  0.2524  0.5271 -0.0289
 7101SOL    HW132762   4.178   3.990   5.594 -0.4756  0.3590 -0.0333
 7101SOL    HW232763   4.195   3.839   5.626 -0.0159  0.4454 -0.1170
 7102SOL     OW32764   2.504   1.645   4.108  0.0521  0.0147 -0.2142
 7102SOL    HW132765   2.473   1.575   4.050  1.2269  0.8517 -1.8721
 7102SOL    HW232766   2.481   1.725   4.060 -2.4940  0.0234  1.0605
 7103SOL     OW32767   2.492   2.117   5.143 -0.0119 -0.4095 -0.0144
 7103SOL    HW132768   2.469   2.026   5.159  0.2320  0.1747  3.5439
 7103SOL    HW232769   2.466   2.156   5.227  0.9326 -0.3381  0.2391
 7104SOL     OW32770   0.285   3.300   0.756  0.0473  0.3918  0.7897
 7104SOL    HW132771   0.238   3.218   0.771  1.2604 -0.2940  0.8479
 7104SOL    HW232772   0.362   3.295   0.813 -0.5784  2.1032  1.7736
 7105SOL     OW32773   3.335   2.938   0.272  0.0920 -0.7420  0.3486
 7105SOL    HW132774   3.258   2.893   0.236 -0.6919  0.7932  0.1043
 7105SOL    HW232775   3.318   2.916   0.364 -0.8905  0.0694  0.3716
 7106SOL     OW32776   4.640   2.680   8.084 -0.1033  0.3876  0.1659
 7106SOL    HW132777   4.578   2.620   8.042 -0.3536 -0.0413  1.1387
 7106SOL    HW232778   4.648   2.752   8.022  0.1662 -0.9462 -1.3468
 7107SOL     OW32779   2.593   4.132   7.676  0.4567 -0.4135  0.4343
 7107SOL    HW132780   2.625   4.219   7.652  1.7509 -0.8839  0.4265
 7107SOL    HW232781   2.614   4.096   7.590 -0.4703 -0.6740  0.3159
 7108SOL     OW32782   4.525   0.991   1.892  0.4697  0.3745  0.4905
 7108SOL    HW132783   4.537   0.978   1.798 -2.1004  1.3503  0.0161
 7108SOL    HW232784   4.528   0.902   1.927 -1.5298  1.0268  2.3562
 7109SOL     OW32785   2.927   3.150  14.728 -0.5638  0.0597 -0.1983
 7109SOL    HW132786   2.895   3.107  14.808  2.8907  1.0410  1.6972
 7109SOL    HW232787   2.891   3.238  14.734  1.9050  0.9881  0.6327
 7110SOL     OW32788   4.282   1.598   1.846  0.1168 -0.1188  0.5508
 7110SOL    HW132789   4.336   1.676   1.835  0.3875 -0.5050 -0.8090
 7110SOL    HW232790   4.327   1.554   1.918  0.0208  0.5171  0.9993
 7111SOL     OW32791   4.430   3.106  13.143  0.0677  0.0782 -0.1349
 7111SOL    HW132792   4.394   3.193  13.125 -2.4681 -0.5963  1.6405
 7111SOL    HW232793   4.417   3.064  13.058 -1.2196 -0.4161  0.3041
 7112SOL     OW32794   2.836   0.894   7.967 -0.5423 -0.3995  0.2780
 7112SOL    HW132795   2.749   0.910   8.003 -0.6176  0.4843 -0.2954
 7112SOL    HW232796   2.864   0.817   8.016  0.0446  0.5256  1.3998
 7113SOL     OW32797   3.797   0.305  13.674 -0.0435  0.5752  0.9530
 7113SOL    HW132798   3.739   0.252  13.620  0.7182 -0.6075  1.2998
 7113SOL    HW232799   3.820   0.246  13.746  0.9920  1.0138  0.9831
 7114SOL     OW32800   1.488   4.221   5.666  0.6008 -0.9512 -0.2000
 7114SOL    HW132801   1.474   4.310   5.698 -0.6118 -1.3927  0.4986
 7114SOL    HW232802   1.551   4.240   5.597 -1.5890 -1.6629 -2.4120
 7115SOL     OW32803   2.532   2.708   6.778  0.7126  0.3277 -0.7328
 7115SOL    HW132804   2.466   2.775   6.798 -1.6340 -2.2704  0.3230
 7115SOL    HW232805   2.543   2.670   6.865 -0.0598 -1.1428 -1.2748
 7116SOL     OW32806   3.597   1.119   8.978 -0.1952  0.6337 -0.5606
 7116SOL    HW132807   3.548   1.098   9.057 -1.9487  2.4538 -1.1577
 7116SOL    HW232808   3.582   1.053   8.910  0.7499 -1.1636  0.9935
 7117SOL     OW32809   4.026   4.625   5.342 -1.0755 -0.4401 -0.1289
 7117SOL    HW132810   4.054   4.574   5.267  1.8353  2.7699 -1.2257
 7117SOL    HW232811   4.057   4.566   5.410  2.3807  0.1471 -1.1873
 7118SOL     OW32812   3.679   2.564   8.985  0.2619 -0.1196 -0.5223
 7118SOL    HW132813   3.604   2.622   8.970  1.7673  1.6217 -1.2529
 7118SOL    HW232814   3.746   2.603   8.929 -1.1311  1.7787 -0.8731
 7119SOL     OW32815   4.426   3.827  16.126 -0.4105  0.3472 -0.0961
 7119SOL    HW132816   4.357   3.886  16.096  0.8097  1.1200 -1.4062
 7119SOL    HW232817   4.376   3.746  16.123  0.3120 -0.1859  2.4834
 7120SOL     OW32818   1.913   0.637   1.768 -0.0336 -0.5268 -1.0769
 7120SOL    HW132819   1.929   0.717   1.717  0.2893  0.4041  0.5054
 7120SOL    HW232820   1.830   0.654   1.811  0.8711 -0.4567  0.6544
 7121SOL     OW32821   1.947   2.166   9.089  0.2437 -0.3503  0.0584
 7121SOL    HW132822   1.997   2.189   9.010  0.0747 -1.0969 -0.2716
 7121SOL    HW232823   1.891   2.242   9.100  0.6112 -0.0995  0.1893
 7122SOL     OW32824   4.492   3.991   8.539 -0.1631  0.3599 -0.0047
 7122SOL    HW132825   4.571   3.938   8.548 -1.1579 -0.9848  0.6999
 7122SOL    HW232826   4.436   3.928   8.584  0.2948  0.6348  0.9496
 7123SOL     OW32827   2.593   1.740  11.405  0.0964 -0.1693  0.4235
 7123SOL    HW132828   2.601   1.834  11.387 -1.3909 -0.1961 -0.3611
 7123SOL    HW232829   2.679   1.715  11.439  0.7166  0.2557 -0.8242
 7124SOL     OW32830   2.276   0.124   7.317  0.0965  0.5263 -0.2652
 7124SOL    HW132831   2.258   0.218   7.314  0.1804  0.5142 -1.2279
 7124SOL    HW232832   2.359   0.124   7.364 -0.8839 -1.9531  1.4635
 7125SOL     OW32833   3.031   2.222   2.096  0.5423 -0.6929  0.3787
 7125SOL    HW132834   2.954   2.263   2.056  0.1533 -0.9768  0.8373
 7125SOL    HW232835   3.087   2.197   2.023 -1.5500  0.0069 -1.4627
 7126SOL     OW32836   1.965   4.502   0.526 -0.4464  0.3601 -0.3159
 7126SOL    HW132837   1.938   4.499   0.434  1.4977 -1.8898 -0.8022
 7126SOL    HW232838   2.055   4.468   0.530 -0.4154  0.4609 -0.1653
 7127SOL     OW32839   2.279   0.867  12.370 -0.3082  0.0044  0.1774
 7127SOL    HW132840   2.292   0.777  12.341  0.1007 -0.4525  1.7477
 7127SOL    HW232841   2.188   0.870  12.399 -1.0573 -0.0442 -2.2039
 7128SOL     OW32842   4.445   0.767   2.510 -0.4123 -0.0826 -0.0440
 7128SOL    HW132843   4.377   0.833   2.498  0.2622  0.9106  1.5625
 7128SOL    HW232844   4.522   0.813   2.477  2.0726 -2.9550  1.6644
 7129SOL     OW32845   2.961   4.018   5.029  0.0775 -0.3614  0.0737
 7129SOL    HW132846   2.904   4.080   4.984 -0.5506 -1.9865 -1.3638
 7129SOL    HW232847   2.901   3.956   5.069  0.6027 -0.4221  0.7799
 7130SOL     OW32848   3.470   4.675   6.188 -0.0697 -0.8187  0.1163
 7130SOL    HW132849   3.430   4.614   6.126 -0.8648 -0.4672  0.2815
 7130SOL    HW232850   3.476   4.611   6.258  1.3963 -1.3528 -0.5094
 7131SOL     OW32851   0.992   2.621   8.956 -0.4731  0.0963  0.0909
 7131SOL    HW132852   0.940   2.698   8.982 -2.3722 -1.5805  1.2767
 7131SOL    HW232853   0.918   2.588   8.905 -1.4606 -0.2115  1.7079
 7132SOL     OW32854   0.463   0.496   4.321 -0.1921  0.2777  0.0382
 7132SOL    HW132855   0.457   0.481   4.415 -2.8253  0.4142 -0.0937
 7132SOL    HW232856   0.377   0.539   4.318 -1.8880 -3.0931  1.4178
 7133SOL     OW32857   3.604   1.270  12.223 -0.4291 -0.1465  0.5098
 7133SOL    HW132858   3.603   1.193  12.166  1.6278  0.3123 -0.1412
 7133SOL    HW232859   3.516   1.299  12.201  0.0464  1.0538  0.2077
 7134SOL     OW32860   2.784   3.226   9.381 -0.1440  0.0373  0.1811
 7134SOL    HW132861   2.696   3.190   9.394  0.0487  0.2138  2.0200
 7134SOL    HW232862   2.770   3.321   9.390  1.6941  0.3293 -0.0546
 7135SOL     OW32863   3.377   2.268   3.340  0.5805  0.6596 -0.6727
 7135SOL    HW132864   3.319   2.310   3.404 -1.3414 -2.0661 -0.6291
 7135SOL    HW232865   3.328   2.304   3.265 -1.4744 -0.7318 -0.0072
 7136SOL     OW32866   0.819   2.799   5.126 -0.4514 -0.2426  0.1024
 7136SOL    HW132867   0.780   2.807   5.039  0.7653  1.8552 -0.2506
 7136SOL    HW232868   0.802   2.706   5.140  0.9436 -0.0421  3.2007
 7137SOL     OW32869   1.283   2.055  14.794 -0.1644  0.0244 -0.2687
 7137SOL    HW132870   1.191   2.081  14.783 -1.0499 -3.0596 -0.1544
 7137SOL    HW232871   1.315   2.140  14.825  2.4024 -0.3661 -1.8769
 7138SOL     OW32872   1.327   1.758   3.561  0.0915 -0.2455  0.5108
 7138SOL    HW132873   1.243   1.726   3.595 -0.7014  0.0578 -1.1393
 7138SOL    HW232874   1.385   1.710   3.620  1.6346  2.2167  0.9732
 7139SOL     OW32875   2.292   2.253   5.028  1.0967  0.1356  0.3738
 7139SOL    HW132876   2.367   2.204   5.061  1.8757  1.6997  0.9248
 7139SOL    HW232877   2.322   2.338   5.060 -0.7608  1.2942 -1.0082
 7140SOL     OW32878   0.836   2.852   1.302 -0.4521 -0.3931  0.3471
 7140SOL    HW132879   0.927   2.857   1.272 -1.4388  1.9129 -2.3901
 7140SOL    HW232880   0.802   2.940   1.282  0.2349 -0.5555 -1.5259
 7141SOL     OW32881   0.861   0.561   3.668 -0.0803 -0.1273 -0.5815
 7141SOL    HW132882   0.827   0.554   3.579  0.6508  0.5373 -0.9117
 7141SOL    HW232883   0.881   0.653   3.686  1.3021 -0.7557  1.1322
 7142SOL     OW32884   2.267   0.028  16.247 -0.0997 -0.0463  0.0280
 7142SOL    HW132885   2.267   4.683  16.180  0.1686  0.8511 -0.8904
 7142SOL    HW232886   2.289   0.100  16.187 -1.6403  1.6811  1.5636
 7143SOL     OW32887   0.323   3.816   8.142  0.4311  0.1639  0.4382
 7143SOL    HW132888   0.269   3.804   8.221  2.4527 -4.0030  1.2059
 7143SOL    HW232889   0.413   3.794   8.165 -0.1563 -0.6871  1.9499
 7144SOL     OW32890   3.997   2.611   2.538 -0.5212 -0.2106  0.4042
 7144SOL    HW132891   4.030   2.528   2.506  0.2774  0.0643  0.5288
 7144SOL    HW232892   4.077   2.648   2.575 -2.0613  1.2264  2.2877
 7145SOL     OW32893   4.105   4.262   2.629  0.3915 -0.4401 -0.2869
 7145SOL    HW132894   4.157   4.188   2.598 -1.1651 -1.0628 -1.3798
 7145SOL    HW232895   4.184   4.311   2.654  0.4398 -0.2006 -0.9109
 7146SOL     OW32896   3.572   0.344   5.467  0.1903  0.2388  1.0386
 7146SOL    HW132897   3.512   0.417   5.480 -0.3642 -0.2698  1.3681
 7146SOL    HW232898   3.653   0.384   5.498 -0.1160 -0.2121  2.4472
 7147SOL     OW32899   1.681   0.099   7.179 -0.1331 -0.0523 -1.1085
 7147SOL    HW132900   1.606   0.150   7.147 -1.1351 -0.1986  1.0030
 7147SOL    HW232901   1.710   0.047   7.104  0.1447 -1.1160 -0.2679
 7148SOL     OW32902   1.233   1.242  12.902 -0.0995 -0.3684  0.0523
 7148SOL    HW132903   1.234   1.270  12.810  0.4308  0.1943  0.2340
 7148SOL    HW232904   1.322   1.221  12.928  0.8901  0.7890 -2.4057
 7149SOL     OW32905   2.102   2.837   5.397  0.1234 -0.0269 -0.2358
 7149SOL    HW132906   2.084   2.792   5.315 -0.8020 -1.3006  0.6808
 7149SOL    HW232907   2.110   2.926   5.362 -1.5888 -0.1735 -1.0047
 7150SOL     OW32908   3.489   0.402   1.702  0.3784 -0.2556 -0.3876
 7150SOL    HW132909   3.547   0.332   1.734  0.0574 -0.3967 -0.1088
 7150SOL    HW232910   3.519   0.482   1.744 -2.6272  1.7360 -2.0634
 7151SOL     OW32911   2.501   0.282   8.355 -0.3317 -0.1707 -0.3895
 7151SOL    HW132912   2.579   0.253   8.309 -1.1314 -0.7136 -1.3991
 7151SOL    HW232913   2.459   0.196   8.364  0.3214 -0.4255  0.2298
 7152SOL     OW32914   4.141   1.398   5.766 -0.5393  0.2607  0.4233
 7152SOL    HW132915   4.162   1.479   5.721 -0.8714 -0.2435 -0.6354
 7152SOL    HW232916   4.062   1.381   5.714 -0.3513 -2.2632  0.9900
 7153SOL     OW32917   4.665   1.579   4.263  0.0242 -0.2572 -0.5846
 7153SOL    HW132918   4.722   1.612   4.332  0.1551  0.4997 -1.0584
 7153SOL    HW232919   4.589   1.562   4.319  1.8897 -1.1540  1.6769
 7154SOL     OW32920   1.276   4.337   0.630 -0.3462 -0.0384 -0.3968
 7154SOL    HW132921   1.308   4.326   0.541 -0.6212  1.0789 -0.6435
 7154SOL    HW232922   1.205   4.274   0.636  0.6393 -1.0747  0.2498
 7155SOL     OW32923   3.403   4.058  13.558 -0.1754  0.0259 -0.2774
 7155SOL    HW132924   3.462   4.131  13.577  1.7267 -1.2492 -1.2258
 7155SOL    HW232925   3.464   3.986  13.542 -2.1501 -1.2764 -1.9492
 7156SOL     OW32926   3.713   4.342   2.331 -0.4090 -1.0927  0.2392
 7156SOL    HW132927   3.762   4.398   2.271  0.3595 -2.8735 -0.8173
 7156SOL    HW232928   3.784   4.287   2.363  0.4369  0.1717  0.5384
 7157SOL     OW32929   3.394   2.125  13.956 -0.1565  0.1743  0.8586
 7157SOL    HW132930   3.378   2.202  14.010  0.2078  0.1729  0.9670
 7157SOL    HW232931   3.463   2.082  14.006 -0.7268 -0.2260  1.3078
 7158SOL     OW32932   0.348   3.191   4.077  0.4256  0.1818  0.6457
 7158SOL    HW132933   0.330   3.192   4.171  0.8664  3.1573  0.7064
 7158SOL    HW232934   0.418   3.127   4.067 -2.6507 -3.0322 -0.5245
 7159SOL     OW32935   1.707   0.114   4.802  0.5010  0.3331 -0.2268
 7159SOL    HW132936   1.634   0.175   4.808  0.9611  0.8354  0.3041
 7159SOL    HW232937   1.704   0.084   4.712 -0.9493  2.9030 -1.0575
 7160SOL     OW32938   1.099   0.572   8.105  0.2157  0.4105  1.0679
 7160SOL    HW132939   1.083   0.663   8.082  1.2375  0.0413 -1.1221
 7160SOL    HW232940   1.110   0.594   8.197  0.1296 -0.7042  1.3470
 7161SOL     OW32941   2.433   3.773   2.695  0.3775  0.2610 -0.5004
 7161SOL    HW132942   2.507   3.713   2.688  1.9958  1.8130  2.9491
 7161SOL    HW232943   2.362   3.726   2.738  2.2087  0.6859  3.0306
 7162SOL     OW32944   4.188   3.276   5.196  0.1557 -0.0686 -0.2529
 7162SOL    HW132945   4.197   3.365   5.229  0.0914 -0.3495  0.5200
 7162SOL    HW232946   4.235   3.238   5.269  2.1298  3.5070  0.3367
 7163SOL     OW32947   4.124   0.908   1.858  0.2874 -0.4612  0.3490
 7163SOL    HW132948   4.184   0.843   1.895  1.1856 -0.7194 -1.5700
 7163SOL    HW232949   4.168   0.993   1.865  2.0367 -1.3490  0.0387
 7164SOL     OW32950   2.633   3.692  13.004  0.3670 -0.4256  0.1373
 7164SOL    HW132951   2.711   3.743  12.981  0.0924 -0.6313 -1.2827
 7164SOL    HW232952   2.627   3.625  12.936 -0.2132 -1.6777  1.4112
 7165SOL     OW32953   2.722   2.152   7.764  0.2546  0.6509 -0.1921
 7165SOL    HW132954   2.751   2.065   7.792 -1.6501  0.1147  0.1171
 7165SOL    HW232955   2.722   2.199   7.848  0.5360 -0.0377  0.1956
 7166SOL     OW32956   2.317   0.044   3.893 -0.6640 -0.8017  0.5369
 7166SOL    HW132957   2.371   4.705   3.940 -1.1767 -1.6763 -0.0307
 7166SOL    HW232958   2.296   0.106   3.962 -1.6698 -1.6611  1.0121
 7167SOL     OW32959   3.987   1.584   3.614 -0.1375  0.6241  0.1533
 7167SOL    HW132960   3.992   1.586   3.710 -0.6566 -0.2670  0.1951
 7167SOL    HW232961   3.930   1.508   3.605 -0.4361  0.9711 -0.9722
 7168SOL     OW32962   1.588   1.204   7.891 -0.5094 -0.5240 -0.4081
 7168SOL    HW132963   1.616   1.204   7.983  0.3244 -2.5388 -0.6673
 7168SOL    HW232964   1.665   1.234   7.843 -0.7078  0.3231 -0.2109
 7169SOL     OW32965   1.302   0.135   4.138  0.3159 -0.0297 -0.0740
 7169SOL    HW132966   1.348   0.085   4.071  0.1986 -0.3200  0.0630
 7169SOL    HW232967   1.282   0.203   4.074  1.6162  0.3099 -0.1037
 7170SOL     OW32968   0.854   0.150   0.571  0.2412  0.0919 -0.7172
 7170SOL    HW132969   0.895   0.159   0.485  1.5079  1.0244 -0.0220
 7170SOL    HW232970   0.907   0.087   0.620 -0.6562 -1.7650 -2.1689
 7171SOL     OW32971   0.498   2.177  14.643  1.0534  0.0363 -0.2892
 7171SOL    HW132972   0.494   2.192  14.549 -0.5255  3.6190  0.3714
 7171SOL    HW232973   0.419   2.133  14.673  1.0130  0.3688  0.0911
 7172SOL     OW32974   0.518   2.020   9.346 -0.3466 -0.2757 -0.3083
 7172SOL    HW132975   0.577   2.043   9.418 -0.1127  0.8683 -0.8622
 7172SOL    HW232976   0.502   1.932   9.379  0.1020 -0.3291 -0.2245
 7173SOL     OW32977   3.260   3.862  11.252 -0.0810 -0.1231 -0.0301
 7173SOL    HW132978   3.191   3.805  11.284  0.8773 -0.9241  0.6312
 7173SOL    HW232979   3.313   3.876  11.331  0.7087  0.5873 -0.6782
 7174SOL     OW32980   0.842   3.001  16.231  0.0817  0.0708 -0.0867
 7174SOL    HW132981   0.828   2.930  16.293 -1.6341 -0.2218 -0.8054
 7174SOL    HW232982   0.753   3.033  16.217 -1.3746 -3.3750  1.2415
 7175SOL     OW32983   0.466   3.664   8.327  0.2477 -0.3811  0.2422
 7175SOL    HW132984   0.509   3.696   8.405  0.1224 -0.1292  0.2079
 7175SOL    HW232985   0.516   3.583   8.316 -1.7506 -1.5068 -0.4956
 7176SOL     OW32986   1.527   2.324  10.529 -0.4011  0.1218 -0.1759
 7176SOL    HW132987   1.485   2.350  10.446  0.3137  0.2200 -0.5072
 7176SOL    HW232988   1.537   2.414  10.562  0.7555 -0.2125  0.3951
 7177SOL     OW32989   3.587   3.069   4.360 -0.0475  0.6086  0.0741
 7177SOL    HW132990   3.514   3.013   4.389 -0.5200  0.2001 -1.8789
 7177SOL    HW232991   3.579   3.137   4.427  0.0568  0.8505 -0.1585
 7178SOL     OW32992   1.038   4.159   4.645 -0.3560 -0.2650  0.5966
 7178SOL    HW132993   1.018   4.197   4.560  1.8243 -0.7369 -0.1254
 7178SOL    HW232994   1.129   4.130   4.634  0.4025  2.3312  0.2362
 7179SOL     OW32995   0.058   0.419   7.573 -0.7639 -0.0607  0.0659
 7179SOL    HW132996   0.047   0.513   7.584 -1.0072 -0.3412  2.1654
 7179SOL    HW232997   0.149   0.410   7.547 -0.4440  0.2388  1.0980
 7180SOL     OW32998   2.964   3.482  13.619 -0.2437 -0.4665  0.3638
 7180SOL    HW132999   2.881   3.511  13.656 -0.6118  0.4540 -1.1698
 7180SOL    HW233000   2.949   3.388  13.607 -0.2638 -0.1745 -1.9594
 7181SOL     OW33001   0.804   3.001   3.980 -0.6529  0.1948  0.2373
 7181SOL    HW133002   0.758   3.049   3.911 -1.0082 -2.3250 -1.2911
 7181SOL    HW233003   0.885   3.052   3.973 -0.2366 -0.2336  2.0363
 7182SOL     OW33004   3.622   2.186   5.492  0.0660 -0.0149 -0.3632
 7182SOL    HW133005   3.580   2.101   5.504  2.3958 -0.8727  1.8438
 7182SOL    HW233006   3.669   2.168   5.410 -1.1340 -0.1813 -1.0064
 7183SOL     OW33007   4.400   2.546   2.661  0.1360 -0.2062  0.1553
 7183SOL    HW133008   4.373   2.455   2.647 -2.5917  0.8292 -1.1806
 7183SOL    HW233009   4.412   2.583   2.574 -1.1849  1.8152  0.8392
 7184SOL     OW33010   1.397   3.013  17.587  0.2511 -0.4910 -0.7902
 7184SOL    HW133011   1.484   2.979  17.608  0.3186 -1.0373 -1.9371
 7184SOL    HW233012   1.373   3.027  17.678 -0.5272  1.1058 -1.2357
 7185SOL     OW33013   4.516   3.650   8.574  0.1427 -0.0670  0.0008
 7185SOL    HW133014   4.478   3.585   8.633  0.7639 -2.0384 -1.7390
 7185SOL    HW233015   4.603   3.670   8.610  0.2377  1.2557 -0.9871
 7186SOL     OW33016   4.153   0.384  12.271 -0.0706 -0.6387  0.0067
 7186SOL    HW133017   4.132   0.475  12.250 -0.7045 -0.7766  0.0446
 7186SOL    HW233018   4.154   0.344  12.184  2.8925 -0.5130 -0.0099
 7187SOL     OW33019   1.849   1.812   9.644 -0.6349 -0.1784  0.3826
 7187SOL    HW133020   1.917   1.878   9.631 -0.8371 -0.0831 -0.1967
 7187SOL    HW233021   1.860   1.755   9.568  1.5491  0.6554  0.0620
 7188SOL     OW33022   4.077   0.774   3.698  0.0526  0.2549 -0.1314
 7188SOL    HW133023   4.093   0.693   3.746  2.2864  1.8015  1.7819
 7188SOL    HW233024   4.104   0.840   3.762 -0.3416 -0.3870  0.6894
 7189SOL     OW33025   3.084   1.400   3.198 -0.5509  0.1450  0.3774
 7189SOL    HW133026   3.123   1.432   3.117 -0.9962  1.1522  0.5634
 7189SOL    HW233027   3.161   1.355   3.234 -0.9885 -1.5397 -0.8122
 7190SOL     OW33028   0.488   2.492   2.514  0.8498  0.5480 -0.3467
 7190SOL    HW133029   0.505   2.494   2.420  0.7737  0.4466 -0.3626
 7190SOL    HW233030   0.489   2.585   2.534 -0.2076  0.0584  2.0051
 7191SOL     OW33031   2.348   3.936   3.262 -0.1967 -0.3135 -0.0614
 7191SOL    HW133032   2.258   3.968   3.263  0.0404  0.3200  1.3815
 7191SOL    HW233033   2.351   3.898   3.350 -0.3725  0.9618  0.5063
 7192SOL     OW33034   3.211   3.085   7.841 -0.1641  0.4554 -0.2221
 7192SOL    HW133035   3.151   3.109   7.911  0.1525  0.6757 -0.0216
 7192SOL    HW233036   3.291   3.104   7.891  0.1143 -0.7898 -0.1929
 7193SOL     OW33037   0.776   3.951   5.874  0.3457 -0.0692  0.2757
 7193SOL    HW133038   0.721   4.005   5.817 -0.7434 -0.7046  0.7270
 7193SOL    HW233039   0.720   3.875   5.889 -0.0950  0.4494  1.2763
 7194SOL     OW33040   1.151   4.471   7.778 -0.4914 -0.5339 -0.5325
 7194SOL    HW133041   1.203   4.514   7.845  0.1789  0.2979 -1.5897
 7194SOL    HW233042   1.137   4.555   7.733 -3.9647 -1.2155 -0.7472
 7195SOL     OW33043   4.295   1.550   2.412  0.1611 -0.6433  0.2316
 7195SOL    HW133044   4.284   1.458   2.387  1.3097 -0.7147  0.0212
 7195SOL    HW233045   4.348   1.545   2.491  2.2402  1.5616 -1.0160
 7196SOL     OW33046   3.648   1.201   6.081 -0.2744  0.8976 -0.4447
 7196SOL    HW133047   3.679   1.283   6.119 -0.2354  0.0363  1.3916
 7196SOL    HW233048   3.728   1.152   6.065 -0.4880  0.5665 -0.5080
 7197SOL     OW33049   0.986   3.376   5.685  0.4993 -0.4445  0.6464
 7197SOL    HW133050   0.992   3.399   5.592 -0.5619 -0.9260  0.4626
 7197SOL    HW233051   0.890   3.377   5.689  0.4587 -2.8269  0.2005
 7198SOL     OW33052   3.344   3.983   6.301  0.0481 -0.5573  0.0802
 7198SOL    HW133053   3.342   4.024   6.387 -2.3199  1.1853 -0.8027
 7198SOL    HW233054   3.348   3.892   6.329  3.1322 -0.5720 -0.3776
 7199SOL     OW33055   4.466   4.287   7.112  0.8790 -0.2900  0.1580
 7199SOL    HW133056   4.494   4.217   7.171  3.3339  0.2851 -0.3012
 7199SOL    HW233057   4.549   4.313   7.071  0.3307 -0.2221 -0.8868
 7200SOL     OW33058   2.971   4.560   3.847  0.9015 -0.1442  0.1799
 7200SOL    HW133059   2.957   4.548   3.753 -0.6720 -1.4443  0.5919
 7200SOL    HW233060   2.969   4.466   3.864  1.4557 -0.3552 -0.8943
 7201SOL     OW33061   0.139   2.211   7.220 -0.0751  0.2876  0.1105
 7201SOL    HW133062   0.102   2.146   7.161 -2.4331  0.9592  0.8704
 7201SOL    HW233063   0.233   2.194   7.206 -0.0178  0.8173 -0.1635
 7202SOL     OW33064   4.212   2.775   6.691 -0.7072 -0.3780 -0.5333
 7202SOL    HW133065   4.263   2.816   6.761  0.6860 -0.7691 -1.3191
 7202SOL    HW233066   4.218   2.682   6.712 -1.1828  0.2115  2.1940
 7203SOL     OW33067   1.411   1.291   4.628  0.1210 -1.0798 -0.1915
 7203SOL    HW133068   1.411   1.385   4.645  1.0994 -1.0532 -0.3242
 7203SOL    HW233069   1.324   1.286   4.589  0.3681  2.3851 -1.2306
 7204SOL     OW33070   1.580   2.388   3.516  0.2091 -0.0944  0.4939
 7204SOL    HW133071   1.665   2.430   3.527 -0.2284  0.8258  0.4627
 7204SOL    HW233072   1.544   2.412   3.602 -1.4170  0.5797 -0.3746
 7205SOL     OW33073   3.679   3.634   5.086  0.0061  0.2130 -0.8330
 7205SOL    HW133074   3.731   3.562   5.123 -5.1136 -2.4673  1.3707
 7205SOL    HW233075   3.630   3.667   5.162  0.3278 -1.0280 -0.0808
 7206SOL     OW33076   3.479   1.461  13.783 -0.0562  0.4634  0.6685
 7206SOL    HW133077   3.385   1.472  13.793 -0.2709 -0.5653 -0.3584
 7206SOL    HW233078   3.498   1.553  13.762 -1.2306  0.1413 -1.6752
 7207SOL     OW33079   3.410   0.395  11.789  0.1975  0.3788  0.4045
 7207SOL    HW133080   3.464   0.323  11.757  1.9167  0.7845  2.3835
 7207SOL    HW233081   3.334   0.384  11.731 -0.5930 -0.8645  1.6913
 7208SOL     OW33082   1.095   1.332   4.748 -0.6111  0.6493 -0.5098
 7208SOL    HW133083   1.155   1.398   4.783  0.1337 -1.1932  1.7542
 7208SOL    HW233084   1.064   1.396   4.684  0.8741  2.8456  0.9644
 7209SOL     OW33085   3.621   3.770  10.546  0.2118 -0.0498  0.0393
 7209SOL    HW133086   3.668   3.770  10.462  2.9038 -0.7845  1.5385
 7209SOL    HW233087   3.541   3.815  10.520  0.4449  1.0886  1.3127
 7210SOL     OW33088   1.503   3.709  13.219 -0.2810  0.2467 -0.8815
 7210SOL    HW133089   1.487   3.627  13.171 -0.8117  0.2599 -0.7183
 7210SOL    HW233090   1.412   3.737  13.223  0.5547  2.4565  3.0353
 7211SOL     OW33091   1.794   0.364   7.043 -0.1410 -0.6827  0.3746
 7211SOL    HW133092   1.871   0.397   6.997 -1.1074 -0.6594 -1.2363
 7211SOL    HW233093   1.806   0.271   7.063  2.3619 -0.2271  0.8940
 7212SOL     OW33094   1.004   3.502   7.953  0.0243  0.1245 -0.4142
 7212SOL    HW133095   1.053   3.508   7.871  3.0762 -1.6239  1.2505
 7212SOL    HW233096   0.931   3.445   7.930 -2.1268  2.0297  1.7334
 7213SOL     OW33097   2.240   2.305   6.517  0.4955  0.4094  0.1648
 7213SOL    HW133098   2.184   2.243   6.564  0.9870  0.5514  0.9262
 7213SOL    HW233099   2.298   2.331   6.588 -0.9617  0.6970  1.2483
 7214SOL     OW33100   4.342   2.987   2.177  0.4344  0.2377  0.4044
 7214SOL    HW133101   4.257   2.944   2.192 -0.9975  2.4587 -1.4263
 7214SOL    HW233102   4.397   2.909   2.174 -1.2129 -0.8577 -1.0416
 7215SOL     OW33103   1.917   0.472   6.150  0.4131 -0.0527  0.0135
 7215SOL    HW133104   1.938   0.519   6.069 -0.7619  0.1846 -0.1550
 7215SOL    HW233105   1.825   0.455   6.132  0.6790 -1.5793  0.1420
 7216SOL     OW33106   0.008   1.388   4.044  0.1473 -0.3248  0.3422
 7216SOL    HW133107   0.075   1.346   4.099 -0.1986 -0.7627  0.4314
 7216SOL    HW233108   4.703   1.446   4.115 -0.7609 -0.5141  0.1338
 7217SOL     OW33109   4.233   4.513   7.918  0.0964  0.6860  0.3052
 7217SOL    HW133110   4.263   4.473   7.836  0.3131  1.9489 -0.2326
 7217SOL    HW233111   4.250   4.444   7.982  0.2163 -0.6739 -1.1778
 7218SOL     OW33112   4.140   1.078   9.215 -0.1293  0.0342  0.3621
 7218SOL    HW133113   4.183   0.993   9.228  0.1802  0.3413  1.2904
 7218SOL    HW233114   4.205   1.136   9.177  3.2100 -3.6214  0.5252
 7219SOL     OW33115   0.145   2.922   5.767 -0.0756  0.1920  0.5600
 7219SOL    HW133116   0.161   2.831   5.741  0.4843  0.7661 -1.1138
 7219SOL    HW233117   0.149   2.908   5.862  0.0312 -1.2704  0.3297
 7220SOL     OW33118   3.849   4.543   1.252 -0.2103 -0.0600 -0.3094
 7220SOL    HW133119   3.806   4.603   1.314  0.5565  1.1011 -0.9020
 7220SOL    HW233120   3.803   4.463   1.277 -0.4588  0.4250  0.8015
 7221SOL     OW33121   2.156   1.360   5.692  0.7056 -0.3700  0.3055
 7221SOL    HW133122   2.078   1.403   5.657  1.6434 -0.0986 -1.4306
 7221SOL    HW233123   2.120   1.313   5.768 -1.2119  1.7761  0.7115
 7222SOL     OW33124   0.459   1.644   2.349 -0.2273 -0.0246  0.0131
 7222SOL    HW133125   0.411   1.562   2.337  0.1430  0.3195 -3.6913
 7222SOL    HW233126   0.481   1.652   2.256 -1.7465  0.4168 -0.3127
 7223SOL     OW33127   4.562   0.502   5.199 -0.3356  0.0356 -0.1282
 7223SOL    HW133128   4.513   0.458   5.130 -0.6697 -1.4414  1.0575
 7223SOL    HW233129   4.617   0.427   5.221  0.4801  1.4214  2.5675
 7224SOL     OW33130   4.218   1.013   5.503  0.1790  0.3330 -0.1085
 7224SOL    HW133131   4.291   0.966   5.462  0.7357 -0.3108  1.6384
 7224SOL    HW233132   4.262   1.078   5.559 -1.2527  0.8735  0.3880
 7225SOL     OW33133   2.416   3.395  10.834  0.3824 -0.4165 -0.7361
 7225SOL    HW133134   2.387   3.359  10.918 -2.3292  1.7909 -0.7115
 7225SOL    HW233135   2.421   3.482  10.873 -0.4892 -0.0343 -1.4703
 7226SOL     OW33136   3.978   0.010  13.687  1.0370  0.0866 -0.0415
 7226SOL    HW133137   3.987   0.070  13.760 -1.2185  0.1980  0.1428
 7226SOL    HW233138   3.954   4.652  13.731  1.9593 -0.0649  0.1744
 7227SOL     OW33139   0.103   2.319   1.111  0.4102  0.3742  0.3289
 7227SOL    HW133140   0.018   2.318   1.067  0.9155  1.0055 -0.6752
 7227SOL    HW233141   0.078   2.324   1.203  1.0204  1.8830  0.4120
 7228SOL     OW33142   0.471   0.353   1.191 -0.8294  0.3895  0.6784
 7228SOL    HW133143   0.444   0.309   1.110 -2.0245  1.4036  0.5256
 7228SOL    HW233144   0.383   0.372   1.223 -0.9543  0.0824  0.5144
 7229SOL     OW33145   1.092   3.227   9.864  1.0127 -0.2424  0.3583
 7229SOL    HW133146   1.187   3.222   9.868  0.9563 -0.2641  1.9888
 7229SOL    HW233147   1.073   3.143   9.822 -1.1252  1.0468 -1.2913
 7230SOL     OW33148   1.831   2.738  15.091  0.3351  0.2838  0.1218
 7230SOL    HW133149   1.752   2.717  15.141 -0.1488  2.4813  0.2579
 7230SOL    HW233150   1.824   2.658  15.039 -0.2875  0.9275 -0.7946
 7231SOL     OW33151   3.766   2.204  16.514 -0.0574  0.0723 -0.4424
 7231SOL    HW133152   3.757   2.287  16.467 -3.6550  0.5075  1.0088
 7231SOL    HW233153   3.828   2.212  16.586  0.9322 -3.1275 -0.9365
 7232SOL     OW33154   0.430   3.052   6.254 -0.0965 -0.4711  0.3466
 7232SOL    HW133155   0.460   3.143   6.253  0.2071 -0.5748 -0.4007
 7232SOL    HW233156   0.417   3.036   6.347 -0.8026  1.0798  0.5152
 7233SOL     OW33157   1.635   0.783  13.621  0.1374  0.5627  0.2782
 7233SOL    HW133158   1.695   0.711  13.600 -2.9787 -1.1620 -2.7194
 7233SOL    HW233159   1.669   0.811  13.706 -0.4141  0.0008  0.6920
 7234SOL     OW33160   2.948   0.530  13.082 -0.0107 -0.4027  0.3310
 7234SOL    HW133161   2.987   0.606  13.038 -2.3399  0.6532  0.0982
 7234SOL    HW233162   2.963   0.549  13.175  0.8473  0.5711  0.0013
 7235SOL     OW33163   2.321   3.453   5.822 -0.0417  0.0959 -0.3134
 7235SOL    HW133164   2.390   3.465   5.758  0.2062  2.3744  0.3976
 7235SOL    HW233165   2.333   3.363   5.852 -2.2395 -0.3762 -0.8409
 7236SOL     OW33166   1.241   1.956  11.013  0.0249 -0.0800 -0.3847
 7236SOL    HW133167   1.326   1.976  11.053  0.0048  1.5726 -1.1637
 7236SOL    HW233168   1.228   1.865  11.040  1.8887 -0.5756 -1.1161
 7237SOL     OW33169   3.833   2.365  17.085  0.0902  0.2531 -0.5335
 7237SOL    HW133170   3.789   2.430  17.031  0.5239  0.1427 -1.0148
 7237SOL    HW233171   3.870   2.418  17.155 -0.0895 -0.3350  0.0034
 7238SOL     OW33172   3.071   4.252   4.208 -0.6778  0.1385 -0.0591
 7238SOL    HW133173   3.061   4.254   4.303 -2.7835  0.8516 -0.2889
 7238SOL    HW233174   3.052   4.344   4.194 -1.8714  0.2249  2.0301
 7239SOL     OW33175   4.437   4.060   8.259  0.1721  0.4802 -0.5710
 7239SOL    HW133176   4.516   4.034   8.212 -1.6355 -2.0044 -2.2726
 7239SOL    HW233177   4.451   4.036   8.351 -0.2048 -0.9290 -0.8786
 7240SOL     OW33178   4.149   0.662  10.500  0.1668  0.5404 -0.2164
 7240SOL    HW133179   4.147   0.752  10.535  0.7455 -0.1176  1.5413
 7240SOL    HW233180   4.141   0.691  10.409  1.0853 -2.5857 -1.2677
 7241SOL     OW33181   2.604   2.683   2.819  0.2225 -0.1448  0.6016
 7241SOL    HW133182   2.632   2.728   2.898  0.1404  2.9516 -1.1331
 7241SOL    HW233183   2.689   2.681   2.775 -0.3789  1.6244 -0.6667
 7242SOL     OW33184   2.170   2.223   6.941  0.0844 -0.1699  0.0600
 7242SOL    HW133185   2.128   2.278   6.874 -0.5496  2.0903  2.3129
 7242SOL    HW233186   2.260   2.235   6.910  0.2765 -1.0781  0.2553
 7243SOL     OW33187   3.383   1.110   5.739 -0.4027 -0.6753 -0.4089
 7243SOL    HW133188   3.338   1.092   5.821 -2.5681  1.9970 -1.0337
 7243SOL    HW233189   3.468   1.070   5.756  0.1727  0.1676 -1.2943
 7244SOL     OW33190   4.476   2.559   2.153  0.6663  0.9254  0.0309
 7244SOL    HW133191   4.458   2.545   2.060 -0.9199  0.3433  0.4236
 7244SOL    HW233192   4.488   2.653   2.142  0.6299  0.8603 -0.5666
 7245SOL     OW33193   3.566   3.712   9.063  0.3505  0.7017  0.2459
 7245SOL    HW133194   3.648   3.693   9.017  0.3142  0.1983  0.3887
 7245SOL    HW233195   3.540   3.630   9.105 -4.3476  1.5851 -0.9295
 7246SOL     OW33196   2.039   2.837  16.168  0.2203  0.0921  0.1413
 7246SOL    HW133197   2.036   2.900  16.240  1.5976  0.3978 -0.0720
 7246SOL    HW233198   1.945   2.819  16.158  0.4084 -0.0373 -1.4046
 7247SOL     OW33199   3.731   4.221  10.858 -0.2139  0.0343 -0.1426
 7247SOL    HW133200   3.668   4.281  10.898  0.5150  0.3778  0.4931
 7247SOL    HW233201   3.688   4.138  10.874  0.2486 -0.0695  0.5599
 7248SOL     OW33202   3.924   0.996   1.262 -0.2278 -0.0802  0.1535
 7248SOL    HW133203   3.878   1.062   1.315  1.4836  2.4211 -1.4893
 7248SOL    HW233204   3.904   1.041   1.180  0.5622  2.0725  1.1415
 7249SOL     OW33205   2.899   1.880   8.554  0.3030  0.1540 -0.5716
 7249SOL    HW133206   2.892   1.897   8.648  0.6505 -1.8305 -0.1980
 7249SOL    HW233207   2.939   1.960   8.519  1.4513  0.1900  0.8276
 7250SOL     OW33208   1.147   2.056   5.470  0.3710 -0.0219  0.7042
 7250SOL    HW133209   1.076   2.057   5.534  0.1585 -1.1251  0.4787
 7250SOL    HW233210   1.185   1.970   5.490 -0.8866 -0.7198  0.0674
 7251SOL     OW33211   1.856   4.700   6.244 -0.2478 -0.5755 -0.5244
 7251SOL    HW133212   1.881   4.695   6.336 -0.6538 -0.0396 -0.3858
 7251SOL    HW233213   1.876   4.613   6.210  3.0335 -0.4316  1.0273
 7252SOL     OW33214   2.345   4.177   9.838  0.7500 -0.2210 -0.0350
 7252SOL    HW133215   2.314   4.263   9.869 -1.3805 -1.3173  0.8485
 7252SOL    HW233216   2.267   4.135   9.802  0.9752 -0.2039 -0.5545
 7253SOL     OW33217   3.371   1.588  16.700  0.0793  0.3222  0.1507
 7253SOL    HW133218   3.440   1.652  16.714  0.4225  0.0329 -0.2362
 7253SOL    HW233219   3.312   1.613  16.772 -0.3586 -0.5054  0.0815
 7254SOL     OW33220   0.283   0.684   4.025  0.1193  0.1654 -0.1393
 7254SOL    HW133221   0.351   0.728   3.975  1.5393 -1.1515  0.6597
 7254SOL    HW233222   0.277   0.730   4.109  1.9335  2.0812 -1.0646
 7255SOL     OW33223   2.405   4.370   4.641 -0.6743  0.0606  0.1778
 7255SOL    HW133224   2.368   4.294   4.596  0.7493 -0.2742 -0.4281
 7255SOL    HW233225   2.368   4.441   4.589 -0.9805 -0.3032 -0.0976
 7256SOL     OW33226   0.959   4.681  17.154  0.0107  0.3504 -0.2021
 7256SOL    HW133227   0.932   4.697  17.064 -0.4103  2.8569  0.3618
 7256SOL    HW233228   0.956   0.046  17.191 -0.4257 -0.5158  1.8392
 7257SOL     OW33229   1.352   2.441   9.309  0.6634 -0.5620 -1.2141
 7257SOL    HW133230   1.350   2.534   9.287 -0.0778 -0.9664 -2.8945
 7257SOL    HW233231   1.281   2.419   9.248 -3.1584  1.4471  2.4500
 7258SOL     OW33232   2.187   2.149   7.616  0.0618 -0.2987  0.0931
 7258SOL    HW133233   2.269   2.138   7.665 -0.4004  1.1184  1.1897
 7258SOL    HW233234   2.125   2.184   7.681  0.0152 -2.1086  1.0185
 7259SOL     OW33235   1.855   3.631   6.287  0.2842 -0.0103 -0.0081
 7259SOL    HW133236   1.894   3.547   6.262 -1.3741 -0.7524 -0.0659
 7259SOL    HW233237   1.777   3.600   6.333  1.3024 -2.1018  0.3486
 7260SOL     OW33238   2.611   3.814  10.118  0.0059  0.1233  0.2972
 7260SOL    HW133239   2.704   3.819  10.097 -0.1816  1.4580 -0.2256
 7260SOL    HW233240   2.593   3.907  10.134  1.3785 -0.1221  3.3721
 7261SOL     OW33241   0.231   1.187   8.939  0.6868 -0.2105 -0.2898
 7261SOL    HW133242   0.168   1.145   8.998  0.9953 -0.0241  0.1675
 7261SOL    HW233243   0.309   1.135   8.958  0.3695 -0.3484  0.6454
 7262SOL     OW33244   0.173   3.686   6.331 -0.0150 -0.0308  0.1789
 7262SOL    HW133245   0.095   3.712   6.282  0.3994  0.4231 -0.2413
 7262SOL    HW233246   0.224   3.644   6.262 -0.3141  0.2203 -0.1968
 7263SOL     OW33247   2.957   2.279   8.695 -0.1468 -0.0623 -0.4705
 7263SOL    HW133248   3.009   2.351   8.733 -0.1596  1.1449 -2.7710
 7263SOL    HW233249   2.984   2.211   8.756 -0.2195 -0.5786 -1.0217
 7264SOL     OW33250   2.444   0.903   6.029  0.2365  0.4857  0.0572
 7264SOL    HW133251   2.514   0.880   6.090  0.9331  0.9579 -0.5753
 7264SOL    HW233252   2.388   0.964   6.076  0.7730  1.2384 -0.2941
 7265SOL     OW33253   4.662   3.967   3.666 -0.3998  0.5564  0.8967
 7265SOL    HW133254   4.677   4.016   3.747 -0.4254 -1.3873  2.0641
 7265SOL    HW233255   0.004   3.898   3.675  1.1260  1.7570 -0.9834
 7266SOL     OW33256   3.395   0.675  10.746 -0.3859  0.4202  0.1712
 7266SOL    HW133257   3.325   0.644  10.689 -0.8936  1.1438  0.3989
 7266SOL    HW233258   3.438   0.593  10.771 -1.5842  0.2187  1.5402
 7267SOL     OW33259   4.086   2.289   9.758  0.5723  0.3534 -0.2154
 7267SOL    HW133260   4.035   2.210   9.743  1.1417  0.1795 -1.2435
 7267SOL    HW233261   4.101   2.274   9.851 -0.2713 -1.5539 -0.4015
 7268SOL     OW33262   0.978   1.929  16.603  0.9985 -0.0038  0.2096
 7268SOL    HW133263   0.954   1.836  16.601  1.4379 -0.0870 -1.4197
 7268SOL    HW233264   0.930   1.956  16.525  1.7815 -0.4694 -0.4458
 7269SOL     OW33265   0.330   0.909   0.693  0.0645 -0.5435  0.4617
 7269SOL    HW133266   0.425   0.914   0.683  0.1413 -1.4771  0.7679
 7269SOL    HW233267   0.303   0.871   0.610  1.5534  2.3003 -1.3303
 7270SOL     OW33268   0.770   4.592   9.149  0.7020  0.2975 -0.3230
 7270SOL    HW133269   0.782   4.602   9.054  0.7880 -1.6366 -0.5240
 7270SOL    HW233270   0.832   4.656   9.184  0.5847  0.0748  0.2873
 7271SOL     OW33271   2.421   3.331  10.555  0.7364  0.0675 -0.7064
 7271SOL    HW133272   2.369   3.251  10.552  0.3103  0.3006  0.5366
 7271SOL    HW233273   2.397   3.363  10.642  2.5049  1.5433 -0.7628
 7272SOL     OW33274   2.229   4.413   9.934 -0.3903  0.5092 -0.0185
 7272SOL    HW133275   2.231   4.506   9.955 -0.7249  0.2406  1.2472
 7272SOL    HW233276   2.215   4.377  10.022  1.5597  1.1227  0.5439
 7273SOL     OW33277   4.318   3.481   3.705  0.3913 -0.5967  0.2582
 7273SOL    HW133278   4.230   3.516   3.718  1.3865  2.0379 -0.0598
 7273SOL    HW233279   4.311   3.442   3.618  0.0261  0.4652 -0.1950
 7274SOL     OW33280   1.999   0.819  17.515  0.1473  0.4589 -0.0819
 7274SOL    HW133281   2.027   0.776  17.434 -2.8655  0.9082 -1.3759
 7274SOL    HW233282   1.994   0.744  17.574 -3.0638  1.3757  0.8228
 7275SOL     OW33283   2.291   3.675   6.016 -0.0408  0.1981 -0.5044
 7275SOL    HW133284   2.288   3.597   5.960  2.8361 -0.5215  0.3249
 7275SOL    HW233285   2.264   3.642   6.102  0.8666 -1.4998 -0.8543
 7276SOL     OW33286   2.350   4.493  15.504 -0.3286 -0.2162  0.1493
 7276SOL    HW133287   2.272   4.479  15.558 -0.4484 -4.6303 -1.1719
 7276SOL    HW233288   2.377   4.402  15.488  2.2837  0.6627 -0.5199
 7277SOL     OW33289   2.113   1.179   6.307 -0.0883  0.9018  0.4681
 7277SOL    HW133290   2.089   1.165   6.399 -0.8591  0.8506  0.2625
 7277SOL    HW233291   2.063   1.111   6.262 -2.8083  2.8434  0.5535
 7278SOL     OW33292   3.373   1.971  13.657 -0.1918  0.1378  0.8072
 7278SOL    HW133293   3.430   2.040  13.623  0.8609 -1.2371 -0.2669
 7278SOL    HW233294   3.365   2.006  13.745  2.0262  2.0245  0.2829
 7279SOL     OW33295   0.087   3.003   7.019  0.0142  0.3920  0.1136
 7279SOL    HW133296   0.005   3.032   6.980 -0.1433  1.1034  0.9727
 7279SOL    HW233297   0.056   3.000   7.110  1.2971 -0.1351  0.5432
 7280SOL     OW33298   1.573   1.202   3.796 -0.1244 -0.6872  0.0880
 7280SOL    HW133299   1.648   1.202   3.736 -0.1950 -0.1833 -0.0007
 7280SOL    HW233300   1.567   1.294   3.822  0.3912 -0.6229 -0.0232
 7281SOL     OW33301   4.071   4.533   5.903 -0.5785 -0.2051 -0.5280
 7281SOL    HW133302   4.100   4.456   5.854 -0.7513  0.3131 -1.4438
 7281SOL    HW233303   3.991   4.556   5.855 -0.6274 -1.1454 -0.8949
 7282SOL     OW33304   1.078   0.062   0.078 -0.5636 -0.0997 -0.5818
 7282SOL    HW133305   1.097   0.147   0.040  0.9779  0.2088  0.8679
 7282SOL    HW233306   0.982   0.060   0.084 -0.2863  2.5391  5.2096
 7283SOL     OW33307   0.762   1.661   1.156 -0.2367  0.0830 -0.4580
 7283SOL    HW133308   0.736   1.622   1.240  3.6916  1.2473  1.2762
 7283SOL    HW233309   0.843   1.702   1.186 -2.1955  2.3354  1.7137
 7284SOL     OW33310   3.843   1.502   5.006  0.3510 -0.5084 -0.2529
 7284SOL    HW133311   3.911   1.434   5.000 -0.7510 -1.4375 -2.1832
 7284SOL    HW233312   3.770   1.443   4.992 -0.0618 -0.4780  1.7738
 7285SOL     OW33313   1.637   3.947   3.412  0.3900 -0.2985  0.7812
 7285SOL    HW133314   1.669   4.033   3.384  0.5829 -0.6796 -0.1443
 7285SOL    HW233315   1.711   3.917   3.465  0.3725  2.8370  2.6131
 7286SOL     OW33316   1.792   3.883   6.629 -0.4484 -0.6032 -0.3903
 7286SOL    HW133317   1.873   3.864   6.582 -0.8189 -3.1958  0.0253
 7286SOL    HW233318   1.774   3.810   6.688  0.3607  1.2464  2.1476
 7287SOL     OW33319   1.109   3.147   3.881  0.2734 -0.2554 -0.1807
 7287SOL    HW133320   1.071   3.171   3.797 -0.8059 -0.6623  0.1838
 7287SOL    HW233321   1.131   3.055   3.867 -0.6826 -0.5039 -0.1118
 7288SOL     OW33322   2.247   3.099  13.295  0.1128  0.0350  0.2702
 7288SOL    HW133323   2.267   3.170  13.355  0.6890  0.3737 -0.3189
 7288SOL    HW233324   2.332   3.080  13.256  0.4923 -2.6490  2.3979
 7289SOL     OW33325   0.932   1.257   3.766  0.2031  0.0090  0.4280
 7289SOL    HW133326   0.955   1.230   3.677  0.1466  0.0818  0.3912
 7289SOL    HW233327   1.009   1.221   3.810 -0.0019 -0.3062  0.5242
 7290SOL     OW33328   3.916   4.116   4.981 -0.4509  0.1526  0.6920
 7290SOL    HW133329   3.868   4.101   4.899 -0.5294  0.9620  0.5848
 7290SOL    HW233330   3.895   4.036   5.029  1.0809 -1.0442 -0.6081
 7291SOL     OW33331   1.523   2.937  12.410  0.0747 -0.3497 -0.0466
 7291SOL    HW133332   1.470   2.939  12.489 -2.1326 -1.0265 -1.4885
 7291SOL    HW233333   1.529   2.842  12.394 -1.3256 -0.4444 -0.0550
 7292SOL     OW33334   2.893   3.524   0.851 -0.1650 -0.0368  0.1282
 7292SOL    HW133335   2.929   3.594   0.797  0.9515 -1.5007 -1.0367
 7292SOL    HW233336   2.935   3.443   0.821 -0.8685 -0.7459  1.0815
 7293SOL     OW33337   2.640   3.817  16.703  0.1567  0.2666  0.0019
 7293SOL    HW133338   2.625   3.781  16.791 -1.7645 -2.0465 -1.2866
 7293SOL    HW233339   2.554   3.859  16.695 -0.1207 -0.1076  0.9694
 7294SOL     OW33340   1.046   1.694  17.302 -0.0839 -0.2715  0.4021
 7294SOL    HW133341   1.026   1.709  17.395  1.2352 -1.4705  0.8718
 7294SOL    HW233342   1.109   1.764  17.285 -0.2036  0.1533  1.7053
 7295SOL     OW33343   3.538   0.239   4.613 -0.4842 -0.0416  0.4162
 7295SOL    HW133344   3.516   0.209   4.525 -2.7446 -0.7444  1.2308
 7295SOL    HW233345   3.560   0.152   4.646  1.6871  1.0697  1.9746
 7296SOL     OW33346   2.414   1.680   8.605 -0.1201 -0.1661  0.4856
 7296SOL    HW133347   2.492   1.625   8.601 -0.9553 -1.2135 -1.5017
 7296SOL    HW233348   2.460   1.763   8.610 -0.4451  0.0050  0.6264
 7297SOL     OW33349   2.262   2.360  10.755  0.5123  0.2408  0.1840
 7297SOL    HW133350   2.239   2.413  10.831  0.5388 -0.8479  0.9515
 7297SOL    HW233351   2.175   2.354  10.715  1.3483 -2.2135 -1.2953
 7298SOL     OW33352   2.530   3.993  12.204 -0.2633  0.0393  0.4091
 7298SOL    HW133353   2.517   4.010  12.110 -1.3348 -3.3132 -0.0489
 7298SOL    HW233354   2.598   4.058  12.226  0.6884 -1.0306  0.6377
 7299SOL     OW33355   1.570   3.460  11.450 -0.1215  0.1124 -0.4547
 7299SOL    HW133356   1.496   3.432  11.397  2.3221 -0.3610 -3.5757
 7299SOL    HW233357   1.537   3.432  11.536 -0.0764  0.7147 -0.2384
 7300SOL     OW33358   3.674   1.018   6.446 -0.3756  0.3936 -0.5002
 7300SOL    HW133359   3.683   1.080   6.518 -2.7398 -0.0452  0.1674
 7300SOL    HW233360   3.643   0.944   6.499 -2.7086  1.7971  0.0831
 7301SOL     OW33361   3.713   3.460  13.424 -0.6479 -0.3184  0.3674
 7301SOL    HW133362   3.726   3.379  13.474 -1.1377 -1.0712 -0.6993
 7301SOL    HW233363   3.737   3.534  13.479  0.9083 -1.2493  0.9385
 7302SOL     OW33364   3.904   1.028   3.258  0.1392 -0.1537  0.7999
 7302SOL    HW133365   3.822   0.981   3.246 -0.8444  1.9452 -0.7980
 7302SOL    HW233366   3.957   0.966   3.308 -1.8959 -3.5968 -1.3044
 7303SOL     OW33367   3.198   4.086   3.498  0.0477 -0.0894  0.1363
 7303SOL    HW133368   3.287   4.085   3.465  1.1417 -2.3152  3.1190
 7303SOL    HW233369   3.162   4.020   3.438 -1.9375  0.6155  0.5320
 7304SOL     OW33370   1.664   2.554  15.506 -0.1047 -0.2320  0.5225
 7304SOL    HW133371   1.683   2.562  15.412 -0.5532 -0.6736  0.3931
 7304SOL    HW233372   1.733   2.497  15.538 -0.4450 -0.7986  0.2506
 7305SOL     OW33373   3.802   3.869   1.441  0.1948  0.0399 -0.0414
 7305SOL    HW133374   3.860   3.798   1.468 -0.7581 -0.3204  1.1120
 7305SOL    HW233375   3.856   3.947   1.440  1.7422 -1.0279  0.4463
 7306SOL     OW33376   1.823   4.295  13.988  0.4997 -0.0422 -0.1365
 7306SOL    HW133377   1.744   4.349  13.992  1.1959  1.1761 -2.7204
 7306SOL    HW233378   1.894   4.358  14.001  2.6826 -2.4344 -0.3824
 7307SOL     OW33379   1.957   1.642   3.831  0.8757  0.0300  0.3046
 7307SOL    HW133380   2.040   1.670   3.791  0.9995  1.6911  1.7228
 7307SOL    HW233381   1.957   1.561   3.779  0.2040 -0.9066  1.7524
 7308SOL     OW33382   2.707   2.632   0.716 -0.4280  0.1475 -0.1789
 7308SOL    HW133383   2.656   2.664   0.642  0.4065  2.7644  0.3769
 7308SOL    HW233384   2.671   2.546   0.737  0.6669 -0.7286 -1.8903
 7309SOL     OW33385   3.837   2.912  17.437 -0.3506 -0.3294  0.0428
 7309SOL    HW133386   3.858   2.862  17.515  0.9561 -0.1501 -0.1994
 7309SOL    HW233387   3.901   2.983  17.437  0.3270 -0.9505  0.7932
 7310SOL     OW33388   3.028   1.908   0.957 -0.5085 -0.0122  0.7640
 7310SOL    HW133389   2.990   1.922   0.870 -1.6112  0.0768  1.2560
 7310SOL    HW233390   3.050   1.996   0.987 -0.8684  0.6019 -0.7497
 7311SOL     OW33391   3.477   4.632   5.225 -0.1537  0.1787 -0.2104
 7311SOL    HW133392   3.437   4.618   5.311 -1.1066  0.0357 -0.6829
 7311SOL    HW233393   3.558   4.677   5.247 -0.6079  0.5619  0.6477
 7312SOL     OW33394   0.334   1.603   2.581  0.6836  0.1023 -0.0245
 7312SOL    HW133395   0.342   1.671   2.648 -0.1648  0.2508 -0.0802
 7312SOL    HW233396   0.393   1.638   2.514  0.1508 -1.9119 -1.5757
 7313SOL     OW33397   4.254   1.306   2.327  0.4960 -0.1526  0.0466
 7313SOL    HW133398   4.329   1.250   2.309  2.1123  1.8581  0.5660
 7313SOL    HW233399   4.187   1.252   2.287 -1.0626  2.1202 -0.3987
 7314SOL     OW33400   4.682   4.526  15.787 -0.0419 -0.0606 -0.4608
 7314SOL    HW133401   4.631   4.489  15.859  0.0488 -1.0846 -0.9158
 7314SOL    HW233402   4.712   4.610  15.823  1.7721 -0.3120 -1.3855
 7315SOL     OW33403   2.441   4.279  16.464  0.3522  0.1629  0.0119
 7315SOL    HW133404   2.486   4.364  16.459  0.6555 -0.0084 -0.1869
 7315SOL    HW233405   2.474   4.261  16.552 -0.3120 -0.4225  0.1457
 7316SOL     OW33406   0.086   1.229  16.560  0.4147 -0.1512 -0.6689
 7316SOL    HW133407   0.152   1.238  16.629 -0.5952 -1.8477  0.5143
 7316SOL    HW233408   0.041   1.156  16.602  1.0752 -1.4623 -2.2857
 7317SOL     OW33409   0.067   1.377   7.198 -0.0473 -0.2278  0.2233
 7317SOL    HW133410   0.022   1.356   7.116  2.0045  0.1940 -1.0081
 7317SOL    HW233411   0.008   1.321   7.248  2.1999  0.8574  4.1081
 7318SOL     OW33412   0.592   2.120   6.369 -0.2939 -0.4347 -0.3321
 7318SOL    HW133413   0.572   2.193   6.311  1.8503 -0.7491 -1.4667
 7318SOL    HW233414   0.517   2.146   6.422  0.0914  0.8891 -0.4207
 7319SOL     OW33415   3.017   4.519   4.162  0.1013  0.3405 -0.4944
 7319SOL    HW133416   3.019   4.559   4.075 -1.4990 -0.9803 -1.1397
 7319SOL    HW233417   2.982   4.592   4.213 -0.1086 -1.2725  1.6367
 7320SOL     OW33418   4.356   2.624   5.723 -0.7183  0.0099  0.6369
 7320SOL    HW133419   4.313   2.706   5.746  0.9926  1.0227  0.2146
 7320SOL    HW233420   4.382   2.596   5.810 -2.1138  0.9646  1.3663
 7321SOL     OW33421   2.092   2.910   8.628 -0.1809 -0.1372 -0.0605
 7321SOL    HW133422   2.161   2.926   8.692  0.8926 -0.0861 -1.2254
 7321SOL    HW233423   2.049   2.994   8.612 -1.1553 -0.8539 -1.1997
 7322SOL     OW33424   3.145   4.362   3.273 -0.0692 -0.0903 -0.6203
 7322SOL    HW133425   3.206   4.304   3.227 -0.5747  0.8535 -2.4786
 7322SOL    HW233426   3.168   4.451   3.247  0.3219  0.0960  0.3562
 7323SOL     OW33427   1.550   3.160   1.232  0.3419 -0.8792  0.1074
 7323SOL    HW133428   1.606   3.230   1.264 -4.0657  2.7008  0.0407
 7323SOL    HW233429   1.472   3.208   1.204 -0.0881 -2.0851 -0.7847
 7324SOL     OW33430   2.496   0.861   2.630  0.0273 -0.6187  0.0200
 7324SOL    HW133431   2.579   0.826   2.599 -0.8721 -1.0840 -1.8588
 7324SOL    HW233432   2.519   0.884   2.720  1.3259  0.1265 -0.5041
 7325SOL     OW33433   1.141   3.076   1.888 -0.4726  0.3017 -0.3690
 7325SOL    HW133434   1.108   3.021   1.958 -0.6004  0.5598 -0.2259
 7325SOL    HW233435   1.219   3.031   1.857 -0.2277  0.7544 -0.4147
 7326SOL     OW33436   2.069   1.131  17.618 -0.2160 -0.3782 -0.5952
 7326SOL    HW133437   2.103   1.201  17.563 -1.5674  0.1068 -0.8120
 7326SOL    HW233438   2.045   1.181  17.696 -0.1858 -1.3891  0.0625
 7327SOL     OW33439   4.417   0.030   6.395  0.2453 -0.1534 -0.0687
 7327SOL    HW133440   4.414   0.070   6.308 -1.9640  3.7715  1.7986
 7327SOL    HW233441   4.347   4.691   6.383  0.3132 -0.2067 -0.1841
 7328SOL     OW33442   1.565   4.448   4.493  0.5001 -0.0726 -0.4741
 7328SOL    HW133443   1.656   4.419   4.492  0.6123  0.2239  1.9740
 7328SOL    HW233444   1.569   4.525   4.437 -0.8843  0.2605 -0.1235
 7329SOL     OW33445   0.318   1.112   3.454  0.2617 -0.0821  0.5457
 7329SOL    HW133446   0.344   1.196   3.419  1.3547 -0.0599  1.4026
 7329SOL    HW233447   0.291   1.064   3.376  0.7655  2.4722 -1.1585
 7330SOL     OW33448   4.168   4.050   4.888  0.4541  0.5157 -0.4193
 7330SOL    HW133449   4.246   4.106   4.894  1.4690 -0.8144 -1.2550
 7330SOL    HW233450   4.101   4.104   4.930  0.1086 -1.7720  1.9711
 7331SOL     OW33451   3.855   1.527   9.810  0.0742  0.0013  0.1343
 7331SOL    HW133452   3.823   1.549   9.897 -0.2383  1.0223 -0.2319
 7331SOL    HW233453   3.770   1.495   9.779 -1.8430  1.0974  4.3730
 7332SOL     OW33454   3.865   3.238   1.318 -0.4975  0.0818 -0.1233
 7332SOL    HW133455   3.830   3.312   1.268  0.2348  0.0944 -0.6334
 7332SOL    HW233456   3.942   3.285   1.350 -1.6728  0.9665  1.4064
 7333SOL     OW33457   2.430   2.075   9.117  0.2526  0.3422 -0.6722
 7333SOL    HW133458   2.479   2.073   9.199  0.6914  0.0805 -0.9426
 7333SOL    HW233459   2.434   2.169   9.098 -3.6369  0.0520 -3.0770
 7334SOL     OW33460   0.951   4.608   5.949  0.3462 -0.3024 -0.7907
 7334SOL    HW133461   0.897   4.667   5.896  1.3408  1.9205  0.6692
 7334SOL    HW233462   0.936   4.530   5.896 -1.1813 -0.6729  0.2053
 7335SOL     OW33463   3.782   2.219   6.840  0.0964  0.3340 -0.4320
 7335SOL    HW133464   3.700   2.172   6.832  1.1289 -1.2082 -2.0796
 7335SOL    HW233465   3.782   2.272   6.760 -0.3003  2.1566  0.7660
 7336SOL     OW33466   4.038   3.888   3.198  0.1709 -0.2771  0.1153
 7336SOL    HW133467   4.037   3.983   3.199  0.2263 -0.2847  0.5790
 7336SOL    HW233468   4.132   3.870   3.202  0.4322  1.1997  0.6245
 7337SOL     OW33469   4.127   4.627  12.263 -0.0090  0.5758 -0.2065
 7337SOL    HW133470   4.127   4.696  12.329 -1.1229 -0.7506  1.2231
 7337SOL    HW233471   4.045   4.580  12.280  0.1138  1.4704  2.8122
 7338SOL     OW33472   1.606   2.944   6.712 -0.4415  0.2388  0.5727
 7338SOL    HW133473   1.526   2.911   6.672  0.0510 -1.6273  1.1209
 7338SOL    HW233474   1.664   2.882   6.668 -0.9259  0.9369 -1.0733
 7339SOL     OW33475   0.747   2.736  10.621 -0.1965 -0.1056 -0.3116
 7339SOL    HW133476   0.684   2.799  10.585 -0.1202 -0.0779 -0.3988
 7339SOL    HW233477   0.834   2.768  10.594 -0.6949  1.2804 -0.2771
 7340SOL     OW33478   0.163   0.059  17.490  0.7654  0.2993 -0.2493
 7340SOL    HW133479   0.233   0.079  17.552  0.3003  0.9121  0.0794
 7340SOL    HW233480   0.133   0.148  17.471  1.4132  0.7831  0.9874
 7341SOL     OW33481   1.983   2.873   7.780 -0.2084  0.0528 -0.3037
 7341SOL    HW133482   1.995   2.966   7.764  1.9449 -0.3268 -0.8820
 7341SOL    HW233483   2.073   2.842   7.768 -0.0628  0.7401 -0.9818
 7342SOL     OW33484   0.012   4.289  15.264 -0.1704 -0.2488  0.2990
 7342SOL    HW133485   4.695   4.214  15.221  1.2186  0.2308 -1.8558
 7342SOL    HW233486   4.719   4.282  15.358  0.9072  0.9669  0.5843
 7343SOL     OW33487   1.244   2.714   1.660  0.5570  0.2731  0.7355
 7343SOL    HW133488   1.157   2.738   1.693  0.0912 -0.4354  0.0359
 7343SOL    HW233489   1.220   2.665   1.581  0.9959 -0.6891  1.1941
 7344SOL     OW33490   4.323   3.133  14.136  0.3063  0.3361  0.0762
 7344SOL    HW133491   4.255   3.143  14.203  0.8667  0.1000  0.6882
 7344SOL    HW233492   4.324   3.039  14.119  1.1926  0.0811  1.5085
 7345SOL     OW33493   0.745   4.165   6.250 -0.3145 -0.5740  0.3512
 7345SOL    HW133494   0.760   4.255   6.276  0.1146 -0.2157 -1.1422
 7345SOL    HW233495   0.657   4.151   6.287 -0.1171 -2.7704 -0.0130
 7346SOL     OW33496   2.267   4.265  17.614  0.2572 -0.2397 -0.3968
 7346SOL    HW133497   2.286   4.216  17.694  2.4076  1.4327  0.1450
 7346SOL    HW233498   2.180   4.299  17.633 -1.0165 -2.4660 -2.3690
 7347SOL     OW33499   0.691   4.383   3.291  0.1189  0.0922 -0.0538
 7347SOL    HW133500   0.657   4.307   3.243 -1.0728  1.5179 -1.4484
 7347SOL    HW233501   0.682   4.346   3.379  0.9419 -0.3991 -0.1805
 7348SOL     OW33502   2.692   0.766   4.872  0.3461  0.0135 -0.4518
 7348SOL    HW133503   2.787   0.762   4.879  0.2166 -0.9708  0.6592
 7348SOL    HW233504   2.686   0.853   4.832  3.3381  0.5669  0.2878
 7349SOL     OW33505   0.504   3.581   1.248  0.6374 -0.8790  0.6942
 7349SOL    HW133506   0.438   3.641   1.282 -0.7683 -1.1407 -1.5406
 7349SOL    HW233507   0.542   3.551   1.330  1.7314 -1.5283 -0.0431
 7350SOL     OW33508   4.058   3.077  17.531  0.1972  0.5254  0.4305
 7350SOL    HW133509   4.085   3.127  17.609  0.3596 -0.8014  1.2282
 7350SOL    HW233510   4.130   3.090  17.470  0.6364 -1.5587  0.5099
 7351SOL     OW33511   4.192   3.869   1.563 -0.3084 -0.2057  0.3149
 7351SOL    HW133512   4.157   3.780   1.566  4.7359 -2.2373 -1.0884
 7351SOL    HW233513   4.278   3.865   1.607 -0.1224  0.1314 -0.0216
 7352SOL     OW33514   2.751   3.048   6.153  0.2530 -0.2813 -0.3841
 7352SOL    HW133515   2.783   3.073   6.239 -1.9262 -2.0879  0.9522
 7352SOL    HW233516   2.659   3.032   6.172  0.6572 -0.6071  1.3284
 7353SOL     OW33517   3.978   0.254  15.716  0.0239  0.5004 -0.0306
 7353SOL    HW133518   3.958   0.294  15.631  0.0028  0.2946 -0.1233
 7353SOL    HW233519   3.997   0.165  15.688 -0.4757  0.8598 -1.5073
 7354SOL     OW33520   4.652   4.165   0.984 -0.0217  0.3858  0.2559
 7354SOL    HW133521   4.650   4.129   0.896 -0.6343 -0.1927  0.5021
 7354SOL    HW233522   4.619   4.088   1.031  0.9810 -0.0059  0.3106
 7355SOL     OW33523   2.571   2.888   2.407 -0.3222  0.3925  0.4607
 7355SOL    HW133524   2.646   2.837   2.377 -1.8687 -0.3664 -2.0680
 7355SOL    HW233525   2.586   2.974   2.368  0.8800  0.5848  1.3459
 7356SOL     OW33526   3.815   1.769   6.865 -0.1241 -0.3182  0.1339
 7356SOL    HW133527   3.729   1.738   6.834  0.6457 -2.5185  0.1710
 7356SOL    HW233528   3.837   1.816   6.785 -1.0967  1.0485  0.6787
 7357SOL     OW33529   2.961   0.824   8.548 -0.1909 -0.2722 -0.6328
 7357SOL    HW133530   2.927   0.865   8.468 -1.0164 -2.0604 -1.2012
 7357SOL    HW233531   3.046   0.795   8.515  0.4110  1.4889 -0.5887
 7358SOL     OW33532   0.604   0.960   8.530  0.3842 -0.2704  0.1012
 7358SOL    HW133533   0.535   0.907   8.569  0.2094  1.3504  2.0161
 7358SOL    HW233534   0.655   0.888   8.494 -0.6880 -0.0049 -1.9123
 7359SOL     OW33535   2.508   3.639   6.348 -0.0979  0.4600 -0.1835
 7359SOL    HW133536   2.599   3.607   6.350  0.1579  1.2938  1.4290
 7359SOL    HW233537   2.484   3.591   6.427 -1.4483  1.0446 -0.2580
 7360SOL     OW33538   2.535   2.330   7.080  0.2208 -0.4616 -0.0923
 7360SOL    HW133539   2.515   2.247   7.123 -1.1849  0.4054  0.9155
 7360SOL    HW233540   2.488   2.321   6.997  0.8198  1.6715 -0.6484
 7361SOL     OW33541   2.628   2.791   3.074  0.0278  0.0209 -0.1415
 7361SOL    HW133542   2.634   2.787   3.169 -0.8700 -1.9853 -0.1708
 7361SOL    HW233543   2.716   2.819   3.050  0.1604  0.0786  0.4323
 7362SOL     OW33544   4.606   1.211   2.592 -0.2629  0.3520  0.1835
 7362SOL    HW133545   4.595   1.246   2.503  0.0846  1.9821  0.7816
 7362SOL    HW233546   4.679   1.268   2.617  0.3304 -1.2121  1.9720
 7363SOL     OW33547   0.118   0.093   5.431 -0.0186 -0.1328  0.3328
 7363SOL    HW133548   0.119   0.160   5.500  1.4040  1.2717 -1.0522
 7363SOL    HW233549   0.039   0.046   5.455  0.3115 -1.2228 -0.7444
 7364SOL     OW33550   4.648   3.579   6.801  0.3179 -0.1332  0.3911
 7364SOL    HW133551   0.004   3.583   6.853 -0.6256 -0.1990  1.8437
 7364SOL    HW233552   4.582   3.614   6.861 -0.0923  0.8158 -0.6058
 7365SOL     OW33553   3.166   4.584   2.985  0.0801 -0.4039 -0.0154
 7365SOL    HW133554   3.206   4.508   2.943  0.0278  1.1694 -2.9288
 7365SOL    HW233555   3.085   4.537   3.006  0.0439 -0.2172  0.2722
 7366SOL     OW33556   0.790   2.415   2.218 -0.0987  0.5646 -0.2301
 7366SOL    HW133557   0.816   2.385   2.131  1.1932  1.8977 -0.3027
 7366SOL    HW233558   0.843   2.346   2.259  1.5246  2.6645  1.2097
 7367SOL     OW33559   0.970   1.063   6.806  0.9462  0.5897 -0.2818
 7367SOL    HW133560   0.982   1.101   6.893  0.0816 -0.0383  0.1136
 7367SOL    HW233561   1.049   1.094   6.762  0.0094  1.8838 -1.0432
 7368SOL     OW33562   4.192   1.931  13.130 -0.6496 -0.1572  0.0722
 7368SOL    HW133563   4.285   1.912  13.145 -0.9933 -0.4981  1.7648
 7368SOL    HW233564   4.162   1.956  13.218 -0.1437 -2.4926  0.9077
 7369SOL     OW33565   0.477   0.228   5.740 -0.1792 -0.2244  0.7193
 7369SOL    HW133566   0.442   0.208   5.654 -0.5983  0.1648  0.7973
 7369SOL    HW233567   0.515   0.314   5.725  0.2112 -0.6069 -0.4231
 7370SOL     OW33568   3.059   1.307  10.858  0.4801 -0.6019 -0.3692
 7370SOL    HW133569   3.019   1.389  10.887  0.2306 -1.4888  1.8570
 7370SOL    HW233570   3.141   1.312  10.908 -0.0523 -0.5924  0.5000
 7371SOL     OW33571   3.021   1.339   0.575  0.4121  0.4456 -0.1945
 7371SOL    HW133572   2.943   1.392   0.557  1.5768  2.1664 -0.2471
 7371SOL    HW233573   3.024   1.341   0.671  1.5467  1.4296 -0.2547
 7372SOL     OW33574   0.189   0.997   3.666 -0.3942 -0.7493 -0.2972
 7372SOL    HW133575   0.219   1.021   3.578  0.9719 -0.6300  0.2048
 7372SOL    HW233576   0.096   1.002   3.643 -0.3588 -0.8551 -0.4601
 7373SOL     OW33577   2.835   1.934   7.889  0.2628 -1.0701 -0.4540
 7373SOL    HW133578   2.891   1.954   7.964  0.6341  0.8524 -1.2461
 7373SOL    HW233579   2.766   1.878   7.924  0.7283 -1.6227 -0.4159
 7374SOL     OW33580   2.079   2.256   8.865 -0.7786  0.1797 -0.1054
 7374SOL    HW133581   2.145   2.193   8.837 -0.6556  0.4968 -0.5480
 7374SOL    HW233582   2.104   2.341   8.827  0.3248  0.7233  1.8743
 7375SOL     OW33583   1.200   0.818   4.253 -0.0328  0.8364 -0.5160
 7375SOL    HW133584   1.213   0.895   4.308 -2.1512  1.2490 -0.5705
 7375SOL    HW233585   1.291   0.791   4.244 -0.6139 -1.5276  0.5296
 7376SOL     OW33586   4.609   0.624   6.782 -0.2324  0.8848  0.1426
 7376SOL    HW133587   4.595   0.539   6.824  0.2479 -0.0494 -1.5870
 7376SOL    HW233588   4.702   0.617   6.762  0.0656  1.1405  1.4064
 7377SOL     OW33589   1.645   2.608   7.060 -0.3815  0.0468  0.1917
 7377SOL    HW133590   1.552   2.623   7.043 -0.3974 -0.5025 -0.2051
 7377SOL    HW233591   1.648   2.521   7.100  1.4297  0.2722  0.5497
 7378SOL     OW33592   1.698   2.935   8.647  0.3878  0.0582 -0.7920
 7378SOL    HW133593   1.710   2.951   8.553  0.6996 -2.8260 -1.2492
 7378SOL    HW233594   1.603   2.938   8.660  0.4583  1.5915 -0.6311
 7379SOL     OW33595   1.839   4.027  11.023  0.6345 -0.4129 -0.3247
 7379SOL    HW133596   1.889   4.045  10.943 -0.4232  1.0599 -0.6535
 7379SOL    HW233597   1.901   4.020  11.096  0.0856 -1.7996  0.0129
 7380SOL     OW33598   2.599   0.088   2.951  0.0507  0.1300 -0.4259
 7380SOL    HW133599   2.664   0.047   3.007  1.5233 -0.3753 -2.5202
 7380SOL    HW233600   2.654   0.125   2.881  0.8978 -0.2931  0.0263
 7381SOL     OW33601   2.812   1.368  14.873  0.4487  0.1836  0.3978
 7381SOL    HW133602   2.842   1.455  14.902  0.6004  0.5535 -0.8817
 7381SOL    HW233603   2.833   1.327  14.957  0.0805 -2.5159 -0.8322
 7382SOL     OW33604   0.769   2.883  16.619 -0.1119  0.4748  0.0319
 7382SOL    HW133605   0.685   2.842  16.599 -0.0021  1.1166 -1.7501
 7382SOL    HW233606   0.754   2.977  16.625 -1.6253  0.3391 -1.7556
 7383SOL     OW33607   0.510   0.599  13.041 -0.2451 -0.4040  0.0850
 7383SOL    HW133608   0.455   0.641  13.107 -1.9203 -2.5903  0.0772
 7383SOL    HW233609   0.573   0.546  13.088  0.9581 -0.7118 -1.8601
 7384SOL     OW33610   1.459   3.151   3.698 -0.5202  0.3096 -0.1731
 7384SOL    HW133611   1.535   3.103   3.729 -0.9032  1.4725  2.5653
 7384SOL    HW233612   1.431   3.188   3.782 -0.4908  0.2341 -0.1301
 7385SOL     OW33613   2.003   0.829   7.574  0.1102 -0.1112  0.7188
 7385SOL    HW133614   1.973   0.800   7.487 -0.1022 -0.1806  0.8144
 7385SOL    HW233615   2.097   0.815   7.564 -0.1470 -0.4656 -1.3346
 7386SOL     OW33616   1.941   3.608   2.836  0.2889  0.5020  0.0374
 7386SOL    HW133617   1.848   3.603   2.814  0.5017 -0.8149 -0.6027
 7386SOL    HW233618   1.942   3.601   2.931 -1.7492  0.4072  0.0582
 7387SOL     OW33619   1.727   0.745   9.068  0.0786  0.0274  0.1096
 7387SOL    HW133620   1.733   0.671   9.129 -0.8156 -0.3168 -0.2088
 7387SOL    HW233621   1.728   0.819   9.130 -0.4552 -0.6273  0.9090
 7388SOL     OW33622   0.827   4.526   5.526  0.4999 -0.0521  0.2666
 7388SOL    HW133623   0.888   4.466   5.481  1.0954  0.2187  0.7077
 7388SOL    HW233624   0.799   4.478   5.603  0.3441 -1.0465 -0.4097
 7389SOL     OW33625   3.223   4.005  12.634  0.1447 -0.0379  0.1533
 7389SOL    HW133626   3.315   3.982  12.623  0.1003 -1.3238  2.6877
 7389SOL    HW233627   3.227   4.076  12.698  1.9447 -0.2766  0.2895
 7390SOL     OW33628   3.966   4.012   7.547 -0.4444  0.6763 -0.0918
 7390SOL    HW133629   4.056   4.040   7.561 -0.7344  1.8897 -0.6439
 7390SOL    HW233630   3.970   3.919   7.567 -0.2179  0.6375 -0.3188
 7391SOL     OW33631   4.704   3.763  12.507  0.4384 -0.8936 -0.2182
 7391SOL    HW133632   4.696   3.693  12.572  0.9375 -1.6314 -0.9450
 7391SOL    HW233633   4.620   3.761  12.461  0.7839  3.6038 -1.0331
 7392SOL     OW33634   3.488   0.614   5.413 -0.0359 -0.3316 -0.1666
 7392SOL    HW133635   3.559   0.659   5.458  0.1313  0.3149 -1.0813
 7392SOL    HW233636   3.476   0.673   5.339 -1.3804  0.7711  0.9134
 7393SOL     OW33637   4.556   4.014   3.120  0.2955 -0.3858  0.5206
 7393SOL    HW133638   4.632   4.000   3.064  0.8005  0.7325  0.9168
 7393SOL    HW233639   4.595   3.979   3.200  0.1549  0.3004  0.8895
 7394SOL     OW33640   0.119   4.484  12.162 -0.1159  0.4866 -1.0007
 7394SOL    HW133641   0.141   4.392  12.176  0.8175  1.0569  1.3942
 7394SOL    HW233642   0.061   4.471  12.087  0.5756 -0.8642 -1.3054
 7395SOL     OW33643   1.950   3.628   4.952 -0.3824  0.4465 -0.4306
 7395SOL    HW133644   1.877   3.685   4.927 -1.5844 -0.3286  1.3770
 7395SOL    HW233645   1.954   3.566   4.879  0.6759  0.9661 -0.8139
 7396SOL     OW33646   0.518   0.041  16.712  0.8024 -0.4010 -0.4043
 7396SOL    HW133647   0.472   4.689  16.674  0.1102 -0.3272  0.2842
 7396SOL    HW233648   0.472   0.045  16.796  0.1951 -0.1552 -0.7438
 7397SOL     OW33649   0.095   0.929   1.926  0.1265 -0.3080 -0.2968
 7397SOL    HW133650   0.085   0.834   1.929  0.0979 -0.3894 -2.9176
 7397SOL    HW233651   0.005   0.949   1.951  0.0601 -1.7095  0.6227
 7398SOL     OW33652   1.442   3.804  13.799  0.2241  0.0252  0.4770
 7398SOL    HW133653   1.362   3.761  13.828  0.6452 -1.0753 -0.0171
 7398SOL    HW233654   1.408   3.881  13.753 -2.1588 -0.8985  0.7191
 7399SOL     OW33655   3.441   1.436   6.882 -0.0264 -0.3222  0.2746
 7399SOL    HW133656   3.374   1.413   6.818 -0.7940 -2.2547  1.7456
 7399SOL    HW233657   3.446   1.358   6.938 -0.7280 -1.1800 -0.8352
 7400SOL     OW33658   4.223   3.333  16.346  0.3025  0.6722  0.1216
 7400SOL    HW133659   4.318   3.348  16.344  0.2834  0.8468  0.4723
 7400SOL    HW233660   4.197   3.328  16.254  0.9709  1.5746 -0.1141
 7401SOL     OW33661   2.942   0.157   2.356 -0.5344 -0.2750  0.0850
 7401SOL    HW133662   2.903   0.070   2.359 -0.2916 -0.3875 -0.0364
 7401SOL    HW233663   2.871   0.201   2.310 -1.9049 -2.7424 -0.1569
 7402SOL     OW33664   2.065   1.638   5.181 -0.3376  0.1373 -0.3283
 7402SOL    HW133665   1.995   1.650   5.245  1.4568  0.5651  1.5454
 7402SOL    HW233666   2.139   1.643   5.241  0.7819  1.5532 -1.8322
 7403SOL     OW33667   2.735   2.639   5.913  0.1735  0.4918 -0.0983
 7403SOL    HW133668   2.785   2.712   5.950  0.3823 -0.4127  1.4062
 7403SOL    HW233669   2.805   2.591   5.869  1.0301  1.3099  0.3470
 7404SOL     OW33670   1.563   1.474   5.168 -0.6464 -0.7409 -0.3762
 7404SOL    HW133671   1.525   1.395   5.206 -0.8940  0.4839  1.8979
 7404SOL    HW233672   1.527   1.479   5.079  0.8358  2.2110 -0.8184
 7405SOL     OW33673   2.004   3.849   6.355 -0.3219 -0.0936 -0.2708
 7405SOL    HW133674   2.067   3.810   6.415 -1.8749 -0.7572  0.9062
 7405SOL    HW233675   1.960   3.771   6.324  0.7267 -0.9498  0.3993
 7406SOL     OW33676   0.538   3.562   2.021  0.2906  0.0136 -0.6453
 7406SOL    HW133677   0.577   3.491   2.073 -0.4551  0.3880  0.4142
 7406SOL    HW233678   0.457   3.524   1.990  0.8409 -0.2395 -1.7606
 7407SOL     OW33679   0.334   1.026   2.020  0.0245 -0.0233 -0.3061
 7407SOL    HW133680   0.244   1.013   1.990 -0.3149  0.9841  0.2604
 7407SOL    HW233681   0.323   1.112   2.060 -0.0070  0.3785 -1.1873
 7408SOL     OW33682   1.991   4.647   7.089 -0.0617  0.2663  0.3337
 7408SOL    HW133683   2.029   4.620   7.173 -0.3014 -1.2743 -0.0369
 7408SOL    HW233684   2.020   0.014   7.088  2.8262 -0.6937 -0.5102
 7409SOL     OW33685   4.100   3.533   1.160 -0.3771  0.0686  0.1232
 7409SOL    HW133686   4.011   3.540   1.126 -0.8315 -0.0714  1.2857
 7409SOL    HW233687   4.120   3.440   1.149 -0.9268 -0.1754  1.1228
 7410SOL     OW33688   4.639   0.458   0.064  0.2976 -0.2030 -0.3796
 7410SOL    HW133689   4.645   0.369   0.098 -3.1743 -0.2570  0.0619
 7410SOL    HW233690   4.618   0.459  17.667 -0.8214 -0.9617 -0.1356
 7411SOL     OW33691   3.361   4.466  13.142  0.0315 -0.4593 -0.5338
 7411SOL    HW133692   3.283   4.446  13.089  0.3183 -3.7825  0.2781
 7411SOL    HW233693   3.427   4.432  13.081 -0.9445  0.2221 -1.9679
 7412SOL     OW33694   2.222   0.248   4.037  0.0046 -0.0071  0.3684
 7412SOL    HW133695   2.230   0.343   4.035  0.9770 -0.0862  0.7075
 7412SOL    HW233696   2.133   0.239   4.003  1.0644 -1.7319 -1.9455
 7413SOL     OW33697   4.571   0.250   1.998  0.2647 -0.1061 -0.0520
 7413SOL    HW133698   4.618   0.310   1.939  0.3449  1.2544  1.3983
 7413SOL    HW233699   4.638   0.198   2.041  0.2122  0.0006  0.1567
 7414SOL     OW33700   0.328   0.813   4.267  0.0174  0.1527  0.5502
 7414SOL    HW133701   0.424   0.809   4.270  0.0492  1.2476  0.9048
 7414SOL    HW233702   0.304   0.761   4.344 -3.2219 -0.8736 -1.1354
 7415SOL     OW33703   1.193   3.502  16.029 -0.7328  0.3966  0.0612
 7415SOL    HW133704   1.163   3.582  16.070 -0.7418  0.9539 -1.0177
 7415SOL    HW233705   1.251   3.545  15.966  1.1382  3.1680  3.7595
 7416SOL     OW33706   4.502   4.559  15.340 -0.2375 -0.6855 -0.0483
 7416SOL    HW133707   4.482   4.500  15.413 -2.8369  0.3098  0.0681
 7416SOL    HW233708   4.596   4.579  15.345 -0.9591  2.6616  0.4570
 7417SOL     OW33709   4.307   3.369  14.013  0.2099  0.0904  0.2797
 7417SOL    HW133710   4.306   3.276  14.038  0.9294  0.2145  0.7878
 7417SOL    HW233711   4.389   3.402  14.052  1.1687 -1.6692 -0.2379
 7418SOL     OW33712   4.540   1.719  16.945 -0.3986 -0.4800  0.2160
 7418SOL    HW133713   4.594   1.644  16.919 -0.3392 -0.4906  0.3636
 7418SOL    HW233714   4.581   1.791  16.898 -0.6138  0.0336  0.8131
 7419SOL     OW33715   2.607   3.739  13.297  0.2238 -0.2904 -0.0408
 7419SOL    HW133716   2.620   3.738  13.202 -0.4642 -1.4069 -0.1325
 7419SOL    HW233717   2.694   3.769  13.321  0.3821  0.0115 -0.9879
 7420SOL     OW33718   1.149   1.692   4.439 -0.1824  0.1509  0.0207
 7420SOL    HW133719   1.208   1.620   4.416  0.5380  1.7140 -3.1780
 7420SOL    HW233720   1.093   1.642   4.497  1.4310 -2.4567 -0.6594
 7421SOL     OW33721   3.050   2.435   8.474 -0.8487  0.4875 -0.5401
 7421SOL    HW133722   2.969   2.460   8.430 -0.1685 -0.6159 -2.4080
 7421SOL    HW233723   3.023   2.376   8.545  0.6771  1.1537  0.6080
 7422SOL     OW33724   2.159   0.176   3.462  0.4500 -0.3764  0.4249
 7422SOL    HW133725   2.149   0.255   3.409  1.5041 -0.4817  0.0807
 7422SOL    HW233726   2.196   0.201   3.547 -2.3350  1.1834  1.1700
 7423SOL     OW33727   1.224   1.574   1.604 -0.2037 -0.1925  0.3949
 7423SOL    HW133728   1.277   1.650   1.628  0.4270  0.1385 -2.0048
 7423SOL    HW233729   1.144   1.588   1.654  0.4071  1.5185  0.8850
 7424SOL     OW33730   0.573   0.428  10.540  0.2236  0.6584  0.0855
 7424SOL    HW133731   0.536   0.462  10.459 -1.8653  1.8215  1.5146
 7424SOL    HW233732   0.645   0.375  10.506 -1.2569  0.5516 -2.8335
 7425SOL     OW33733   1.174   0.107   7.876  0.0497 -0.0939 -0.2330
 7425SOL    HW133734   1.142   0.085   7.964  2.3814 -0.9611  0.4014
 7425SOL    HW233735   1.116   0.183   7.868 -0.5952 -0.5477  0.0936
 7426SOL     OW33736   4.258   4.074   1.988  0.2052 -0.5664  0.4526
 7426SOL    HW133737   4.241   3.980   1.999 -0.7489 -0.5841 -1.1811
 7426SOL    HW233738   4.222   4.086   1.901  0.8592 -0.1537  0.2387
 7427SOL     OW33739   3.171   2.941   3.516  0.2785 -0.4205 -0.1517
 7427SOL    HW133740   3.141   2.989   3.593 -0.1510  1.8097 -1.6984
 7427SOL    HW233741   3.263   2.969   3.512 -0.5220  2.2302  0.0070
 7428SOL     OW33742   1.767   1.977   7.693  0.3619 -0.5643  0.5714
 7428SOL    HW133743   1.684   1.988   7.738 -0.6461 -0.5011 -1.3049
 7428SOL    HW233744   1.816   1.907   7.737 -1.0574 -1.8430  0.1155
 7429SOL     OW33745   0.592   2.353   7.268  0.1387  0.2568 -0.4927
 7429SOL    HW133746   0.595   2.393   7.182 -2.9321 -0.4395 -0.9332
 7429SOL    HW233747   0.652   2.417   7.306 -2.8610  1.5863  2.0351
 7430SOL     OW33748   2.199   2.622   1.820 -0.2846  0.2612  0.4351
 7430SOL    HW133749   2.261   2.642   1.890 -0.2118  1.8178 -0.0799
 7430SOL    HW233750   2.164   2.535   1.841 -0.4240  0.0117 -0.8108
 7431SOL     OW33751   3.036   1.151   8.988 -0.2458 -0.6003 -0.2615
 7431SOL    HW133752   3.052   1.085   8.922 -0.9557 -2.3468  1.3051
 7431SOL    HW233753   2.995   1.217   8.931 -0.6801  0.0731  0.8203
 7432SOL     OW33754   1.162   4.588   6.363  0.2784 -0.1138  0.6477
 7432SOL    HW133755   1.178   4.500   6.399 -2.1609 -1.0130 -0.4716
 7432SOL    HW233756   1.247   4.603   6.322  0.4966 -0.7567  0.8553
 7433SOL     OW33757   1.544   4.041   3.716 -0.1252 -0.2577  0.6101
 7433SOL    HW133758   1.454   4.023   3.743  0.5167 -1.2638  2.0762
 7433SOL    HW233759   1.593   3.966   3.748  1.8755  0.6928 -0.2495
 7434SOL     OW33760   0.335   4.543   2.594 -0.4706  0.3857  0.0573
 7434SOL    HW133761   0.395   4.472   2.615 -0.3647 -0.0553 -1.6827
 7434SOL    HW233762   0.361   4.567   2.504  1.5223  0.0128  0.5262
 7435SOL     OW33763   3.521   2.099  14.625 -0.5818  0.2777 -0.2436
 7435SOL    HW133764   3.440   2.130  14.585 -0.9741 -0.0765  0.2954
 7435SOL    HW233765   3.504   2.006  14.614  1.6938 -0.1898  0.0733
 7436SOL     OW33766   0.513   3.138   0.457 -0.1148 -0.1308  0.0156
 7436SOL    HW133767   0.467   3.073   0.403 -0.3482  2.0265 -2.3577
 7436SOL    HW233768   0.495   3.118   0.549 -1.8239  1.0893 -0.0618
 7437SOL     OW33769   3.584   3.921   0.782 -0.1501 -0.0983  0.2362
 7437SOL    HW133770   3.523   3.909   0.709 -0.4487  1.1099  0.2912
 7437SOL    HW233771   3.619   4.008   0.767  0.7931 -0.3446  1.0291
 7438SOL     OW33772   2.461   4.137   7.918 -0.1313  0.0008 -0.2904
 7438SOL    HW133773   2.393   4.070   7.927 -0.0912  0.3676  2.5143
 7438SOL    HW233774   2.508   4.106   7.840 -0.5813 -0.7904 -0.2538
 7439SOL     OW33775   2.769   3.295   3.248 -0.3483 -0.1863 -0.1999
 7439SOL    HW133776   2.835   3.241   3.205  3.0769  2.4526  1.7214
 7439SOL    HW233777   2.734   3.349   3.178  1.4800  1.7682  0.3754
 7440SOL     OW33778   3.894   1.513   1.243 -0.5271  0.7414 -0.2014
 7440SOL    HW133779   3.917   1.434   1.292  1.2188  1.1070 -0.4239
 7440SOL    HW233780   3.814   1.485   1.199  0.1379 -1.2080 -0.1426
 7441SOL     OW33781   1.649   4.507   9.122 -0.5423  0.1193 -0.3123
 7441SOL    HW133782   1.721   4.556   9.082  0.5303 -1.3425 -0.1733
 7441SOL    HW233783   1.692   4.424   9.139  0.7839  1.0993  1.1631
 7442SOL     OW33784   2.735   3.858   2.177  0.1459  0.3906 -0.0347
 7442SOL    HW133785   2.722   3.826   2.087  1.7731 -0.7491  0.1418
 7442SOL    HW233786   2.807   3.799   2.197 -0.0764 -0.4545 -1.6636
 7443SOL     OW33787   1.583   0.161  13.377 -0.4548 -0.3106 -0.0490
 7443SOL    HW133788   1.609   0.247  13.346  1.8505 -1.9560 -2.7745
 7443SOL    HW233789   1.622   0.112  13.304  1.2434  0.4910  0.3268
 7444SOL     OW33790   3.403   2.433   4.224  0.6438  0.2391 -0.4226
 7444SOL    HW133791   3.353   2.449   4.305 -0.6447  1.0192 -1.3654
 7444SOL    HW233792   3.448   2.518   4.227  0.2218  0.4649 -0.3724
 7445SOL     OW33793   3.324   3.713   8.917  0.3141  0.0967 -0.0596
 7445SOL    HW133794   3.380   3.730   8.993  2.0637  0.3072 -1.3720
 7445SOL    HW233795   3.385   3.730   8.844 -0.1207 -0.3275 -0.5166
 7446SOL     OW33796   1.223   0.677   4.629  0.1604 -0.3762  0.2735
 7446SOL    HW133797   1.249   0.591   4.596  0.4076 -0.8884  1.7935
 7446SOL    HW233798   1.142   0.699   4.583  0.3748 -1.3535 -0.5575
 7447SOL     OW33799   1.698   0.965   3.662 -0.5013 -0.0308  0.1498
 7447SOL    HW133800   1.609   0.944   3.690 -0.5745  1.0233  0.7171
 7447SOL    HW233801   1.674   1.025   3.591  1.7075 -0.1118 -0.6704
 7448SOL     OW33802   2.874   3.278   5.542  0.5864  0.4834  0.1488
 7448SOL    HW133803   2.923   3.260   5.623  0.4029 -0.9958 -0.0620
 7448SOL    HW233804   2.785   3.272   5.577  0.0980  1.0937 -1.0087
 7449SOL     OW33805   1.982   2.913   0.092  0.0042  0.7903  0.5138
 7449SOL    HW133806   1.946   2.972   0.158 -1.6527  0.1512  0.1898
 7449SOL    HW233807   1.912   2.849   0.077 -1.9850  3.2945 -0.8326
 7450SOL     OW33808   4.225   1.465   7.006  0.0713  0.9260  0.4157
 7450SOL    HW133809   4.307   1.512   6.989 -0.0402  0.4228 -1.5060
 7450SOL    HW233810   4.199   1.482   7.097  0.5313  2.8313  0.1844
 7451SOL     OW33811   0.882   2.434  13.275 -0.2017 -0.0097 -0.1499
 7451SOL    HW133812   0.831   2.502  13.318 -2.5638 -0.8095 -1.6632
 7451SOL    HW233813   0.821   2.407  13.207 -0.2934 -0.9976  0.3197
 7452SOL     OW33814   2.441   4.263   9.583 -0.0356 -0.3013  0.1904
 7452SOL    HW133815   2.411   4.252   9.673 -3.0247  2.6975 -0.4736
 7452SOL    HW233816   2.534   4.280   9.601  0.0649 -1.1338  0.4446
 7453SOL     OW33817   0.770   1.439   9.390 -0.7027  0.2412 -0.0240
 7453SOL    HW133818   0.718   1.476   9.318  1.6845  0.7610 -1.4573
 7453SOL    HW233819   0.756   1.503   9.459  1.0157  0.9911 -0.3760
 7454SOL     OW33820   3.881   0.295   4.206 -0.1854  0.7808  0.2943
 7454SOL    HW133821   3.850   0.306   4.296 -1.8169 -3.1847  0.2250
 7454SOL    HW233822   3.828   0.361   4.163 -0.2193 -0.8971 -2.2491
 7455SOL     OW33823   2.049   0.218   5.492 -0.4216 -0.0559  0.6550
 7455SOL    HW133824   1.994   0.198   5.567 -0.6171 -1.1861  0.2178
 7455SOL    HW233825   2.113   0.277   5.533  0.1054 -0.0939 -0.1178
 7456SOL     OW33826   3.906   0.851  14.006 -0.0875  0.7527  0.2280
 7456SOL    HW133827   3.905   0.829  13.913 -1.4401 -0.0689  0.4368
 7456SOL    HW233828   3.812   0.864  14.022 -0.2608  0.9998 -0.9532
 7457SOL     OW33829   0.632   0.770   7.822 -0.0424 -0.2671 -0.5907
 7457SOL    HW133830   0.688   0.840   7.788 -1.3555  0.1025 -2.0057
 7457SOL    HW233831   0.695   0.705   7.793  0.8457 -0.8357  2.5618
 7458SOL     OW33832   3.614   1.340  12.827 -0.3301 -0.3948  0.0050
 7458SOL    HW133833   3.659   1.277  12.884 -0.6089  1.1367  1.9101
 7458SOL    HW233834   3.579   1.287  12.755  1.1219  1.7868 -2.2782
 7459SOL     OW33835   3.748   2.079   3.857 -0.5846  0.0737  0.4435
 7459SOL    HW133836   3.807   2.009   3.884 -0.0836  0.3944  0.1752
 7459SOL    HW233837   3.761   2.071   3.763  2.4639 -0.7568  0.9487
 7460SOL     OW33838   3.172   3.149   9.259 -0.3446 -0.2903  0.5440
 7460SOL    HW133839   3.096   3.101   9.229  0.4859 -1.7010  0.7021
 7460SOL    HW233840   3.133   3.233   9.282 -1.1956 -0.6005  0.2211
 7461SOL     OW33841   0.220   3.101   3.434 -0.8544 -0.1010 -0.2907
 7461SOL    HW133842   0.257   3.145   3.358 -3.2439 -1.1027 -2.0545
 7461SOL    HW233843   0.266   3.154   3.498  1.9229 -1.5429 -1.0894
 7462SOL     OW33844   4.636   2.386   8.294  0.2116  0.2566 -0.2213
 7462SOL    HW133845   4.645   2.481   8.298 -2.4294  0.4970  0.3473
 7462SOL    HW233846   4.557   2.391   8.240 -0.8644  0.5043  1.3689
 7463SOL     OW33847   1.412   2.320   8.073  0.3229 -0.2998 -0.2881
 7463SOL    HW133848   1.413   2.364   7.988 -0.1923 -0.2142 -0.2511
 7463SOL    HW233849   1.502   2.291   8.083  0.2624 -0.4574 -0.2118
 7464SOL     OW33850   2.391   0.635   7.167 -0.3129 -0.3528 -0.1029
 7464SOL    HW133851   2.404   0.607   7.077 -0.2533 -0.0515 -0.1879
 7464SOL    HW233852   2.415   0.553   7.209  0.9717  0.8640  1.5634
 7465SOL     OW33853   2.008   0.758   7.113 -0.3774 -1.1437  0.3384
 7465SOL    HW133854   1.963   0.767   7.197  1.0278  0.7297  0.8829
 7465SOL    HW233855   2.003   0.847   7.079 -0.0845 -0.9442  0.8204
 7466SOL     OW33856   1.298   1.866   8.726 -0.1267 -0.5630  0.1703
 7466SOL    HW133857   1.361   1.927   8.690  1.6738 -1.6240  1.5448
 7466SOL    HW233858   1.349   1.799   8.773  2.4292 -0.0726 -1.9435
 7467SOL     OW33859   1.502   2.139   9.632  0.2124  0.3797  0.3541
 7467SOL    HW133860   1.475   2.141   9.724 -0.6451  0.4001  0.1004
 7467SOL    HW233861   1.519   2.232   9.622 -4.2364  1.0822 -0.5617
 7468SOL     OW33862   1.878   4.079   3.876  0.8992  0.5243  0.5410
 7468SOL    HW133863   1.833   4.119   3.802 -1.6605 -1.1838  1.1491
 7468SOL    HW233864   1.958   4.039   3.842  0.5631 -0.1851  0.5652
 7469SOL     OW33865   3.532   3.957   6.680 -0.4062 -0.6459  0.2050
 7469SOL    HW133866   3.617   3.980   6.717 -0.8030 -1.5682  1.6751
 7469SOL    HW233867   3.479   4.032   6.707 -1.2639 -1.3001  0.3430
 7470SOL     OW33868   2.857   3.644   5.339 -0.1708  0.3034  0.7647
 7470SOL    HW133869   2.911   3.597   5.275 -2.0657  2.0191 -2.1100
 7470SOL    HW233870   2.854   3.581   5.411 -0.3896  0.7925  1.1829
 7471SOL     OW33871   1.279   4.075  10.481 -0.6505  0.0974  0.0395
 7471SOL    HW133872   1.253   4.154  10.527 -0.2123  0.9707 -1.2128
 7471SOL    HW233873   1.301   4.016  10.553 -0.4304  0.8837  0.6181
 7472SOL     OW33874   2.257   0.383  13.523 -0.1713  0.1176  0.0815
 7472SOL    HW133875   2.314   0.455  13.551  0.0413 -0.3818  0.9389
 7472SOL    HW233876   2.305   0.339  13.452 -0.1453  0.0943  0.1135
 7473SOL     OW33877   4.384   0.069   4.881 -0.1895 -0.2664  0.2830
 7473SOL    HW133878   4.319   0.067   4.951 -1.2023  0.1370 -0.6512
 7473SOL    HW233879   4.368   4.708   4.840 -0.6374  0.4108 -0.9442
 7474SOL     OW33880   3.377   3.367   5.246 -0.0542 -0.5181  0.1243
 7474SOL    HW133881   3.366   3.462   5.236 -0.1013 -0.8128 -2.5817
 7474SOL    HW233882   3.335   3.334   5.167 -1.2018 -2.3388  1.4901
 7475SOL     OW33883   4.076   2.988   6.951 -0.3492 -0.7246  0.1579
 7475SOL    HW133884   4.094   3.003   6.859 -0.2553 -0.8204  0.1606
 7475SOL    HW233885   3.991   2.948   6.929 -1.9959  1.6636  2.1347
 7476SOL     OW33886   0.387   1.506   7.576  0.3342 -0.0477 -0.4698
 7476SOL    HW133887   0.447   1.538   7.509 -0.0940  0.4779 -0.6027
 7476SOL    HW233888   0.419   1.554   7.652 -1.0708 -1.3543  0.9650
 7477SOL     OW33889   2.250   3.147   9.918  0.3306  0.3476  0.2431
 7477SOL    HW133890   2.305   3.215   9.956  0.6429  0.7782 -0.9824
 7477SOL    HW233891   2.204   3.106   9.991 -2.4403  0.2892 -1.5057
 7478SOL     OW33892   0.501   4.399  13.494  0.5594 -0.5292 -0.4678
 7478SOL    HW133893   0.567   4.402  13.564  0.9244 -1.2382 -0.7905
 7478SOL    HW233894   0.541   4.467  13.439  2.8817 -0.0478  1.7854
 7479SOL     OW33895   1.365   1.575  15.601 -0.0003 -0.2544 -0.2986
 7479SOL    HW133896   1.284   1.617  15.629 -0.5020 -0.2666 -1.7191
 7479SOL    HW233897   1.359   1.586  15.506 -3.0913 -0.0010 -0.0973
 7480SOL     OW33898   4.593   4.569   4.295  0.5474  0.3609 -0.1977
 7480SOL    HW133899   4.570   4.613   4.377 -0.3353  0.6848 -0.6076
 7480SOL    HW233900   4.688   4.577   4.296  0.6897 -1.2480 -1.2062
 7481SOL     OW33901   1.399   2.775   4.469 -0.4685  0.3736  0.0555
 7481SOL    HW133902   1.328   2.761   4.531 -0.3555 -3.3889 -0.6133
 7481SOL    HW233903   1.448   2.693   4.478 -1.5913 -0.3177 -0.1444
 7482SOL     OW33904   2.954   4.568   3.538  0.0864 -0.2471 -0.1619
 7482SOL    HW133905   3.000   4.622   3.474 -1.1521  2.5348  1.3043
 7482SOL    HW233906   2.994   4.481   3.530 -1.1635 -0.9863  1.5487
 7483SOL     OW33907   0.049   3.361   7.202 -0.0257  0.3474  0.4015
 7483SOL    HW133908   4.718   3.336   7.128  1.8800 -0.1568 -0.8267
 7483SOL    HW233909   0.037   3.283   7.256 -0.6738 -0.0778 -0.3663
 7484SOL     OW33910   1.237   3.139  15.716  0.1853  0.1725 -0.0900
 7484SOL    HW133911   1.311   3.176  15.668  1.4884 -1.5333  0.6055
 7484SOL    HW233912   1.205   3.081  15.647  0.8523 -0.3076  0.0050
 7485SOL     OW33913   4.641   1.309   2.362 -0.5500  0.1133  0.0075
 7485SOL    HW133914   4.606   1.368   2.295 -0.4945  1.8430  1.4727
 7485SOL    HW233915   0.010   1.332   2.355 -0.5344  0.0311 -0.0496
 7486SOL     OW33916   2.738   4.105   8.227 -0.0059  0.0827  0.0588
 7486SOL    HW133917   2.795   4.031   8.206 -0.3694 -0.3929  0.7466
 7486SOL    HW233918   2.752   4.176   8.164  5.2572  0.8706  2.1332
 7487SOL     OW33919   2.409   2.862  10.752 -0.3193 -0.5361  0.5748
 7487SOL    HW133920   2.369   2.841  10.668 -0.2650 -2.8807  1.1511
 7487SOL    HW233921   2.346   2.920  10.796 -1.7098 -0.6494 -1.2507
 7488SOL     OW33922   4.060   2.714   3.803  0.3280  0.1015 -0.7149
 7488SOL    HW133923   3.989   2.779   3.805  0.4771  0.1043  3.2879
 7488SOL    HW233924   4.089   2.703   3.893 -1.7153 -1.1505 -0.2117
 7489SOL     OW33925   3.566   4.135   6.213 -0.6330  0.0511  0.7223
 7489SOL    HW133926   3.635   4.069   6.222 -0.8875 -0.6939 -2.4760
 7489SOL    HW233927   3.491   4.086   6.246 -0.3478 -0.9648 -0.1383
 7490SOL     OW33928   2.032   1.754   0.419  0.4178 -0.1682 -0.2202
 7490SOL    HW133929   2.114   1.720   0.454  0.8277 -0.7782 -1.7753
 7490SOL    HW233930   2.002   1.787   0.504  0.0374 -0.1107 -0.3793
 7491SOL     OW33931   3.218   0.663  14.171  0.1055  0.4656  0.4518
 7491SOL    HW133932   3.234   0.603  14.245 -2.1882 -0.6834  0.0058
 7491SOL    HW233933   3.207   0.597  14.102 -0.3472 -0.6861  1.6164
 7492SOL     OW33934   0.059   1.993   4.094  0.2281 -0.2208  0.2311
 7492SOL    HW133935   0.149   2.023   4.080  0.4143 -1.5195 -1.3008
 7492SOL    HW233936   0.061   1.908   4.051 -1.3022 -0.9820  1.6604
 7493SOL     OW33937   0.143   0.766  14.022 -0.3485 -0.0757 -0.3183
 7493SOL    HW133938   0.211   0.784  13.957  0.8262 -0.4004  0.8070
 7493SOL    HW233939   0.165   0.828  14.091 -1.9505  0.1850 -0.0347
 7494SOL     OW33940   1.645   1.341   2.571  0.2744  0.4216  0.0867
 7494SOL    HW133941   1.736   1.353   2.599 -0.2406  0.1058  1.9254
 7494SOL    HW233942   1.635   1.249   2.597  1.3958 -0.2159 -1.7370
 7495SOL     OW33943   0.110   2.644   1.309 -0.1644  0.3097 -0.0927
 7495SOL    HW133944   0.080   2.654   1.219 -0.6388 -0.4912 -0.0174
 7495SOL    HW233945   0.072   2.562   1.340  1.7758 -0.7325 -0.4752
 7496SOL     OW33946   4.034   4.313   1.414 -0.3806 -0.1144  0.4404
 7496SOL    HW133947   3.942   4.329   1.435 -0.6968  0.5902 -1.4405
 7496SOL    HW233948   4.028   4.223   1.382  2.2445 -0.2609  0.3924
 7497SOL     OW33949   3.211   2.856   1.523  0.0891  0.1968  0.5816
 7497SOL    HW133950   3.117   2.865   1.536 -0.1095 -1.4772  0.2638
 7497SOL    HW233951   3.221   2.767   1.558 -3.2351 -0.0039  0.9886
 7498SOL     OW33952   2.781   2.275   9.436 -0.3011 -0.4520  0.0835
 7498SOL    HW133953   2.730   2.267   9.516  0.6499 -2.0856  0.5307
 7498SOL    HW233954   2.794   2.369   9.422 -0.2022 -0.3014  1.1603
 7499SOL     OW33955   4.486   2.450   9.998  0.5052  0.0692  0.0475
 7499SOL    HW133956   4.550   2.464  10.067  0.7852 -0.1597 -0.1659
 7499SOL    HW233957   4.408   2.476  10.048  0.6768  0.0288  0.3378
 7500SOL     OW33958   4.515   2.923   3.818  0.0729 -0.3363 -0.2693
 7500SOL    HW133959   4.549   3.012   3.817 -0.4137 -0.1462  0.6107
 7500SOL    HW233960   4.430   2.931   3.775 -0.8535  1.0437  1.8240
 7501SOL     OW33961   0.232   0.648   5.291  0.6418 -0.0939  0.0231
 7501SOL    HW133962   0.302   0.618   5.349  0.9480  0.7982  0.1271
 7501SOL    HW233963   0.188   0.564   5.278  0.6897 -0.0061 -0.6773
 7502SOL     OW33964   3.906   1.351   5.311 -0.1930 -0.1192 -0.3976
 7502SOL    HW133965   3.989   1.303   5.309 -0.6994 -0.9669 -0.9373
 7502SOL    HW233966   3.924   1.422   5.250  1.2939  0.7542  1.0605
 7503SOL     OW33967   0.017   3.985   6.283 -0.0518 -0.2396 -0.0841
 7503SOL    HW133968   0.033   3.923   6.212  0.6683  0.3986 -0.4842
 7503SOL    HW233969   0.018   4.065   6.229  0.2292 -1.8877 -2.5424
 7504SOL     OW33970   1.941   2.046   4.842  0.6267 -0.2778  0.6106
 7504SOL    HW133971   1.962   1.978   4.906  0.1511 -2.2287 -1.2966
 7504SOL    HW233972   1.984   2.011   4.763 -1.2250  1.0925 -0.9940
 7505SOL     OW33973   3.312   3.216   6.801  0.3278  0.0484 -0.2031
 7505SOL    HW133974   3.372   3.215   6.876  0.4309  0.7112 -0.2789
 7505SOL    HW233975   3.237   3.270   6.826  0.2419 -0.5011  0.7172
 7506SOL     OW33976   1.257   4.185   8.514 -0.5455  0.4478 -0.2980
 7506SOL    HW133977   1.337   4.133   8.512  0.3192  1.9063 -2.9625
 7506SOL    HW233978   1.206   4.128   8.572  0.4186  0.4289  0.5325
 7507SOL     OW33979   4.147   2.770   7.997  0.6758 -0.1403 -0.2053
 7507SOL    HW133980   4.108   2.851   7.966  3.2943  0.8507 -0.8786
 7507SOL    HW233981   4.090   2.744   8.069  1.7377  1.0396  1.0568
 7508SOL     OW33982   3.094   3.256   8.953  0.4734 -0.1991 -0.2260
 7508SOL    HW133983   3.036   3.290   8.885 -0.8913 -0.5714  0.7484
 7508SOL    HW233984   3.028   3.210   9.005  1.4772 -1.1753  0.1977
 7509SOL     OW33985   2.007   3.812  14.023  0.1228 -0.4044  0.1086
 7509SOL    HW133986   1.925   3.846  13.988  0.1361 -2.1115 -1.6125
 7509SOL    HW233987   2.062   3.809  13.944  0.8670  1.4597  0.5554
 7510SOL     OW33988   1.452   2.727   8.378 -0.1767 -0.1528 -0.2894
 7510SOL    HW133989   1.454   2.632   8.363 -1.4699 -0.3874  0.9896
 7510SOL    HW233990   1.502   2.764   8.305  1.6902  1.0251  1.6015
 7511SOL     OW33991   4.401   1.816  14.329 -0.3130  0.5410 -0.4447
 7511SOL    HW133992   4.469   1.855  14.274  0.2799 -0.5141 -0.4674
 7511SOL    HW233993   4.451   1.746  14.371 -0.4285  0.9929  0.4629
 7512SOL     OW33994   1.410   1.516  10.392  0.3579  0.5075  0.0713
 7512SOL    HW133995   1.330   1.469  10.416 -0.5473  1.3034 -1.3747
 7512SOL    HW233996   1.459   1.526  10.473 -0.0921  2.7007  0.0715
 7513SOL     OW33997   1.383   2.896   2.334  0.2423 -0.2646 -0.2264
 7513SOL    HW133998   1.287   2.894   2.332  0.2284 -0.0874  0.5396
 7513SOL    HW233999   1.410   2.896   2.242  1.0989 -0.7533  0.0234
 7514SOL     OW34000   2.768   0.140  14.331  0.2720  0.1745  0.5009
 7514SOL    HW134001   2.688   0.100  14.365  0.6487 -1.7525 -0.8638
 7514SOL    HW234002   2.754   0.175  14.243  0.8401  1.4191  0.9106
 7515SOL     OW34003   3.185   3.715   1.220 -0.3940  0.3469 -0.1469
 7515SOL    HW134004   3.142   3.781   1.275 -1.6179 -0.6112  0.0534
 7515SOL    HW234005   3.250   3.665   1.268 -0.6370  1.9225  1.8485
 7516SOL     OW34006   0.646   0.030   8.372 -0.9611  0.3551 -0.2879
 7516SOL    HW134007   0.572   0.051   8.428 -0.1989  0.0011  0.8647
 7516SOL    HW234008   0.621   0.078   8.293 -1.5933  1.0685  0.3443
 7517SOL     OW34009   1.308   3.174   7.301  0.5173  0.1188 -0.2773
 7517SOL    HW134010   1.265   3.245   7.255  1.1431 -0.2165 -1.3732
 7517SOL    HW234011   1.305   3.100   7.240  0.1575  0.1475 -0.2958
 7518SOL     OW34012   1.427   2.336   5.601  0.5023  0.1551 -0.3340
 7518SOL    HW134013   1.488   2.405   5.628  1.0283 -0.3795 -0.1634
 7518SOL    HW234014   1.469   2.303   5.522 -1.0711 -2.2788 -0.1354
 7519SOL     OW34015   2.517   0.758   5.792  0.5787  1.0709 -0.4898
 7519SOL    HW134016   2.421   0.751   5.789  0.4352  2.4846  0.7788
 7519SOL    HW234017   2.502   0.824   5.860 -0.3744  0.9357 -0.5672
 7520SOL     OW34018   1.540   1.081   4.842 -0.3198 -0.0663 -0.3170
 7520SOL    HW134019   1.492   1.136   4.781 -1.2509  1.2994  1.6554
 7520SOL    HW234020   1.629   1.107   4.820 -0.3085 -0.9850 -1.3514
 7521SOL     OW34021   1.367   2.164  13.730 -0.0567  0.1953 -0.6736
 7521SOL    HW134022   1.308   2.234  13.758  0.9897  1.2642 -1.1261
 7521SOL    HW234023   1.362   2.177  13.635  1.0609  0.6835 -0.6602
 7522SOL     OW34024   2.948   3.133   3.133  0.1019 -0.0134  0.3382
 7522SOL    HW134025   3.027   3.108   3.181 -0.0121  0.4564  0.7748
 7522SOL    HW234026   2.921   3.046   3.105  0.0310 -0.0235  0.4394
 7523SOL     OW34027   4.521   4.415   3.810 -0.5875 -0.6184 -0.7897
 7523SOL    HW134028   4.452   4.349   3.813 -1.4885  0.3952  1.1940
 7523SOL    HW234029   4.583   4.386   3.877  0.0838 -0.3864 -1.3119
 7524SOL     OW34030   4.029   0.694  15.223  0.0323  0.2340 -0.1444
 7524SOL    HW134031   4.009   0.603  15.203 -2.4111  1.0442 -1.4264
 7524SOL    HW234032   3.999   0.701  15.314 -0.5627  1.1082 -0.3987
 7525SOL     OW34033   3.883   0.726   2.021 -0.0578 -0.2238  0.2717
 7525SOL    HW134034   3.913   0.816   2.007 -1.1210  0.3836  1.9443
 7525SOL    HW234035   3.788   0.737   2.020 -0.0111  0.1513 -1.9589
 7526SOL     OW34036   1.562   3.171  12.162  0.2103  0.3448  0.3150
 7526SOL    HW134037   1.542   3.246  12.105  0.3934  1.0018  1.1168
 7526SOL    HW234038   1.480   3.160  12.209 -1.5081  2.4162 -2.2046
 7527SOL     OW34039   4.344   2.349   5.211  0.3801 -0.0257  0.1499
 7527SOL    HW134040   4.406   2.407   5.255 -0.8297  0.4720  1.2331
 7527SOL    HW234041   4.352   2.383   5.122 -0.8350 -2.2752 -0.7976
 7528SOL     OW34042   3.455   1.686   8.299  0.5024  0.0887 -0.0879
 7528SOL    HW134043   3.426   1.606   8.344  1.0421  1.5131  2.8318
 7528SOL    HW234044   3.531   1.651   8.253 -0.0678 -3.0668  1.3397
 7529SOL     OW34045   3.169   2.334   3.489 -0.7558 -0.1588  0.3992
 7529SOL    HW134046   3.178   2.429   3.477 -0.6023 -0.1735  0.4005
 7529SOL    HW234047   3.183   2.320   3.583  0.3969 -0.0168  0.2397
 7530SOL     OW34048   0.951   0.473  14.429  0.1487  0.0677 -0.3269
 7530SOL    HW134049   0.871   0.484  14.378 -0.3169 -2.9899 -0.2591
 7530SOL    HW234050   0.983   0.563  14.436 -0.1810  0.1401  0.2271
 7531SOL     OW34051   4.162   1.698   7.605  0.2439  0.1178  0.3727
 7531SOL    HW134052   4.102   1.624   7.615 -1.5997  1.5026 -0.3481
 7531SOL    HW234053   4.212   1.665   7.531  1.9759  0.2339  1.5043
 7532SOL     OW34054   0.146   2.677   5.665  0.3195  0.3796  0.0173
 7532SOL    HW134055   0.166   2.594   5.622 -1.8467  0.0914 -0.4661
 7532SOL    HW234056   0.126   2.730   5.588 -0.2564 -1.7159 -1.2917
 7533SOL     OW34057   3.776   0.611   1.181  0.3812 -0.6538 -0.2141
 7533SOL    HW134058   3.775   0.680   1.114 -1.4990 -0.1368  0.3460
 7533SOL    HW234059   3.782   0.647   1.269  0.8572 -0.4226 -0.3422
 7534SOL     OW34060   3.495   1.710  13.719  0.3656  0.1491  0.3830
 7534SOL    HW134061   3.442   1.786  13.696 -2.2584 -1.4967  0.9325
 7534SOL    HW234062   3.560   1.724  13.650  0.1229  0.6648  0.2601
 7535SOL     OW34063   3.774   1.559   2.002 -0.1331 -0.0071  0.3326
 7535SOL    HW134064   3.739   1.495   1.940  1.9254  0.5609 -1.4300
 7535SOL    HW234065   3.868   1.542   1.999  0.1563  2.0471 -1.7881
 7536SOL     OW34066   0.918   1.542   7.770  0.2791 -0.4104 -0.0797
 7536SOL    HW134067   1.000   1.541   7.819 -0.6845  0.2563  1.5513
 7536SOL    HW234068   0.928   1.604   7.697 -1.8541  0.6190  0.5023
 7537SOL     OW34069   3.720   4.396  10.643 -0.4166  0.5322  0.3183
 7537SOL    HW134070   3.703   4.316  10.692  0.5753 -0.3369 -0.7751
 7537SOL    HW234071   3.804   4.428  10.676 -0.4036  1.0903 -0.2547
 7538SOL     OW34072   2.808   3.863   5.199  0.2317  0.5260  0.4734
 7538SOL    HW134073   2.835   3.781   5.240  3.8900  1.1959 -0.6154
 7538SOL    HW234074   2.844   3.931   5.257 -1.5082  1.2046  0.7716
 7539SOL     OW34075   2.136   1.863   2.919 -0.9052  0.3800 -1.0585
 7539SOL    HW134076   2.214   1.854   2.865 -0.5479  0.9019 -0.6366
 7539SOL    HW234077   2.098   1.941   2.879  0.5961  1.6204 -0.0706
 7540SOL     OW34078   3.672   3.367   8.773  0.1888  0.3760  0.2051
 7540SOL    HW134079   3.589   3.415   8.781 -0.2075 -0.5554  1.7103
 7540SOL    HW234080   3.704   3.379   8.863  2.8632  1.1881 -0.8749
 7541SOL     OW34081   1.904   0.545   3.947  0.3859  0.7240  0.1503
 7541SOL    HW134082   1.991   0.551   3.986  1.1163  0.9234 -1.4913
 7541SOL    HW234083   1.915   0.611   3.879  0.0365  1.9262  1.2750
 7542SOL     OW34084   0.913   0.044   1.887 -0.1381 -0.4289  0.2630
 7542SOL    HW134085   0.900   0.131   1.925 -2.7984 -0.2460 -1.0997
 7542SOL    HW234086   0.932   4.722   1.969  0.5743 -1.4318 -0.4709
 7543SOL     OW34087   4.040   1.305   8.462 -0.4713 -0.2699  0.5458
 7543SOL    HW134088   4.107   1.264   8.517 -0.3477  0.8503  1.2355
 7543SOL    HW234089   3.975   1.316   8.531 -0.1359  0.0812  0.8060
 7544SOL     OW34090   3.486   3.153   2.625 -0.2080  0.8092 -0.2196
 7544SOL    HW134091   3.502   3.062   2.597 -1.3786  1.9312 -4.5055
 7544SOL    HW234092   3.570   3.196   2.611 -1.5166  2.9589 -1.5036
 7545SOL     OW34093   0.131   0.689  17.362 -0.2576 -0.0374 -0.4649
 7545SOL    HW134094   0.199   0.706  17.297 -0.4479 -0.6556 -0.8243
 7545SOL    HW234095   0.095   0.773  17.390  1.4694 -0.1450  2.1136
 7546SOL     OW34096   4.186   1.406   9.228  0.0979  0.2152 -0.0350
 7546SOL    HW134097   4.170   1.495   9.198  1.3161  0.7367  0.8732
 7546SOL    HW234098   4.093   1.388   9.239  0.0315  0.7795  0.3087
 7547SOL     OW34099   3.108   0.550   5.111  0.1187 -0.8442 -0.1194
 7547SOL    HW134100   3.142   0.584   5.194 -2.4951  0.8162  0.2582
 7547SOL    HW234101   3.177   0.498   5.069 -0.2734 -2.8965  1.7648
 7548SOL     OW34102   1.529   0.168   4.535  0.2609  0.0184 -0.2209
 7548SOL    HW134103   1.548   0.240   4.474  3.6591 -0.0898  0.6991
 7548SOL    HW234104   1.583   0.097   4.500 -1.8024 -1.0087 -1.2801
 7549SOL     OW34105   0.907   1.929  17.014 -0.1916  0.0841 -0.0289
 7549SOL    HW134106   0.860   1.894  17.090 -0.1895 -1.5076 -0.7568
 7549SOL    HW234107   0.979   1.983  17.045  0.6772 -0.2676 -1.4308
 7550SOL     OW34108   4.124   0.719   7.769  0.0160  0.2844 -0.3457
 7550SOL    HW134109   4.038   0.676   7.762 -0.5276  1.4056 -0.5200
 7550SOL    HW234110   4.102   0.780   7.839 -0.3038 -1.6162  1.2179
 7551SOL     OW34111   4.564   0.019  16.868 -0.4295 -0.3220 -0.2037
 7551SOL    HW134112   4.539   0.108  16.843  0.0276 -0.1366 -0.0159
 7551SOL    HW234113   4.483   4.697  16.846 -0.6757 -0.1842  0.4135
 7552SOL     OW34114   0.684   1.058  17.316  0.3908  0.3060 -0.1793
 7552SOL    HW134115   0.640   1.129  17.364  1.2865  1.9960 -1.8637
 7552SOL    HW234116   0.627   1.063  17.240 -0.7962 -0.2682  0.6653
 7553SOL     OW34117   3.281   1.606   9.071  0.2949 -0.5129 -0.7312
 7553SOL    HW134118   3.315   1.605   9.160 -0.2066  1.4093 -0.5186
 7553SOL    HW234119   3.187   1.602   9.086 -0.1642  1.1222 -3.1373
 7554SOL     OW34120   4.212   4.366  16.452  0.4767  0.0548 -0.0497
 7554SOL    HW134121   4.277   4.295  16.449 -0.5815 -1.0133  2.4214
 7554SOL    HW234122   4.167   4.350  16.370  3.1589  0.0320 -1.5300
 7555SOL     OW34123   1.555   4.010  16.980  0.3396 -0.0078 -0.3212
 7555SOL    HW134124   1.495   4.069  16.937  0.3525  2.3342  2.8681
 7555SOL    HW234125   1.501   3.931  16.983  0.1407  0.2592  3.5979
 7556SOL     OW34126   0.154   4.563  15.059 -0.0872 -0.1598 -0.0599
 7556SOL    HW134127   0.147   4.657  15.070 -0.3091 -0.2122  0.2386
 7556SOL    HW234128   0.161   4.536  15.150  2.0552  1.1916  0.1792
 7557SOL     OW34129   3.761   4.034   6.786 -0.3401  0.7394  0.5108
 7557SOL    HW134130   3.727   4.054   6.873  0.4975 -0.6362  1.1560
 7557SOL    HW234131   3.847   4.077   6.787  0.0386 -0.0152 -0.0754
 7558SOL     OW34132   1.100   1.300   8.809 -0.2031 -0.5090 -0.4680
 7558SOL    HW134133   1.106   1.235   8.879  1.2948  2.3801  2.0976
 7558SOL    HW234134   1.085   1.242   8.734 -0.2880 -0.9029 -0.1460
 7559SOL     OW34135   0.144   4.498   9.275 -0.7392  0.2861 -0.2143
 7559SOL    HW134136   0.082   4.558   9.317  1.1531  1.6808  0.5694
 7559SOL    HW234137   0.094   4.473   9.198  1.4753 -0.4039 -1.4289
 7560SOL     OW34138   2.865   0.632   0.441  0.0965  0.2689  0.1866
 7560SOL    HW134139   2.797   0.697   0.424 -1.1550 -1.1324 -0.1119
 7560SOL    HW234140   2.830   0.589   0.519  1.7428 -1.6146 -0.1147
 7561SOL     OW34141   4.196   4.061   5.946  0.7080  0.6434  0.0354
 7561SOL    HW134142   4.107   4.055   5.981  0.0598  2.2417 -1.3613
 7561SOL    HW234143   4.184   4.097   5.858  2.8654  2.2618  0.4118
 7562SOL     OW34144   1.042   0.850   2.972 -0.2226 -0.6426  0.2081
 7562SOL    HW134145   1.053   0.940   3.003  0.1495 -0.9847  1.0638
 7562SOL    HW234146   1.067   0.868   2.882  0.9851 -0.8658  0.4990
 7563SOL     OW34147   1.670   3.619  11.897 -0.1589 -0.7182  0.0721
 7563SOL    HW134148   1.723   3.563  11.841  1.2107  1.1986 -0.5564
 7563SOL    HW234149   1.680   3.580  11.984  2.5454 -2.2904 -0.9462
 7564SOL     OW34150   4.230   3.113  15.013 -0.5712  0.3868 -0.3060
 7564SOL    HW134151   4.280   3.194  15.002  3.1519 -1.9571 -0.9129
 7564SOL    HW234152   4.264   3.069  14.935  1.6943  0.6693  0.5193
 7565SOL     OW34153   1.310   3.505   6.070 -0.4299  0.0657 -0.0255
 7565SOL    HW134154   1.235   3.503   6.009 -0.6617  0.3435  0.2516
 7565SOL    HW234155   1.361   3.428   6.043  0.3527  0.9098 -0.9302
 7566SOL     OW34156   0.111   1.251   5.704 -0.2298  0.5039  0.2865
 7566SOL    HW134157   0.163   1.172   5.721  0.5910  0.7571 -0.9974
 7566SOL    HW234158   0.091   1.223   5.614 -0.0566  0.3720  0.2882
 7567SOL     OW34159   0.484   0.725   0.466 -0.5753  0.1578  0.4110
 7567SOL    HW134160   0.525   0.679   0.539  1.1505 -0.7355 -1.1128
 7567SOL    HW234161   0.454   0.669   0.395  1.0196 -1.6871  1.2029
 7568SOL     OW34162   2.510   2.299   2.907  0.0731  0.0026 -0.0023
 7568SOL    HW134163   2.520   2.356   2.984  3.7368 -0.2180 -0.3357
 7568SOL    HW234164   2.450   2.347   2.850  0.8773  1.9611  0.7901
 7569SOL     OW34165   3.312   1.501  10.366  0.2362  0.3750 -0.2829
 7569SOL    HW134166   3.356   1.547  10.437 -2.6926  1.8999  0.5221
 7569SOL    HW234167   3.250   1.452  10.420  0.2662 -0.3638 -0.9317
 7570SOL     OW34168   0.894   0.820   0.225 -0.0345  0.5741 -0.1022
 7570SOL    HW134169   0.968   0.760   0.222  0.6429  1.3768  0.5266
 7570SOL    HW234170   0.924   0.908   0.246 -0.6172  0.7522 -0.0174
 7571SOL     OW34171   4.464   0.641   5.418  0.0010 -0.5496  0.6216
 7571SOL    HW134172   4.494   0.610   5.333 -0.8325  3.4373 -1.1389
 7571SOL    HW234173   4.436   0.730   5.398 -1.9483 -0.8070  2.1790
 7572SOL     OW34174   2.369   3.199   2.472 -0.0552 -0.2538 -0.4665
 7572SOL    HW134175   2.278   3.170   2.464  0.1781 -1.4976  1.3537
 7572SOL    HW234176   2.365   3.286   2.433 -1.7571 -0.3545 -0.5449
 7573SOL     OW34177   1.484   3.093   2.494 -0.2031  0.6906  0.8450
 7573SOL    HW134178   1.567   3.124   2.458  1.5532 -3.6266  1.1404
 7573SOL    HW234179   1.446   3.028   2.434  1.4790 -1.4950  2.1787
 7574SOL     OW34180   4.525   2.621  13.115  0.3232  0.0190  0.4270
 7574SOL    HW134181   4.454   2.561  13.140  1.2820 -1.0004  0.7038
 7574SOL    HW234182   4.605   2.584  13.153 -0.6750 -0.5641  1.9422
 7575SOL     OW34183   2.155   0.588   2.854  0.3351 -0.0631 -0.6133
 7575SOL    HW134184   2.234   0.585   2.799  1.6203 -0.6999  1.2758
 7575SOL    HW234185   2.109   0.516   2.810  0.0259 -0.9006  1.0984
 7576SOL     OW34186   3.010   1.177   5.405  0.3942  0.0543 -0.3657
 7576SOL    HW134187   3.037   1.129   5.483  0.3869 -0.8706 -0.9305
 7576SOL    HW234188   2.958   1.242   5.452  4.4762  0.7935  3.0662
 7577SOL     OW34189   1.115   2.123  16.754 -0.0016  0.3907  0.1612
 7577SOL    HW134190   1.060   2.094  16.681 -0.2470  2.0053 -0.3079
 7577SOL    HW234191   1.076   2.072  16.824 -2.0423  0.8375 -0.6575
 7578SOL     OW34192   0.710   3.562   8.116 -0.0668 -0.7527 -0.1732
 7578SOL    HW134193   0.625   3.518   8.110 -1.4328  2.0383 -1.1237
 7578SOL    HW234194   0.740   3.534   8.202 -0.3522  0.0403  0.1808
 7579SOL     OW34195   3.584   3.875  13.505  0.2378 -0.0705  0.4458
 7579SOL    HW134196   3.659   3.843  13.456 -0.4828 -0.6321 -0.2893
 7579SOL    HW234197   3.529   3.798  13.494  1.4643 -0.8770 -0.0035
 7580SOL     OW34198   4.602   1.878   3.077 -0.2058  0.1290 -0.2546
 7580SOL    HW134199   4.518   1.836   3.059  0.0188 -0.8998  1.1152
 7580SOL    HW234200   4.562   1.964   3.088 -2.0386 -1.1414  3.1458
 7581SOL     OW34201   2.258   0.964   6.650 -0.3219 -0.4171  0.3869
 7581SOL    HW134202   2.332   0.924   6.605  0.7419  1.0101  0.8504
 7581SOL    HW234203   2.275   0.936   6.740 -0.7113  0.0254  0.6019
 7582SOL     OW34204   3.484   3.146   5.315  0.1687 -0.2040 -0.2441
 7582SOL    HW134205   3.579   3.150   5.308  0.0762  1.9323 -0.4220
 7582SOL    HW234206   3.444   3.231   5.292 -2.3108 -1.6065 -1.1389
 7583SOL     OW34207   3.592   1.521  13.017 -0.2516  0.3983 -0.5196
 7583SOL    HW134208   3.510   1.483  13.050  0.9097 -0.9901  0.7999
 7583SOL    HW234209   3.601   1.459  12.945 -1.3880 -1.8993  1.3018
 7584SOL     OW34210   3.707   3.976   8.172  0.2491 -0.0960 -0.4519
 7584SOL    HW134211   3.647   3.988   8.099 -2.0722  0.2604  1.5259
 7584SOL    HW234212   3.793   3.994   8.134  0.2507 -1.0306 -0.8764
 7585SOL     OW34213   2.114   2.794  14.652  0.2284  0.7957 -0.0456
 7585SOL    HW134214   2.205   2.813  14.632  0.3485  0.3435  0.0886
 7585SOL    HW234215   2.087   2.765  14.565 -2.6821  1.4800  0.6154
 7586SOL     OW34216   3.013   4.102  16.891 -0.1204 -0.5108  0.1604
 7586SOL    HW134217   3.003   4.196  16.907  0.1598 -0.4579  0.0311
 7586SOL    HW234218   2.934   4.084  16.840 -1.4306  0.3454  1.8907
 7587SOL     OW34219   2.332   3.008   8.456 -0.5240  0.3184  0.1448
 7587SOL    HW134220   2.288   3.083   8.495  0.9228  1.8875 -1.2584
 7587SOL    HW234221   2.263   2.942   8.454 -0.7907  0.5267  2.3223
 7588SOL     OW34222   1.858   0.556  17.014  0.1611 -0.0438 -0.0827
 7588SOL    HW134223   1.881   0.543  17.106  0.5481  1.8043  0.0899
 7588SOL    HW234224   1.941   0.531  16.973  1.4470  0.5141  2.1725
 7589SOL     OW34225   3.513   1.428   3.042  0.2096 -0.3465 -0.9989
 7589SOL    HW134226   3.574   1.489   3.083 -2.5982  0.5350  1.9289
 7589SOL    HW234227   3.544   1.446   2.953  2.3627  0.7646 -0.0113
 7590SOL     OW34228   0.394   3.854   7.172 -0.0280  0.3765 -0.2528
 7590SOL    HW134229   0.324   3.918   7.155 -1.1169  0.0919  3.1681
 7590SOL    HW234230   0.419   3.845   7.080  1.5286 -1.0426  0.3181
 7591SOL     OW34231   0.293   4.001   5.019 -0.1001  0.0985  0.3038
 7591SOL    HW134232   0.258   3.934   5.077  0.4449  0.9207  1.5809
 7591SOL    HW234233   0.223   4.065   5.013 -1.3359 -1.3471 -0.7381
 7592SOL     OW34234   4.157   4.555  11.963  0.1721  0.8017  0.1352
 7592SOL    HW134235   4.072   4.589  11.935  0.7369  1.2878 -0.9860
 7592SOL    HW234236   4.184   4.530  11.875  1.4335 -1.7264  1.2531
 7593SOL     OW34237   1.733   0.341   5.840 -0.0616  0.1452  0.3034
 7593SOL    HW134238   1.652   0.290   5.830 -0.4555  0.5547  1.3618
 7593SOL    HW234239   1.717   0.382   5.925 -0.9479 -3.3260  1.8327
 7594SOL     OW34240   0.255   0.406   5.875 -0.5981  0.1056 -0.2274
 7594SOL    HW134241   0.262   0.500   5.889  0.1533  0.2655 -1.6839
 7594SOL    HW234242   0.348   0.386   5.870 -0.3126  0.9171  1.8579
 7595SOL     OW34243   2.145   1.917   0.067  0.2725 -0.3757  0.3858
 7595SOL    HW134244   2.127   1.969   0.146 -1.2491 -1.4984  0.7632
 7595SOL    HW234245   2.201   1.984   0.026 -0.9391  0.2519 -0.2264
 7596SOL     OW34246   4.258   0.071   5.118 -0.5276  0.3971 -0.6209
 7596SOL    HW134247   4.252   0.123   5.198  1.4502 -0.5370  0.1440
 7596SOL    HW234248   4.168   0.086   5.088 -1.4667 -4.9309 -0.5609
 7597SOL     OW34249   2.235   1.723   5.817  0.2173 -0.2633  0.1551
 7597SOL    HW134250   2.165   1.745   5.879 -0.4476  0.6805 -0.9304
 7597SOL    HW234251   2.287   1.804   5.824  0.7612 -0.4877 -1.4150
 7598SOL     OW34252   3.703   3.332   4.912 -0.1433  0.5935  0.1943
 7598SOL    HW134253   3.796   3.339   4.930 -0.4009  2.1810  0.9522
 7598SOL    HW234254   3.690   3.419   4.873 -1.9507 -0.3035 -1.2174
 7599SOL     OW34255   0.499   3.336   0.273  0.0567 -0.3742  0.1714
 7599SOL    HW134256   0.551   3.288   0.209  2.4039  2.0108  0.2464
 7599SOL    HW234257   0.483   3.273   0.343  1.0654 -0.2846  0.4916
 7600SOL     OW34258   0.551   1.389   8.676 -0.1546  0.6162 -0.5266
 7600SOL    HW134259   0.524   1.385   8.584 -1.1230  0.5062 -0.2411
 7600SOL    HW234260   0.633   1.340   8.686 -0.8095 -0.9060 -2.4436
 7601SOL     OW34261   4.294   1.728   4.558  0.2541 -0.3238 -0.6134
 7601SOL    HW134262   4.381   1.689   4.571  0.5811  0.8532  0.6978
 7601SOL    HW234263   4.310   1.819   4.585 -0.2737 -0.4048 -0.0481
 7602SOL     OW34264   2.874   1.258   5.777 -0.4232 -0.6557 -0.2139
 7602SOL    HW134265   2.850   1.293   5.691 -1.4015  0.4098  0.4973
 7602SOL    HW234266   2.855   1.165   5.761 -2.5261  0.1024 -2.2340
 7603SOL     OW34267   3.368   2.864   3.867 -0.3783 -0.1453 -0.3286
 7603SOL    HW134268   3.390   2.887   3.777  0.6392  0.4229  0.0703
 7603SOL    HW234269   3.421   2.785   3.872 -1.5494 -0.9797 -1.0676
 7604SOL     OW34270   1.382   0.652   4.068 -0.4182  0.3826 -0.2482
 7604SOL    HW134271   1.323   0.696   4.006  1.5622 -0.0689 -2.4284
 7604SOL    HW234272   1.421   0.732   4.104  0.7200 -0.2698 -0.0305
 7605SOL     OW34273   0.351   2.137   6.506 -0.7993 -0.0208  0.7058
 7605SOL    HW134274   0.373   2.129   6.599  1.7666 -0.4423  0.0576
 7605SOL    HW234275   0.280   2.077   6.482 -2.1496  1.5780  0.6620
 7606SOL     OW34276   0.670   2.863   6.369  0.3913  0.4651  0.5752
 7606SOL    HW134277   0.606   2.919   6.413  0.3464  1.2373 -0.4733
 7606SOL    HW234278   0.686   2.796   6.435 -3.1722 -1.4457 -0.5411
 7607SOL     OW34279   3.318   1.793   8.645 -0.2064  0.1903 -0.4298
 7607SOL    HW134280   3.230   1.756   8.640 -0.8853  1.8647 -0.9012
 7607SOL    HW234281   3.343   1.750   8.727 -0.6472  0.0243 -0.3846
 7608SOL     OW34282   3.730   1.070   2.353 -0.7761  0.1265 -0.1098
 7608SOL    HW134283   3.720   1.115   2.269 -1.3434  0.8350  0.3331
 7608SOL    HW234284   3.811   1.020   2.351 -1.1473 -0.4925  0.7065
 7609SOL     OW34285   2.096   0.506   7.075  0.5713  0.5701 -0.8831
 7609SOL    HW134286   2.072   0.597   7.092 -3.1195 -0.3224 -1.3757
 7609SOL    HW234287   2.122   0.482   7.164  0.7984  0.2258 -1.0444
 7610SOL     OW34288   2.921   1.366   8.802 -0.6866 -0.5595 -0.0507
 7610SOL    HW134289   2.892   1.453   8.831 -0.7666  0.2933 -2.6546
 7610SOL    HW234290   2.845   1.313   8.822 -0.4850 -0.9041 -0.1983
 7611SOL     OW34291   1.548   2.898   6.981 -0.1692 -0.2767  0.2538
 7611SOL    HW134292   1.534   2.808   6.951  1.4582 -0.1484 -0.8660
 7611SOL    HW234293   1.577   2.944   6.902 -1.1330  1.6589  1.0393
 7612SOL     OW34294   4.012   4.216   5.262  0.5136  0.0717 -0.0853
 7612SOL    HW134295   4.088   4.158   5.260  0.7341  0.3845 -0.8656
 7612SOL    HW234296   4.023   4.271   5.184  0.4309 -1.8606 -1.4503
 7613SOL     OW34297   1.257   0.290   0.054  0.6588 -0.0391 -0.5618
 7613SOL    HW134298   1.307   0.350  17.696  2.0996 -0.3209  0.4287
 7613SOL    HW234299   1.175   0.339   0.051 -0.9416 -2.7766 -1.4423
 7614SOL     OW34300   2.819   2.424   5.547  0.1749 -0.6842  0.0956
 7614SOL    HW134301   2.790   2.433   5.638  1.1527  0.1385  0.3291
 7614SOL    HW234302   2.823   2.518   5.529 -1.8586 -0.8917 -1.3758
 7615SOL     OW34303   2.165   1.249   3.408  0.6160 -0.7381 -0.1432
 7615SOL    HW134304   2.231   1.232   3.341  1.5514  0.4308  0.4805
 7615SOL    HW234305   2.186   1.341   3.426  1.0157 -1.3336  2.4468
 7616SOL     OW34306   1.330   3.416   4.212 -0.1419 -0.1272  0.2523
 7616SOL    HW134307   1.261   3.365   4.169 -0.2047  0.2725 -0.1223
 7616SOL    HW234308   1.311   3.418   4.306  1.8606 -0.4053  0.6596
 7617SOL     OW34309   4.451   3.960   6.964  0.3659  0.1167 -0.0180
 7617SOL    HW134310   4.545   3.946   6.958  0.8334  2.4286  2.0100
 7617SOL    HW234311   4.452   3.997   7.053 -0.2333  1.0725 -0.4077
 7618SOL     OW34312   1.964   4.348   2.117 -0.0980  0.0990  0.4958
 7618SOL    HW134313   1.904   4.326   2.189 -0.1033 -2.0412 -0.1646
 7618SOL    HW234314   1.919   4.320   2.038  1.2930 -2.8159  0.7495
 7619SOL     OW34315   4.622   1.561   3.792 -0.1384 -0.3315 -0.1221
 7619SOL    HW134316   4.655   1.474   3.770 -0.0048 -0.4574  0.5842
 7619SOL    HW234317   4.552   1.555   3.858 -1.2299  5.2245 -0.7521
 7620SOL     OW34318   2.283   2.506   6.092  0.1833 -0.1098 -0.0640
 7620SOL    HW134319   2.300   2.502   6.186 -1.2855 -0.0166  0.2121
 7620SOL    HW234320   2.301   2.417   6.062  1.0473  0.8494 -2.4273
 7621SOL     OW34321   3.814   1.956   2.515  0.4680  0.0553  0.2816
 7621SOL    HW134322   3.818   1.917   2.603  2.6058  0.0286  0.1587
 7621SOL    HW234323   3.866   1.892   2.468  0.6526 -2.7749  4.3198
 7622SOL     OW34324   0.583   2.438  14.632 -0.1974 -1.0280  0.3642
 7622SOL    HW134325   0.560   2.506  14.695  0.3089 -1.2174  0.7553
 7622SOL    HW234326   0.541   2.363  14.674 -0.1387 -0.3753  1.5958
 7623SOL     OW34327   1.004   4.321   6.131 -0.7778  0.2885 -0.6790
 7623SOL    HW134328   1.031   4.311   6.222  0.9055  0.1600 -1.1996
 7623SOL    HW234329   1.049   4.397   6.094 -0.4620  2.0066  3.2795
 7624SOL     OW34330   1.075   3.882   4.582  0.3154 -0.0583  0.1849
 7624SOL    HW134331   1.128   3.828   4.640  0.6044  1.2638  1.1406
 7624SOL    HW234332   1.053   3.962   4.629  0.9810 -1.5139  2.9556
 7625SOL     OW34333   1.552   1.108   8.643 -0.2910 -0.2879 -0.0267
 7625SOL    HW134334   1.639   1.127   8.609 -0.0886 -2.2310 -0.6037
 7625SOL    HW234335   1.563   1.128   8.736 -0.0675 -0.0283 -0.1077
 7626SOL     OW34336   2.828   2.838   5.216 -0.2309 -0.1143  0.1234
 7626SOL    HW134337   2.921   2.822   5.228 -0.0400  1.1262  0.2349
 7626SOL    HW234338   2.792   2.804   5.298  0.7799 -4.1275 -1.1162
 7627SOL     OW34339   2.171   0.135  11.931  0.1472 -0.4049 -0.5162
 7627SOL    HW134340   2.112   0.092  11.870 -0.4029 -1.2774  0.6227
 7627SOL    HW234341   2.250   0.143  11.878 -0.6268  1.1750 -1.4161
 7628SOL     OW34342   2.957   0.952   6.038  0.2369  0.2662 -0.4738
 7628SOL    HW134343   2.900   1.010   6.087  0.2915  1.3555 -1.7168
 7628SOL    HW234344   2.916   0.956   5.952 -1.2439  0.8795  0.2707
 7629SOL     OW34345   2.117   3.370   6.212  0.1581 -0.2619  0.2319
 7629SOL    HW134346   2.192   3.416   6.250 -1.8551  2.0833  1.3854
 7629SOL    HW234347   2.158   3.323   6.139 -2.3056 -2.9889  0.6263
 7630SOL     OW34348   0.393   1.842  13.625  0.1170 -0.3358  0.4297
 7630SOL    HW134349   0.393   1.867  13.717  1.8159  0.0334  0.3302
 7630SOL    HW234350   0.299   1.829  13.613  0.5565 -2.1787 -1.0073
 7631SOL     OW34351   1.866   0.561  10.139  0.3315  0.2869  0.0080
 7631SOL    HW134352   1.821   0.561  10.223 -1.1794  1.4167 -0.8100
 7631SOL    HW234353   1.843   0.645  10.100 -1.2501  0.2522  0.8509
 7632SOL     OW34354   0.082   3.633   9.042 -0.2378  0.1962 -0.7083
 7632SOL    HW134355   0.102   3.643   9.135 -0.6405  0.5325 -0.6534
 7632SOL    HW234356   0.139   3.562   9.013  1.1168 -0.0313  2.4943
 7633SOL     OW34357   2.580   3.900  15.282  0.1735 -0.0752  0.1164
 7633SOL    HW134358   2.503   3.956  15.273  1.6086  1.6470 -1.4089
 7633SOL    HW234359   2.563   3.828  15.221  1.6806 -0.8804  0.6561
 7634SOL     OW34360   0.068   4.010   5.982  0.1010 -0.0910  0.6564
 7634SOL    HW134361   0.036   3.920   5.977  0.7667 -0.3228  0.5838
 7634SOL    HW234362   0.018   4.048   5.911  0.1125 -1.2238  0.0383
 7635SOL     OW34363   4.357   0.866  11.961  0.0886  0.2352 -0.5074
 7635SOL    HW134364   4.275   0.915  11.955  0.5799  1.3228  1.6804
 7635SOL    HW234365   4.412   0.934  11.999  0.3604 -0.9857  1.2788
 7636SOL     OW34366   0.117   1.873   6.074 -0.0057 -0.3672 -0.2117
 7636SOL    HW134367   0.111   1.837   5.986 -0.4117 -0.8509  0.0113
 7636SOL    HW234368   0.154   1.808   6.135 -0.4496 -0.1106  0.3335
 7637SOL     OW34369   2.490   2.521   5.424 -0.7171 -0.3412  0.2739
 7637SOL    HW134370   2.562   2.583   5.415  0.6008 -1.7917  0.8939
 7637SOL    HW234371   2.505   2.484   5.511 -1.6434 -0.3866  0.4099
 7638SOL     OW34372   4.014   3.854   3.812 -0.1628 -0.7079  0.4441
 7638SOL    HW134373   4.068   3.835   3.889 -0.4955 -1.0118  0.6067
 7638SOL    HW234374   4.016   3.768   3.771  3.1581  0.9876 -2.9066
 7639SOL     OW34375   1.514   1.530   8.427  0.5617 -0.4249 -0.1427
 7639SOL    HW134376   1.553   1.494   8.347  2.0651  0.6864  0.0825
 7639SOL    HW234377   1.566   1.498   8.502 -0.8412  0.8094  1.3589
 7640SOL     OW34378   4.049   3.255  16.996 -0.7318  0.0876 -0.0670
 7640SOL    HW134379   3.959   3.246  17.028 -0.4089 -0.6183  0.6417
 7640SOL    HW234380   4.087   3.298  17.073  0.8379  3.9097 -2.9487
 7641SOL     OW34381   3.466   0.955   1.570 -0.1784 -0.0773  0.2404
 7641SOL    HW134382   3.388   0.943   1.625 -1.6882  1.6125 -1.5419
 7641SOL    HW234383   3.454   1.045   1.540  2.0319  0.2824  0.4365
 7642SOL     OW34384   0.571   3.960  17.588 -0.3095 -0.2234  0.4581
 7642SOL    HW134385   0.652   3.916  17.563 -0.4537 -0.7576  0.9297
 7642SOL    HW234386   0.520   3.978  17.509  0.0486  3.7906  1.1387
 7643SOL     OW34387   0.502   3.323   6.315 -0.1602  0.1844  0.5824
 7643SOL    HW134388   0.481   3.319   6.409 -3.4225 -1.2166 -0.2224
 7643SOL    HW234389   0.595   3.345   6.320  0.7782 -3.2679 -1.7666
 7644SOL     OW34390   2.427   0.310  14.261  0.0642 -0.3977  0.1546
 7644SOL    HW134391   2.484   0.331  14.335 -0.1747  0.9846 -0.0544
 7644SOL    HW234392   2.366   0.246  14.296  0.2491 -0.2803  0.6843
 7645SOL     OW34393   4.684   2.753   7.679  0.1142 -0.0708 -0.3579
 7645SOL    HW134394   0.015   2.685   7.718  0.3108  1.4685  2.0601
 7645SOL    HW234395   4.608   2.705   7.646 -0.0351  0.3203 -0.5877
 7646SOL     OW34396   0.469   2.578  17.676  0.8403 -0.3993 -0.0106
 7646SOL    HW134397   0.474   2.503   0.038  0.2650 -0.1603  0.3398
 7646SOL    HW234398   0.500   2.643   0.043  1.0121 -0.7931  0.3104
 7647SOL     OW34399   1.012   3.731  14.231  0.4749 -0.6040 -0.4559
 7647SOL    HW134400   1.058   3.712  14.312 -0.4557  2.9039  0.9135
 7647SOL    HW234401   1.004   3.826  14.238  0.0671 -0.5682 -1.3490
 7648SOL     OW34402   2.766   2.190   8.962 -0.1782 -0.5842  0.3393
 7648SOL    HW134403   2.832   2.259   8.950 -0.5610 -0.0378  1.3611
 7648SOL    HW234404   2.790   2.152   9.046  3.1119  1.4470  0.3495
 7649SOL     OW34405   1.688   1.871  15.266 -0.1107 -0.2645 -0.0149
 7649SOL    HW134406   1.593   1.868  15.274 -0.0527  2.7837  1.8492
 7649SOL    HW234407   1.702   1.960  15.235  0.8426 -0.2755  0.3874
 7650SOL     OW34408   1.905   1.781   2.342  0.4947  0.6923  0.0331
 7650SOL    HW134409   1.995   1.751   2.347  0.1630 -0.2953  0.1719
 7650SOL    HW234410   1.882   1.757   2.253  0.9378  2.0977 -0.4626
 7651SOL     OW34411   2.061   4.456  12.254  0.0003  0.0896 -0.3890
 7651SOL    HW134412   2.035   4.535  12.207 -0.4880 -1.5500 -2.8862
 7651SOL    HW234413   2.156   4.449  12.245  0.0549  1.8350 -1.1292
 7652SOL     OW34414   3.377   2.299  15.401  0.3252 -0.5503  0.3133
 7652SOL    HW134415   3.383   2.296  15.497 -0.2015  1.4449  0.4045
 7652SOL    HW234416   3.431   2.225  15.374  0.3705 -1.4691  2.8334
 7653SOL     OW34417   2.644   2.232   0.472  0.3902  0.3329 -0.3156
 7653SOL    HW134418   2.576   2.207   0.410  1.3009  1.5233 -1.7745
 7653SOL    HW234419   2.669   2.144   0.501 -1.0155  0.9244  2.6700
 7654SOL     OW34420   3.508   0.044   7.050 -0.0890  0.0112 -0.2498
 7654SOL    HW134421   3.566   0.118   7.035  0.4664 -0.1750  1.0074
 7654SOL    HW234422   3.476   0.018   6.963  0.9928  1.3825 -1.0564
 7655SOL     OW34423   0.947   1.854   6.489 -0.0394  0.5142  0.1941
 7655SOL    HW134424   0.937   1.796   6.564 -1.4186 -1.8264 -1.8070
 7655SOL    HW234425   0.981   1.934   6.529  0.9935  0.7698 -1.1749
 7656SOL     OW34426   1.423   1.909   1.060  0.1260 -0.0229  0.0600
 7656SOL    HW134427   1.347   1.931   1.007 -1.1750  1.6653  2.6375
 7656SOL    HW234428   1.400   1.833   1.113  1.0662  0.5234  1.2833
 7657SOL     OW34429   3.908   4.569  11.040  0.1069 -0.2603 -0.5755
 7657SOL    HW134430   3.914   4.575  11.135  1.3975 -1.4811 -0.5712
 7657SOL    HW234431   3.902   4.660  11.010  0.3090 -0.6144 -1.7114
 7658SOL     OW34432   2.840   0.064   4.684 -0.1635 -0.0348  0.2782
 7658SOL    HW134433   2.815   4.719   4.746 -2.8803 -1.4881 -2.4474
 7658SOL    HW234434   2.930   0.087   4.709 -0.3519  0.0593  0.8480
 7659SOL     OW34435   4.564   2.179   8.015  0.4099  0.1833 -0.1023
 7659SOL    HW134436   4.652   2.208   7.991  1.0348 -1.6862 -0.0607
 7659SOL    HW234437   4.510   2.241   7.966  0.5817  0.4837  0.0871
 7660SOL     OW34438   2.474   2.912  10.416 -0.2261 -0.0356 -0.6774
 7660SOL    HW134439   2.532   2.841  10.441  0.7969  0.7112 -0.9398
 7660SOL    HW234440   2.387   2.872  10.420  0.9935 -2.5516  0.3883
 7661SOL     OW34441   3.476   1.432   6.558 -0.1258 -0.1345  0.3977
 7661SOL    HW134442   3.384   1.422   6.581 -0.3220  0.2634 -0.2448
 7661SOL    HW234443   3.478   1.448   6.464  0.4907  0.8015  0.5703
 7662SOL     OW34444   4.127   3.194   2.959 -0.5031  0.1846  0.3480
 7662SOL    HW134445   4.058   3.167   2.899  0.3900  1.5362 -1.2748
 7662SOL    HW234446   4.077   3.228   3.034  1.0736  0.7812  1.1325
 7663SOL     OW34447   4.255   3.459  15.871  0.2174 -0.0609  0.0711
 7663SOL    HW134448   4.205   3.405  15.810  0.5315 -0.2046 -0.0568
 7663SOL    HW234449   4.342   3.456  15.831  0.7468 -3.6744  1.4426
 7664SOL     OW34450   3.297   1.973  11.263 -0.2273 -0.1883  0.5723
 7664SOL    HW134451   3.382   1.986  11.305  0.4664 -0.1825 -0.7989
 7664SOL    HW234452   3.259   2.060  11.266  0.2365  0.0188  0.4792
 7665SOL     OW34453   4.121   1.480  17.095 -0.1260 -0.1558  0.4223
 7665SOL    HW134454   4.053   1.547  17.101 -0.5675 -0.3171 -2.6577
 7665SOL    HW234455   4.116   1.427  17.175  0.6430 -1.0471 -0.1206
 7666SOL     OW34456   1.828   4.640  10.356 -0.2948  0.6141 -0.3102
 7666SOL    HW134457   1.794   4.557  10.390  1.3041  1.0933  2.5270
 7666SOL    HW234458   1.840   4.685  10.440 -0.7611  0.9426 -0.4194
 7667SOL     OW34459   3.603   2.949   0.207  0.1761 -0.6593  0.4847
 7667SOL    HW134460   3.652   2.936   0.288 -1.3603  2.6638  1.9247
 7667SOL    HW234461   3.508   2.947   0.216 -0.0047  0.8554 -1.0030
 7668SOL     OW34462   1.958   3.863   3.253  0.0135 -0.4239  0.0518
 7668SOL    HW134463   1.904   3.846   3.330  0.3277 -2.3114 -0.1424
 7668SOL    HW234464   2.007   3.941   3.282 -3.0321  1.5995 -0.2879
 7669SOL     OW34465   3.513   2.864   7.877 -0.0749 -0.2102 -0.0460
 7669SOL    HW134466   3.576   2.862   7.949 -0.4552 -0.0742  0.2927
 7669SOL    HW234467   3.520   2.774   7.844 -0.0700 -0.7339  1.3460
 7670SOL     OW34468   3.535   0.109   5.569 -0.3717 -0.7894  0.7844
 7670SOL    HW134469   3.553   0.135   5.659 -3.2873  1.6125  0.6735
 7670SOL    HW234470   3.544   0.189   5.517  0.9734 -0.2118  1.9145
 7671SOL     OW34471   1.253   2.121   4.676  0.0175  0.1033  0.2458
 7671SOL    HW134472   1.291   2.179   4.610  0.8554  0.6858  1.2492
 7671SOL    HW234473   1.160   2.124   4.654  0.5579 -1.0828 -2.2752
 7672SOL     OW34474   1.320   0.086  13.032  0.2754 -0.4490  0.2962
 7672SOL    HW134475   1.243   0.142  13.038  1.0914  0.6395  0.7199
 7672SOL    HW234476   1.323   0.084  12.936 -2.1643  2.2071  0.1719
 7673SOL     OW34477   1.332   2.298  12.735 -0.2266  0.2609 -0.6750
 7673SOL    HW134478   1.300   2.356  12.666 -2.4561 -0.6781 -0.4100
 7673SOL    HW234479   1.424   2.301  12.708 -0.0753  0.0364 -0.1881
 7674SOL     OW34480   1.674   2.646   1.049  0.4797  0.5538 -1.1808
 7674SOL    HW134481   1.666   2.635   1.144  2.1647  0.5325 -1.0467
 7674SOL    HW234482   1.594   2.691   1.021  0.9026  2.6478  1.0263
 7675SOL     OW34483   1.815   0.327   1.841 -0.1172 -0.4828  0.1856
 7675SOL    HW134484   1.904   0.353   1.863 -0.8049  0.6294  1.6145
 7675SOL    HW234485   1.760   0.403   1.860  3.7521  1.9364  1.6811
 7676SOL     OW34486   0.940   2.305   6.113  0.4423  0.6751 -0.3466
 7676SOL    HW134487   0.894   2.230   6.075 -1.1364  0.3003  2.3452
 7676SOL    HW234488   0.940   2.282   6.205  0.6168 -2.4122 -1.1228
 7677SOL     OW34489   0.304   2.388   7.672 -0.8263 -0.6483 -0.4731
 7677SOL    HW134490   0.380   2.352   7.627 -0.6645 -0.2431 -0.5243
 7677SOL    HW234491   0.239   2.321   7.652 -0.2107 -1.5133  0.3946
 7678SOL     OW34492   1.044   4.308   4.406  0.2728 -0.4760 -0.0491
 7678SOL    HW134493   1.018   4.397   4.430 -2.6892 -0.1747 -4.5009
 7678SOL    HW234494   1.140   4.308   4.414  0.2828  0.5567 -0.0942
 7679SOL     OW34495   3.390   0.215   1.467  0.3159  0.5889 -0.1302
 7679SOL    HW134496   3.361   0.152   1.533 -3.5149  0.9809 -1.4075
 7679SOL    HW234497   3.304   0.226   1.426  1.0649  0.0889 -1.8812
 7680SOL     OW34498   2.678   1.928   0.517  0.9221 -0.1392  0.2720
 7680SOL    HW134499   2.666   1.840   0.553 -1.5735 -0.2800 -0.8850
 7680SOL    HW234500   2.771   1.947   0.519  0.7328  0.7626  0.7710
 7681SOL     OW34501   1.424   0.936  16.338  0.3248 -0.3842 -0.6234
 7681SOL    HW134502   1.408   1.030  16.344 -1.5263 -0.6543 -1.3046
 7681SOL    HW234503   1.518   0.925  16.332  0.1222 -2.8024  0.4968
 7682SOL     OW34504   1.858   3.933   8.526  0.0961  0.2103 -0.3504
 7682SOL    HW134505   1.915   3.911   8.600 -1.4547  0.9905  1.0673
 7682SOL    HW234506   1.922   3.932   8.454  1.5547  0.9124  0.9445
 7683SOL     OW34507   3.823   1.181   3.997 -0.6043  0.7093 -0.4779
 7683SOL    HW134508   3.757   1.114   3.979  0.4120 -0.8698  1.6158
 7683SOL    HW234509   3.867   1.130   4.064  1.5953  0.1714 -2.3286
 7684SOL     OW34510   3.859   4.037  11.661 -0.1642  0.0262  0.2870
 7684SOL    HW134511   3.862   4.075  11.749  0.5753 -1.4341  0.8943
 7684SOL    HW234512   3.875   4.116  11.610  3.0290  0.1096  1.4441
 7685SOL     OW34513   1.491   1.464   8.695  0.4179  0.0993  0.4889
 7685SOL    HW134514   1.503   1.402   8.767 -1.0291 -1.0763 -0.2738
 7685SOL    HW234515   1.493   1.549   8.740  0.5855  0.1556  0.3696
 7686SOL     OW34516   0.517   2.280   0.925  0.0871 -0.5577  0.0929
 7686SOL    HW134517   0.577   2.208   0.945  0.5400 -0.0610  0.5171
 7686SOL    HW234518   0.572   2.358   0.922 -0.9802  0.1859 -0.3530
 7687SOL     OW34519   0.468   2.206   8.285  0.1217 -0.0027 -0.0041
 7687SOL    HW134520   0.467   2.120   8.327 -0.6881 -0.8564 -1.8027
 7687SOL    HW234521   0.394   2.208   8.225  0.7865  2.8614 -0.7197
 7688SOL     OW34522   3.185   3.734  14.656  0.0500 -0.0815  0.1111
 7688SOL    HW134523   3.222   3.645  14.656 -0.8415 -0.4513 -2.1738
 7688SOL    HW234524   3.095   3.718  14.686  0.7755  1.7092  3.2329
 7689SOL     OW34525   4.163   3.566  10.767  0.7090 -0.6677  0.0755
 7689SOL    HW134526   4.095   3.514  10.811  0.8785 -0.7720  0.2104
 7689SOL    HW234527   4.178   3.523  10.682  2.5714  1.0730 -0.4777
 7690SOL     OW34528   0.073   0.025   8.867  0.4449  0.3221  0.4148
 7690SOL    HW134529   0.152   0.077   8.883 -0.8873  2.0786  1.3160
 7690SOL    HW234530   0.080   4.677   8.930  1.8175  0.3631  0.3230
 7691SOL     OW34531   4.474   0.806   4.659  0.0715  0.0980 -0.1535
 7691SOL    HW134532   4.492   0.878   4.719 -0.6959 -1.1459  1.5982
 7691SOL    HW234533   4.389   0.774   4.691 -1.0882  1.9748 -1.3789
 7692SOL     OW34534   2.443   1.186  16.068  0.3713 -0.2990  0.5628
 7692SOL    HW134535   2.468   1.256  16.007 -1.6737 -0.3345 -0.3213
 7692SOL    HW234536   2.379   1.143  16.011 -0.0847  0.7288  0.2876
 7693SOL     OW34537   3.386   2.362   1.274  0.0740 -0.0777 -0.1755
 7693SOL    HW134538   3.460   2.365   1.335 -0.0840 -0.9745  0.0614
 7693SOL    HW234539   3.316   2.390   1.334  0.8545  2.6844 -0.5456
 7694SOL     OW34540   1.640   1.666   5.508 -0.3299  0.1230  0.8510
 7694SOL    HW134541   1.695   1.661   5.430 -2.2764  0.6686 -0.5474
 7694SOL    HW234542   1.614   1.757   5.518  1.2808  0.7724 -1.0111
 7695SOL     OW34543   1.464   2.144   0.256 -0.0420 -0.6882  0.5255
 7695SOL    HW134544   1.489   2.065   0.303 -2.4970 -1.1902  0.9528
 7695SOL    HW234545   1.450   2.205   0.328  1.2464  1.5198 -1.0772
 7696SOL     OW34546   3.921   1.113   4.293 -0.1037  0.2234 -0.2651
 7696SOL    HW134547   3.892   1.192   4.339 -0.6862  0.2831 -0.7174
 7696SOL    HW234548   3.862   1.049   4.333 -0.5367  2.3933  2.5155
 7697SOL     OW34549   3.907   3.432  10.219  0.2787  0.4013 -0.0383
 7697SOL    HW134550   3.825   3.456  10.263 -0.3742  0.3862 -1.2534
 7697SOL    HW234551   3.910   3.338  10.233  1.5628  0.4464 -0.0616
 7698SOL     OW34552   2.188   4.387   5.025  0.1664  0.5534  0.1697
 7698SOL    HW134553   2.278   4.400   5.057  0.0162  0.3209  0.6845
 7698SOL    HW234554   2.190   4.292   5.030  0.9461  0.6185  1.3333
 7699SOL     OW34555   2.963   2.354  15.431 -0.3905 -0.0047 -0.4447
 7699SOL    HW134556   2.961   2.260  15.447  1.1646  0.1168  0.4785
 7699SOL    HW234557   2.873   2.365  15.464 -0.7913 -0.2149 -1.4823
 7700SOL     OW34558   1.948   0.793   4.338  0.5661 -0.2035 -0.1469
 7700SOL    HW134559   1.957   0.725   4.272  0.5066 -0.3214 -0.0347
 7700SOL    HW234560   1.960   0.745   4.420 -1.9426 -1.4955 -0.5344
 7701SOL     OW34561   1.180   3.520   5.300  0.0411  0.5395 -0.6440
 7701SOL    HW134562   1.212   3.610   5.299 -0.0318  0.6107  2.1540
 7701SOL    HW234563   1.111   3.515   5.234 -0.7628 -1.7129  0.3426
 7702SOL     OW34564   4.017   2.105   0.284  0.3949  0.3027  0.0959
 7702SOL    HW134565   4.013   2.133   0.376  0.7549 -0.4880  0.3546
 7702SOL    HW234566   4.108   2.075   0.280  0.3490  0.4865 -2.6167
 7703SOL     OW34567   3.195   3.360  15.097 -0.0167  0.2889 -0.2288
 7703SOL    HW134568   3.151   3.399  15.172 -1.7957 -1.2148 -0.4680
 7703SOL    HW234569   3.275   3.412  15.095 -0.0921  0.2803 -3.5064
 7704SOL     OW34570   1.779   1.206   9.395 -0.2773 -0.4353 -0.0856
 7704SOL    HW134571   1.862   1.216   9.441  0.6416  0.5970 -1.9678
 7704SOL    HW234572   1.779   1.295   9.358 -0.4490 -2.0011 -3.8395
 7705SOL     OW34573   3.769   3.433   3.358 -0.1396 -0.1426 -0.3137
 7705SOL    HW134574   3.732   3.520   3.371  0.8325  0.1361  0.6315
 7705SOL    HW234575   3.857   3.469   3.371 -0.3611 -0.2054  1.3665
 7706SOL     OW34576   0.919   3.725   7.253  0.0766  0.1207 -0.1128
 7706SOL    HW134577   0.988   3.773   7.206 -0.2114  1.8812  1.2732
 7706SOL    HW234578   0.910   3.769   7.337  1.5369 -0.0467  0.1149
 7707SOL     OW34579   1.761   2.340   5.813 -0.0258  0.3815 -0.1474
 7707SOL    HW134580   1.744   2.414   5.755  1.4178 -1.0940 -2.4474
 7707SOL    HW234581   1.795   2.364   5.899  2.7766 -0.6251 -0.9751
 7708SOL     OW34582   3.819   3.041   3.458  0.1208  0.1861 -0.5775
 7708SOL    HW134583   3.834   3.018   3.549 -0.0477  1.2376 -0.2873
 7708SOL    HW234584   3.902   3.082   3.433  0.7851 -0.1288  1.1357
 7709SOL     OW34585   1.328   2.782  11.395 -0.1006 -0.5116  0.2259
 7709SOL    HW134586   1.348   2.694  11.365 -0.4324 -0.0738 -1.2873
 7709SOL    HW234587   1.244   2.764  11.437  0.4352 -0.0328  1.5041
 7710SOL     OW34588   3.979   2.795   8.245  0.3313  0.2596 -0.1484
 7710SOL    HW134589   3.928   2.822   8.322  0.7644  0.1272  0.1823
 7710SOL    HW234590   3.983   2.876   8.194 -1.0575  0.2856 -0.2220
 7711SOL     OW34591   3.815   0.085   1.114 -0.6577 -0.3030 -0.3969
 7711SOL    HW134592   3.801   0.108   1.022  1.6046  1.5755 -0.2901
 7711SOL    HW234593   3.822   0.175   1.146 -2.2694  0.1831 -1.4012
 7712SOL     OW34594   0.291   3.505   1.945 -0.6247 -0.4826 -0.4190
 7712SOL    HW134595   0.303   3.499   1.851 -2.1796 -1.7764 -0.5332
 7712SOL    HW234596   0.197   3.486   1.949 -0.7352  0.0652 -0.3593
 7713SOL     OW34597   0.832   3.248  14.476  0.0321 -0.4957 -0.6590
 7713SOL    HW134598   0.747   3.276  14.442  0.8538 -0.2488 -2.5440
 7713SOL    HW234599   0.814   3.154  14.478  0.2348 -0.5152  0.0142
 7714SOL     OW34600   4.709   2.219   4.427  0.5131 -0.2144  0.3425
 7714SOL    HW134601   0.058   2.222   4.490  1.4280 -0.4912 -0.7177
 7714SOL    HW234602   4.696   2.313   4.416  0.0696 -0.3860 -0.5477
 7715SOL     OW34603   0.666   0.937   5.754 -0.1748 -0.1974  0.2097
 7715SOL    HW134604   0.677   1.008   5.691 -1.7484  1.5624  1.8964
 7715SOL    HW234605   0.678   0.859   5.700  0.3116  0.1631 -0.2010
 7716SOL     OW34606   0.208   3.319   5.046  0.0717  0.1401  0.0135
 7716SOL    HW134607   0.225   3.225   5.054  1.1711  0.1811 -1.8955
 7716SOL    HW234608   0.280   3.357   4.995 -2.3252  0.3720 -3.1824
 7717SOL     OW34609   4.508   1.962   3.843 -0.8929  0.7638 -0.1377
 7717SOL    HW134610   4.572   1.999   3.904  0.6750  0.4185 -1.5957
 7717SOL    HW234611   4.436   2.025   3.855 -1.6268 -0.4435  1.9716
 7718SOL     OW34612   2.374   4.632   0.176  0.2476 -0.0685  0.3223
 7718SOL    HW134613   2.368   4.539   0.198  0.3948 -0.1907 -0.1471
 7718SOL    HW234614   2.365   4.671   0.263 -2.5493  1.6775 -0.7326
 7719SOL     OW34615   1.568   2.417   9.521  0.3588  0.2096  0.0004
 7719SOL    HW134616   1.570   2.506   9.557  0.8154 -0.5188  1.7777
 7719SOL    HW234617   1.525   2.426   9.436  0.3726  2.6800  0.2429
 7720SOL     OW34618   2.483   0.178   2.585  0.2813  0.3437  0.4951
 7720SOL    HW134619   2.472   0.267   2.554  0.5633 -0.4407 -1.8405
 7720SOL    HW234620   2.514   0.136   2.504 -0.9098  2.6823 -1.1490
 7721SOL     OW34621   3.547   1.679   5.519 -0.1671 -0.0968 -0.2652
 7721SOL    HW134622   3.478   1.639   5.571  0.1187  1.4221  1.2864
 7721SOL    HW234623   3.559   1.610   5.454  1.2436  0.3636 -0.4925
 7722SOL     OW34624   4.161   0.102   2.113  0.3722 -0.0034  0.0884
 7722SOL    HW134625   4.219   0.126   2.040  3.1702 -1.6753  1.7677
 7722SOL    HW234626   4.077   0.116   2.070  1.8410 -0.1758 -2.8209
 7723SOL     OW34627   2.404   0.506  14.545 -0.0798 -0.4962 -0.6886
 7723SOL    HW134628   2.441   0.423  14.516  2.1406  0.0505  0.4910
 7723SOL    HW234629   2.485   0.556  14.561 -0.7263  0.6407 -1.0110
 7724SOL     OW34630   2.740   0.468  16.527  0.7985 -0.3718  0.6604
 7724SOL    HW134631   2.798   0.543  16.541  2.0483 -1.6283  2.2610
 7724SOL    HW234632   2.659   0.499  16.568  0.7223  1.1087 -0.6087
 7725SOL     OW34633   2.977   1.044   9.866  0.4996  0.1165  0.4795
 7725SOL    HW134634   2.883   1.062   9.860  0.7720  1.6570  0.6161
 7725SOL    HW234635   3.004   1.030   9.776 -0.4960 -2.2405  0.5694
 7726SOL     OW34636   0.045   3.564   3.584  0.8654 -0.0643  0.7402
 7726SOL    HW134637   4.713   3.526   3.652 -0.2744  0.9745  0.3915
 7726SOL    HW234638   0.033   3.656   3.607 -1.6260 -0.6485  1.7466
 7727SOL     OW34639   0.982   2.133   4.588  0.5474 -0.5616  0.2228
 7727SOL    HW134640   0.971   2.105   4.497  0.5344 -1.8550  0.6243
 7727SOL    HW234641   0.916   2.201   4.604 -1.6195 -2.5648 -0.0816
 7728SOL     OW34642   4.531   2.934  10.453  0.2466 -0.4101 -0.3014
 7728SOL    HW134643   4.440   2.907  10.442 -1.1399  3.0210  2.5464
 7728SOL    HW234644   4.537   2.923  10.548  3.4811  0.2799 -0.4086
 7729SOL     OW34645   2.391   1.172   2.745 -0.0089 -0.0508 -0.1780
 7729SOL    HW134646   2.447   1.151   2.670 -0.2871 -1.6860  0.0536
 7729SOL    HW234647   2.453   1.154   2.816  2.1994  4.2488 -1.0587
 7730SOL     OW34648   4.592   1.963  14.178 -0.0954 -0.4709 -0.4885
 7730SOL    HW134649   4.524   2.026  14.201 -1.4961 -1.9398 -0.5722
 7730SOL    HW234650   4.667   2.013  14.146  0.1109  1.3853  2.9340
 7731SOL     OW34651   4.568   0.011   9.102  0.2963  0.0488 -0.2151
 7731SOL    HW134652   4.616   4.652   9.097 -0.8626 -0.6184 -0.3746
 7731SOL    HW234653   4.487   4.706   9.059  0.3817 -1.1991  0.4560
 7732SOL     OW34654   3.649   2.267   8.990  0.2544  0.5285  0.1048
 7732SOL    HW134655   3.654   2.360   8.967  1.8643 -0.3952 -3.3757
 7732SOL    HW234656   3.646   2.266   9.085  0.1004  0.2203  0.0951
 7733SOL     OW34657   4.716   0.799   2.905  0.1222 -0.1095  0.1707
 7733SOL    HW134658   4.634   0.769   2.867  1.1410 -1.6941 -0.7505
 7733SOL    HW234659   0.030   0.712   2.914  1.1364  0.4040  1.0257
 7734SOL     OW34660   3.570   1.934   5.877  0.4137  0.1572 -0.2421
 7734SOL    HW134661   3.488   1.947   5.923  0.9314  1.7601  0.2343
 7734SOL    HW234662   3.603   1.848   5.905  0.9515 -0.1683 -1.8441
 7735SOL     OW34663   3.762   3.360   8.165 -0.5884  0.1700 -0.3610
 7735SOL    HW134664   3.806   3.404   8.093  1.2023 -1.7159 -0.4282
 7735SOL    HW234665   3.746   3.435   8.221  0.9116 -0.4447  0.8850
 7736SOL     OW34666   0.160   2.089  13.102 -0.2685 -0.2846  0.1687
 7736SOL    HW134667   0.242   2.095  13.053 -1.1388 -0.7974 -1.3411
 7736SOL    HW234668   0.197   2.085  13.191 -1.0473 -2.9608  0.3877
 7737SOL     OW34669   1.253   4.165   3.538 -0.1204  0.3343  0.5840
 7737SOL    HW134670   1.189   4.094   3.550 -0.2482 -0.1583 -3.0788
 7737SOL    HW234671   1.313   4.148   3.611 -1.8802  3.7890  2.8694
 7738SOL     OW34672   4.332   0.113   4.073  0.2428 -0.2838  0.1679
 7738SOL    HW134673   4.407   0.141   4.020 -2.0385  0.3170 -2.7706
 7738SOL    HW234674   4.284   0.193   4.090  1.1952  1.0440 -3.2723
 7739SOL     OW34675   2.965   2.389   7.259  0.4139  0.1254  0.5394
 7739SOL    HW134676   3.029   2.326   7.227  1.6379  1.8726 -0.4922
 7739SOL    HW234677   3.010   2.474   7.249 -0.5280  0.6630  0.8734
 7740SOL     OW34678   0.862   0.933   4.718  0.2282  0.8158 -0.3674
 7740SOL    HW134679   0.876   1.006   4.779 -0.6465 -0.6479  1.6071
 7740SOL    HW234680   0.950   0.896   4.727 -0.9294 -2.1137 -1.2923
 7741SOL     OW34681   1.151   2.863   9.184  0.8016  0.1281  0.3554
 7741SOL    HW134682   1.166   2.919   9.261  0.7468  1.2359 -0.4411
 7741SOL    HW234683   1.078   2.805   9.205  1.1055  0.2573  1.7652
 7742SOL     OW34684   0.755   0.972   3.331  0.0887 -0.3267  0.0096
 7742SOL    HW134685   0.710   0.901   3.285 -0.6112  0.9052 -1.2189
 7742SOL    HW234686   0.705   1.044   3.292 -2.3862 -1.9101  0.2786
 7743SOL     OW34687   3.394   2.183   7.453  0.3057 -0.1470 -0.1963
 7743SOL    HW134688   3.427   2.257   7.504 -1.5554  0.4871  0.1038
 7743SOL    HW234689   3.470   2.151   7.406  0.6665 -0.5795  0.6706
 7744SOL     OW34690   3.373   2.151   5.304  0.3374  0.0898 -0.2342
 7744SOL    HW134691   3.422   2.069   5.309 -0.2601 -0.2745 -0.4417
 7744SOL    HW234692   3.307   2.144   5.373 -2.6754  0.8377 -3.0241
 7745SOL     OW34693   0.139   0.532  13.168 -0.4494  0.0160 -0.7775
 7745SOL    HW134694   0.075   0.531  13.239  1.8630 -0.4873  1.2660
 7745SOL    HW234695   0.179   0.618  13.181  2.3268 -1.3258 -0.4731
 7746SOL     OW34696   1.487   3.811  12.013  0.1384  0.0535  0.5788
 7746SOL    HW134697   1.492   3.728  12.060 -0.3046 -0.7408 -0.7868
 7746SOL    HW234698   1.554   3.793  11.947 -1.3349 -0.5947 -0.7425
 7747SOL     OW34699   2.807   0.801   9.121 -0.3358  0.1804  0.3146
 7747SOL    HW134700   2.802   0.718   9.168 -2.3523  0.2492  0.1959
 7747SOL    HW234701   2.836   0.859   9.191  0.1961 -0.7476  0.8673
 7748SOL     OW34702   3.791   3.118   8.961  0.5850  0.6292  0.4849
 7748SOL    HW134703   3.792   3.078   8.874  1.4469  0.4135  0.5894
 7748SOL    HW234704   3.824   3.043   9.011 -0.8614 -0.3027  0.0387
 7749SOL     OW34705   0.220   1.373   8.418  0.8323  0.5121 -0.3531
 7749SOL    HW134706   0.140   1.422   8.435  1.4352  0.9438  1.2021
 7749SOL    HW234707   0.233   1.345   8.509  1.2758 -1.9577 -1.1654
 7750SOL     OW34708   4.138   0.907   7.578 -0.7107 -0.0607 -0.2734
 7750SOL    HW134709   4.047   0.932   7.594  0.1716  1.7158  1.9235
 7750SOL    HW234710   4.141   0.818   7.614  0.3432 -0.3102 -0.9812
 7751SOL     OW34711   1.569   2.624   6.651 -0.0276 -0.1398  0.0714
 7751SOL    HW134712   1.595   2.635   6.560 -0.4024 -0.2043 -0.0423
 7751SOL    HW234713   1.483   2.659   6.631 -0.1870 -0.9177 -0.6124
 7752SOL     OW34714   1.379   0.000   2.803  0.2111 -0.2050  0.0861
 7752SOL    HW134715   1.406   4.654   2.743 -2.6743 -0.0004 -1.4482
 7752SOL    HW234716   1.297   0.032   2.765 -0.8765 -1.8993  0.9732
 7753SOL     OW34717   2.996   3.775   6.229  0.3499 -0.6409 -0.3282
 7753SOL    HW134718   2.911   3.778   6.187 -0.1082  1.9942  0.8295
 7753SOL    HW234719   3.066   3.776   6.164 -0.9096  0.9959 -1.6092
 7754SOL     OW34720   2.191   4.281  16.475  0.1327 -0.1697  0.2859
 7754SOL    HW134721   2.287   4.286  16.478  0.3194 -2.9072 -1.0348
 7754SOL    HW234722   2.174   4.374  16.487 -3.0551 -0.7499  0.2434
 7755SOL     OW34723   3.500   1.612   4.860  0.1982  0.2702  0.5272
 7755SOL    HW134724   3.468   1.552   4.927 -0.6056 -2.5325 -2.4082
 7755SOL    HW234725   3.436   1.684   4.860 -0.6328 -0.4734  0.1012
 7756SOL     OW34726   2.653   1.835   3.747 -0.3328 -0.0813 -0.0753
 7756SOL    HW134727   2.622   1.856   3.659 -0.3279  0.4852  0.0582
 7756SOL    HW234728   2.735   1.787   3.733 -0.2748 -0.0723  0.2335
 7757SOL     OW34729   0.073   4.037   8.838  0.6486 -0.1844  0.3109
 7757SOL    HW134730   0.022   3.956   8.830  1.0516 -0.0598 -3.7746
 7757SOL    HW234731   0.104   4.017   8.926 -0.1390 -1.8020  0.2308
 7758SOL     OW34732   2.078   0.379   2.703  0.1746  0.3497  0.2713
 7758SOL    HW134733   1.985   0.402   2.698  0.3874  0.9361 -0.8682
 7758SOL    HW234734   2.089   0.376   2.608 -0.7393  0.7175  0.1581
 7759SOL     OW34735   0.376   3.380   1.087 -0.2075  0.0530  0.1222
 7759SOL    HW134736   0.447   3.345   1.033 -1.1878  1.9004 -2.3635
 7759SOL    HW234737   0.431   3.442   1.135 -1.1394  0.5776  0.4961
 7760SOL     OW34738   1.803   3.874   2.831  0.4578 -0.1358  0.3335
 7760SOL    HW134739   1.746   3.811   2.874 -0.7988 -2.2444 -4.3676
 7760SOL    HW234740   1.880   3.821   2.809 -1.1310 -1.9514 -0.7981
 7761SOL     OW34741   3.496   4.277   4.443  0.0259  0.4910 -0.2448
 7761SOL    HW134742   3.460   4.296   4.530 -1.5859  0.1199 -0.8279
 7761SOL    HW234743   3.581   4.239   4.462 -0.2941  0.1265  0.4696
 7762SOL     OW34744   1.942   2.884  14.840  0.1416 -0.0536  0.3234
 7762SOL    HW134745   2.011   2.859  14.778  1.4978  1.6345  1.1463
 7762SOL    HW234746   1.986   2.913  14.920 -1.8803  0.6418  1.1684
 7763SOL     OW34747   0.606   0.830   4.752 -0.3198 -0.0195 -0.1331
 7763SOL    HW134748   0.604   0.786   4.837  2.2824  0.1044 -0.0005
 7763SOL    HW234749   0.697   0.858   4.738 -0.2954 -0.4212 -0.8192
 7764SOL     OW34750   3.990   3.623  17.121 -0.5285  0.0237 -0.2277
 7764SOL    HW134751   4.055   3.689  17.097 -0.6277  0.6431  1.1632
 7764SOL    HW234752   3.987   3.649  17.213 -1.6606 -1.6818  0.2179
 7765SOL     OW34753   3.741   1.385   4.174  0.2607 -0.0930  0.1613
 7765SOL    HW134754   3.740   1.289   4.180  2.0286 -0.1384 -0.3270
 7765SOL    HW234755   3.827   1.400   4.135 -0.1875 -0.4231 -0.9447
 7766SOL     OW34756   0.283   1.340   4.124 -0.0573  0.0390 -0.4105
 7766SOL    HW134757   0.364   1.303   4.157 -1.6763 -2.3344  0.9269
 7766SOL    HW234758   0.225   1.264   4.126 -0.7436  0.6474  2.9147
 7767SOL     OW34759   2.520   4.639  15.345 -0.0573  0.4794 -0.2365
 7767SOL    HW134760   2.471   4.720  15.359 -0.2090  0.6297 -1.6523
 7767SOL    HW234761   2.459   4.584  15.396  0.3245 -1.0672 -1.4407
 7768SOL     OW34762   2.693   3.198  11.422 -0.8400  0.4523  0.1190
 7768SOL    HW134763   2.685   3.289  11.450 -0.4714  1.1632 -2.1101
 7768SOL    HW234764   2.769   3.213  11.366 -1.7350  2.6749 -0.5135
 7769SOL     OW34765   4.282   1.625   7.387  0.1423  0.5693  0.1801
 7769SOL    HW134766   4.291   1.544   7.437  0.3847  0.4011 -0.1335
 7769SOL    HW234767   4.191   1.626   7.356  0.1034  0.5379  0.2952
 7770SOL     OW34768   2.269   3.474   2.479  0.6784  0.0963 -0.2201
 7770SOL    HW134769   2.271   3.518   2.394 -3.5724  0.7956  0.0740
 7770SOL    HW234770   2.219   3.528   2.540 -0.5592  0.5498 -1.6363
 7771SOL     OW34771   1.963   1.889   5.665  0.9090  0.0862  0.6725
 7771SOL    HW134772   1.953   1.818   5.728 -1.2218 -0.7783 -0.6318
 7771SOL    HW234773   2.005   1.946   5.729  2.3771 -0.0096 -0.1960
 7772SOL     OW34774   4.529   1.037  14.890 -0.0120  0.1862  0.5450
 7772SOL    HW134775   4.463   1.089  14.843 -0.6721 -0.4695  0.7516
 7772SOL    HW234776   4.502   0.952  14.855 -1.8016  0.9160  0.1589
 7773SOL     OW34777   4.410   2.755  14.712  0.2613 -0.1777  0.3107
 7773SOL    HW134778   4.480   2.741  14.648 -0.3887  0.5645 -0.5675
 7773SOL    HW234779   4.358   2.677  14.697 -1.2303  0.7515  0.6821
 7774SOL     OW34780   2.406   3.484  11.441  0.0888  0.1170 -0.2958
 7774SOL    HW134781   2.386   3.577  11.432  0.5864 -0.2281 -5.5552
 7774SOL    HW234782   2.489   3.482  11.392 -0.4305 -0.0781 -1.1739
 7775SOL     OW34783   2.970   2.075   5.699  0.1787  0.0443  0.0012
 7775SOL    HW134784   2.993   2.112   5.784 -0.8155  0.1765  0.2230
 7775SOL    HW234785   2.958   1.983   5.723 -3.5677  0.0689 -1.6907
 7776SOL     OW34786   3.689   1.819   3.528  0.1595 -0.0954  0.2095
 7776SOL    HW134787   3.631   1.877   3.479 -0.5409 -0.1676  0.9455
 7776SOL    HW234788   3.753   1.876   3.570 -1.5534  2.1281 -0.2144
 7777SOL     OW34789   1.320   1.634   6.634  0.3159  0.2379  0.1496
 7777SOL    HW134790   1.312   1.660   6.542  0.1394  1.5757  0.5445
 7777SOL    HW234791   1.415   1.630   6.644  0.4236 -2.3476 -1.7703
 7778SOL     OW34792   4.322   0.379   7.253  0.4108  0.0402  0.2461
 7778SOL    HW134793   4.395   0.440   7.242  0.6292 -0.8770 -3.1498
 7778SOL    HW234794   4.372   0.297   7.248 -0.4591 -0.4388 -0.5300
 7779SOL     OW34795   2.798   4.307   5.262 -0.2044  0.6673  0.0910
 7779SOL    HW134796   2.717   4.316   5.312 -0.1448 -2.0986  0.7245
 7779SOL    HW234797   2.767   4.308   5.172 -0.1752 -1.7396  0.0523
 7780SOL     OW34798   0.352   3.241   3.606  0.1731 -0.0106 -0.4568
 7780SOL    HW134799   0.350   3.300   3.681 -3.5379 -1.4900  0.6376
 7780SOL    HW234800   0.431   3.276   3.565 -0.2125  0.5690 -0.7051
 7781SOL     OW34801   3.976   3.645   1.989  0.0467 -0.1366  0.1893
 7781SOL    HW134802   3.995   3.616   2.078  1.6598 -0.0281 -0.1196
 7781SOL    HW234803   3.934   3.568   1.952  0.4896 -0.4582  0.3613
 7782SOL     OW34804   1.452   4.044  13.246  0.2570  0.5113  0.3819
 7782SOL    HW134805   1.541   4.026  13.277  0.8274  1.5716 -0.6610
 7782SOL    HW234806   1.455   4.138  13.259  0.1320  0.6970 -0.9680
 7783SOL     OW34807   3.648   4.282  14.464  0.4834  0.1293  0.0975
 7783SOL    HW134808   3.626   4.244  14.550  0.4952 -1.9314 -0.7957
 7783SOL    HW234809   3.658   4.200  14.415  1.0170 -0.8817  1.8954
 7784SOL     OW34810   1.562   4.667  16.047 -0.4088  0.0254 -0.1786
 7784SOL    HW134811   1.604   4.641  16.129  2.2187 -0.1130 -1.5755
 7784SOL    HW234812   1.628   4.661  15.979 -1.2780  3.1985 -1.3209
 7785SOL     OW34813   2.177   4.178   0.340 -0.2755 -0.1483  0.0682
 7785SOL    HW134814   2.253   4.146   0.293 -0.2010  0.3012 -0.1176
 7785SOL    HW234815   2.115   4.107   0.321  0.6433 -0.4574 -1.7652
 7786SOL     OW34816   1.690   3.545  13.527  0.1440 -0.3809  0.4827
 7786SOL    HW134817   1.676   3.482  13.597  2.8368 -0.3255  1.0730
 7786SOL    HW234818   1.766   3.596  13.556 -1.4324  1.4723  1.3300
 7787SOL     OW34819   0.966   1.708   7.555  0.2111 -0.3684 -0.1223
 7787SOL    HW134820   1.060   1.719   7.565  0.0614 -1.2714  2.3128
 7787SOL    HW234821   0.935   1.775   7.615 -0.3580 -1.8831  1.2858
 7788SOL     OW34822   3.141   0.537   0.601 -0.0061  0.6431 -0.4240
 7788SOL    HW134823   3.068   0.558   0.543  0.5473 -2.4397 -2.2479
 7788SOL    HW234824   3.107   0.551   0.689  1.9902  0.5911  0.3507
 7789SOL     OW34825   3.374   2.794   5.744 -0.0983 -0.2129  1.1820
 7789SOL    HW134826   3.429   2.838   5.679 -0.4829  0.9622  1.6445
 7789SOL    HW234827   3.357   2.713   5.697  2.3961 -0.0443 -0.0126
 7790SOL     OW34828   4.215   0.168   2.771  0.5089  0.0189  0.1936
 7790SOL    HW134829   4.193   0.259   2.748 -0.2021  0.0707  1.0834
 7790SOL    HW234830   4.294   0.161   2.718 -0.4309 -2.2069 -0.9259
 7791SOL     OW34831   1.434   3.143  16.866  0.2354 -0.1117  0.7899
 7791SOL    HW134832   1.426   3.129  16.772  1.7722  1.1877  0.4619
 7791SOL    HW234833   1.375   3.217  16.885 -1.6102 -1.3186 -0.2144
 7792SOL     OW34834   2.451   1.783  15.959 -0.1015 -0.2797  0.8027
 7792SOL    HW134835   2.494   1.702  15.988 -2.5855 -1.6921  0.5798
 7792SOL    HW234836   2.440   1.825  16.044 -1.6573 -2.1575  1.5309
 7793SOL     OW34837   0.114   1.422   7.522  0.3515  0.3241  0.1161
 7793SOL    HW134838   0.195   1.461   7.556  0.4577  1.4242 -1.3913
 7793SOL    HW234839   0.158   1.344   7.488 -1.1745 -0.5033  0.0520
 7794SOL     OW34840   2.535   0.924  15.796  0.1858 -0.5082 -0.1907
 7794SOL    HW134841   2.492   0.860  15.739 -1.4584 -0.2611  0.7615
 7794SOL    HW234842   2.626   0.919  15.767 -0.2275  1.1509 -1.7880
 7795SOL     OW34843   4.290   4.100   5.285  0.0636  0.1206  0.2594
 7795SOL    HW134844   4.345   4.031   5.250  1.0690  0.4426  1.2087
 7795SOL    HW234845   4.358   4.161   5.313  0.7710 -0.5974  0.1010
 7796SOL     OW34846   4.518   0.054  14.561 -0.5472  0.2062 -0.2108
 7796SOL    HW134847   4.571   0.065  14.482 -0.7721 -0.6164 -0.4703
 7796SOL    HW234848   4.442   0.011  14.522 -0.5657 -0.9316  1.1269
 7797SOL     OW34849   1.993   1.310   7.095  0.4760 -0.0426  0.6207
 7797SOL    HW134850   1.898   1.306   7.107  0.1832  1.0889 -1.4789
 7797SOL    HW234851   1.998   1.400   7.128  0.8888  0.3535 -0.5276
 7798SOL     OW34852   1.086   4.134   5.714  0.6422 -0.3583  0.4471
 7798SOL    HW134853   1.051   4.115   5.801 -1.9481 -1.5660 -0.9006
 7798SOL    HW234854   1.036   4.068   5.667  1.2011 -1.1873  1.0184
 7799SOL     OW34855   3.525   0.832   3.721  0.2951  0.3613  0.3858
 7799SOL    HW134856   3.574   0.750   3.712 -0.1244  0.0584  0.8580
 7799SOL    HW234857   3.596   0.889   3.693  0.0581  1.2044  1.4929
 7800SOL     OW34858   3.512   2.667   1.109  0.4405  0.1798 -0.4769
 7800SOL    HW134859   3.437   2.711   1.070 -0.2425 -0.1293  0.4861
 7800SOL    HW234860   3.582   2.731   1.096 -0.4800  1.7999  2.5466
 7801SOL     OW34861   0.356   4.184   9.694 -0.2673  0.0880 -0.4393
 7801SOL    HW134862   0.330   4.137   9.615  0.7759 -0.2279 -0.5922
 7801SOL    HW234863   0.343   4.270   9.655 -0.4055  0.9450  1.5112
 7802SOL     OW34864   0.483   1.863  11.287 -0.2547 -0.1503 -0.5784
 7802SOL    HW134865   0.527   1.946  11.304 -0.1425 -0.0977 -1.1188
 7802SOL    HW234866   0.445   1.857  11.375 -1.1199  2.5565 -0.7450
 7803SOL     OW34867   3.397   4.653   4.199 -0.6043  0.0658  0.5040
 7803SOL    HW134868   3.371   4.631   4.288  2.1296 -1.3438  0.9473
 7803SOL    HW234869   3.317   4.697   4.170 -1.5439 -1.5405  0.6376
 7804SOL     OW34870   0.876   0.976   8.745  0.6739  0.0394 -0.0372
 7804SOL    HW134871   0.809   1.042   8.726  0.8423  0.1265 -0.3197
 7804SOL    HW234872   0.950   1.034   8.728 -0.6417  1.2142 -1.7954
 7805SOL     OW34873   0.739   4.236   2.798  0.0349  0.4271 -0.3419
 7805SOL    HW134874   0.814   4.280   2.757  1.8124 -1.6538  0.6819
 7805SOL    HW234875   0.774   4.207   2.883 -0.7709  0.9379  0.1647
 7806SOL     OW34876   3.485   1.840   6.598  0.0422 -0.1261 -0.6449
 7806SOL    HW134877   3.452   1.798   6.519 -2.6533  1.1040 -0.2140
 7806SOL    HW234878   3.403   1.879   6.631 -0.8352 -1.0723 -1.7268
 7807SOL     OW34879   2.170   0.263   5.010  0.0394  0.4093 -0.3649
 7807SOL    HW134880   2.077   0.250   4.989  0.2813  0.8975 -1.7516
 7807SOL    HW234881   2.188   0.175   5.042  1.2822  0.1365 -1.8411
 7808SOL     OW34882   1.205   2.327  17.118  0.4547 -0.2685  0.1587
 7808SOL    HW134883   1.193   2.398  17.056 -0.1497  0.4338  1.0894
 7808SOL    HW234884   1.301   2.322  17.124  0.6255 -0.2379 -2.3259
 7809SOL     OW34885   3.099   2.094   8.881  0.3096 -1.0489 -0.2141
 7809SOL    HW134886   3.115   2.024   8.944  3.2746 -0.0520  0.1375
 7809SOL    HW234887   3.179   2.138   8.909  0.5907 -0.4356 -1.9550
 7810SOL     OW34888   1.989   1.906  16.185 -0.0263 -0.1963 -0.8833
 7810SOL    HW134889   1.928   1.872  16.250  2.2023 -2.8331 -0.1480
 7810SOL    HW234890   2.015   1.821  16.150  0.3981 -0.5015  0.1557
 7811SOL     OW34891   1.235   4.536  11.327  0.0604 -0.0036 -0.1050
 7811SOL    HW134892   1.172   4.587  11.379 -0.2303  0.5972 -1.0490
 7811SOL    HW234893   1.246   4.463  11.389  0.9850 -0.6176 -0.9897
 7812SOL     OW34894   1.413   0.917   6.420 -0.3548  0.6423  0.0008
 7812SOL    HW134895   1.371   0.834   6.399 -2.7700  1.6714  0.8245
 7812SOL    HW234896   1.483   0.882   6.476 -0.9192 -0.8301 -0.2236
 7813SOL     OW34897   1.519   2.802  12.124  0.4436 -0.0023  0.0685
 7813SOL    HW134898   1.446   2.757  12.167  0.1379  0.3147 -0.1109
 7813SOL    HW234899   1.511   2.783  12.030 -0.7490  1.1901 -0.0824
 7814SOL     OW34900   4.175   2.251   3.062 -0.0785 -0.0739  0.2184
 7814SOL    HW134901   4.203   2.180   3.004  0.4325  1.0232 -0.8590
 7814SOL    HW234902   4.131   2.206   3.134 -0.4903 -3.1515 -1.9323
 7815SOL     OW34903   1.869   3.634  14.245  0.1639  0.9641  0.3018
 7815SOL    HW134904   1.912   3.586  14.174 -1.5258  1.0439 -0.7828
 7815SOL    HW234905   1.932   3.602  14.309  0.5407  1.8827  0.3961
 7816SOL     OW34906   2.332   0.399   7.722  0.9634  0.2524  0.2456
 7816SOL    HW134907   2.253   0.424   7.673 -1.1349 -2.0295  2.4274
 7816SOL    HW234908   2.318   0.451   7.801  0.6145 -1.3340  1.2359
 7817SOL     OW34909   4.497   2.649   1.720  0.4966  0.7039 -0.1249
 7817SOL    HW134910   4.518   2.725   1.667  0.3597  0.4957 -0.4789
 7817SOL    HW234911   4.524   2.579   1.660 -2.7293  0.0546 -0.8121
 7818SOL     OW34912   4.387   0.738   7.886  0.4812 -0.4048 -0.4730
 7818SOL    HW134913   4.302   0.709   7.852  0.8836 -1.7922 -0.2512
 7818SOL    HW234914   4.385   0.686   7.966 -1.2020 -2.0778 -1.5944
 7819SOL     OW34915   2.247   3.322   8.220  0.2344  0.2443  0.1098
 7819SOL    HW134916   2.247   3.412   8.250  0.1126 -0.4737  2.2617
 7819SOL    HW234917   2.312   3.279   8.275  0.2265  0.4804  0.3019
 7820SOL     OW34918   0.312   3.673   3.594 -0.2963 -0.0929 -0.3895
 7820SOL    HW134919   0.258   3.596   3.578 -1.0135  0.4164 -0.4506
 7820SOL    HW234920   0.393   3.631   3.622  0.9459  2.5520  0.0235
 7821SOL     OW34921   4.045   2.615   0.741  0.0370 -0.2516  0.5786
 7821SOL    HW134922   4.021   2.703   0.769  0.2691 -0.8419  2.6800
 7821SOL    HW234923   4.138   2.626   0.723 -0.0453 -0.2778  0.1490
 7822SOL     OW34924   4.614   3.290  15.925  0.2716 -0.0784 -0.2634
 7822SOL    HW134925   4.578   3.337  15.850  2.4729  1.5399 -0.2987
 7822SOL    HW234926   4.706   3.293  15.901  0.6596  4.3992  2.0110
 7823SOL     OW34927   3.035   2.950   1.977 -0.1282  0.1962  0.2004
 7823SOL    HW134928   3.095   3.013   2.018  1.8152 -0.7453 -1.1731
 7823SOL    HW234929   3.071   2.937   1.889  1.0903  0.4692  0.6511
 7824SOL     OW34930   4.655   1.730   1.437  0.5249  0.4657 -0.9137
 7824SOL    HW134931   4.662   1.736   1.342  1.0127 -1.7759 -1.0185
 7824SOL    HW234932   4.591   1.797   1.460  2.5745  1.8937  0.6419
 7825SOL     OW34933   3.166   1.853   5.581 -0.1109 -0.3109  0.1296
 7825SOL    HW134934   3.208   1.872   5.497 -1.5374  1.0590 -0.2775
 7825SOL    HW234935   3.221   1.779   5.608  1.6100  1.8811  2.6032
 7826SOL     OW34936   3.366   3.373   1.107 -0.6427 -0.0133 -0.3671
 7826SOL    HW134937   3.344   3.281   1.093  0.4809 -0.4557  0.7707
 7826SOL    HW234938   3.277   3.409   1.115 -0.5227 -0.0993  1.3650
 7827SOL     OW34939   3.190   4.079   4.614  0.5696 -0.0877 -0.8373
 7827SOL    HW134940   3.099   4.049   4.622  1.1922 -2.2249 -1.9023
 7827SOL    HW234941   3.239   3.998   4.630 -0.9810 -1.2729 -2.1166
 7828SOL     OW34942   3.722   1.761   2.219 -0.5149 -0.2479 -0.3052
 7828SOL    HW134943   3.805   1.759   2.267  1.0905  0.1677 -3.0270
 7828SOL    HW234944   3.740   1.701   2.146  1.8455 -1.8657  1.6136
 7829SOL     OW34945   0.903   0.136   9.124 -0.0929  0.2524 -0.5310
 7829SOL    HW134946   0.944   0.162   9.206  0.3731 -1.7241 -0.1287
 7829SOL    HW234947   0.962   0.171   9.057  0.3533  1.1383  0.3329
 7830SOL     OW34948   1.545   3.620   5.628 -0.0763 -0.4376  0.1641
 7830SOL    HW134949   1.456   3.615   5.663  0.9634 -0.7962  2.6764
 7830SOL    HW234950   1.601   3.596   5.701 -2.2944  2.4433  2.8080
 7831SOL     OW34951   0.580   2.541   3.842  0.0857 -0.1365 -0.3235
 7831SOL    HW134952   0.573   2.627   3.882  0.5963 -0.4556  0.4610
 7831SOL    HW234953   0.589   2.563   3.750 -0.6248 -2.4251 -0.9536
 7832SOL     OW34954   2.341   1.403   5.470 -0.5065  0.4158  0.0651
 7832SOL    HW134955   2.271   1.338   5.481  1.4530 -1.7264 -0.0906
 7832SOL    HW234956   2.418   1.348   5.481  1.4846  2.6409 -3.0082
 7833SOL     OW34957   0.385   3.499   2.359 -0.1102 -0.2490 -0.4692
 7833SOL    HW134958   0.393   3.508   2.454 -3.0522  0.3291 -0.2630
 7833SOL    HW234959   0.447   3.567   2.333 -1.1896  1.1594  0.6445
 7834SOL     OW34960   3.272   3.642  10.073  0.7839  0.3010  0.1818
 7834SOL    HW134961   3.314   3.566  10.115 -0.3964 -1.1115 -1.2119
 7834SOL    HW234962   3.306   3.720  10.117  0.4679  0.6278 -0.1594
 7835SOL     OW34963   2.363   2.756   9.026 -0.0818  0.3561 -0.1539
 7835SOL    HW134964   2.309   2.678   9.038 -0.0928  0.6442  1.7376
 7835SOL    HW234965   2.342   2.789   8.939  2.6249  1.9269 -0.1916
 7836SOL     OW34966   2.350   1.333   9.196  0.2263  0.0746 -0.2655
 7836SOL    HW134967   2.423   1.287   9.155 -0.2821 -0.4650 -0.5796
 7836SOL    HW234968   2.305   1.360   9.115 -0.2949  2.1431  0.7052
 7837SOL     OW34969   2.934   1.935   7.586  0.0220 -0.3677  0.5556
 7837SOL    HW134970   2.851   1.928   7.538  0.3866 -3.6177  0.4618
 7837SOL    HW234971   2.901   1.979   7.665  0.2584  2.9115 -1.1521
 7838SOL     OW34972   3.742   0.510  12.582 -0.1484 -0.8942 -1.0021
 7838SOL    HW134973   3.721   0.580  12.520  0.8580 -0.0444 -0.3981
 7838SOL    HW234974   3.663   0.506  12.636  0.4040 -0.1549 -0.1355
 7839SOL     OW34975   2.956   2.321   4.604 -0.3861 -0.0449 -0.2610
 7839SOL    HW134976   2.924   2.231   4.611  0.7412 -0.3959  0.4378
 7839SOL    HW234977   3.001   2.316   4.519 -1.2241 -0.2688 -0.6953
 7840SOL     OW34978   0.738   2.992  15.486  0.3164  0.5363 -0.1099
 7840SOL    HW134979   0.738   2.933  15.562  1.5184  1.6308  0.7410
 7840SOL    HW234980   0.739   2.930  15.412 -2.8980  1.5246 -0.9444
 7841SOL     OW34981   3.345   1.619   5.696 -0.0323  0.1975 -0.4803
 7841SOL    HW134982   3.298   1.542   5.727  0.4852 -0.0781 -0.3936
 7841SOL    HW234983   3.337   1.683   5.767  0.8696 -1.2610  0.9248
 7842SOL     OW34984   1.291   1.082   2.757  0.4627  0.4342 -0.5511
 7842SOL    HW134985   1.362   1.090   2.820 -1.0620 -2.2978  1.5195
 7842SOL    HW234986   1.295   1.162   2.705  1.1188  1.0988  0.5481
 7843SOL     OW34987   2.175   0.949  12.758 -0.9000 -0.3091  0.1943
 7843SOL    HW134988   2.100   0.980  12.708  1.1073  1.7974 -1.5433
 7843SOL    HW234989   2.138   0.881  12.815 -0.7970  0.1370  0.7941
 7844SOL     OW34990   1.349   3.061  13.909  0.5892  0.4667  0.2699
 7844SOL    HW134991   1.304   3.144  13.892 -0.5283  0.1681  1.7476
 7844SOL    HW234992   1.303   2.992  13.861  1.0859  0.1282  0.2825
 7845SOL     OW34993   4.384   0.388  11.950 -0.2392 -0.2729  0.2110
 7845SOL    HW134994   4.321   0.323  11.981 -0.7344  0.2147  0.2440
 7845SOL    HW234995   4.354   0.470  11.990 -0.4047 -1.0998  1.7867
 7846SOL     OW34996   0.063   3.142   3.915 -0.4176  0.1945  0.5799
 7846SOL    HW134997   4.719   3.202   3.887 -0.5212 -0.4641 -0.5854
 7846SOL    HW234998   0.078   3.087   3.838 -0.8997 -1.0266  1.3586
 7847SOL     OW34999   4.121   2.846   2.234  0.4336 -0.3048  0.2837
 7847SOL    HW135000   4.063   2.875   2.163 -0.7944 -0.4175  1.2311
 7847SOL    HW235001   4.102   2.753   2.245 -1.5005 -0.0887 -1.2254
 7848SOL     OW35002   1.575   4.043   6.264  0.2060 -0.0575 -0.5959
 7848SOL    HW135003   1.497   3.996   6.294  0.5579 -1.5588 -2.0579
 7848SOL    HW235004   1.580   4.017   6.172 -2.2078  0.6319 -0.9242
 7849SOL     OW35005   1.927   1.420   6.813 -0.3553 -0.3395 -0.4476
 7849SOL    HW135006   1.906   1.498   6.864  0.9931  0.8032 -1.6478
 7849SOL    HW235007   1.919   1.345   6.872  1.0001 -0.9449 -1.0501
 7850SOL     OW35008   1.050   2.053   6.638 -0.0612  0.1452  0.4904
 7850SOL    HW135009   1.077   2.144   6.628  2.1114 -0.3030  2.2498
 7850SOL    HW235010   1.090   2.037   6.724 -1.3412 -2.1521  0.6559
 7851SOL     OW35011   1.962   1.505  12.785 -0.1165  0.2282  0.0001
 7851SOL    HW135012   1.969   1.585  12.837 -0.5587 -0.0561  0.4930
 7851SOL    HW235013   2.055   1.501  12.763 -0.1662 -0.4336 -0.0984
 7852SOL     OW35014   0.398   2.440  14.260 -0.2756  0.3279 -0.2783
 7852SOL    HW135015   0.434   2.352  14.271 -1.0380  0.2674  1.7263
 7852SOL    HW235016   0.365   2.442  14.170 -0.8284 -2.1648 -0.1308
 7853SOL     OW35017   0.778   3.271  10.069  0.2286  0.3960 -0.0119
 7853SOL    HW135018   0.785   3.311  10.156 -0.3130 -0.6128  0.5046
 7853SOL    HW235019   0.790   3.183  10.104 -1.5543  0.8811  1.8861
 7854SOL     OW35020   1.331   3.330  12.889 -0.6700 -0.2189 -0.2394
 7854SOL    HW135021   1.349   3.244  12.925 -1.3751 -0.9588 -1.6595
 7854SOL    HW235022   1.419   3.363  12.873 -1.4438  0.9155 -2.1392
 7855SOL     OW35023   4.265   4.591   6.665  0.0795  0.8125 -0.0729
 7855SOL    HW135024   4.289   4.538   6.589  0.8011 -3.7454  3.2826
 7855SOL    HW235025   4.303   4.553   6.745  0.0553 -1.6860 -1.2349
 7856SOL     OW35026   0.032   3.872  11.790 -0.2639  0.1869 -0.4502
 7856SOL    HW135027   4.717   3.818  11.859 -0.0403  0.1791 -0.3304
 7856SOL    HW235028   0.075   3.802  11.742 -2.3281 -1.3736 -0.0089
 7857SOL     OW35029   1.580   4.592   0.486 -0.6587 -0.2964  0.3508
 7857SOL    HW135030   1.567   4.687   0.487  0.8840 -0.0909  0.6093
 7857SOL    HW235031   1.592   4.585   0.391 -0.7451 -1.7491  0.4528
 7858SOL     OW35032   3.724   0.317   3.430  0.0444  0.0180 -0.6739
 7858SOL    HW135033   3.661   0.279   3.369 -0.4653  0.6792 -0.5581
 7858SOL    HW235034   3.685   0.403   3.448 -1.1477 -0.7265  0.2854
 7859SOL     OW35035   2.804   2.797  15.754 -0.0893 -0.3358 -0.1681
 7859SOL    HW135036   2.897   2.782  15.734 -0.3682 -0.1597 -1.6263
 7859SOL    HW235037   2.776   2.725  15.810 -2.7095  1.6139  1.0463
 7860SOL     OW35038   4.572   4.494   3.142 -0.1265 -0.8975 -0.1111
 7860SOL    HW135039   4.477   4.480   3.145 -0.6422  2.6753 -0.6525
 7860SOL    HW235040   4.574   4.589   3.132  0.9523 -0.6697  2.3031
 7861SOL     OW35041   1.225   4.120  17.534 -0.7217 -0.3156  0.2790
 7861SOL    HW135042   1.215   4.209  17.501 -1.0635 -0.0964  0.9742
 7861SOL    HW235043   1.272   4.138  17.615  0.5515 -1.3707 -0.2301
 7862SOL     OW35044   2.938   1.232  12.397 -0.0457 -0.6432  0.0753
 7862SOL    HW135045   2.962   1.317  12.361 -0.9540  0.0165  1.0187
 7862SOL    HW235046   2.923   1.167  12.329  2.5893 -0.8157 -0.3160
 7863SOL     OW35047   3.120   3.089  15.108 -0.7442 -0.4294 -0.0232
 7863SOL    HW135048   3.174   3.056  15.179  0.3192 -1.1688 -1.1801
 7863SOL    HW235049   3.168   3.171  15.095 -1.2179 -0.3070 -0.9856
 7864SOL     OW35050   0.983   2.469   5.744  0.4921 -0.1958 -0.1467
 7864SOL    HW135051   0.990   2.491   5.837 -0.6693  0.8295 -0.3139
 7864SOL    HW235052   0.888   2.458   5.747  0.0785  2.8704 -3.0705
 7865SOL     OW35053   0.365   0.595   9.131 -0.1271  0.8302  0.0550
 7865SOL    HW135054   0.298   0.536   9.166 -1.2410  1.6247 -0.7033
 7865SOL    HW235055   0.316   0.667   9.090 -1.1160  0.1615  0.0609
 7866SOL     OW35056   0.689   2.425  16.577  0.0699 -0.0242  0.6810
 7866SOL    HW135057   0.773   2.424  16.532 -0.2760 -2.9105  0.0605
 7866SOL    HW235058   0.718   2.382  16.657  1.3219 -0.2327  0.1208
 7867SOL     OW35059   3.214   0.146  15.246 -0.6183 -0.3383  0.1591
 7867SOL    HW135060   3.165   0.063  15.252  1.7988 -1.6622  1.4728
 7867SOL    HW235061   3.147   0.208  15.217 -0.1897  0.8329  1.6755
 7868SOL     OW35062   3.375   3.885   0.568  0.3298  0.3866  0.1982
 7868SOL    HW135063   3.444   3.886   0.501 -1.0473 -1.2349 -1.2441
 7868SOL    HW235064   3.338   3.799   0.546  1.7510 -0.4028  0.8387
 7869SOL     OW35065   2.093   2.209  10.246  0.2416 -0.4250 -0.5168
 7869SOL    HW135066   2.152   2.255  10.187  1.9939 -0.4571  1.2028
 7869SOL    HW235067   2.160   2.194  10.313 -1.2875  0.9642  1.3100
 7870SOL     OW35068   4.025   2.011   2.804 -0.4248  0.3011 -0.0235
 7870SOL    HW135069   4.066   1.993   2.719 -0.3379  0.2764  0.0233
 7870SOL    HW235070   4.103   2.050   2.844 -2.1930  0.9553  2.7711
 7871SOL     OW35071   1.455   2.575   3.334 -0.3746  0.0602 -0.3157
 7871SOL    HW135072   1.510   2.513   3.381 -1.2669  0.0511  0.7176
 7871SOL    HW235073   1.460   2.534   3.247 -0.7254  0.4799 -0.5345
 7872SOL     OW35074   2.421   1.493   3.218 -0.0550  0.3635 -0.2922
 7872SOL    HW135075   2.431   1.398   3.222  0.3257  0.4249  0.1922
 7872SOL    HW235076   2.488   1.519   3.155  0.1132 -0.8659 -0.6217
 7873SOL     OW35077   3.792   2.746   9.503  0.3272  0.4450 -0.5132
 7873SOL    HW135078   3.793   2.654   9.476  3.3234  0.4784 -0.4433
 7873SOL    HW235079   3.773   2.794   9.422 -0.0708  0.1312 -0.6078
 7874SOL     OW35080   1.335   0.343   9.302 -0.1619  0.4075 -0.1791
 7874SOL    HW135081   1.319   0.395   9.381  1.3758  0.3244  0.1843
 7874SOL    HW235082   1.327   0.410   9.234 -0.1747 -1.8174 -2.3531
 7875SOL     OW35083   2.869   0.020  11.896  0.1086 -0.0238  0.7213
 7875SOL    HW135084   2.913   4.661  11.876  1.2751  1.4762 -2.9120
 7875SOL    HW235085   2.948   0.067  11.868  0.1781 -0.5088  0.0879
 7876SOL     OW35086   2.141   1.826   8.762 -0.6054 -0.2800 -0.7797
 7876SOL    HW135087   2.106   1.899   8.711 -0.4304 -0.1395 -0.6957
 7876SOL    HW235088   2.173   1.864   8.843  0.2608 -1.2978 -0.6502
 7877SOL     OW35089   0.670   4.552   6.413 -0.1770 -0.2402  0.4643
 7877SOL    HW135090   0.710   4.608   6.346 -2.5209  0.8251 -0.0574
 7877SOL    HW235091   0.619   4.490   6.361  0.4655 -2.2501  2.2250
 7878SOL     OW35092   1.808   3.045   1.906 -0.3337 -0.7167  0.0224
 7878SOL    HW135093   1.812   3.116   1.842 -0.8002  0.1856  0.9934
 7878SOL    HW235094   1.832   3.093   1.985  1.0167 -0.1179 -0.7538
 7879SOL     OW35095   4.133   1.777   0.277  0.5486 -0.0186 -0.1771
 7879SOL    HW135096   4.153   1.814   0.363 -2.1692  0.5511  0.2346
 7879SOL    HW235097   4.222   1.770   0.245  2.1652  0.0581  4.2144
 7880SOL     OW35098   0.413   1.510  13.251 -0.1463 -0.1344 -0.1310
 7880SOL    HW135099   0.499   1.503  13.210  0.6079 -1.4912  1.6628
 7880SOL    HW235100   0.426   1.575  13.320 -1.2022  1.1183 -1.1191
 7881SOL     OW35101   1.032   1.849   4.639 -0.0291  0.2530 -0.1715
 7881SOL    HW135102   1.021   1.943   4.631 -1.8178  0.1224  0.8119
 7881SOL    HW235103   1.062   1.819   4.553  0.8113  1.1940 -0.2113
 7882SOL     OW35104   2.868   2.517   4.890  0.1055  0.2083 -0.0275
 7882SOL    HW135105   2.915   2.516   4.974  2.3355  2.5028 -1.2586
 7882SOL    HW235106   2.861   2.423   4.876 -0.5941  0.3473 -0.5809
 7883SOL     OW35107   4.131   3.893  16.118 -0.2920  0.3822 -0.2745
 7883SOL    HW135108   4.091   3.972  16.081 -2.3886 -1.7886 -2.6099
 7883SOL    HW235109   4.052   3.841  16.127  0.7094 -0.8423  1.4688
 7884SOL     OW35110   2.833   0.984   1.654  0.0346 -0.4415 -0.7429
 7884SOL    HW135111   2.790   1.038   1.720 -0.1373 -2.4401  0.7818
 7884SOL    HW235112   2.762   0.920   1.642 -2.0004  2.0900 -2.2096
 7885SOL     OW35113   0.584   2.815   3.077  0.4951 -0.3281  0.2775
 7885SOL    HW135114   0.641   2.756   3.126  0.8446 -0.5287 -0.3783
 7885SOL    HW235115   0.521   2.843   3.144 -0.6843 -3.0564  0.2976
 7886SOL     OW35116   0.342   1.176  16.966  0.1692 -0.5794 -0.0989
 7886SOL    HW135117   0.256   1.196  16.930 -0.4100 -1.9950  0.5200
 7886SOL    HW235118   0.391   1.174  16.884  0.7031 -0.7437  0.2259
 7887SOL     OW35119   3.855   0.079   7.744 -0.0069  0.0719 -0.1102
 7887SOL    HW135120   3.949   0.065   7.757 -0.0487  1.9521  2.2320
 7887SOL    HW235121   3.831   0.080   7.837 -1.9355  1.9070 -0.6390
 7888SOL     OW35122   0.714   1.685   9.529 -0.2582 -0.2106  0.4835
 7888SOL    HW135123   0.733   1.662   9.620 -0.1950  1.0388  0.7843
 7888SOL    HW235124   0.771   1.759   9.512  0.3904 -0.7169  0.4718
 7889SOL     OW35125   0.654   2.762  10.896 -0.0100 -0.2229  0.3161
 7889SOL    HW135126   0.670   2.709  10.974 -0.2178  0.8850  1.1042
 7889SOL    HW235127   0.571   2.802  10.923  0.3256  0.1102  0.8509
 7890SOL     OW35128   1.197   3.725  13.832 -0.5605 -0.0988 -0.5010
 7890SOL    HW135129   1.127   3.674  13.872 -0.5048  0.6612  0.5633
 7890SOL    HW235130   1.152   3.794  13.784  0.7397  0.4351 -0.9321
 7891SOL     OW35131   2.500   0.142   2.147 -0.1252  0.3400  0.0261
 7891SOL    HW135132   2.480   0.089   2.224  1.8732 -2.3973 -1.3182
 7891SOL    HW235133   2.504   0.080   2.073 -1.3252 -0.8675  0.9698
 7892SOL     OW35134   4.164   0.747   6.800 -0.0882  0.5176 -0.2202
 7892SOL    HW135135   4.169   0.824   6.857 -0.0777  1.1815 -1.1232
 7892SOL    HW235136   4.250   0.747   6.757 -0.0856 -1.0301 -0.2097
 7893SOL     OW35137   1.969   1.808   1.724 -0.6530 -0.6013 -0.2862
 7893SOL    HW135138   1.884   1.820   1.767 -0.8286  0.1875 -0.8677
 7893SOL    HW235139   1.986   1.895   1.689  0.8285 -0.7238  0.1258
 7894SOL     OW35140   2.729   0.737   5.661 -0.2112 -0.3329 -0.1554
 7894SOL    HW135141   2.701   0.731   5.570  0.8127 -0.3652 -0.4685
 7894SOL    HW235142   2.644   0.752   5.703 -0.2406  0.2988 -0.4377
 7895SOL     OW35143   2.158   2.334   5.481  0.0386  0.1136  0.6152
 7895SOL    HW135144   2.241   2.349   5.435 -0.2553 -1.4984 -0.4389
 7895SOL    HW235145   2.141   2.240   5.474 -0.6942  0.3268 -0.4077
 7896SOL     OW35146   3.049   4.207   8.371  0.1361 -0.3920 -0.0726
 7896SOL    HW135147   3.117   4.237   8.311  1.1224 -0.3184  1.0674
 7896SOL    HW235148   3.026   4.119   8.341  1.4920 -0.0806 -1.9910
 7897SOL     OW35149   2.124   3.395  10.652 -0.0787 -0.6452 -0.1230
 7897SOL    HW135150   2.120   3.357  10.740 -0.2929  3.1157  1.4900
 7897SOL    HW235151   2.036   3.431  10.642  0.8299  1.3629 -0.8794
 7898SOL     OW35152   4.017   1.901   7.484 -0.1376  0.5593  0.3740
 7898SOL    HW135153   3.988   1.838   7.417  1.7459 -0.3453  0.4104
 7898SOL    HW235154   4.060   1.839   7.543  0.6717  2.4465  1.7578
 7899SOL     OW35155   0.548   2.979  16.039  0.1318  0.4500  0.3091
 7899SOL    HW135156   0.567   3.073  16.042  1.0568  0.3162 -1.6686
 7899SOL    HW235157   0.557   2.944  16.128  1.4291 -1.2121 -0.4754
 7900SOL     OW35158   1.457   2.445   9.954  0.1356  0.4229  0.3303
 7900SOL    HW135159   1.518   2.488  10.014  0.1279 -0.7398  1.1778
 7900SOL    HW235160   1.467   2.354   9.984  2.5197  0.2657 -0.9975
 7901SOL     OW35161   1.797   1.844   3.757  0.9500  0.3780  0.4221
 7901SOL    HW135162   1.823   1.887   3.676 -2.4550 -2.0063 -1.9363
 7901SOL    HW235163   1.854   1.767   3.758 -1.7981 -1.6403  2.8166
 7902SOL     OW35164   0.111   1.163   1.739 -0.4779  0.0222  0.1429
 7902SOL    HW135165   0.179   1.231   1.737 -0.7126  0.2537  0.0527
 7902SOL    HW235166   0.163   1.088   1.770 -0.6827 -0.0759  0.2475
 7903SOL     OW35167   2.598   3.970   4.492 -0.2082 -0.1337 -0.2139
 7903SOL    HW135168   2.582   3.974   4.586  0.1102  0.6475 -0.1874
 7903SOL    HW235169   2.651   4.049   4.477 -2.1043  1.3279  0.9312
 7904SOL     OW35170   0.813   0.002   0.063  0.2632 -0.4429 -0.6423
 7904SOL    HW135171   0.802   4.635   0.035  0.4144 -1.3786  2.4287
 7904SOL    HW235172   0.776   0.006   0.151 -1.0619  0.4686 -1.2369
 7905SOL     OW35173   2.754   2.205   0.117 -0.2345 -0.8825 -0.0616
 7905SOL    HW135174   2.770   2.189   0.210  0.5223 -0.0156 -0.0423
 7905SOL    HW235175   2.841   2.237   0.094 -0.3790  0.3791  1.1461
 7906SOL     OW35176   0.837   3.924   6.134  0.2205 -0.1026 -0.6126
 7906SOL    HW135177   0.814   3.933   6.041 -2.8196 -3.0362 -0.1383
 7906SOL    HW235178   0.803   4.006   6.170  3.0527  1.2385 -1.0070
 7907SOL     OW35179   3.657   0.282   7.295 -0.1402  0.5688  0.2071
 7907SOL    HW135180   3.702   0.273   7.379  1.0116 -2.2189 -0.7037
 7907SOL    HW235181   3.728   0.283   7.232 -0.7207 -1.2265 -0.4568
 7908SOL     OW35182   0.462   0.420  14.555 -0.2799 -0.4184  0.1657
 7908SOL    HW135183   0.384   0.475  14.562  1.3124  1.9198 -0.0966
 7908SOL    HW235184   0.487   0.419  14.647  1.1661 -1.9780 -0.2337
 7909SOL     OW35185   0.366   2.403  13.978  0.4101  0.4754  0.2525
 7909SOL    HW135186   0.402   2.334  13.922 -4.0988 -1.3276 -0.4759
 7909SOL    HW235187   0.408   2.479  13.938  0.6180  0.8063  1.1108
 7910SOL     OW35188   1.253   1.724   7.121  0.4313 -0.2855 -0.0620
 7910SOL    HW135189   1.196   1.779   7.067 -1.5372 -2.2816 -0.0143
 7910SOL    HW235190   1.270   1.788   7.191 -1.2482  1.4271 -1.2213
 7911SOL     OW35191   1.487   2.494   4.477  0.2732 -0.0408 -0.3770
 7911SOL    HW135192   1.396   2.466   4.473 -0.1834  0.8738  3.2125
 7911SOL    HW235193   1.506   2.458   4.564 -1.3985  0.0173  0.0009
 7912SOL     OW35194   2.546   0.878   3.385  0.1105  0.5295 -0.2161
 7912SOL    HW135195   2.513   0.861   3.473  1.0660  2.0457  0.4394
 7912SOL    HW235196   2.607   0.806   3.370  1.5991  1.4781  1.3052
 7913SOL     OW35197   1.231   2.519   2.750  0.1112  0.0360  0.0286
 7913SOL    HW135198   1.156   2.501   2.807 -0.2518  2.6562  0.3638
 7913SOL    HW235199   1.213   2.459   2.678 -2.8197  2.8879 -1.6320
 7914SOL     OW35200   1.648   0.474   4.140  0.0378 -0.4794  0.5318
 7914SOL    HW135201   1.695   0.463   4.057 -0.5468  2.0567 -0.1331
 7914SOL    HW235202   1.584   0.543   4.122 -1.0444 -1.9189 -1.0666
 7915SOL     OW35203   2.625   2.229   8.008  0.3672 -0.2225 -0.1175
 7915SOL    HW135204   2.550   2.233   8.067  0.5056 -1.4221  0.1527
 7915SOL    HW235205   2.682   2.288   8.056 -3.7992  3.2010  0.5782
 7916SOL     OW35206   3.826   4.403   0.804 -0.6226  0.2959  0.5855
 7916SOL    HW135207   3.762   4.450   0.752 -0.4747 -0.4325 -0.2552
 7916SOL    HW235208   3.772   4.342   0.856  1.1135  0.6507  2.8191
 7917SOL     OW35209   2.562   1.143   2.527 -0.1090 -0.0476 -0.6348
 7917SOL    HW135210   2.539   1.213   2.465 -0.9837 -1.1018 -1.5177
 7917SOL    HW235211   2.608   1.086   2.465 -0.7392 -1.1552 -0.0800
 7918SOL     OW35212   1.163   0.153   2.688 -0.4076  0.4865  0.0711
 7918SOL    HW135213   1.139   0.138   2.597  2.2997  0.4600 -0.6293
 7918SOL    HW235214   1.208   0.234   2.667  1.7494 -0.5629  0.6161
 7919SOL     OW35215   0.286   1.464   5.031  0.0510 -0.0380 -0.0391
 7919SOL    HW135216   0.379   1.440   5.027  0.1801  0.1355  2.2600
 7919SOL    HW235217   0.251   1.389   5.080 -1.0801 -0.0333 -0.8478
 7920SOL     OW35218   0.076   0.460   4.065  0.0498  0.5135 -0.1572
 7920SOL    HW135219   0.147   0.525   4.066 -0.0869  0.6271  1.8801
 7920SOL    HW235220   0.103   0.398   3.997 -0.2814  0.8108 -0.5569
 7921SOL     OW35221   0.764   2.144   7.362 -0.1282 -0.0917  0.3537
 7921SOL    HW135222   0.697   2.078   7.376 -1.6447  1.1841 -0.8115
 7921SOL    HW235223   0.716   2.210   7.311 -1.1158 -0.4488  0.8260
 7922SOL     OW35224   1.060   2.383   4.061 -0.1223  0.1992  0.1120
 7922SOL    HW135225   1.097   2.346   4.141 -0.3372 -1.4225 -0.5359
 7922SOL    HW235226   1.017   2.461   4.097 -0.7277 -1.1653  2.3685
 7923SOL     OW35227   1.878   2.222   3.175  0.6788 -0.1875 -0.0642
 7923SOL    HW135228   1.800   2.273   3.153 -0.9384 -3.6492 -2.3041
 7923SOL    HW235229   1.850   2.132   3.156 -0.7755  0.1274  0.6438
 7924SOL     OW35230   0.085   3.113   5.418  0.5509 -0.4875 -0.2246
 7924SOL    HW135231   0.116   3.204   5.416 -3.1413  0.8205  2.7112
 7924SOL    HW235232   0.109   3.105   5.510 -2.3679  1.5935  0.7323
 7925SOL     OW35233   0.183   3.716  15.075 -0.3184  0.2184 -0.1050
 7925SOL    HW135234   0.107   3.744  15.024  0.2576  1.9199 -0.0165
 7925SOL    HW235235   0.248   3.755  15.016 -0.3001  0.8182  0.3242
 7926SOL     OW35236   1.914   4.552  14.075  0.6057  0.8666 -0.4233
 7926SOL    HW135237   1.878   4.606  14.146 -2.1262 -0.1473 -1.0534
 7926SOL    HW235238   1.953   4.621  14.021 -0.2535  1.8988  0.2808
 7927SOL     OW35239   3.652   0.099   6.675  0.3804 -0.2625  0.0387
 7927SOL    HW135240   3.561   0.070   6.682 -0.5047  2.1210 -1.5242
 7927SOL    HW235241   3.656   0.140   6.761  1.2737 -0.5710  0.1414
 7928SOL     OW35242   2.268   3.653   5.363 -0.2032  0.6347 -0.4981
 7928SOL    HW135243   2.311   3.719   5.308  0.6560 -1.2684 -2.1366
 7928SOL    HW235244   2.175   3.670   5.351 -0.7604 -1.7811  0.3760
 7929SOL     OW35245   0.223   1.570   1.921  0.0439 -0.9383  0.1081
 7929SOL    HW135246   0.297   1.585   1.862  1.3244 -1.6405  1.5177
 7929SOL    HW235247   0.253   1.499   1.979  0.9130  1.6582  2.8604
 7930SOL     OW35248   2.426   3.171   5.863 -0.4492  0.1097 -0.1828
 7930SOL    HW135249   2.458   3.082   5.846  0.4516  0.0055  2.0329
 7930SOL    HW235250   2.353   3.145   5.921  1.8821 -1.9972  1.8161
 7931SOL     OW35251   1.815   1.954   3.173  0.4001  0.5143  0.2370
 7931SOL    HW135252   1.863   1.893   3.229  0.7263 -0.2975 -0.9351
 7931SOL    HW235253   1.796   1.901   3.096 -0.1233  0.4386  0.4185
 7932SOL     OW35254   0.002   1.338  16.156 -0.3032 -0.4701 -0.7924
 7932SOL    HW135255   4.677   1.272  16.205  0.2799 -1.3046 -1.3506
 7932SOL    HW235256   4.654   1.363  16.098 -0.8236 -0.2102 -0.0367
 7933SOL     OW35257   0.906   4.501   3.136 -0.1961  0.2031  0.5702
 7933SOL    HW135258   0.854   4.550   3.072  0.9997  0.5901 -0.0922
 7933SOL    HW235259   0.839   4.460   3.191  1.3328 -2.1299  0.6795
 7934SOL     OW35260   0.194   1.025   9.426 -0.3600 -0.0260 -0.1690
 7934SOL    HW135261   0.264   0.987   9.479 -0.8628 -0.6786  0.0243
 7934SOL    HW235262   0.218   1.117   9.416  0.7852 -0.0019  2.8382
 7935SOL     OW35263   4.644   1.454   9.285 -0.0040  1.0250  0.1505
 7935SOL    HW135264   4.668   1.542   9.256 -3.0143  0.9932 -2.3987
 7935SOL    HW235265   4.578   1.471   9.352 -0.2707 -0.5704  0.2962
 7936SOL     OW35266   3.147   1.591   9.476  0.5205  0.2967  0.0108
 7936SOL    HW135267   3.181   1.566   9.391  1.3643  0.6430  0.2447
 7936SOL    HW235268   3.068   1.636   9.446 -0.8828 -0.0804  3.0908
 7937SOL     OW35269   2.171   3.500   8.489  0.4451 -0.7850  0.8757
 7937SOL    HW135270   2.189   3.536   8.402  2.1360 -2.9510  0.3455
 7937SOL    HW235271   2.098   3.556   8.517  0.0160 -0.3053 -1.2038
 7938SOL     OW35272   0.017   2.340   1.378  0.9546 -0.1777 -0.0694
 7938SOL    HW135273   0.066   2.340   1.460  0.4640  1.5688  0.2334
 7938SOL    HW235274   4.653   2.365   1.409  1.3069  0.0292  0.7658
 7939SOL     OW35275   1.287   4.023   3.812 -0.3439 -0.6890  0.3593
 7939SOL    HW135276   1.238   4.098   3.843 -1.2116 -0.6011 -1.2067
 7939SOL    HW235277   1.223   3.953   3.824  0.3477 -1.3185  0.4314
 7940SOL     OW35278   3.796   4.597   2.520 -0.2064 -0.2597 -0.0444
 7940SOL    HW135279   3.831   4.520   2.475  0.1922 -0.1764  0.1230
 7940SOL    HW235280   3.706   4.581   2.549  0.1208  0.0892  1.1630
 7941SOL     OW35281   4.153   1.182   2.614 -0.1138 -0.3203 -0.3913
 7941SOL    HW135282   4.089   1.209   2.548  0.7349  1.9848 -0.2644
 7941SOL    HW235283   4.115   1.219   2.693 -1.8096 -4.2873  0.6585
 7942SOL     OW35284   3.018   1.110   4.671 -0.3019  0.2128 -0.6752
 7942SOL    HW135285   2.958   1.149   4.734 -1.4079 -2.0320 -0.3213
 7942SOL    HW235286   2.954   1.102   4.599 -1.2003  0.7263  0.0741
 7943SOL     OW35287   4.437   2.085   6.281 -0.6546 -0.2523  0.1165
 7943SOL    HW135288   4.498   2.038   6.337  2.5035  4.2067  0.4199
 7943SOL    HW235289   4.356   2.039   6.302 -0.2334 -2.0688 -2.1862
 7944SOL     OW35290   2.811   2.796   6.790 -0.3060  0.1376 -0.1339
 7944SOL    HW135291   2.720   2.777   6.763 -0.6845  1.3011  0.3447
 7944SOL    HW235292   2.860   2.760   6.716  0.7975  2.0754 -0.3252
 7945SOL     OW35293   0.258   4.722  12.639 -0.5124 -0.5321 -0.0345
 7945SOL    HW135294   0.171   0.023  12.668 -1.2216 -1.4057 -1.4506
 7945SOL    HW235295   0.247   4.630  12.617 -0.8955 -0.3078 -0.7626
 7946SOL     OW35296   3.933   3.550  15.889  0.0936 -0.5411  0.2520
 7946SOL    HW135297   3.980   3.476  15.850 -0.3755 -0.0889 -1.1623
 7946SOL    HW235298   3.866   3.508  15.942 -1.7709 -1.5840 -2.9170
 7947SOL     OW35299   0.104   1.915   9.439  0.0577  0.4334  0.2260
 7947SOL    HW135300   0.142   1.901   9.353 -1.0086 -0.8886 -0.0293
 7947SOL    HW235301   0.183   1.926   9.493  0.9110  2.6499 -1.5057
 7948SOL     OW35302   1.459   0.534   5.867  0.4859  0.1753  0.0298
 7948SOL    HW135303   1.427   0.477   5.797  1.0128  0.1239 -0.1706
 7948SOL    HW235304   1.541   0.563   5.827  1.3773 -4.9729 -1.8568
 7949SOL     OW35305   0.802   2.799  11.306  0.2974 -0.0717 -0.0137
 7949SOL    HW135306   0.859   2.806  11.229  2.6908  1.6472  1.9394
 7949SOL    HW235307   0.854   2.841  11.374  1.1961 -1.0506 -0.0967
 7950SOL     OW35308   2.947   1.613  14.981 -0.0571 -0.3186 -0.5302
 7950SOL    HW135309   2.880   1.674  14.952 -0.0189  0.2732  0.6017
 7950SOL    HW235310   3.018   1.664  15.020  1.6618 -3.4699  0.4882
 7951SOL     OW35311   3.761   2.509  10.257 -0.6157 -1.0239 -0.0897
 7951SOL    HW135312   3.686   2.565  10.278  3.2401  3.5254  1.4233
 7951SOL    HW235313   3.752   2.439  10.322  1.3451 -0.1835  1.0676
 7952SOL     OW35314   3.394   3.480   7.548 -0.3506 -0.0790 -0.1048
 7952SOL    HW135315   3.392   3.575   7.563 -3.3086 -0.0488 -0.7122
 7952SOL    HW235316   3.308   3.443   7.568  0.9788 -3.5668 -0.8508
 7953SOL     OW35317   0.214   1.146   8.223 -0.5446  0.2190 -0.2656
 7953SOL    HW135318   0.193   1.189   8.306  2.4334  0.6484  0.2750
 7953SOL    HW235319   0.245   1.065   8.263 -1.0975 -0.0998 -0.4715
 7954SOL     OW35320   1.020   2.575   7.160 -0.6120  0.0594 -0.2398
 7954SOL    HW135321   1.101   2.555   7.113 -0.0046  2.2428 -0.1144
 7954SOL    HW235322   0.983   2.655   7.122 -1.9339 -1.4619 -2.1773
 7955SOL     OW35323   2.748   0.476   4.577  0.0057 -0.4361 -0.4027
 7955SOL    HW135324   2.691   0.545   4.611 -0.9563 -1.1397 -0.6177
 7955SOL    HW235325   2.703   0.393   4.589  0.2452 -0.8301 -2.1610
 7956SOL     OW35326   1.024   3.764  14.515  0.3766 -0.1007 -0.4397
 7956SOL    HW135327   1.003   3.674  14.541  0.3985 -0.5254 -1.8611
 7956SOL    HW235328   0.940   3.811  14.511  0.0173 -0.5808  1.8107
 7957SOL     OW35329   4.514   1.181  14.367  0.6578  0.0406  0.2815
 7957SOL    HW135330   4.459   1.189  14.445 -1.4485 -0.1025 -1.1866
 7957SOL    HW235331   4.443   1.174  14.303 -0.7710  0.6142  1.8156
 7958SOL     OW35332   0.532   4.234   1.912 -0.2590  0.1862  0.3522
 7958SOL    HW135333   0.484   4.193   1.984  2.0432 -0.4305  1.5365
 7958SOL    HW235334   0.523   4.169   1.842  0.1312 -0.1115  0.5795
 7959SOL     OW35335   4.595   0.020   8.310  0.6458 -0.4470 -0.9632
 7959SOL    HW135336   4.515   0.047   8.355  0.8421  1.5988 -1.8288
 7959SOL    HW235337   4.617   4.653   8.328 -0.0423 -0.3862  0.2120
 7960SOL     OW35338   4.246   2.409   2.283  0.1481 -0.1677 -0.5514
 7960SOL    HW135339   4.319   2.464   2.256 -0.4358  1.2664  0.8177
 7960SOL    HW235340   4.183   2.479   2.270  0.7951  0.6292  0.5614
 7961SOL     OW35341   4.422   2.365   0.685  0.3344  0.5370 -0.5744
 7961SOL    HW135342   4.468   2.442   0.718  0.6116 -0.5616  1.5656
 7961SOL    HW235343   4.369   2.345   0.762  1.1479 -2.4957 -0.8168
 7962SOL     OW35344   0.281   2.234   4.522 -0.5300  0.1814 -0.5567
 7962SOL    HW135345   0.317   2.238   4.433 -0.4411 -0.7254 -0.5631
 7962SOL    HW235346   0.283   2.329   4.528 -2.1717  0.1427  0.4810
 7963SOL     OW35347   0.578   0.871   7.035 -0.1722  0.0482 -0.1031
 7963SOL    HW135348   0.637   0.941   7.065 -0.8825  0.7074 -0.2298
 7963SOL    HW235349   0.552   0.904   6.949 -1.8481  1.0436  0.7722
 7964SOL     OW35350   4.099   3.098  11.944  0.0221  0.1940 -0.5701
 7964SOL    HW135351   4.009   3.082  11.972 -0.3392  1.8241 -0.8134
 7964SOL    HW235352   4.090   3.083  11.850 -0.3323  0.0767 -0.5161
 7965SOL     OW35353   1.034   4.120  17.101  0.1864  0.0749 -0.1527
 7965SOL    HW135354   1.035   4.181  17.027  2.3815  0.4983  0.2287
 7965SOL    HW235355   0.974   4.172  17.154 -0.4209  1.2400 -1.9657
 7966SOL     OW35356   4.488   3.399  15.717  0.3433 -0.6597 -0.1961
 7966SOL    HW135357   4.542   3.478  15.716 -0.4714 -0.0858  0.6064
 7966SOL    HW235358   4.501   3.372  15.626  1.4211  0.9103 -0.5176
 7967SOL     OW35359   1.086   2.353   8.288 -0.0512 -0.2437  0.4542
 7967SOL    HW135360   1.035   2.434   8.277  1.7553  0.9525  0.9980
 7967SOL    HW235361   1.012   2.298   8.262  0.1072  1.0726 -2.8083
 7968SOL     OW35362   4.355   3.494   5.280 -0.1395  0.3191  0.1296
 7968SOL    HW135363   4.445   3.493   5.245 -0.4967  0.8507 -0.8033
 7968SOL    HW235364   4.361   3.562   5.346  0.0537  0.5704 -0.1433
 7969SOL     OW35365   3.003   3.213   6.194 -1.0431 -0.0502  0.2734
 7969SOL    HW135366   2.983   3.278   6.126 -0.1049  0.8031  0.8182
 7969SOL    HW235367   2.922   3.218   6.246 -0.2492 -0.5408  1.5455
 7970SOL     OW35368   3.333   0.823   4.009  0.1550 -0.2908 -0.9109
 7970SOL    HW135369   3.296   0.736   4.028 -2.8679  2.0024  3.7242
 7970SOL    HW235370   3.254   0.875   3.999 -0.7853 -1.4512  0.4838
 7971SOL     OW35371   1.211   0.553   4.908 -0.0555  0.1257 -0.3043
 7971SOL    HW135372   1.142   0.510   4.858  0.5695 -2.2043  0.8192
 7971SOL    HW235373   1.256   0.471   4.931 -1.4734 -1.1814 -2.2483
 7972SOL     OW35374   4.346   2.668   7.848  0.0692 -1.0116  0.1764
 7972SOL    HW135375   4.288   2.701   7.780  0.5618 -0.6097 -0.0534
 7972SOL    HW235376   4.283   2.675   7.920  0.5051  0.3258  0.4406
 7973SOL     OW35377   0.979   4.387   3.711 -0.4373 -0.3473 -0.2153
 7973SOL    HW135378   0.917   4.455   3.683 -0.1804  0.6646  1.6775
 7973SOL    HW235379   1.026   4.378   3.628 -0.6208  1.0981 -0.4862
 7974SOL     OW35380   1.126   0.565   2.403 -0.3549 -0.2274  0.4864
 7974SOL    HW135381   1.086   0.650   2.420 -1.0263 -0.9661  2.5444
 7974SOL    HW235382   1.051   0.519   2.364  0.1335 -0.9682  0.4141
 7975SOL     OW35383   0.859   3.989   9.936  0.7746  0.1656  0.3183
 7975SOL    HW135384   0.789   3.928   9.960  1.3903 -0.7566 -0.2163
 7975SOL    HW235385   0.887   3.935   9.862  1.1804 -1.5882  1.7589
 7976SOL     OW35386   2.293   1.630   8.130  0.5196  0.1708 -0.2905
 7976SOL    HW135387   2.214   1.680   8.152  0.7125  1.1292 -1.7225
 7976SOL    HW235388   2.350   1.705   8.110  0.5969 -0.5480 -2.7457
 7977SOL     OW35389   1.110   1.516   3.150  0.3370  0.4300  0.3878
 7977SOL    HW135390   1.113   1.512   3.245 -1.7482  2.1726  0.5260
 7977SOL    HW235391   1.181   1.457   3.126 -0.8752  0.4598 -3.2706
 7978SOL     OW35392   1.525   0.878   4.166 -0.0653 -0.1392 -0.0240
 7978SOL    HW135393   1.585   0.921   4.106  0.5475 -3.4638 -1.7516
 7978SOL    HW235394   1.553   0.912   4.251 -1.3718  2.6093 -0.6710
 7979SOL     OW35395   4.366   2.848   3.515  0.3450 -0.2382  0.1948
 7979SOL    HW135396   4.376   2.942   3.530 -0.8761  0.0493 -0.7450
 7979SOL    HW235397   4.457   2.825   3.533  0.8704  1.4484 -0.2483
 7980SOL     OW35398   4.113   4.485   2.026 -0.0372 -0.2972 -0.2702
 7980SOL    HW135399   4.209   4.484   2.031  0.0465 -0.9831 -1.9478
 7980SOL    HW235400   4.107   4.544   1.951 -0.9811  2.3627  1.8803
 7981SOL     OW35401   3.558   0.216   3.921 -0.3471  0.4138  0.3049
 7981SOL    HW135402   3.644   0.211   3.878 -0.6442 -0.1343 -0.2403
 7981SOL    HW235403   3.576   0.172   4.004  0.3998  1.8956  0.9096
 7982SOL     OW35404   2.834   3.766   4.696  0.4097 -0.3749 -0.6247
 7982SOL    HW135405   2.795   3.709   4.630  1.1757 -0.0582 -1.3524
 7982SOL    HW235406   2.879   3.707   4.757 -0.1231 -0.4894 -0.3435
 7983SOL     OW35407   3.708   0.472   1.951  0.2158  0.3791 -0.2519
 7983SOL    HW135408   3.677   0.407   2.015  0.0336 -2.5050 -3.2485
 7983SOL    HW235409   3.629   0.522   1.931 -1.3362 -2.1305 -0.3673
 7984SOL     OW35410   1.807   1.195   4.266  0.0850  0.0748 -0.1409
 7984SOL    HW135411   1.744   1.185   4.338  0.4303  0.1936  0.1777
 7984SOL    HW235412   1.750   1.164   4.195 -2.1624  0.2640  1.5831
 7985SOL     OW35413   2.761   2.763   9.048 -0.8897 -0.0002  0.4974
 7985SOL    HW135414   2.726   2.695   8.990 -2.8274 -0.5110  2.2580
 7985SOL    HW235415   2.687   2.787   9.103 -1.6146 -0.3938 -0.2979
 7986SOL     OW35416   1.004   2.572   2.429  0.1542 -0.4942 -0.5920
 7986SOL    HW135417   1.059   2.499   2.457  0.4148 -1.2750 -3.1036
 7986SOL    HW235418   0.961   2.534   2.352  0.2545  0.2975 -1.0371
 7987SOL     OW35419   3.809   1.821   6.150 -0.4132  0.0358  0.3021
 7987SOL    HW135420   3.862   1.744   6.170 -0.2557  0.3594  1.1477
 7987SOL    HW235421   3.729   1.802   6.199 -0.8595  0.7468 -0.1488
 7988SOL     OW35422   2.740   0.747   0.748  0.6651 -0.1490  0.3569
 7988SOL    HW135423   2.720   0.655   0.734 -0.9709 -0.0362  1.9971
 7988SOL    HW235424   2.668   0.766   0.808 -0.1261 -1.7894 -0.0883
 7989SOL     OW35425   2.537   4.580   5.954 -0.9369 -0.2704  0.2256
 7989SOL    HW135426   2.477   4.515   5.919 -0.9080  1.6122 -3.3470
 7989SOL    HW235427   2.544   4.556   6.046 -1.6992 -0.2179  0.2975
 7990SOL     OW35428   2.508   2.417   1.250  0.1241 -0.0624 -0.4649
 7990SOL    HW135429   2.591   2.369   1.250  0.0177 -0.2449 -1.0306
 7990SOL    HW235430   2.461   2.337   1.225 -1.0052 -0.3829  2.6689
 7991SOL     OW35431   2.082   1.446   8.693  0.3648 -0.0075 -0.9615
 7991SOL    HW135432   2.129   1.470   8.613 -0.5363  0.7350 -1.2641
 7991SOL    HW235433   2.078   1.351   8.690  1.0454 -0.0074 -2.0586
 7992SOL     OW35434   2.536   1.816  16.522  0.7178  0.2589  0.3502
 7992SOL    HW135435   2.457   1.861  16.551  0.8939 -0.4219  1.8821
 7992SOL    HW235436   2.604   1.874  16.557 -1.1042  1.8018  1.2772
 7993SOL     OW35437   3.624   1.280   9.366  0.9892 -0.4035  0.6344
 7993SOL    HW135438   3.692   1.219   9.339  0.5963 -1.2031  1.4380
 7993SOL    HW235439   3.555   1.218   9.389  0.0846  0.3582 -0.0032
 7994SOL     OW35440   1.287   0.761   3.126  0.2829  0.2332  0.1323
 7994SOL    HW135441   1.241   0.759   3.042 -0.0620 -0.9170  0.3514
 7994SOL    HW235442   1.340   0.681   3.126 -1.2850 -0.7917 -0.1375
 7995SOL     OW35443   1.979   2.846  17.323 -0.3541  0.9292 -0.5790
 7995SOL    HW135444   1.931   2.766  17.346 -0.1016  1.0938  0.4962
 7995SOL    HW235445   1.920   2.906  17.369 -0.5568  0.6589 -0.4854
 7996SOL     OW35446   3.503   0.387   1.221 -0.4776 -0.8322  0.0118
 7996SOL    HW135447   3.473   0.309   1.173 -0.3492 -0.1409 -1.2037
 7996SOL    HW235448   3.454   0.459   1.181 -0.2590  0.2221  1.6482
 7997SOL     OW35449   1.436   4.017   9.898  0.0010 -0.3079 -0.0297
 7997SOL    HW135450   1.359   4.048   9.851 -1.0155 -0.3608  1.6196
 7997SOL    HW235451   1.413   3.925   9.887  1.3303 -0.6284 -0.2176
 7998SOL     OW35452   3.671   3.031  14.644  0.6364  0.1960 -0.0432
 7998SOL    HW135453   3.709   2.953  14.603  2.0926  1.1512 -0.4989
 7998SOL    HW235454   3.684   3.010  14.736  1.5434  0.1215 -0.1895
 7999SOL     OW35455   1.588   4.496  15.154 -0.9837 -0.1531  0.1284
 7999SOL    HW135456   1.558   4.419  15.202 -1.4433  0.2652  0.5071
 7999SOL    HW235457   1.538   4.486  15.073  0.0333 -3.0245 -0.1402
 8000SOL     OW35458   2.764   3.927   5.855 -0.0909  0.2268 -0.0205
 8000SOL    HW135459   2.715   3.868   5.798  3.2326 -0.8193 -1.8116
 8000SOL    HW235460   2.832   3.934   5.788 -0.0236  0.6625  0.0959
 8001SOL     OW35461   1.689   3.839   5.550  0.2924  0.1220 -0.5809
 8001SOL    HW135462   1.641   3.756   5.547 -0.0790  0.3736 -1.7450
 8001SOL    HW235463   1.758   3.824   5.615 -1.3458 -0.1603  1.0633
 8002SOL     OW35464   1.565   2.911   3.518  0.2061  0.0081  0.2601
 8002SOL    HW135465   1.505   2.886   3.448  0.8467  1.3291 -0.7466
 8002SOL    HW235466   1.553   2.836   3.577  1.6469  0.2970  0.9047
 8003SOL     OW35467   1.903   2.852   6.683  0.5211 -0.0096 -0.1117
 8003SOL    HW135468   1.991   2.821   6.706  0.3636  1.2426  2.2132
 8003SOL    HW235469   1.923   2.945   6.686 -1.4336  0.3340  2.8308
 8004SOL     OW35470   1.096   4.521   2.499 -0.0227  0.0185 -0.2034
 8004SOL    HW135471   1.179   4.492   2.461  0.4482  1.2868 -0.1353
 8004SOL    HW235472   1.071   4.585   2.432 -1.5995 -0.8769 -0.4783
 8005SOL     OW35473   1.448   1.235   2.056 -0.2392  0.0040 -0.1051
 8005SOL    HW135474   1.407   1.153   2.085  2.2014 -0.6705  1.4571
 8005SOL    HW235475   1.493   1.266   2.134 -0.8118 -1.2394  0.7261
 8006SOL     OW35476   3.175   0.385   4.219 -0.1832 -0.1504 -0.4134
 8006SOL    HW135477   3.140   0.436   4.292  1.4320 -0.8939  0.8717
 8006SOL    HW235478   3.093   0.353   4.181 -0.3015  1.6491 -1.6722
 8007SOL     OW35479   1.799   2.192   3.439  0.0239 -0.1554 -0.1834
 8007SOL    HW135480   1.828   2.196   3.347 -0.0289  1.7866 -0.0980
 8007SOL    HW235481   1.723   2.249   3.444 -1.0227 -1.4960 -0.7543
 8008SOL     OW35482   2.465   4.355   1.211  0.3117 -0.4143 -0.2139
 8008SOL    HW135483   2.396   4.295   1.240 -0.0704 -0.4229 -1.1606
 8008SOL    HW235484   2.479   4.395   1.297  0.2344  0.5017 -0.6352
 8009SOL     OW35485   3.461   0.142   9.365  0.2002 -0.1118  0.1337
 8009SOL    HW135486   3.460   0.053   9.399 -0.2085 -0.4520 -0.7844
 8009SOL    HW235487   3.379   0.180   9.396  0.1576  0.3219 -0.5043
 8010SOL     OW35488   1.621   2.645  12.459  0.2321  0.1457 -0.0176
 8010SOL    HW135489   1.692   2.640  12.396  0.6260  2.4133  0.2567
 8010SOL    HW235490   1.668   2.658  12.542  1.6511  0.0998 -0.8198
 8011SOL     OW35491   2.178   2.885   4.439 -0.0117  0.1673 -0.0442
 8011SOL    HW135492   2.152   2.922   4.354  2.4789  0.3575 -0.7193
 8011SOL    HW235493   2.103   2.896   4.496  0.3546  0.8980  0.2902
 8012SOL     OW35494   4.125   0.521  16.833 -0.0090 -1.0870 -0.0417
 8012SOL    HW135495   4.168   0.466  16.768 -0.6002  0.1017 -1.4449
 8012SOL    HW235496   4.061   0.567  16.778 -1.1290 -0.8123  1.4919
 8013SOL     OW35497   3.298   0.528  12.620 -0.1455 -0.1094  0.4270
 8013SOL    HW135498   3.325   0.520  12.529 -0.6717 -0.9153  0.3412
 8013SOL    HW235499   3.218   0.476  12.618 -1.5768  2.0263  1.2718
 8014SOL     OW35500   4.146   4.680  11.480 -0.0977 -0.1494 -0.4031
 8014SOL    HW135501   4.140   0.051  11.493  1.9749 -0.3592  2.0837
 8014SOL    HW235502   4.227   4.666  11.432  0.5292  2.5490 -0.1540
 8015SOL     OW35503   2.224   3.190   3.485 -0.1823  0.1987 -0.1394
 8015SOL    HW135504   2.260   3.278   3.479 -0.4199  0.2923 -0.1659
 8015SOL    HW235505   2.172   3.195   3.405 -1.9982 -0.6109  0.9873
 8016SOL     OW35506   1.132   2.099  11.223 -0.0793 -0.0588  0.0418
 8016SOL    HW135507   1.176   2.030  11.174  4.1501  1.0181  2.2994
 8016SOL    HW235508   1.093   2.043  11.291 -1.1493  0.7984  0.1429
 8017SOL     OW35509   3.978   1.944   0.090  0.5983  0.7443 -0.2109
 8017SOL    HW135510   3.954   1.999   0.165 -0.3908 -1.1287  0.8450
 8017SOL    HW235511   4.031   1.880   0.137 -0.3956 -1.4348 -2.0085
 8018SOL     OW35512   3.449   2.786  15.747 -0.0350 -0.0289 -0.4211
 8018SOL    HW135513   3.407   2.710  15.707 -1.0550  0.7157 -0.7630
 8018SOL    HW235514   3.541   2.770  15.728 -0.3052 -1.4113 -0.5757
 8019SOL     OW35515   3.601   3.576   0.926 -0.2665  0.6549  0.1236
 8019SOL    HW135516   3.520   3.627   0.922  0.4109  1.8285  1.3334
 8019SOL    HW235517   3.572   3.502   0.874  1.7274 -1.6522  2.2760
 8020SOL     OW35518   0.885   1.718   4.230 -0.2832  0.3029  0.2295
 8020SOL    HW135519   0.838   1.767   4.163 -1.7990 -0.5362  0.6576
 8020SOL    HW235520   0.969   1.757   4.207 -0.7638 -1.0326 -3.7241
 8021SOL     OW35521   3.351   0.899   0.511  0.3105 -0.4069  0.3693
 8021SOL    HW135522   3.266   0.905   0.553  0.9481  1.0272  1.4314
 8021SOL    HW235523   3.330   0.940   0.427  2.1210  0.1713  0.1825
 8022SOL     OW35524   2.322   2.882  14.497  0.0558  0.0985  0.3940
 8022SOL    HW135525   2.372   2.962  14.484 -1.2263  0.9925  0.9748
 8022SOL    HW235526   2.387   2.812  14.487  0.0507  0.0751  0.5180
 8023SOL     OW35527   4.704   1.751  15.325  0.6841  0.3992  0.0020
 8023SOL    HW135528   4.660   1.812  15.266 -0.0851 -0.6010 -0.4638
 8023SOL    HW235529   4.627   1.718  15.373  1.4518 -0.3452  0.7241
 8024SOL     OW35530   2.516   1.132   4.866  0.4932 -0.4688 -0.5481
 8024SOL    HW135531   2.554   1.107   4.950  2.8976 -0.1620 -1.5235
 8024SOL    HW235532   2.447   1.067   4.857 -1.2463  1.2504  0.2615
 8025SOL     OW35533   3.271   4.143  10.283 -0.1927  0.4284  0.5765
 8025SOL    HW135534   3.358   4.146  10.322 -0.2151 -0.9775  0.7310
 8025SOL    HW235535   3.275   4.071  10.220  0.8110 -0.1032  1.2483
 8026SOL     OW35536   3.128   0.199   1.569 -0.5261  0.0848  0.7617
 8026SOL    HW135537   3.041   0.185   1.606  0.0110  0.4600  2.1472
 8026SOL    HW235538   3.105   0.172   1.480 -0.2985  0.4176  0.6019
 8027SOL     OW35539   0.109   1.955   8.882 -0.0176 -0.3567  0.4170
 8027SOL    HW135540   0.192   1.907   8.878  2.0079  2.9423  3.1569
 8027SOL    HW235541   0.128   2.042   8.916  0.0604 -0.5444  0.8556
 8028SOL     OW35542   3.131   2.565   7.699  0.2384 -0.1043 -0.3445
 8028SOL    HW135543   3.201   2.524   7.749 -0.4593 -1.0783 -0.1640
 8028SOL    HW235544   3.163   2.652   7.678 -1.1032 -0.0771 -2.3056
 8029SOL     OW35545   1.349   2.149   9.328 -0.3824 -0.0095  0.0852
 8029SOL    HW135546   1.363   2.158   9.233 -1.7280 -0.3349 -0.1454
 8029SOL    HW235547   1.386   2.230   9.362 -0.4782  0.2536 -0.4292
 8030SOL     OW35548   1.012   2.682   9.345  0.4426  0.0462 -0.3226
 8030SOL    HW135549   1.010   2.591   9.316 -0.3642 -0.1540  0.3456
 8030SOL    HW235550   1.067   2.669   9.423 -1.4497  0.8516  1.1481
 8031SOL     OW35551   4.419   2.231   9.858 -0.3054 -0.7533  0.0107
 8031SOL    HW135552   4.446   2.310   9.904 -1.7100  0.1594 -0.7581
 8031SOL    HW235553   4.370   2.179   9.921  1.1077  0.4987  2.1407
 8032SOL     OW35554   2.613   2.211   9.659  0.3146  0.0772  0.7990
 8032SOL    HW135555   2.524   2.244   9.651 -0.3435 -2.1964 -0.9251
 8032SOL    HW235556   2.657   2.273   9.718 -0.4334  1.2122  0.1529
 8033SOL     OW35557   4.526   3.231  16.474 -0.5905  0.3281  0.1605
 8033SOL    HW135558   4.584   3.169  16.429 -0.4079  2.0883 -2.0107
 8033SOL    HW235559   4.455   3.172  16.501 -1.2414  1.1661  0.2938
 8034SOL     OW35560   3.113   4.117   6.782 -0.2620  0.2238 -0.2445
 8034SOL    HW135561   3.163   4.037   6.769  1.5574  1.2911  0.0862
 8034SOL    HW235562   3.144   4.139   6.870 -1.6364 -0.4320  0.3931
 8035SOL     OW35563   1.331   3.528  16.285 -0.3031  0.1145 -0.1229
 8035SOL    HW135564   1.252   3.526  16.231 -0.3965  2.1737 -0.0759
 8035SOL    HW235565   1.355   3.436  16.276 -1.5350 -0.3376  1.2029
 8036SOL     OW35566   0.898   3.981   5.610 -0.3862 -0.2239 -0.1048
 8036SOL    HW135567   0.889   3.895   5.651  3.4807 -1.0951 -1.0248
 8036SOL    HW235568   0.809   4.013   5.602 -0.2087  0.4352  0.6693
 8037SOL     OW35569   0.476   1.039   8.844  0.1956  0.3411  0.7943
 8037SOL    HW135570   0.427   1.057   8.763 -0.8141 -2.0503  0.8852
 8037SOL    HW235571   0.526   0.959   8.827 -0.4548  0.6192 -2.4675
 8038SOL     OW35572   3.013   0.005   7.657 -0.4556 -0.1895  0.0886
 8038SOL    HW135573   3.097   0.050   7.657 -0.4506 -0.2014 -0.3873
 8038SOL    HW235574   2.986   0.017   7.748  0.5314  0.6660  0.2714
 8039SOL     OW35575   3.600   0.271   6.359 -0.5811  0.2296 -0.4041
 8039SOL    HW135576   3.506   0.277   6.376  0.1309 -0.0716  3.5785
 8039SOL    HW235577   3.624   0.209   6.428 -0.4543  0.7742  0.0420
 8040SOL     OW35578   1.876   4.238   5.537  0.9000 -0.1009  0.0743
 8040SOL    HW135579   1.913   4.300   5.473  3.0102 -2.0634 -0.5882
 8040SOL    HW235580   1.851   4.301   5.605  1.5546 -0.4513  0.6324
 8041SOL     OW35581   3.176   1.401   1.887  0.8917 -0.0859 -1.1546
 8041SOL    HW135582   3.159   1.456   1.964 -0.4050  0.4557 -1.8309
 8041SOL    HW235583   3.104   1.338   1.893 -1.1601  2.3999  0.1883
 8042SOL     OW35584   1.641   3.066   0.234  0.1039  0.6306  0.2926
 8042SOL    HW135585   1.731   3.081   0.263 -0.3972  1.6689  1.3468
 8042SOL    HW235586   1.604   3.135   0.290 -3.6328 -3.5382  3.0208
 8043SOL     OW35587   4.223   3.467   8.448  0.5505  1.0731  0.5476
 8043SOL    HW135588   4.245   3.502   8.534  0.1678 -0.5642  1.3133
 8043SOL    HW235589   4.149   3.522   8.422  0.4756  0.1814 -1.1502
 8044SOL     OW35590   4.354   3.601   7.457  0.0592  0.3715 -0.2343
 8044SOL    HW135591   4.431   3.571   7.408 -0.8117 -1.9294 -0.1946
 8044SOL    HW235592   4.333   3.683   7.413  0.1923  0.7255  0.3663
 8045SOL     OW35593   0.677   3.208   9.809  0.2333 -0.1445 -0.5695
 8045SOL    HW135594   0.720   3.232   9.891  1.8743  0.2316 -1.5374
 8045SOL    HW235595   0.680   3.291   9.761 -0.3693 -0.1777 -0.6620
 8046SOL     OW35596   2.780   3.144   7.725  0.7981  0.5919  0.0363
 8046SOL    HW135597   2.791   3.211   7.657 -1.0437  1.6904  0.8122
 8046SOL    HW235598   2.688   3.124   7.706 -0.1851  2.6187  2.6835
 8047SOL     OW35599   1.102   1.701   9.292  0.2522 -0.0967 -0.5420
 8047SOL    HW135600   1.026   1.715   9.349 -0.1692 -1.3064 -0.8119
 8047SOL    HW235601   1.070   1.647   9.220 -0.1746  0.7438 -0.9732
 8048SOL     OW35602   3.196   0.634   1.866  0.4867  0.2332  0.1105
 8048SOL    HW135603   3.171   0.641   1.958  2.6622 -1.1065  0.7822
 8048SOL    HW235604   3.214   0.540   1.860  1.8364  0.5064  0.0298
 8049SOL     OW35605   2.685   1.397   4.125 -0.9178  0.1985 -0.1385
 8049SOL    HW135606   2.753   1.439   4.177 -1.7955  2.3273 -0.7399
 8049SOL    HW235607   2.657   1.477   4.080  1.0787  0.9568 -0.0091
 8050SOL     OW35608   3.652   1.340  15.008 -0.7201  0.1133  0.6544
 8050SOL    HW135609   3.568   1.312  14.970 -0.6257 -1.2963  1.4883
 8050SOL    HW235610   3.675   1.253  15.041  1.9046  0.5862  0.0268
 8051SOL     OW35611   4.234   2.497   1.953 -0.3780  0.0773 -0.1497
 8051SOL    HW135612   4.165   2.510   1.887 -2.0086  0.1869  1.5994
 8051SOL    HW235613   4.179   2.452   2.017  1.6660 -1.7458  0.3282
 8052SOL     OW35614   4.111   4.059   0.464  1.0558  0.3139 -0.0717
 8052SOL    HW135615   4.089   4.062   0.557 -1.4466  2.6877 -0.7518
 8052SOL    HW235616   4.150   4.146   0.456  1.4323  0.1276 -0.2376
 8053SOL     OW35617   1.604   2.742   2.449 -0.2763 -0.0349 -1.1169
 8053SOL    HW135618   1.672   2.793   2.406  0.7204  0.3623  0.9219
 8053SOL    HW235619   1.527   2.794   2.426 -0.4347  0.1019 -0.2878
 8054SOL     OW35620   0.886   1.891   9.499 -0.1235 -0.3257  0.1381
 8054SOL    HW135621   0.966   1.920   9.455  0.9252 -0.6301  1.8504
 8054SOL    HW235622   0.841   1.976   9.508  2.5539  0.9581  1.3496
 8055SOL     OW35623   4.188   1.465  16.214 -0.4120  0.1206  0.4683
 8055SOL    HW135624   4.113   1.513  16.178  0.8593  1.5621 -0.2600
 8055SOL    HW235625   4.207   1.391  16.157 -0.0443 -0.0747  0.8440
 8056SOL     OW35626   3.944   0.636   4.843  0.3560 -0.3916 -0.5437
 8056SOL    HW135627   3.877   0.639   4.775  1.5607 -0.6119 -1.7501
 8056SOL    HW235628   4.001   0.568   4.808 -0.5376 -0.4799 -1.8418
 8057SOL     OW35629   0.841   2.108  15.841  0.2281 -0.0843  0.2408
 8057SOL    HW135630   0.931   2.130  15.819 -0.5979 -1.7400 -4.7576
 8057SOL    HW235631   0.830   2.165  15.917 -0.6001 -1.0252  0.8327
 8058SOL     OW35632   2.720   4.358   7.578 -0.3579  0.0963 -0.2544
 8058SOL    HW135633   2.815   4.356   7.590 -0.7024 -1.7040  2.1673
 8058SOL    HW235634   2.722   4.368   7.483  0.7527 -2.7475 -0.5538
 8059SOL     OW35635   0.774   0.558   5.790 -0.0310  0.1776 -0.1061
 8059SOL    HW135636   0.820   0.607   5.721  2.9238 -1.4084  0.7387
 8059SOL    HW235637   0.802   0.620   5.858  1.6222 -3.0744  2.2019
 8060SOL     OW35638   3.660   1.980   3.275 -0.1155  0.1135  0.6787
 8060SOL    HW135639   3.722   1.926   3.226 -1.0918  0.7010 -1.2263
 8060SOL    HW235640   3.697   2.068   3.269 -1.9691  0.8778  0.4318
 8061SOL     OW35641   1.575   0.355  17.674 -0.0224 -0.4586  0.0126
 8061SOL    HW135642   1.573   0.278   0.035  1.2252  0.1606  0.8940
 8061SOL    HW235643   1.557   0.321  17.587 -0.8736  0.9567 -0.3683
 8062SOL     OW35644   4.229   2.363   7.950  0.0698 -0.1639 -0.4204
 8062SOL    HW135645   4.154   2.408   7.910  1.2441  3.0433  0.9871
 8062SOL    HW235646   4.297   2.363   7.883 -0.7514 -2.1250 -1.2563
 8063SOL     OW35647   3.914   0.649   8.339  0.6001  0.2419  0.4721
 8063SOL    HW135648   4.003   0.622   8.362 -0.0185 -0.9413  1.4909
 8063SOL    HW235649   3.898   0.735   8.378 -0.1548  0.5242 -0.4671
 8064SOL     OW35650   3.438   2.627   5.302  0.0939 -0.1385 -0.3293
 8064SOL    HW135651   3.451   2.558   5.236 -1.2175 -1.0358  0.3461
 8064SOL    HW235652   3.526   2.619   5.338 -0.8590 -2.3850  1.4903
 8065SOL     OW35653   3.749   1.474   6.193  0.9744 -0.1676  0.1715
 8065SOL    HW135654   3.774   1.418   6.267  0.1944 -0.3194  0.3211
 8065SOL    HW235655   3.746   1.560   6.237  0.5320  0.7484 -1.6686
 8066SOL     OW35656   2.927   1.025   7.067 -0.8002  0.3228  0.1133
 8066SOL    HW135657   2.932   1.020   7.163  0.1395  0.2196  0.0651
 8066SOL    HW235658   2.880   0.954   7.025 -0.2530 -0.4808  0.8691
 8067SOL     OW35659   4.113   4.507   3.680  0.2320 -0.3660  0.5704
 8067SOL    HW135660   4.135   4.597   3.702  3.3768 -0.6166 -1.4417
 8067SOL    HW235661   4.120   4.456   3.761  2.7111 -0.2256  0.4446
 8068SOL     OW35662   1.298   2.386  12.237 -0.1624  0.2893 -0.1893
 8068SOL    HW135663   1.249   2.345  12.309 -0.8666  1.4745 -0.0000
 8068SOL    HW235664   1.385   2.351  12.256 -0.5856 -0.4765  0.3755
 8069SOL     OW35665   2.925   1.605  17.641 -0.5995  0.6924 -0.0449
 8069SOL    HW135666   2.867   1.639   0.013 -2.0724  0.7009 -1.2950
 8069SOL    HW235667   3.007   1.602  17.690 -0.1206  2.1490 -0.7550
 8070SOL     OW35668   2.499   3.373   8.757 -0.3790 -0.0095 -0.0369
 8070SOL    HW135669   2.516   3.279   8.766  0.0234  0.1251  0.5995
 8070SOL    HW235670   2.568   3.400   8.696 -0.3997 -0.9529 -0.4800
 8071SOL     OW35671   0.419   1.633  11.152 -0.3499 -0.1250  0.0351
 8071SOL    HW135672   0.426   1.713  11.204  2.6936  0.8911 -1.8902
 8071SOL    HW235673   0.377   1.563  11.202 -1.3698  0.6866  0.3185
 8072SOL     OW35674   4.474   2.205  14.238 -0.3676 -0.0600  0.1145
 8072SOL    HW135675   4.560   2.243  14.252 -0.5834 -0.1870  1.7175
 8072SOL    HW235676   4.428   2.241  14.313 -1.7003  0.9555 -1.1916
 8073SOL     OW35677   2.064   3.181   8.545  0.1543 -0.0016  0.6351
 8073SOL    HW135678   2.080   3.268   8.583 -0.3639 -0.4501  1.8831
 8073SOL    HW235679   2.018   3.207   8.466 -0.3462 -0.1450  0.8788
 8074SOL     OW35680   2.864   0.407   2.993  0.0863  0.5363  0.0898
 8074SOL    HW135681   2.870   0.494   2.953 -0.9797  0.9540  0.8312
 8074SOL    HW235682   2.934   0.404   3.058  0.0264 -0.2566  0.1215
 8075SOL     OW35683   3.417   2.138  17.498 -0.3241 -0.1710 -0.0595
 8075SOL    HW135684   3.504   2.124  17.536 -0.5768  0.3118  0.7091
 8075SOL    HW235685   3.442   2.160  17.409  0.6617 -1.9773 -0.2163
 8076SOL     OW35686   1.309   1.186   1.280 -0.4608  0.3369  0.1404
 8076SOL    HW135687   1.315   1.090   1.282 -2.8435  0.1706 -1.2016
 8076SOL    HW235688   1.216   1.205   1.285 -0.3718  0.6849  0.5328
 8077SOL     OW35689   1.784   3.065   9.984 -0.7621  0.0086 -0.5154
 8077SOL    HW135690   1.818   3.108  10.062  0.2144 -1.2179 -0.2683
 8077SOL    HW235691   1.764   2.976  10.013  0.3815 -0.4680 -1.1709
 8078SOL     OW35692   3.242   4.382   8.829 -0.3872  0.2844 -0.0998
 8078SOL    HW135693   3.182   4.332   8.774 -1.9481  1.0653  0.9139
 8078SOL    HW235694   3.325   4.369   8.782 -0.4334 -0.6661  0.0811
 8079SOL     OW35695   4.066   1.589   6.661  0.2358  0.0616 -0.1614
 8079SOL    HW135696   3.988   1.547   6.695  0.0420 -0.0286 -0.7217
 8079SOL    HW235697   4.142   1.535   6.684 -0.1073  0.3118  1.5457
 8080SOL     OW35698   4.409   4.403   1.348  0.0208 -0.2435  0.2465
 8080SOL    HW135699   4.468   4.473   1.320 -0.1043 -0.6869 -1.1285
 8080SOL    HW235700   4.430   4.383   1.439  1.0806  1.3786  0.3572
 8081SOL     OW35701   1.082   1.643   3.991 -0.8132 -0.9744  0.4414
 8081SOL    HW135702   1.116   1.578   3.930  1.1713  1.2245 -0.8200
 8081SOL    HW235703   0.998   1.602   4.011 -1.7031  0.3220 -0.6529
 8082SOL     OW35704   3.075   3.362   5.395  0.2659  0.1132  0.2812
 8082SOL    HW135705   3.077   3.271   5.365 -0.7848 -0.4236  1.8345
 8082SOL    HW235706   2.995   3.346   5.446  0.5162 -1.5280  0.1857
 8083SOL     OW35707   2.161   1.162  14.457  0.0775 -0.2933 -0.0596
 8083SOL    HW135708   2.241   1.150  14.406 -0.3794  2.6447 -1.4527
 8083SOL    HW235709   2.139   1.073  14.485 -1.5397 -0.2150 -1.0544
 8084SOL     OW35710   1.010   3.463   9.728  0.0774  0.0056  0.8396
 8084SOL    HW135711   1.099   3.497   9.718 -0.0211  0.1373  0.4292
 8084SOL    HW235712   1.040   3.383   9.772  0.3307 -0.2041  0.2753
 8085SOL     OW35713   0.101   1.310   6.142 -0.3393  0.2454 -0.1313
 8085SOL    HW135714   0.141   1.276   6.222  0.8982 -1.8989 -1.6687
 8085SOL    HW235715   0.172   1.364   6.108  0.9035 -0.8090  0.7748
 8086SOL     OW35716   4.003   3.596   3.430  0.7927  0.0524 -0.7875
 8086SOL    HW135717   3.997   3.686   3.397  1.5898  0.8784  1.2646
 8086SOL    HW235718   3.975   3.605   3.521 -2.4774  0.7527 -1.8597
 8087SOL     OW35719   0.240   3.635   5.366 -0.3062  0.7331  0.3989
 8087SOL    HW135720   0.249   3.636   5.270  2.8380 -1.4484  0.6671
 8087SOL    HW235721   0.319   3.684   5.386  1.4149 -1.2426 -1.4937
 8088SOL     OW35722   1.890   0.101   0.728 -0.2890 -0.1045 -1.0491
 8088SOL    HW135723   1.891   0.169   0.796 -0.1539  0.0378 -1.1897
 8088SOL    HW235724   1.869   0.155   0.652 -1.6808  2.3853  1.1034
 8089SOL     OW35725   3.954   2.008   4.884 -0.4975  0.2971  0.0652
 8089SOL    HW135726   4.011   1.985   4.958  0.4013  1.7706 -0.1657
 8089SOL    HW235727   3.919   2.094   4.909 -0.4300 -0.1693  1.7520
 8090SOL     OW35728   2.596   1.586   2.006 -0.3863 -0.1161  0.0492
 8090SOL    HW135729   2.628   1.634   2.082 -2.5123 -0.7378  1.3597
 8090SOL    HW235730   2.646   1.635   1.941 -0.1467  1.8441  1.7275
 8091SOL     OW35731   3.176   4.546   6.323 -0.1823  0.0367  0.1694
 8091SOL    HW135732   3.123   4.467   6.335 -3.1323  2.1666  1.2393
 8091SOL    HW235733   3.199   4.536   6.231 -1.4231  0.3853 -0.1788
 8092SOL     OW35734   2.758   0.294   1.887  0.4017 -0.1926  0.3944
 8092SOL    HW135735   2.804   0.256   1.812 -0.2978  0.6652 -0.4693
 8092SOL    HW235736   2.721   0.224   1.941 -2.7325 -0.9536 -2.7418
 8093SOL     OW35737   2.515   4.571   3.968 -0.1743 -1.3783 -0.3564
 8093SOL    HW135738   2.431   4.525   3.964 -0.2338 -1.1364 -1.9027
 8093SOL    HW235739   2.559   4.495   3.931 -1.1146 -2.1405  0.0724
 8094SOL     OW35740   4.718   1.929   9.690  0.4226  0.1337 -0.3458
 8094SOL    HW135741   0.079   1.932   9.647 -0.2913  1.9762 -1.6107
 8094SOL    HW235742   4.693   2.018   9.664  1.1434  0.3836 -0.1805
 8095SOL     OW35743   0.089   1.077   7.921 -0.1415 -0.0045 -0.6339
 8095SOL    HW135744   0.129   1.156   7.956 -2.0708 -0.5223  2.6901
 8095SOL    HW235745   0.125   1.065   7.833 -0.4156 -3.2142 -0.3362
 8096SOL     OW35746   3.643   3.300  10.164  0.3095  0.3418  0.5747
 8096SOL    HW135747   3.631   3.210  10.135  1.3676  0.8372 -1.4605
 8096SOL    HW235748   3.591   3.348  10.099  0.4737  0.4540  0.5272
 8097SOL     OW35749   4.280   3.864  13.273  0.4514 -0.4059 -0.1512
 8097SOL    HW135750   4.357   3.864  13.330 -0.1966  1.4149  0.6916
 8097SOL    HW235751   4.212   3.856  13.339 -0.4417  2.3531 -0.7524
 8098SOL     OW35752   3.960   3.208   7.109 -0.2368 -0.2915 -0.1097
 8098SOL    HW135753   4.003   3.149   7.048  2.0385  0.4669  0.7440
 8098SOL    HW235754   3.883   3.237   7.061  0.0102  0.1540 -0.2372
 8099SOL     OW35755   0.252   3.898   9.733  0.2579 -0.5123 -0.2728
 8099SOL    HW135756   0.262   3.955   9.657  2.4508  0.5189  0.7917
 8099SOL    HW235757   0.328   3.921   9.786  0.2886 -0.8431 -0.1713
 8100SOL     OW35758   1.987   0.133   2.862  0.1704 -0.3077 -0.2724
 8100SOL    HW135759   2.001   0.194   2.790 -1.6711 -2.0273 -2.0680
 8100SOL    HW235760   1.950   0.057   2.818  4.1228 -1.6362 -1.3339
 8101SOL     OW35761   4.600   0.639  13.849  0.0455  0.4657 -0.3025
 8101SOL    HW135762   4.605   0.726  13.809  0.6781  1.3839  1.7928
 8101SOL    HW235763   4.521   0.610  13.803  0.1630  0.2696 -0.3779
 8102SOL     OW35764   0.504   2.279   3.878 -0.3561 -0.2569 -0.0729
 8102SOL    HW135765   0.546   2.277   3.792 -0.3222  1.8561 -0.1009
 8102SOL    HW235766   0.501   2.374   3.882  1.2085 -0.3058  2.4727
 8103SOL     OW35767   1.861   0.302   3.707  0.4112  0.2562  0.7181
 8103SOL    HW135768   1.902   0.354   3.638 -1.3590 -0.2077 -0.7066
 8103SOL    HW235769   1.770   0.328   3.688  0.1004 -0.8102  0.6972
 8104SOL     OW35770   3.743   3.882   6.504 -0.0358  0.5350  0.1844
 8104SOL    HW135771   3.659   3.906   6.543 -0.3629 -1.1547  0.5435
 8104SOL    HW235772   3.785   3.835   6.576  0.8919  0.2416 -0.5488
 8105SOL     OW35773   2.609   2.044   6.710 -0.1959 -0.4710  0.1163
 8105SOL    HW135774   2.606   2.126   6.661 -1.7384  0.6654  2.1076
 8105SOL    HW235775   2.532   1.997   6.678 -0.6608 -2.2998  3.9695
 8106SOL     OW35776   1.319   4.345  16.690  0.3158 -0.0984 -0.2401
 8106SOL    HW135777   1.289   4.360  16.600  0.2685  0.3222 -0.1533
 8106SOL    HW235778   1.409   4.318  16.672  0.5876  0.9874 -0.5190
 8107SOL     OW35779   0.034   2.807   6.410 -0.1266  0.0912  0.3688
 8107SOL    HW135780   4.692   2.758   6.360  2.4582 -0.9583 -2.0516
 8107SOL    HW235781   0.110   2.780   6.358 -0.2278  0.7751 -0.1506
 8108SOL     OW35782   0.110   4.279   6.221  0.1693 -0.1164 -0.0108
 8108SOL    HW135783   0.163   4.318   6.151 -2.0974  2.5268 -0.2448
 8108SOL    HW235784   0.142   4.190   6.201 -0.9363 -0.9296  1.8634
 8109SOL     OW35785   0.252   0.163   4.960  0.3364  0.2581  0.4356
 8109SOL    HW135786   0.334   0.172   4.912 -0.3643 -1.1501 -1.0224
 8109SOL    HW235787   0.275   0.140   5.050  0.3245 -1.8249 -0.0886
 8110SOL     OW35788   1.042   1.309   7.572  0.0359 -0.3302  0.1742
 8110SOL    HW135789   0.977   1.370   7.608  1.4803 -1.0610  4.0185
 8110SOL    HW235790   1.067   1.357   7.492 -0.1870 -2.7148 -1.3203
 8111SOL     OW35791   3.445   3.904  12.443  0.2938 -0.6047  0.1495
 8111SOL    HW135792   3.498   3.841  12.491  0.1971 -1.3681 -0.7350
 8111SOL    HW235793   3.430   3.866  12.356  0.1522 -1.2396  0.4486
 8112SOL     OW35794   4.577   1.184   8.934 -0.2877  0.6833 -0.1565
 8112SOL    HW135795   4.497   1.199   8.984 -0.6606 -0.7568 -0.3273
 8112SOL    HW235796   4.588   1.269   8.891 -0.2125  0.4038 -0.6996
 8113SOL     OW35797   0.970   3.319  16.544  0.2032 -0.4801  0.5522
 8113SOL    HW135798   0.971   3.410  16.574 -0.9598  0.2273 -1.5677
 8113SOL    HW235799   0.972   3.268  16.625 -0.5529  0.8433  1.4199
 8114SOL     OW35800   1.114   0.068   8.616 -0.0658 -0.6476  0.5692
 8114SOL    HW135801   1.182   0.134   8.606 -0.6041 -0.3396 -1.0059
 8114SOL    HW235802   1.053   0.105   8.679 -0.7058 -0.0588 -0.4058
 8115SOL     OW35803   2.880   3.295   3.672 -0.1947 -0.1898  0.3162
 8115SOL    HW135804   2.942   3.325   3.606  0.5329 -2.4584 -0.0231
 8115SOL    HW235805   2.805   3.262   3.623 -2.0642  2.6481  1.3210
 8116SOL     OW35806   0.614   0.339   7.461  0.1492  0.2290 -0.4057
 8116SOL    HW135807   0.555   0.351   7.386 -1.0086  1.5385  0.7048
 8116SOL    HW235808   0.692   0.385   7.430 -0.0290 -0.3685 -1.7402
 8117SOL     OW35809   3.002   4.620   6.689  0.2566  0.0068  0.4233
 8117SOL    HW135810   3.026   4.528   6.689 -0.2952 -0.1389  0.8527
 8117SOL    HW235811   3.060   4.651   6.759 -0.1550 -1.0760  1.2358
 8118SOL     OW35812   0.324   0.440  12.234  0.0850 -0.0058  0.1790
 8118SOL    HW135813   0.322   0.433  12.139 -1.6466  1.1528  0.1225
 8118SOL    HW235814   0.247   0.385  12.249  1.5121 -1.8280  0.7712
 8119SOL     OW35815   0.780   1.826   3.999  0.2547 -0.1478  0.8070
 8119SOL    HW135816   0.685   1.819   4.003  0.1905 -0.2474 -1.2657
 8119SOL    HW235817   0.787   1.920   4.012  2.2153 -0.2841  0.6949
 8120SOL     OW35818   0.575   0.950   2.424  0.6758  0.1885 -0.2523
 8120SOL    HW135819   0.628   0.876   2.394  0.6559  0.8051 -1.8199
 8120SOL    HW235820   0.604   0.960   2.514  3.5144 -1.2717 -1.0033
 8121SOL     OW35821   1.873   4.319   5.071 -0.3968  0.6254  1.0601
 8121SOL    HW135822   1.918   4.399   5.100 -1.6620  1.0407  1.8936
 8121SOL    HW235823   1.811   4.311   5.143 -1.4496  0.5075  0.1272
 8122SOL     OW35824   0.608   1.605   3.107  0.0699  0.2975  0.0606
 8122SOL    HW135825   0.640   1.693   3.085  0.8131 -0.0977 -0.4649
 8122SOL    HW235826   0.640   1.587   3.195  1.7539 -1.3082 -0.8650
 8123SOL     OW35827   2.766   2.720   7.313  0.1558 -0.2551  0.4073
 8123SOL    HW135828   2.721   2.636   7.303 -1.3487  0.5785  0.0730
 8123SOL    HW235829   2.810   2.699   7.395  2.0478  0.9663 -0.3083
 8124SOL     OW35830   4.413   2.497   8.122 -0.2612  0.0245  0.3475
 8124SOL    HW135831   4.359   2.486   8.043  0.0849  1.9448 -0.1385
 8124SOL    HW235832   4.352   2.492   8.195  0.4641  0.8682  0.9980
 8125SOL     OW35833   3.281   2.292   8.143 -0.3781 -0.1251 -0.4812
 8125SOL    HW135834   3.360   2.293   8.089 -0.1101 -1.5439 -0.0975
 8125SOL    HW235835   3.280   2.199   8.165 -1.5233 -0.1551 -0.6756
 8126SOL     OW35836   0.956   0.475   9.392  0.1989  0.0474  0.2517
 8126SOL    HW135837   0.876   0.524   9.412  0.8172  0.8856  0.6857
 8126SOL    HW235838   0.990   0.520   9.315 -0.9997  1.8913  0.7961
 8127SOL     OW35839   1.757   2.712   8.806  0.0459 -0.1067 -0.3852
 8127SOL    HW135840   1.745   2.770   8.731  1.7487  0.9806  0.2012
 8127SOL    HW235841   1.752   2.625   8.767 -0.3012 -1.1207  1.8831
 8128SOL     OW35842   1.083   1.907   3.327 -0.1389  0.3811  0.0705
 8128SOL    HW135843   1.047   1.952   3.404  1.8441  1.2229  0.5049
 8128SOL    HW235844   1.012   1.863   3.280 -1.3556  1.9995  0.4193
 8129SOL     OW35845   4.167   0.465   4.708  0.5828 -0.0356 -0.1410
 8129SOL    HW135846   4.224   0.390   4.723 -1.1561 -1.7753 -2.4091
 8129SOL    HW235847   4.159   0.449   4.614 -2.7580 -0.8850  0.3076
 8130SOL     OW35848   1.738   3.782   4.851  0.4210  0.0717 -0.2561
 8130SOL    HW135849   1.725   3.803   4.758  1.3079 -0.5620 -0.5176
 8130SOL    HW235850   1.721   3.865   4.896  1.8954  1.0911 -1.5561
 8131SOL     OW35851   2.471   1.852   5.174  0.1568 -0.2585  0.5064
 8131SOL    HW135852   2.555   1.808   5.160 -0.6803 -1.5213 -0.4837
 8131SOL    HW235853   2.431   1.782   5.226  0.9231  0.9948  2.7981
 8132SOL     OW35854   0.773   4.226   2.499  0.0389  0.2135 -0.6106
 8132SOL    HW135855   0.785   4.148   2.553 -0.9990 -0.3210 -1.1595
 8132SOL    HW235856   0.828   4.281   2.555 -1.0794  0.8516 -0.1260
 8133SOL     OW35857   2.012   1.055   9.636 -0.4357  0.6711 -0.7442
 8133SOL    HW135858   1.998   1.131   9.579 -0.7060  0.9691 -0.2771
 8133SOL    HW235859   2.099   1.025   9.608 -1.0239 -2.1078  0.4097
 8134SOL     OW35860   1.804   2.547   6.823  0.2569 -0.4335  0.0200
 8134SOL    HW135861   1.746   2.580   6.755  1.7430 -1.8734 -1.9249
 8134SOL    HW235862   1.748   2.562   6.900  1.4870 -0.9936  1.0243
 8135SOL     OW35863   3.004   1.249   3.585  0.3706 -0.6452 -0.7742
 8135SOL    HW135864   3.076   1.231   3.524  0.7517  0.4860 -0.6706
 8135SOL    HW235865   2.927   1.225   3.534 -1.0226  0.8408  0.6194
 8136SOL     OW35866   0.677   4.449  12.576  0.2073 -0.1255  0.4195
 8136SOL    HW135867   0.605   4.487  12.626 -0.7568 -0.8289 -0.4063
 8136SOL    HW235868   0.705   4.375  12.630  2.5867  0.6475  0.2237
 8137SOL     OW35869   2.903   2.873   3.040 -0.0536 -0.1225  0.0671
 8137SOL    HW135870   2.945   2.810   3.099  0.2674  0.5546  0.5598
 8137SOL    HW235871   2.969   2.882   2.972 -1.2591  1.2571 -0.9010
 8138SOL     OW35872   2.826   0.529   2.028  0.0454 -0.3815  0.5121
 8138SOL    HW135873   2.763   0.464   1.997 -1.5140  1.7087 -0.6788
 8138SOL    HW235874   2.856   0.490   2.110  0.5251  0.2559  0.6412
 8139SOL     OW35875   0.795   4.054   3.016  0.2733 -0.4070 -0.4243
 8139SOL    HW135876   0.734   3.990   2.979  0.0502 -0.3161 -0.2110
 8139SOL    HW235877   0.878   4.038   2.971  0.1101 -0.2150 -0.7934
 8140SOL     OW35878   2.364   1.808   9.293 -0.3403 -0.3523  0.9054
 8140SOL    HW135879   2.368   1.812   9.198 -1.6241 -0.0203  0.8548
 8140SOL    HW235880   2.311   1.728   9.298  3.9099 -3.1797  0.3405
 8141SOL     OW35881   2.830   1.504   3.231 -0.4274 -0.2237 -0.1537
 8141SOL    HW135882   2.925   1.491   3.230 -0.5973 -1.3469 -1.0172
 8141SOL    HW235883   2.816   1.586   3.184 -0.3299  0.1379  0.4422
 8142SOL     OW35884   1.069   1.106   2.951  0.9929 -0.1071 -0.1713
 8142SOL    HW135885   1.089   1.169   3.020  3.3117 -0.9903 -0.0271
 8142SOL    HW235886   1.135   1.118   2.882  2.3562  0.9734  1.3109
 8143SOL     OW35887   3.933   3.275   7.926  0.0620 -0.4093  0.1586
 8143SOL    HW135888   4.015   3.323   7.919  0.3792 -0.6768  2.2920
 8143SOL    HW235889   3.872   3.347   7.908  0.6872  0.2493  0.7159
 8144SOL     OW35890   0.826   4.000   9.528  0.1198 -0.3772 -0.6542
 8144SOL    HW135891   0.799   3.930   9.587  2.5976 -0.4983  0.3378
 8144SOL    HW235892   0.790   4.080   9.567  0.9831 -0.1583 -0.3003
 8145SOL     OW35893   0.540   0.729   9.554  0.8581  0.0329  0.1585
 8145SOL    HW135894   0.539   0.686   9.468 -1.1750 -0.3587  0.3682
 8145SOL    HW235895   0.632   0.714   9.575  0.9454 -0.8580 -0.8681
 8146SOL     OW35896   0.735   2.316  14.441 -0.7025 -0.3466 -0.4483
 8146SOL    HW135897   0.684   2.379  14.492 -2.9871 -0.9519 -1.9783
 8146SOL    HW235898   0.666   2.280  14.386 -0.1928 -1.6646 -0.2162
 8147SOL     OW35899   1.164   1.043   3.434 -0.0779  0.1091  0.0377
 8147SOL    HW135900   1.111   1.058   3.356 -2.0790  0.3195  1.4325
 8147SOL    HW235901   1.217   0.969   3.404 -2.6083 -0.5098 -2.8766
 8148SOL     OW35902   2.403   4.480   8.515  0.0725  0.0793  0.3357
 8148SOL    HW135903   2.465   4.459   8.584  1.1992  2.3016  0.0029
 8148SOL    HW235904   2.340   4.540   8.555  0.8639  2.0746 -1.3962
 8149SOL     OW35905   0.005   1.546   5.486 -0.0327  0.0607 -0.3328
 8149SOL    HW135906   0.098   1.525   5.484  0.2002  1.1448 -1.2437
 8149SOL    HW235907   4.710   1.519   5.576 -0.2344  0.9134 -0.1165
 8150SOL     OW35908   3.880   4.587   2.779 -0.6307 -0.0894 -0.6612
 8150SOL    HW135909   3.969   4.619   2.769 -0.7791  0.1698 -1.1539
 8150SOL    HW235910   3.850   4.596   2.688  0.2224  0.0792 -0.9241
 8151SOL     OW35911   1.849   3.108   5.971  0.4212  0.3311 -0.0540
 8151SOL    HW135912   1.899   3.031   5.944  0.5531  0.7842 -1.1046
 8151SOL    HW235913   1.871   3.180   5.913  0.8110  1.1326  1.0873
 8152SOL     OW35914   3.155   4.035   1.303 -0.2807  0.0150 -0.1145
 8152SOL    HW135915   3.066   4.069   1.309  1.0555  3.2441  1.4259
 8152SOL    HW235916   3.207   4.097   1.354  1.2242  0.0295 -1.6649
 8153SOL     OW35917   2.790   3.569   0.120  0.5865 -0.4953  0.1057
 8153SOL    HW135918   2.831   3.484   0.134  1.3293 -0.3713 -1.3108
 8153SOL    HW235919   2.787   3.578   0.025  0.0776 -2.0854 -0.0222
 8154SOL     OW35920   1.737   4.103  16.327 -0.4155 -0.7208 -0.4219
 8154SOL    HW135921   1.747   4.039  16.257  1.7890  1.4889 -2.0859
 8154SOL    HW235922   1.685   4.169  16.281 -0.6486  0.1072  1.0185
 8155SOL     OW35923   2.987   1.584  11.374  0.0636 -0.4267 -0.0721
 8155SOL    HW135924   3.013   1.663  11.325 -0.0084  0.6822  1.7111
 8155SOL    HW235925   2.945   1.637  11.441  1.6205 -0.8475  1.2504
 8156SOL     OW35926   0.358   3.218   4.380 -0.0193 -0.2933  0.2531
 8156SOL    HW135927   0.418   3.205   4.453  0.6811 -1.2378 -0.5010
 8156SOL    HW235928   0.283   3.166   4.410 -0.1398 -1.2388 -1.6930
 8157SOL     OW35929   2.986   1.160  16.077  0.2487  0.5777 -0.2618
 8157SOL    HW135930   2.906   1.112  16.055  1.3939 -1.0209 -0.8531
 8157SOL    HW235931   2.991   1.145  16.171 -1.7308 -0.4083 -0.3100
 8158SOL     OW35932   1.875   1.058   6.173 -0.0422 -0.2338  0.4109
 8158SOL    HW135933   1.788   1.068   6.210 -0.1587  2.3878 -0.5350
 8158SOL    HW235934   1.870   1.129   6.108  0.3257  0.0897  0.7348
 8159SOL     OW35935   4.258   3.006   2.488  0.6359 -0.0866  0.4195
 8159SOL    HW135936   4.282   2.979   2.399 -1.3122  1.2064 -0.4962
 8159SOL    HW235937   4.162   3.012   2.483  0.4297 -2.8625  1.2262
 8160SOL     OW35938   0.586   1.796   0.318 -0.3114 -0.0235 -0.1099
 8160SOL    HW135939   0.610   1.707   0.292  0.1389  1.2969 -4.1681
 8160SOL    HW235940   0.674   1.832   0.316 -0.0387 -0.5493  1.9403
 8161SOL     OW35941   3.804   4.062  17.297  0.0480 -0.0856 -0.2959
 8161SOL    HW135942   3.726   4.116  17.289 -0.1472 -0.3467 -0.1478
 8161SOL    HW235943   3.844   4.084  17.213 -1.5429  3.1152 -0.2135
 8162SOL     OW35944   2.522   0.671   7.685 -0.5174  0.5696  0.0304
 8162SOL    HW135945   2.556   0.608   7.749  1.2927  0.3161 -1.1831
 8162SOL    HW235946   2.597   0.701   7.634 -1.0269  0.7563 -0.6049
 8163SOL     OW35947   4.267   3.338   7.506 -0.3678 -0.4847  0.0153
 8163SOL    HW135948   4.205   3.327   7.433  0.3696  0.9442 -0.8266
 8163SOL    HW235949   4.316   3.416   7.479 -2.2899  0.7986  0.2317
 8164SOL     OW35950   2.395   3.269   9.555 -0.1051 -0.1617  0.3026
 8164SOL    HW135951   2.456   3.342   9.567  1.1717 -1.4648  1.5465
 8164SOL    HW235952   2.324   3.301   9.610 -0.9965 -1.2495 -0.2229
 8165SOL     OW35953   2.853   0.346   0.744 -0.0656  0.2294  0.7403
 8165SOL    HW135954   2.768   0.310   0.718 -0.2915  2.0218 -1.0717
 8165SOL    HW235955   2.902   0.315   0.667 -0.1702 -0.8782  1.1327
 8166SOL     OW35956   0.268   3.558   8.489 -0.4231 -0.0464 -0.2594
 8166SOL    HW135957   0.323   3.601   8.423 -1.6870  0.2050 -1.1346
 8166SOL    HW235958   0.286   3.466   8.469  2.7522 -0.0128  2.3876
 8167SOL     OW35959   2.528   0.684   9.331 -0.3874 -0.6748  0.2927
 8167SOL    HW135960   2.586   0.660   9.403  0.1055  0.3009  0.2186
 8167SOL    HW235961   2.495   0.603   9.293 -0.8410  0.1324 -1.0282
 8168SOL     OW35962   2.157   2.836   9.589 -0.4478  0.3454  0.3453
 8168SOL    HW135963   2.063   2.820   9.595 -0.2876 -0.3348  1.0024
 8168SOL    HW235964   2.156   2.928   9.616 -0.5344 -0.1495  2.0143
 8169SOL     OW35965   3.765   0.429   0.175  0.2737  0.1220  0.0438
 8169SOL    HW135966   3.769   0.472   0.261 -0.7327 -1.1481  0.7151
 8169SOL    HW235967   3.854   0.400   0.156  0.1748  0.0978 -0.3832
 8170SOL     OW35968   3.765   0.821   7.020 -0.0151 -0.4102 -0.0552
 8170SOL    HW135969   3.797   0.898   6.974 -0.1441 -1.2712 -1.5743
 8170SOL    HW235970   3.673   0.824   6.993 -0.0924 -0.6986  0.1838
 8171SOL     OW35971   2.105   1.151   9.165 -0.1727  0.1224 -0.2638
 8171SOL    HW135972   2.120   1.064   9.202 -0.2033 -1.0975 -3.1290
 8171SOL    HW235973   2.175   1.172   9.104 -0.9434  2.3274 -0.3826
 8172SOL     OW35974   4.086   0.593   8.531  0.4438 -0.4857  0.5218
 8172SOL    HW135975   4.023   0.570   8.599 -0.7326 -1.9154 -1.0533
 8172SOL    HW235976   4.130   0.665   8.575 -0.8512  0.4806  0.2408
 8173SOL     OW35977   3.667   0.024   3.412  0.0503 -0.1147 -0.1456
 8173SOL    HW135978   3.729   4.675   3.400  0.6647  0.5067 -0.7283
 8173SOL    HW235979   3.722   0.091   3.453  0.3684  0.7038 -1.9173
 8174SOL     OW35980   0.455   0.364   5.270 -0.7173  0.0203 -0.3011
 8174SOL    HW135981   0.489   0.397   5.187 -0.0246 -2.0459 -0.8439
 8174SOL    HW235982   0.400   0.293   5.237  0.2888 -1.3703  0.9736
 8175SOL     OW35983   0.438   1.774   8.055 -0.0336  0.0288 -0.5700
 8175SOL    HW135984   0.393   1.766   8.140  0.8519  1.6893  0.0529
 8175SOL    HW235985   0.530   1.778   8.082 -0.3323  0.7942  0.3207
 8176SOL     OW35986   0.813   2.013   3.515 -0.2297 -0.0104 -0.2009
 8176SOL    HW135987   0.747   2.045   3.453  0.4259  1.6257 -0.0481
 8176SOL    HW235988   0.791   1.920   3.515  1.0623 -0.3034  1.6401
 8177SOL     OW35989   1.053   4.106   9.195 -0.3852  0.7134  0.2547
 8177SOL    HW135990   1.069   4.164   9.269 -1.5408 -1.2206  2.0084
 8177SOL    HW235991   1.063   4.160   9.117  0.7995  2.9130  1.9184
 8178SOL     OW35992   3.274   2.226   7.061  0.5972  0.0295  0.5320
 8178SOL    HW135993   3.204   2.162   7.075  0.9000 -0.3809  0.1836
 8178SOL    HW235994   3.303   2.201   6.973  0.5420 -1.5133  0.9464
 8179SOL     OW35995   1.492   1.170  12.987 -0.0277 -0.1781 -0.2629
 8179SOL    HW135996   1.496   1.081  12.952 -0.4122  0.1101 -1.0501
 8179SOL    HW235997   1.516   1.153  13.078 -1.1104  3.5161  0.7341
 8180SOL     OW35998   4.460   0.744   0.959 -0.4930  0.2843 -0.3823
 8180SOL    HW135999   4.498   0.663   0.923 -1.1275  0.0838 -0.5978
 8180SOL    HW236000   4.440   0.717   1.048  2.2804 -2.8617 -0.7037
 8181SOL     OW36001   3.888   4.712  14.886  0.3390 -0.4689  0.6045
 8181SOL    HW136002   3.878   4.624  14.923 -2.1099 -1.0969 -1.5249
 8181SOL    HW236003   3.798   0.015  14.904  0.7097  1.5823 -0.6290
 8182SOL     OW36004   3.641   3.175   3.702 -0.1061 -0.8603 -0.0859
 8182SOL    HW136005   3.610   3.265   3.713 -0.9656 -1.4253  2.1882
 8182SOL    HW236006   3.727   3.199   3.667 -0.4039 -1.3358 -1.1658
 8183SOL     OW36007   3.230   1.894   6.689  0.1656 -0.5209 -0.0258
 8183SOL    HW136008   3.205   1.811   6.729 -2.2776  0.9495  1.5325
 8183SOL    HW236009   3.159   1.901   6.625  0.3551  1.7804  0.0368
 8184SOL     OW36010   1.344   2.157   3.667  0.2057  0.2948  0.1600
 8184SOL    HW136011   1.261   2.186   3.629  0.3044 -2.3174 -1.9879
 8184SOL    HW236012   1.364   2.082   3.612  0.9529  1.9783 -1.8598
 8185SOL     OW36013   0.590   3.112  13.999  0.1807  0.5420  0.2765
 8185SOL    HW136014   0.672   3.150  13.969 -0.0108  0.8940  0.2050
 8185SOL    HW236015   0.554   3.172  14.065  0.7478 -0.4020  1.4566
 8186SOL     OW36016   4.287   2.172  10.960  0.3974  0.8218 -0.1948
 8186SOL    HW136017   4.252   2.110  11.025 -0.9572  1.6503 -0.1333
 8186SOL    HW236018   4.254   2.259  10.983 -0.5775  0.5494 -0.5586
 8187SOL     OW36019   1.000   2.912  10.629  0.1689 -0.2141 -0.2764
 8187SOL    HW136020   1.035   2.908  10.540 -0.2481 -0.4983 -0.4297
 8187SOL    HW236021   0.976   3.005  10.630  0.0100 -0.2512 -0.5057
 8188SOL     OW36022   1.178   4.592  15.881 -0.1978  0.1897  0.3295
 8188SOL    HW136023   1.142   4.527  15.941 -1.5969 -0.7367 -1.5156
 8188SOL    HW236024   1.204   4.535  15.809  0.0176  1.6386 -0.7494
 8189SOL     OW36025   3.158   1.934   3.106  0.0971 -0.0216  0.4332
 8189SOL    HW136026   3.251   1.956   3.106 -0.1387  0.9884 -0.6140
 8189SOL    HW236027   3.139   1.939   3.013  3.5510  3.0054 -0.0892
 8190SOL     OW36028   2.230   1.208   8.883  0.3783 -0.2738 -0.2738
 8190SOL    HW136029   2.140   1.196   8.853  0.7255 -1.4963 -0.8268
 8190SOL    HW236030   2.244   1.126   8.930 -0.5101 -1.1935 -1.6005
 8191SOL     OW36031   0.676   0.044  12.572  0.0715  0.1287  0.4500
 8191SOL    HW136032   0.690   4.677  12.601 -1.2031 -0.5677 -1.0712
 8191SOL    HW236033   0.678   0.027  12.478 -1.0090  0.3923  0.3819
 8192SOL     OW36034   2.227   0.535   7.937 -0.2914  0.3387  0.5197
 8192SOL    HW136035   2.166   0.607   7.952 -1.2399 -0.8122  2.1680
 8192SOL    HW236036   2.176   0.465   7.977  1.1610  0.7526  3.1129
 8193SOL     OW36037   3.415   4.173  12.458  0.4577 -0.0199  0.2415
 8193SOL    HW136038   3.419   4.079  12.471 -0.5366 -0.3258 -1.6639
 8193SOL    HW236039   3.410   4.218  12.542 -0.8650 -1.3547  0.8689
 8194SOL     OW36040   2.593   2.761  12.085  0.5908 -0.1615 -0.3195
 8194SOL    HW136041   2.675   2.796  12.051  1.7796 -1.4415  1.2523
 8194SOL    HW236042   2.560   2.712  12.010  0.0693 -1.1824  0.5672
 8195SOL     OW36043   2.606   1.142   7.502  0.3771 -0.7063  0.5082
 8195SOL    HW136044   2.578   1.217   7.554 -1.7053  0.9077 -2.9320
 8195SOL    HW236045   2.643   1.086   7.570  0.1247 -2.5149 -0.8538
 8196SOL     OW36046   3.337   3.905   3.714  0.2349  0.4222  0.4337
 8196SOL    HW136047   3.306   3.877   3.628  2.1120  1.2725 -0.5299
 8196SOL    HW236048   3.379   3.987   3.688  2.6317 -0.7325  0.6418
 8197SOL     OW36049   2.369   1.566   2.761 -0.3417 -0.0944  0.0348
 8197SOL    HW136050   2.418   1.567   2.843  0.1076 -0.2441 -0.2336
 8197SOL    HW236051   2.375   1.660   2.742 -0.8030 -0.0267  0.2095
 8198SOL     OW36052   1.498   2.724   5.517 -0.3750 -0.6840 -0.1791
 8198SOL    HW136053   1.549   2.790   5.469 -2.0202  2.0573  1.8069
 8198SOL    HW236054   1.473   2.659   5.451 -3.2508  0.4909 -0.2454
 8199SOL     OW36055   0.925   1.208   4.419  0.5279  0.7934  0.4260
 8199SOL    HW136056   0.995   1.273   4.423  0.9010  0.4135  0.0271
 8199SOL    HW236057   0.861   1.233   4.486 -0.7649 -0.2225 -0.4534
 8200SOL     OW36058   2.199   1.254   4.451  1.0690 -0.1788  0.2281
 8200SOL    HW136059   2.186   1.281   4.360  2.5428 -0.8186 -0.1778
 8200SOL    HW236060   2.138   1.181   4.454  3.2372 -1.9895  0.1927
 8201SOL     OW36061   2.174   0.271   9.981 -0.1450 -0.1817  0.4856
 8201SOL    HW136062   2.196   0.267   9.888  0.7128  0.1259  0.6785
 8201SOL    HW236063   2.250   0.311  10.023  0.2433  0.1448 -0.5399
 8202SOL     OW36064   0.014   2.200  16.507  0.1570 -0.6482  0.0886
 8202SOL    HW136065   4.688   2.118  16.497 -0.9702  0.0845 -0.3039
 8202SOL    HW236066   4.716   2.227  16.418 -0.8287  1.0529  0.8474
 8203SOL     OW36067   0.682   2.470   4.091 -0.1635  0.2340  0.3350
 8203SOL    HW136068   0.736   2.542   4.061  0.1668 -0.0198  0.3157
 8203SOL    HW236069   0.662   2.438   4.003 -0.5114  0.1679  0.4362
 8204SOL     OW36070   4.227   1.051   4.966  0.0812  0.3384  0.1878
 8204SOL    HW136071   4.311   1.007   4.975 -0.3436 -0.4981  0.0364
 8204SOL    HW236072   4.169   0.976   4.978 -0.0552  0.6471  1.4270
 8205SOL     OW36073   0.986   3.019   8.223  0.3933 -0.3037 -0.4301
 8205SOL    HW136074   0.982   2.927   8.247 -1.2691  0.0284  0.5789
 8205SOL    HW236075   0.891   3.032   8.220  0.1286 -1.9448  1.0169
 8206SOL     OW36076   2.810   1.827   5.204 -0.5395  0.0374  0.1348
 8206SOL    HW136077   2.796   1.823   5.110  2.3113 -1.7687 -0.2121
 8206SOL    HW236078   2.901   1.856   5.211 -0.3210 -1.0696  2.1817
 8207SOL     OW36079   2.350   0.608   2.680 -0.3368 -0.1580 -0.4788
 8207SOL    HW136080   2.362   0.691   2.634  2.3183 -1.5836 -2.3393
 8207SOL    HW236081   2.375   0.544   2.613  0.9132 -1.4861  1.2638
 8208SOL     OW36082   0.525   2.128  11.337 -0.6440  0.2835 -0.2791
 8208SOL    HW136083   0.459   2.180  11.383 -2.0775 -1.7183 -0.0846
 8208SOL    HW236084   0.477   2.130  11.254  1.9465  0.0265 -1.7972
 8209SOL     OW36085   3.190   3.618  16.625  0.0493 -0.2670  0.5692
 8209SOL    HW136086   3.233   3.646  16.544  1.6822 -0.7693  1.2808
 8209SOL    HW236087   3.138   3.695  16.650 -0.1851 -0.5921  1.0761
 8210SOL     OW36088   0.252   3.241   2.581 -0.2187 -0.4219  0.2969
 8210SOL    HW136089   0.169   3.209   2.616 -0.7259 -1.0540 -1.4633
 8210SOL    HW236090   0.275   3.169   2.523  1.2597  0.3871 -0.1089
 8211SOL     OW36091   2.948   3.325  10.348  0.1591  0.0648 -0.4734
 8211SOL    HW136092   2.999   3.388  10.297 -2.0881  1.6247 -0.8418
 8211SOL    HW236093   3.009   3.267  10.393 -2.5454 -2.0569  0.5047
 8212SOL     OW36094   2.739   3.812   2.626  0.4719 -0.1324  0.0606
 8212SOL    HW136095   2.750   3.717   2.613  0.3609  0.0141 -1.1094
 8212SOL    HW236096   2.676   3.843   2.561  0.6711 -2.5106 -1.2779
 8213SOL     OW36097   1.009   0.745   4.843 -0.0686 -0.0102 -0.3376
 8213SOL    HW136098   1.091   0.699   4.863 -0.1323 -0.0817 -0.2409
 8213SOL    HW236099   0.977   0.681   4.781  0.3258 -0.9297  0.4083
 8214SOL     OW36100   0.542   2.121   3.468 -0.6490  0.1083 -0.1670
 8214SOL    HW136101   0.525   2.036   3.509  1.5563 -0.9541 -1.4594
 8214SOL    HW236102   0.455   2.161   3.458 -1.1139 -1.1304 -1.0660
 8215SOL     OW36103   3.958   2.012   6.307 -0.4152  0.2702  0.0582
 8215SOL    HW136104   3.940   2.031   6.215 -0.9004  1.1262  0.3224
 8215SOL    HW236105   3.916   1.926   6.309  1.6273 -0.6526  3.9749
 8216SOL     OW36106   1.978   1.759  17.511 -0.3339  0.3343  0.1502
 8216SOL    HW136107   2.047   1.817  17.543 -0.3865  0.8014 -0.5828
 8216SOL    HW236108   2.005   1.674  17.546  0.1360  1.6335  2.9797
 8217SOL     OW36109   3.188   2.588   5.326  0.1964 -0.3178  0.0743
 8217SOL    HW136110   3.172   2.576   5.420 -3.2840 -1.6835 -0.6569
 8217SOL    HW236111   3.282   2.587   5.312  0.0780 -1.4308 -0.6539
 8218SOL     OW36112   0.333   1.700  17.568  0.6999  0.5412 -0.2675
 8218SOL    HW136113   0.410   1.645  17.586 -0.3772 -0.6819  0.6603
 8218SOL    HW236114   0.311   1.671  17.480 -0.6285  0.4480  0.0901
 8219SOL     OW36115   4.094   4.371  14.129  0.2593 -0.2408 -0.5174
 8219SOL    HW136116   4.166   4.376  14.191 -0.2652  2.5954 -0.1286
 8219SOL    HW236117   4.136   4.379  14.043 -0.0252 -1.5790 -0.7865
 8220SOL     OW36118   0.992   2.383  17.312  0.0257  0.2204 -0.1692
 8220SOL    HW136119   1.016   2.475  17.321 -2.0645  0.9355 -1.9173
 8220SOL    HW236120   1.027   2.354  17.228  0.2628  0.0442 -0.0089
 8221SOL     OW36121   1.375   1.678  11.976 -0.0933  0.5605  0.0626
 8221SOL    HW136122   1.308   1.679  12.045  1.4029  1.5279  1.4861
 8221SOL    HW236123   1.413   1.594  12.002 -0.1136  0.3537 -0.5885
 8222SOL     OW36124   2.166   4.581   7.295 -0.5496 -0.8803 -0.0604
 8222SOL    HW136125   2.199   4.553   7.381 -1.7319 -0.4305  0.5456
 8222SOL    HW236126   2.180   4.676   7.300  1.1619 -1.2332  2.0761
 8223SOL     OW36127   2.778   2.336   2.802 -0.0990 -0.0316  0.2915
 8223SOL    HW136128   2.748   2.371   2.719  0.9229 -0.2289 -0.1613
 8223SOL    HW236129   2.697   2.293   2.827 -0.0654 -1.2973 -1.8547
 8224SOL     OW36130   1.624   0.677  17.585 -0.5146 -0.2717  0.0415
 8224SOL    HW136131   1.645   0.655  17.494 -2.1436  1.2058 -0.6841
 8224SOL    HW236132   1.598   0.591  17.617 -0.1081 -0.6028 -0.5125
 8225SOL     OW36133   2.385   4.514   1.984 -0.2258 -0.0988 -0.4732
 8225SOL    HW136134   2.369   4.569   2.061  1.1217 -1.1799  0.6013
 8225SOL    HW236135   2.461   4.570   1.970 -0.7014  0.8594  0.8222
 8226SOL     OW36136   3.067   0.007  11.653  0.3325 -0.1515  0.3090
 8226SOL    HW136137   3.108   4.648  11.678  0.9008  0.1361  0.3289
 8226SOL    HW236138   2.983   4.706  11.615  0.8656  0.8302 -1.5012
 8227SOL     OW36139   2.240   2.795   9.319 -0.2076  0.1496 -0.1224
 8227SOL    HW136140   2.198   2.806   9.404 -0.1114 -3.0757  0.3237
 8227SOL    HW236141   2.324   2.755   9.341 -0.1072 -0.1146 -0.9565
 8228SOL     OW36142   2.152   2.164  17.664  0.0884 -0.3110 -0.0225
 8228SOL    HW136143   2.182   2.252  17.687 -0.2755  0.3745 -2.1954
 8228SOL    HW236144   2.060   2.181  17.683  0.4806  1.9172 -0.1162
 8229SOL     OW36145   1.676   0.888   7.715 -0.6004  0.1383 -0.1412
 8229SOL    HW136146   1.715   0.809   7.751  0.1264  1.1513  1.3130
 8229SOL    HW236147   1.755   0.934   7.685 -0.5168  0.3915  0.4624
 8230SOL     OW36148   4.444   1.698   6.311 -0.7001  0.1877 -0.3560
 8230SOL    HW136149   4.360   1.660   6.337 -1.2068  1.5532 -0.0109
 8230SOL    HW236150   4.429   1.709   6.217 -2.0856 -1.2548 -0.3002
 8231SOL     OW36151   2.016   1.250   4.910  0.2317 -0.2499  0.1447
 8231SOL    HW136152   2.102   1.221   4.939  0.4966 -0.0424 -0.4371
 8231SOL    HW236153   2.025   1.275   4.818 -0.5694 -0.2149  0.0681
 8232SOL     OW36154   1.457   0.066   8.501 -0.4851 -0.5227  0.1344
 8232SOL    HW136155   1.502   0.125   8.563  0.2600 -0.9423 -0.0023
 8232SOL    HW236156   1.386   0.123   8.473  0.7970 -1.0237 -4.0874
 8233SOL     OW36157   2.253   3.650   6.279 -0.0591  0.9142  0.4090
 8233SOL    HW136158   2.345   3.638   6.302  0.0503 -0.4051 -0.6992
 8233SOL    HW236159   2.219   3.616   6.361  0.4530  1.6506  0.9278
 8234SOL     OW36160   3.518   2.614   2.627  0.2598  0.2389 -0.0884
 8234SOL    HW136161   3.500   2.656   2.543  0.7984  2.1877  0.7702
 8234SOL    HW236162   3.614   2.612   2.635  0.3340 -1.5909 -1.3026
 8235SOL     OW36163   4.601   3.227   4.648 -0.1616 -0.0915  0.0847
 8235SOL    HW136164   4.690   3.221   4.683 -0.2042  2.0814  0.6142
 8235SOL    HW236165   4.579   3.140   4.616 -0.0224 -0.5578  1.2415
 8236SOL     OW36166   0.221   2.487   8.234  0.1667  0.7835  0.2316
 8236SOL    HW136167   0.182   2.572   8.258  1.5784  1.2158  1.0338
 8236SOL    HW236168   0.206   2.432   8.311  0.3447  0.9386  0.3775
 8237SOL     OW36169   2.185   0.395   6.829 -0.1230  0.0602 -0.0755
 8237SOL    HW136170   2.229   0.479   6.821  1.2773 -0.8647 -2.1241
 8237SOL    HW236171   2.120   0.418   6.895 -1.4658 -0.3656 -1.2299
 8238SOL     OW36172   3.677   2.060   7.162  0.3382  0.1475  0.8816
 8238SOL    HW136173   3.765   2.041   7.132  0.8068  0.1195  2.3120
 8238SOL    HW236174   3.625   2.066   7.081 -0.7663  0.6590  1.6232
 8239SOL     OW36175   0.183   0.249   1.985 -0.0791  0.0000  0.3900
 8239SOL    HW136176   0.125   0.322   2.007 -1.6399 -1.5981  1.6030
 8239SOL    HW236177   0.231   0.288   1.913 -1.0842  2.9654  1.3246
 8240SOL     OW36178   2.815   4.533   1.775 -0.2160  0.3834 -0.1658
 8240SOL    HW136179   2.893   4.569   1.733 -0.9972  1.0621 -1.0292
 8240SOL    HW236180   2.756   4.608   1.771 -1.1211 -0.3224  0.0693
 8241SOL     OW36181   0.548   3.882  11.769  0.0138 -0.0349 -0.0185
 8241SOL    HW136182   0.478   3.842  11.820  0.9833 -1.9771 -0.1842
 8241SOL    HW236183   0.596   3.805  11.739 -1.9268 -0.8810 -0.9802
 8242SOL     OW36184   0.565   3.259   8.067  0.0805  0.7033 -0.4357
 8242SOL    HW136185   0.520   3.177   8.050  2.0078 -0.4075 -0.2169
 8242SOL    HW236186   0.540   3.298   7.983  0.7943  0.5995 -0.6942
 8243SOL     OW36187   0.460   0.116   6.013  0.3056  0.1774  0.2805
 8243SOL    HW136188   0.431   0.150   5.928 -3.2043 -3.1159  0.1643
 8243SOL    HW236189   0.553   0.137   6.016  0.1885  0.4850  2.2901
 8244SOL     OW36190   1.589   4.513  16.815 -0.1240 -0.1296 -0.1533
 8244SOL    HW136191   1.617   4.569  16.888 -0.5662 -0.8940  0.6044
 8244SOL    HW236192   1.519   4.464  16.859 -2.3253  1.1502 -2.2070
 8245SOL     OW36193   3.499   3.597  13.240 -0.0972  0.0692 -0.4433
 8245SOL    HW136194   3.414   3.563  13.213  0.1976 -1.6578  0.8006
 8245SOL    HW236195   3.483   3.641  13.323 -0.6443  0.6777 -0.8665
 8246SOL     OW36196   2.352   0.939   2.385  0.3748 -0.1727 -0.1033
 8246SOL    HW136197   2.386   0.905   2.467 -1.6118 -2.1752 -0.1049
 8246SOL    HW236198   2.421   0.950   2.319 -0.6310 -1.8887 -1.4318
 8247SOL     OW36199   4.250   1.804   3.518  0.0271 -0.0109 -0.3261
 8247SOL    HW136200   4.343   1.821   3.530  0.0532  0.6206 -1.3962
 8247SOL    HW236201   4.235   1.828   3.426 -0.4397  2.0997  0.3099
 8248SOL     OW36202   1.209   2.973  17.068 -0.2663 -0.2550  0.3790
 8248SOL    HW136203   1.199   3.045  17.006 -0.4781  0.9617  1.8215
 8248SOL    HW236204   1.288   3.002  17.115  0.5806 -0.2453 -1.0631
 8249SOL     OW36205   2.125   3.196   3.235 -0.1367 -0.3667  0.3593
 8249SOL    HW136206   2.210   3.228   3.204  0.1372 -1.5527 -0.1096
 8249SOL    HW236207   2.066   3.259   3.194 -1.1817 -0.8166  1.1809
 8250SOL     OW36208   0.639   1.192   5.896 -0.5682 -0.8418 -0.6182
 8250SOL    HW136209   0.681   1.240   5.825 -1.4195 -0.4583 -0.8702
 8250SOL    HW236210   0.711   1.151   5.944  0.4677  0.4811 -1.0507
 8251SOL     OW36211   4.355   1.298   1.422  0.2873  0.1431  0.3639
 8251SOL    HW136212   4.400   1.364   1.475 -0.6883  0.7913  0.3634
 8251SOL    HW236213   4.392   1.318   1.336  1.5568 -0.9262  0.6565
 8252SOL     OW36214   0.452   1.826   6.235  0.1210  0.1833  0.9563
 8252SOL    HW136215   0.519   1.883   6.273 -1.0593  1.9621  0.3172
 8252SOL    HW236216   0.497   1.791   6.157  1.1601  1.4235  1.0061
 8253SOL     OW36217   1.294   3.716   5.757  0.3258 -0.3327 -0.5092
 8253SOL    HW136218   1.205   3.692   5.733  0.4649  0.2010 -1.5644
 8253SOL    HW236219   1.305   3.807   5.730  1.3227  0.4283  2.5354
 8254SOL     OW36220   3.138   4.617  10.809 -0.3416  0.2980  0.6664
 8254SOL    HW136221   3.121   4.697  10.858  1.9296  1.5275 -0.5650
 8254SOL    HW236222   3.099   4.548  10.862 -1.8913  0.3700 -0.3788
 8255SOL     OW36223   4.119   2.003  12.562 -0.3373  1.1307  0.1720
 8255SOL    HW136224   4.142   1.946  12.489 -1.5842  1.5370 -0.5411
 8255SOL    HW236225   4.024   2.004  12.551  0.0823  1.9239 -3.5699
 8256SOL     OW36226   0.908   0.408   8.198 -0.1106  0.1647  0.1309
 8256SOL    HW136227   0.975   0.474   8.180  0.2012  0.2658  1.6602
 8256SOL    HW236228   0.945   0.336   8.147 -0.8221  0.3891 -0.7150
 8257SOL     OW36229   1.726   3.579   9.533 -0.4968 -0.1834 -0.6373
 8257SOL    HW136230   1.691   3.491   9.550  0.2691 -0.6679 -1.5180
 8257SOL    HW236231   1.674   3.632   9.593 -1.1369  0.0810 -1.4271
 8258SOL     OW36232   2.644   2.382  10.731 -0.0880 -0.1843 -0.1020
 8258SOL    HW136233   2.720   2.345  10.687  0.2436  0.4224 -0.0455
 8258SOL    HW236234   2.676   2.390  10.821 -0.6511 -2.7240  0.2987
 8259SOL     OW36235   4.148   3.055  13.237 -0.4480 -0.7208  0.0092
 8259SOL    HW136236   4.082   3.045  13.168 -0.8637 -0.4675  0.3695
 8259SOL    HW236237   4.228   3.075  13.188 -0.8736  0.2517 -0.2765
 8260SOL     OW36238   2.925   1.628   0.971  0.3952 -0.0732  0.1087
 8260SOL    HW136239   2.980   1.659   0.898 -2.1586  3.3816 -0.3293
 8260SOL    HW236240   2.992   1.589   1.028  1.4157 -0.1147 -1.1181
 8261SOL     OW36241   4.523   4.441  15.964 -0.1180 -0.1624  0.2344
 8261SOL    HW136242   4.538   4.388  16.042 -0.9024 -1.0473 -0.2108
 8261SOL    HW236243   4.446   4.487  15.998 -0.5124 -0.0029 -0.8732
 8262SOL     OW36244   3.097   4.486  11.946 -0.6931  0.1512  0.4610
 8262SOL    HW136245   3.107   4.457  12.037 -5.0077 -0.4689  0.7315
 8262SOL    HW236246   3.161   4.556  11.958 -3.1830  2.2565  1.2188
 8263SOL     OW36247   0.224   3.047   8.977  0.5630  0.3853 -0.0776
 8263SOL    HW136248   0.171   2.987   8.924  0.0259  1.4446 -0.7424
 8263SOL    HW236249   0.164   3.119   8.995 -1.0090 -0.6417 -1.1638
 8264SOL     OW36250   1.012   0.488   3.022 -0.4100  0.1787  0.4016
 8264SOL    HW136251   1.091   0.499   3.075 -0.9134 -0.8901  1.3695
 8264SOL    HW236252   1.055   0.439   2.952  0.1294  2.2683 -0.7171
 8265SOL     OW36253   2.437   2.107   3.841  0.2030  0.2404 -0.6255
 8265SOL    HW136254   2.445   2.163   3.919 -2.0860  1.8329 -1.5245
 8265SOL    HW236255   2.496   2.155   3.784  0.7947 -0.4187 -0.5588
 8266SOL     OW36256   2.118   3.904   7.416 -0.3181 -0.7924  0.0892
 8266SOL    HW136257   2.062   3.827   7.419  0.5765 -1.4089  0.6375
 8266SOL    HW236258   2.053   3.967   7.449 -0.6300 -0.8048 -0.4913
 8267SOL     OW36259   2.382   3.065   2.899 -0.2087 -0.0626 -0.2805
 8267SOL    HW136260   2.333   3.037   2.821  1.7052  0.3875 -1.6459
 8267SOL    HW236261   2.375   2.985   2.950 -2.1740  2.1200  2.8915
 8268SOL     OW36262   2.577   4.469  13.636 -0.1873  0.2432  0.6054
 8268SOL    HW136263   2.495   4.517  13.644 -0.5359 -0.0759 -1.0201
 8268SOL    HW236264   2.633   4.537  13.596 -0.8884 -0.8049 -2.1603
 8269SOL     OW36265   4.453   3.759  12.677 -0.1580 -0.1846  0.2016
 8269SOL    HW136266   4.443   3.755  12.582  0.8437 -0.2686  0.0978
 8269SOL    HW236267   4.501   3.681  12.706  1.5710  1.2022  1.0397
 8270SOL     OW36268   0.181   3.699  11.578 -0.2572 -0.3107  0.6147
 8270SOL    HW136269   0.209   3.621  11.531 -0.4637 -1.0225  1.6623
 8270SOL    HW236270   0.237   3.699  11.656 -1.0548 -2.2976  1.1685
 8271SOL     OW36271   0.389   1.895   0.048 -0.2951 -0.1605 -0.1352
 8271SOL    HW136272   0.418   1.950  17.673  0.0044 -0.8394 -0.5386
 8271SOL    HW236273   0.335   1.833  17.695  0.5420 -2.1926  1.4616
 8272SOL     OW36274   3.805   3.246   2.385  0.3014 -0.0762 -0.4824
 8272SOL    HW136275   3.779   3.282   2.469  2.8348 -1.2511  0.8186
 8272SOL    HW236276   3.873   3.313   2.372 -0.5912  1.0275  0.5322
 8273SOL     OW36277   3.834   3.914   3.480 -0.1763  0.3523 -0.2520
 8273SOL    HW136278   3.865   3.905   3.570  0.7053  0.5889 -0.5261
 8273SOL    HW236279   3.897   3.981   3.451 -0.7146  1.0541  0.1825
 8274SOL     OW36280   4.542   2.378  17.186  0.6026  0.0358 -0.1887
 8274SOL    HW136281   4.501   2.464  17.179 -0.2473 -0.1753  2.1550
 8274SOL    HW236282   4.622   2.417  17.223 -0.2387  1.1320  0.4587
 8275SOL     OW36283   2.975   1.973   2.207 -0.6074 -0.7897  0.1120
 8275SOL    HW136284   3.057   1.938   2.240  0.2005  0.2817 -0.7498
 8275SOL    HW236285   3.008   2.052   2.164 -0.9193 -1.0461 -0.6140
 8276SOL     OW36286   3.190   1.881   1.771 -0.2111 -0.4960 -0.0146
 8276SOL    HW136287   3.103   1.891   1.733 -0.7938  1.0046  1.6915
 8276SOL    HW236288   3.185   1.953   1.834 -1.4138 -0.5678 -0.0263
 8277SOL     OW36289   0.654   4.216   6.592 -0.1480 -0.0300  0.0742
 8277SOL    HW136290   0.611   4.273   6.529  1.4770  0.0028 -1.0167
 8277SOL    HW236291   0.630   4.126   6.571 -0.4040 -0.9976  4.6045
 8278SOL     OW36292   1.333   3.721   7.195  0.1513 -0.3646 -0.6211
 8278SOL    HW136293   1.252   3.771   7.194  0.3428 -0.0079  1.6869
 8278SOL    HW236294   1.384   3.784   7.245  0.6529  0.2094 -1.8484
 8279SOL     OW36295   0.856   2.202  16.091  0.1735  0.3487  0.1525
 8279SOL    HW136296   0.772   2.201  16.137  0.4337 -1.8045  0.6138
 8279SOL    HW236297   0.921   2.228  16.156 -0.6783 -0.6987  1.4421
 8280SOL     OW36298   3.586   0.749   7.464  0.6314 -0.3086  0.2181
 8280SOL    HW136299   3.669   0.714   7.494  0.4803  1.6952  2.9807
 8280SOL    HW236300   3.583   0.735   7.369  2.2238 -0.2498  0.1638
 8281SOL     OW36301   3.187   0.258   4.541  0.8051 -0.3068  0.4261
 8281SOL    HW136302   3.115   0.321   4.544 -1.0903 -2.3546 -1.8931
 8281SOL    HW236303   3.174   0.224   4.629  2.5246 -2.0924 -0.0282
 8282SOL     OW36304   2.217   2.610   3.422  0.0624  0.1992  0.4104
 8282SOL    HW136305   2.150   2.548   3.394  0.2197 -1.1160  2.9354
 8282SOL    HW236306   2.266   2.635   3.344  1.5924 -0.2492  1.2411
 8283SOL     OW36307   0.220   3.775   8.765  0.5029 -0.1647  0.2530
 8283SOL    HW136308   0.314   3.771   8.781  0.8248 -1.3893 -1.8252
 8283SOL    HW236309   0.197   3.790   8.856  0.9282 -0.9696  0.4919
 8284SOL     OW36310   3.869   1.669   8.874 -0.3437  0.1459 -0.0957
 8284SOL    HW136311   3.818   1.645   8.796 -0.5979 -0.8324  0.3695
 8284SOL    HW236312   3.908   1.752   8.849 -0.3784 -0.2549 -1.4830
 8285SOL     OW36313   1.778   1.272   9.893  0.4346  0.3331 -0.3173
 8285SOL    HW136314   1.684   1.292   9.895  0.9028  2.3907  1.3525
 8285SOL    HW236315   1.801   1.321   9.971  1.1308  1.7019 -1.3732
 8286SOL     OW36316   1.650   0.552   8.634 -0.1056  0.3795  0.0090
 8286SOL    HW136317   1.682   0.507   8.713 -0.4000  2.2097  1.1675
 8286SOL    HW236318   1.673   0.644   8.650  2.8428 -0.0660 -1.6485
 8287SOL     OW36319   3.797   2.303   0.164  0.5602 -0.4434  0.2893
 8287SOL    HW136320   3.780   2.327   0.073 -0.6090  0.3745  0.7349
 8287SOL    HW236321   3.885   2.269   0.147  0.8740  1.1006 -1.2244
 8288SOL     OW36322   2.532   3.130   3.283 -0.0457 -0.2739 -0.1135
 8288SOL    HW136323   2.458   3.167   3.236 -0.2191 -1.1873 -0.5595
 8288SOL    HW236324   2.607   3.160   3.231  1.4963 -4.4996 -0.3221
 8289SOL     OW36325   0.252   0.414  11.528 -0.1604  0.3033  0.0807
 8289SOL    HW136326   0.214   0.429  11.614  0.3507 -0.1407  0.3871
 8289SOL    HW236327   0.168   0.439  11.489 -0.3024  0.4716  0.4968
 8290SOL     OW36328   4.315   2.149   8.122 -0.1278  0.1318  0.4256
 8290SOL    HW136329   4.399   2.160   8.077 -1.4133 -0.2246 -2.0512
 8290SOL    HW236330   4.278   2.235   8.100  0.6838  0.7587  1.5029
 8291SOL     OW36331   1.517   0.673   6.096 -0.1072  0.2257  0.1860
 8291SOL    HW136332   1.440   0.729   6.103 -1.5733 -1.6370 -1.1856
 8291SOL    HW236333   1.512   0.628   6.012  0.8566  1.6905 -0.6432
 8292SOL     OW36334   3.446   0.495   5.993  0.8390  0.0908  0.1758
 8292SOL    HW136335   3.533   0.525   6.016  0.0892  1.1330  1.6553
 8292SOL    HW236336   3.397   0.564   6.039 -0.5012 -0.0179 -1.0895
 8293SOL     OW36337   1.023   3.897  10.926  0.5152 -0.2649  0.3819
 8293SOL    HW136338   0.955   3.838  10.960 -0.5779 -0.3098 -1.9000
 8293SOL    HW236339   1.094   3.835  10.915  0.0389 -0.8201  0.4564
 8294SOL     OW36340   1.805   0.145   5.245  1.1671  0.1405  0.3754
 8294SOL    HW136341   1.835   0.184   5.163 -0.2625  0.1533 -0.1427
 8294SOL    HW236342   1.779   0.217   5.302  0.7365  0.9652 -0.8681
 8295SOL     OW36343   0.742   2.756  14.377 -0.1011 -0.4061 -0.1580
 8295SOL    HW136344   0.712   2.687  14.318  3.0578 -2.1092  0.2349
 8295SOL    HW236345   0.657   2.787  14.407 -0.1171  0.4033 -1.0881
 8296SOL     OW36346   0.323   1.713   4.436  0.3098  0.9816  0.3244
 8296SOL    HW136347   0.348   1.680   4.350 -1.0915 -0.7375  0.5773
 8296SOL    HW236348   0.362   1.800   4.438  1.2029  0.6111 -1.0961
 8297SOL     OW36349   3.680   3.242   7.477 -0.5091  0.4730  0.6816
 8297SOL    HW136350   3.667   3.155   7.437  1.5096 -0.0680  1.2057
 8297SOL    HW236351   3.699   3.227   7.569  0.4053  0.9207  0.5693
 8298SOL     OW36352   3.870   0.315   0.646  0.5711  0.0498 -0.3229
 8298SOL    HW136353   3.937   0.309   0.578  1.4498  1.3570  0.4234
 8298SOL    HW236354   3.819   0.380   0.596 -0.5669  0.1168  0.9230
 8299SOL     OW36355   2.910   4.203  10.518  0.0343  0.0111  0.1930
 8299SOL    HW136356   2.920   4.108  10.528  1.3649  0.3169  1.7783
 8299SOL    HW236357   2.845   4.195  10.449 -1.9543 -0.2787  2.1024
 8300SOL     OW36358   2.541   1.178  15.188 -0.2591  0.2453 -0.2119
 8300SOL    HW136359   2.551   1.118  15.113  0.5150  0.8482 -0.5860
 8300SOL    HW236360   2.472   1.131  15.236  0.7389  0.5717  1.5018
 8301SOL     OW36361   1.755   4.623   3.889  0.5258 -0.1999 -0.6484
 8301SOL    HW136362   1.708   4.578   3.819 -0.8808  0.2959 -0.0146
 8301SOL    HW236363   1.823   4.667   3.839  1.5169 -1.2298 -0.2108
 8302SOL     OW36364   3.596   3.249   9.309  0.7744  0.3977 -0.4274
 8302SOL    HW136365   3.514   3.202   9.324  2.1463 -1.3066  1.6808
 8302SOL    HW236366   3.610   3.305   9.386 -1.6314  1.2735 -0.6019
 8303SOL     OW36367   2.028   0.861   6.048  0.5212 -0.0557  0.5696
 8303SOL    HW136368   2.000   0.909   5.970 -5.4906 -1.5528  1.7683
 8303SOL    HW236369   1.969   0.901   6.113  1.4882 -1.3327  2.2383
 8304SOL     OW36370   0.556   3.328   9.489  0.1622  0.2289  0.2473
 8304SOL    HW136371   0.558   3.378   9.408 -0.1904 -1.1630 -0.6334
 8304SOL    HW236372   0.648   3.323   9.514  0.8595  0.4010 -2.3051
 8305SOL     OW36373   1.618   2.516   3.877 -0.0916  0.7044 -0.0574
 8305SOL    HW136374   1.625   2.504   3.972 -1.3844  0.6144  0.0287
 8305SOL    HW236375   1.591   2.426   3.855 -1.5672  1.7542 -2.5026
 8306SOL     OW36376   1.454   1.310   2.348 -0.1366  0.1194  0.9829
 8306SOL    HW136377   1.406   1.248   2.403 -0.3625 -2.0836 -1.7066
 8306SOL    HW236378   1.536   1.315   2.396  1.8365 -1.1938 -2.2807
 8307SOL     OW36379   1.351   4.608   4.272  0.6082 -0.0057  0.3537
 8307SOL    HW136380   1.427   4.567   4.232  0.5422 -0.8807  1.1226
 8307SOL    HW236381   1.376   4.701   4.270 -1.7979  0.6577  0.6395
 8308SOL     OW36382   4.057   3.080   6.678  0.7434  0.0307  0.1142
 8308SOL    HW136383   4.130   3.079   6.615 -1.7614  0.2803 -2.7587
 8308SOL    HW236384   3.998   3.023   6.628 -0.8492 -0.2374  2.3262
 8309SOL     OW36385   3.116   0.443   2.801 -0.2531 -0.0262 -0.1196
 8309SOL    HW136386   3.077   0.527   2.825 -1.6999 -1.2986  1.9604
 8309SOL    HW236387   3.072   0.422   2.718  0.0572  0.9037 -0.5092
 8310SOL     OW36388   1.271   4.558  13.688 -0.1690 -0.2118  0.2735
 8310SOL    HW136389   1.249   4.641  13.730 -1.2338 -0.6496  0.5880
 8310SOL    HW236390   1.247   4.587  13.600  0.1003 -2.8373 -0.6711
 8311SOL     OW36391   3.874   1.454   6.799  0.0960 -0.1323 -0.0419
 8311SOL    HW136392   3.843   1.364   6.795 -0.0419  0.0328 -2.7529
 8311SOL    HW236393   3.802   1.508   6.766  0.9428  1.3516  0.5049
 8312SOL     OW36394   2.741   0.620  16.802  0.1907  0.0401  0.0988
 8312SOL    HW136395   2.799   0.665  16.864 -1.0470  0.6233  0.8301
 8312SOL    HW236396   2.759   0.648  16.712  0.7288 -1.4366 -0.2557
 8313SOL     OW36397   2.061   3.768   9.724 -0.3461 -0.0289 -0.1571
 8313SOL    HW136398   1.980   3.763   9.775  1.3181 -2.6018  2.2605
 8313SOL    HW236399   2.081   3.674   9.719 -1.0208 -0.2395  1.1737
 8314SOL     OW36400   2.380   1.831  13.781 -0.1117 -0.8121 -0.2084
 8314SOL    HW136401   2.307   1.772  13.761  0.2598 -1.0508 -0.8493
 8314SOL    HW236402   2.341   1.919  13.785 -2.0309 -1.7554  1.8366
 8315SOL     OW36403   2.828   2.710   2.617 -0.0792 -0.0710 -0.8717
 8315SOL    HW136404   2.789   2.705   2.530 -2.4187  1.1099  0.1066
 8315SOL    HW236405   2.844   2.803   2.633 -1.5939  0.3301 -1.6947
 8316SOL     OW36406   4.395   1.608   0.365 -0.5844 -0.9299  0.0598
 8316SOL    HW136407   4.388   1.525   0.411  0.5793 -1.3363 -0.4715
 8316SOL    HW236408   4.390   1.665   0.442 -0.8514  0.6313 -1.0965
 8317SOL     OW36409   4.131   0.210  12.049  0.4863  0.1518 -0.8477
 8317SOL    HW136410   4.145   0.143  12.116 -1.8018  3.1424  2.6123
 8317SOL    HW236411   4.038   0.195  12.035 -0.1585  1.2642  2.2722
 8318SOL     OW36412   0.199   4.388  14.082 -0.0108 -0.3205  0.0171
 8318SOL    HW136413   0.144   4.462  14.059  1.4067  0.8534  0.4270
 8318SOL    HW236414   0.265   4.427  14.140 -1.5534  1.8985  0.2501
 8319SOL     OW36415   4.473   0.709   2.787 -0.1438  0.4154  0.2735
 8319SOL    HW136416   4.485   0.706   2.692 -0.5665 -0.7194  0.2512
 8319SOL    HW236417   4.401   0.770   2.795 -0.3222  0.3198 -0.5480
 8320SOL     OW36418   4.579   2.661   2.889 -0.5904 -0.3663 -0.4899
 8320SOL    HW136419   4.630   2.583   2.873  0.9863  0.5166  0.2906
 8320SOL    HW236420   4.617   2.705   2.965 -0.8175 -2.8562  1.0571
 8321SOL     OW36421   4.639   0.920   8.786 -0.6484 -0.3348  0.3492
 8321SOL    HW136422   4.614   0.998   8.835 -2.0618 -0.4880 -0.1193
 8321SOL    HW236423   4.624   0.964   8.702  1.9346 -0.3447 -0.1048
 8322SOL     OW36424   0.336   3.261  13.485  0.8176 -0.0674 -0.3072
 8322SOL    HW136425   0.263   3.303  13.439  0.4882  3.6118  3.5267
 8322SOL    HW236426   0.408   3.302  13.437  0.7125  0.0384 -0.3732
 8323SOL     OW36427   3.703   2.882   1.119  0.0007  0.7258 -0.1923
 8323SOL    HW136428   3.736   2.908   1.205  2.6360 -3.3525  0.0407
 8323SOL    HW236429   3.656   2.963   1.097 -0.3197  1.1712  2.0345
 8324SOL     OW36430   3.055   3.378   9.342 -0.1631  0.4131  0.0358
 8324SOL    HW136431   3.012   3.398   9.259  1.5308  0.5909 -0.7934
 8324SOL    HW236432   3.048   3.460   9.393  1.5528  0.3071  0.4536
 8325SOL     OW36433   2.690   0.894  11.298 -0.2201  1.3757 -0.0541
 8325SOL    HW136434   2.706   0.975  11.250  2.2711  1.1660  0.4630
 8325SOL    HW236435   2.616   0.910  11.357 -0.0456 -0.2760  0.6329
 8326SOL     OW36436   3.220   1.998   3.679 -0.0428 -0.1720 -0.2053
 8326SOL    HW136437   3.129   2.005   3.650 -0.2627  1.7941  0.9586
 8326SOL    HW236438   3.256   1.935   3.618 -1.0849 -0.6494 -0.3325
 8327SOL     OW36439   3.488   0.551   6.762  0.8589  0.0139  0.0368
 8327SOL    HW136440   3.441   0.476   6.798 -1.0556  1.2399  0.0451
 8327SOL    HW236441   3.472   0.546   6.668 -0.5325 -0.8200  0.3227
 8328SOL     OW36442   1.463   3.690   2.384 -0.8318 -0.2741 -0.2097
 8328SOL    HW136443   1.390   3.661   2.438 -0.9291 -0.9945 -0.7310
 8328SOL    HW236444   1.530   3.718   2.445 -0.1445 -0.1030 -1.0370
 8329SOL     OW36445   2.859   3.892   4.371  0.1540 -0.3377  0.2501
 8329SOL    HW136446   2.774   3.889   4.415  0.8358 -1.0066  1.5377
 8329SOL    HW236447   2.901   3.814   4.407  0.9173  1.0763  2.4527
 8330SOL     OW36448   0.177   2.177   5.853  0.3630 -0.2469  0.1160
 8330SOL    HW136449   0.162   2.217   5.767  0.5084 -0.4989 -0.0257
 8330SOL    HW236450   0.097   2.212   5.892  0.7563  0.7848 -0.0054
 8331SOL     OW36451   1.620   1.522   2.046  0.0306  0.1367 -0.0780
 8331SOL    HW136452   1.537   1.557   2.079  0.7001  0.6031  1.1090
 8331SOL    HW236453   1.606   1.464   1.971 -2.5801  0.3035  0.2712
 8332SOL     OW36454   1.702   2.096   8.073 -0.2870  0.4917  0.6200
 8332SOL    HW136455   1.790   2.059   8.058 -0.9408 -0.6946 -0.2930
 8332SOL    HW236456   1.715   2.181   8.031 -0.3987  0.2703  0.1438
 8333SOL     OW36457   4.301   0.396   6.058  0.1097  0.2271  0.5464
 8333SOL    HW136458   4.328   0.488   6.056  2.0580 -0.3708 -0.0161
 8333SOL    HW236459   4.250   0.412   5.979  0.3803  0.6286  0.4519
 8334SOL     OW36460   4.037   3.686   9.735  0.3861  0.2826 -0.4644
 8334SOL    HW136461   4.012   3.632   9.660 -2.0247 -0.9076  1.1664
 8334SOL    HW236462   3.989   3.641   9.805  1.3478  0.0164  0.0235
 8335SOL     OW36463   3.096   1.935  10.726 -0.1816 -0.8418 -0.0192
 8335SOL    HW136464   3.129   2.025  10.733 -0.9512 -0.4901 -0.9003
 8335SOL    HW236465   3.044   1.927  10.805  0.6851 -1.5082  0.4748
 8336SOL     OW36466   0.922   1.877   0.715  0.1200  0.0691 -0.1066
 8336SOL    HW136467   0.848   1.819   0.697 -1.0770  1.2510  0.9912
 8336SOL    HW236468   0.927   1.879   0.811 -2.5542  0.0767  0.0227
 8337SOL     OW36469   0.963   0.848  12.171 -0.7779 -0.1019  0.4957
 8337SOL    HW136470   1.023   0.918  12.144 -0.0358 -0.7770  0.3828
 8337SOL    HW236471   1.015   0.794  12.231  0.1985  0.0765 -0.1801
 8338SOL     OW36472   3.434   3.232   3.061 -0.5185  0.2176  0.1670
 8338SOL    HW136473   3.446   3.239   3.155 -3.0012 -1.8260  0.6326
 8338SOL    HW236474   3.397   3.144   3.053 -2.7843  0.8261  4.1581
 8339SOL     OW36475   2.691   3.221   1.269  0.3275  0.2936  0.2924
 8339SOL    HW136476   2.667   3.156   1.334  1.2410 -3.1335 -2.7974
 8339SOL    HW236477   2.660   3.304   1.306 -1.9927 -1.5367  2.4295
 8340SOL     OW36478   3.713   0.496   4.102 -0.1043  0.4173 -0.4907
 8340SOL    HW136479   3.722   0.566   4.166 -0.2461  1.2312 -1.3597
 8340SOL    HW236480   3.618   0.484   4.096 -0.2093  0.3109  1.3366
 8341SOL     OW36481   1.607   1.669   7.349 -0.6582  0.3502  0.5925
 8341SOL    HW136482   1.601   1.748   7.402  0.9174  0.1632  1.0566
 8341SOL    HW236483   1.529   1.620   7.376 -0.8189  1.0718  1.4403
 8342SOL     OW36484   1.207   4.572   5.974  0.0368  0.6625  0.2712
 8342SOL    HW136485   1.233   4.647   5.922 -1.6488  0.6138 -0.6353
 8342SOL    HW236486   1.111   4.576   5.972 -0.1315 -2.6525  1.4542
 8343SOL     OW36487   3.709   3.643   6.327  0.5792  0.0889  0.2962
 8343SOL    HW136488   3.735   3.561   6.368  2.9108  0.8368  0.3596
 8343SOL    HW236489   3.723   3.709   6.395  1.7882  1.8187 -1.6186
 8344SOL     OW36490   3.367   2.439   7.825  0.4150 -0.1328  0.2867
 8344SOL    HW136491   3.412   2.429   7.908 -2.1060  2.6108  1.9698
 8344SOL    HW236492   3.363   2.348   7.795 -2.7393  0.7176 -1.9486
 8345SOL     OW36493   1.378   2.672   7.020  0.7010 -0.0172 -0.3242
 8345SOL    HW136494   1.308   2.607   7.026  0.6170 -0.0711 -1.6944
 8345SOL    HW236495   1.353   2.707   7.105  1.1670  0.2419 -0.2954
 8346SOL     OW36496   2.757   0.594   4.341 -0.1216 -0.4635 -0.2170
 8346SOL    HW136497   2.681   0.557   4.297 -0.3400 -0.8193  0.4602
 8346SOL    HW236498   2.743   0.563   4.431  2.8090  0.4417  0.5622
 8347SOL     OW36499   2.709   2.307  15.504  0.3921  0.6765  0.3981
 8347SOL    HW136500   2.675   2.234  15.556 -2.9603  2.9518  1.4029
 8347SOL    HW236501   2.641   2.320  15.438  1.9064 -0.3600 -1.3799
 8348SOL     OW36502   2.585   2.800   1.646  0.0763  0.4202  0.3299
 8348SOL    HW136503   2.632   2.851   1.711  0.2743 -1.0822  1.3644
 8348SOL    HW236504   2.630   2.822   1.564 -0.9357  2.7030  0.3994
 8349SOL     OW36505   4.478   3.445   6.295 -0.1051  0.0532  0.8788
 8349SOL    HW136506   4.489   3.536   6.320  1.6203 -0.6604  2.6422
 8349SOL    HW236507   4.569   3.416   6.305  0.1420 -0.4667 -2.8906
 8350SOL     OW36508   1.647   1.715   2.492 -0.1427 -0.0713  0.2105
 8350SOL    HW136509   1.676   1.743   2.406  0.4279 -0.3802  0.2980
 8350SOL    HW236510   1.730   1.718   2.541  0.4798 -0.5039 -0.8266
 8351SOL     OW36511   3.497   3.526   4.656 -0.4438 -0.4674  0.6016
 8351SOL    HW136512   3.569   3.570   4.701 -1.3605  0.6347  1.0053
 8351SOL    HW236513   3.464   3.598   4.602 -0.8574 -1.0800  0.0428
 8352SOL     OW36514   1.066   3.331   8.403 -0.1517 -0.0533 -0.0217
 8352SOL    HW136515   1.065   3.275   8.325  0.3457  0.2456 -0.2376
 8352SOL    HW236516   1.108   3.410   8.369 -1.3249 -0.1934 -1.7891
 8353SOL     OW36517   2.165   4.524   4.325 -0.0865 -0.2352  0.1524
 8353SOL    HW136518   2.107   4.601   4.332  1.1170  0.4456  2.7023
 8353SOL    HW236519   2.128   4.482   4.248  0.0184  0.1858 -0.1245
 8354SOL     OW36520   0.639   3.110   6.999 -0.0708  0.0085  0.1590
 8354SOL    HW136521   0.544   3.116   6.986 -0.0543  1.1379  0.6093
 8354SOL    HW236522   0.666   3.067   6.918  1.1288  0.9837  0.0447
 8355SOL     OW36523   3.929   2.899  12.656  0.8959  0.1900 -0.0827
 8355SOL    HW136524   3.938   2.810  12.691 -1.7643 -1.2434 -2.9795
 8355SOL    HW236525   3.878   2.945  12.723  1.9090  0.8540  0.2284
 8356SOL     OW36526   0.238   1.022  15.748 -0.1687  0.4326  0.1498
 8356SOL    HW136527   0.236   1.040  15.654 -0.1696 -0.1838  0.0277
 8356SOL    HW236528   0.216   0.929  15.746  0.3231  0.3077  0.6556
 8357SOL     OW36529   1.208   3.736  13.532  0.1755  0.4397  0.6661
 8357SOL    HW136530   1.267   3.662  13.549  0.0317  0.4398  1.1805
 8357SOL    HW236531   1.245   3.784  13.459 -0.1803 -0.0053  0.1929
 8358SOL     OW36532   4.165   2.091   8.909 -0.1383 -0.5980 -0.1918
 8358SOL    HW136533   4.209   2.027   8.965  1.1826 -0.0549 -0.6120
 8358SOL    HW236534   4.224   2.108   8.836 -2.0388 -0.2222 -1.6454
 8359SOL     OW36535   1.636   1.926   5.580 -0.0888  0.2274 -0.5813
 8359SOL    HW136536   1.629   1.985   5.505 -2.1098  0.5659 -0.1381
 8359SOL    HW236537   1.718   1.938   5.628 -1.9333 -0.7969  2.8521
 8360SOL     OW36538   2.662   3.040  10.785 -0.7401  0.2468 -0.1269
 8360SOL    HW136539   2.597   2.970  10.779  2.1859 -2.4266 -0.6752
 8360SOL    HW236540   2.683   3.068  10.696 -0.8624 -1.9632 -0.8728
 8361SOL     OW36541   3.127   3.555  10.400  0.3811 -0.2290  0.0200
 8361SOL    HW136542   3.049   3.599  10.365 -1.1256 -2.2605  0.8563
 8361SOL    HW236543   3.174   3.635  10.424  0.3998 -0.4743  0.8100
 8362SOL     OW36544   4.068   3.663  10.380  0.2533 -0.2737  0.8598
 8362SOL    HW136545   4.104   3.724  10.316  1.3019 -1.0881  0.6830
 8362SOL    HW236546   3.975   3.663  10.358  0.6654  0.8346 -0.8085
 8363SOL     OW36547   0.058   1.141  12.072  0.3248  1.0663 -0.0949
 8363SOL    HW136548   4.696   1.106  12.050 -1.0385  3.4357  1.4169
 8363SOL    HW236549   0.072   1.090  12.151 -2.4309  0.0261 -0.2991
 8364SOL     OW36550   2.623   0.778   6.164 -0.5904 -0.3511 -0.0186
 8364SOL    HW136551   2.660   0.721   6.231  1.1082 -0.3331 -0.9316
 8364SOL    HW236552   2.641   0.720   6.090 -1.0192 -1.5159  0.8062
 8365SOL     OW36553   0.784   3.527   4.146 -0.1154 -0.4092  0.2046
 8365SOL    HW136554   0.838   3.451   4.166 -0.4368 -0.9703 -1.0697
 8365SOL    HW236555   0.758   3.559   4.232 -0.2252 -1.3560  0.5221
 8366SOL     OW36556   2.750   3.224   5.930 -0.6304 -0.4866 -0.0474
 8366SOL    HW136557   2.765   3.170   6.008  0.0503  0.2308  0.3106
 8366SOL    HW236558   2.734   3.308   5.973  0.4220 -0.0169 -0.5748
 8367SOL     OW36559   1.583   1.484  12.687 -0.1653  0.4090  0.4339
 8367SOL    HW136560   1.491   1.457  12.687  0.3773 -1.4304 -0.6962
 8367SOL    HW236561   1.602   1.473  12.780  3.2411  1.0142 -0.2020
 8368SOL     OW36562   3.864   3.133   0.926 -0.4637 -0.6468  0.1538
 8368SOL    HW136563   3.909   3.180   0.856 -0.7782 -0.0061  0.3808
 8368SOL    HW236564   3.889   3.174   1.008  0.1145 -1.7996  0.5569
 8369SOL     OW36565   2.283   0.155   5.951  0.2572  0.8725 -0.4641
 8369SOL    HW136566   2.251   0.102   6.024 -2.6129 -0.0125 -2.3645
 8369SOL    HW236567   2.266   0.244   5.983  0.2709  0.9584 -0.6966
 8370SOL     OW36568   2.867   3.312   8.800 -1.2959 -0.5910 -0.0651
 8370SOL    HW136569   2.814   3.331   8.722 -0.0759 -1.0141 -0.9806
 8370SOL    HW236570   2.804   3.300   8.871 -0.1496 -0.1954  1.0075
 8371SOL     OW36571   2.602   2.076  14.568 -0.0136  0.4406 -0.2661
 8371SOL    HW136572   2.521   2.038  14.533 -0.3193  1.0760 -0.2510
 8371SOL    HW236573   2.645   1.997  14.601  0.7684  1.7413  1.7512
 8372SOL     OW36574   0.551   2.509  10.529  0.0334 -0.0043  0.4516
 8372SOL    HW136575   0.470   2.529  10.482  0.4640  2.5432  0.8197
 8372SOL    HW236576   0.599   2.450  10.471 -2.3280 -1.0227 -0.4509
 8373SOL     OW36577   3.338   0.398   7.477 -0.6033  0.1310 -0.1646
 8373SOL    HW136578   3.373   0.402   7.388  1.8097  0.3869  0.8163
 8373SOL    HW236579   3.358   0.306   7.496 -0.4635  0.6013  2.0071
 8374SOL     OW36580   0.950   3.154   5.473  0.9334  0.5713  0.1496
 8374SOL    HW136581   0.970   3.155   5.380 -0.7559  0.5795 -0.2102
 8374SOL    HW236582   1.038   3.134   5.505  1.5870  3.3550  0.1217
 8375SOL     OW36583   0.310   2.516   4.496 -0.0378  0.2994  0.2274
 8375SOL    HW136584   0.386   2.533   4.440  0.6612 -1.6624  0.5918
 8375SOL    HW236585   0.325   2.561   4.579 -2.7540  1.7648 -0.0939
 8376SOL     OW36586   0.580   1.528  11.681  0.1441 -0.2784  0.4555
 8376SOL    HW136587   0.622   1.611  11.658 -2.1467  0.4834 -0.9507
 8376SOL    HW236588   0.628   1.469  11.624  0.8866  1.0318 -0.2749
 8377SOL     OW36589   0.887   1.649   7.135 -0.7320  0.0357 -0.2906
 8377SOL    HW136590   0.940   1.684   7.063 -1.6309  1.1026 -0.4402
 8377SOL    HW236591   0.903   1.725   7.192  0.6610 -0.8062  0.4383
 8378SOL     OW36592   1.587   4.456  14.397 -0.7104  0.2034 -0.3197
 8378SOL    HW136593   1.533   4.402  14.339  0.3984 -0.6954 -0.5064
 8378SOL    HW236594   1.648   4.494  14.334 -1.3096 -0.3592 -1.2631
 8379SOL     OW36595   4.165   2.258   6.560  0.0437 -0.1598  0.0479
 8379SOL    HW136596   4.157   2.275   6.654  1.3556  1.2067 -0.0772
 8379SOL    HW236597   4.261   2.261   6.551  0.1292  1.1682  1.3594
 8380SOL     OW36598   1.111   0.162   3.096  0.0448  0.3703  0.0787
 8380SOL    HW136599   1.153   0.242   3.063  0.2747  0.7835  1.3629
 8380SOL    HW236600   1.137   0.166   3.188  1.2916 -1.2491 -0.2091
 8381SOL     OW36601   1.534   4.225   1.948 -0.2999 -0.0074  0.2998
 8381SOL    HW136602   1.566   4.137   1.926 -0.7859 -0.3059  0.7741
 8381SOL    HW236603   1.524   4.208   2.041  0.1889 -0.8308  0.2050
 8382SOL     OW36604   3.242   3.410   6.100  0.1659  0.0758 -0.1421
 8382SOL    HW136605   3.235   3.332   6.044  0.9294 -0.2145  0.1694
 8382SOL    HW236606   3.190   3.369   6.169  0.1509 -1.0725 -0.8177
 8383SOL     OW36607   0.753   0.329  14.616  0.3022 -0.3531  0.4310
 8383SOL    HW136608   0.712   0.245  14.595  1.4322 -0.3274 -1.8337
 8383SOL    HW236609   0.699   0.388  14.563  1.9333  1.8149  1.2048
 8384SOL     OW36610   2.237   2.572  10.934 -0.1297 -0.5099  0.5581
 8384SOL    HW136611   2.316   2.610  10.894 -1.4092  1.2460 -0.3372
 8384SOL    HW236612   2.182   2.651  10.932 -2.4064 -2.1735 -2.4749
 8385SOL     OW36613   4.259   4.606   2.495  0.3770  0.2099  0.1836
 8385SOL    HW136614   4.285   4.520   2.527 -1.6630 -1.4350 -2.5721
 8385SOL    HW236615   4.198   4.619   2.567  1.3024  1.0905  0.8042
 8386SOL     OW36616   0.954   3.141   6.875 -0.2930  0.1719  0.5181
 8386SOL    HW136617   0.936   3.234   6.862  0.9532  0.5077  1.2208
 8386SOL    HW236618   0.939   3.133   6.970 -0.6514 -1.7053  0.3144
 8387SOL     OW36619   1.214   2.287   8.805 -0.1209 -0.0160 -0.0107
 8387SOL    HW136620   1.154   2.225   8.846  0.9806 -0.8717  0.3102
 8387SOL    HW236621   1.160   2.344   8.750  0.4729  2.6856  2.2170
 8388SOL     OW36622   3.715   1.035  13.895  0.4570  0.4515 -0.3254
 8388SOL    HW136623   3.635   1.014  13.846  1.8852  0.0675 -2.4778
 8388SOL    HW236624   3.689   1.122  13.927  0.3919  0.3560 -0.1178
 8389SOL     OW36625   1.986   1.708   1.116 -0.0946 -0.7149 -0.1249
 8389SOL    HW136626   2.005   1.640   1.052 -2.2635 -0.6860 -0.7927
 8389SOL    HW236627   2.073   1.739   1.141 -0.4871 -1.4282  2.1319
 8390SOL     OW36628   4.060   3.425   0.118  0.3346  0.0091  0.2416
 8390SOL    HW136629   4.075   3.332   0.100  0.9412  0.3914 -1.2411
 8390SOL    HW236630   4.036   3.469   0.036  1.4571  1.9473  0.9609
 8391SOL     OW36631   2.966   0.526   7.168  0.2530  0.2619  0.4972
 8391SOL    HW136632   2.953   0.592   7.237  1.8086  0.0756  0.9649
 8391SOL    HW236633   3.060   0.525   7.188  0.4992  0.4946 -0.6860
 8392SOL     OW36634   4.116   0.788  14.964 -0.0022 -0.0090  0.2606
 8392SOL    HW136635   4.055   0.828  14.902 -1.1646 -1.2011  0.6164
 8392SOL    HW236636   4.065   0.803  15.044  2.5179  2.9562  1.3058
 8393SOL     OW36637   1.025   0.676   3.338 -0.6200  0.1968 -0.4952
 8393SOL    HW136638   1.102   0.676   3.282 -0.4380  1.1162 -0.2484
 8393SOL    HW236639   0.994   0.766   3.329  1.1548  0.7391 -1.2204
 8394SOL     OW36640   4.563   2.680   5.552  0.3605  0.4097  0.1393
 8394SOL    HW136641   4.491   2.667   5.615 -0.9738  0.6862 -1.3344
 8394SOL    HW236642   4.626   2.619   5.590  1.4482  1.2610 -0.2896
 8395SOL     OW36643   2.702   0.810   9.889  0.3702 -0.5275 -0.3888
 8395SOL    HW136644   2.728   0.901   9.874  1.3982 -1.2026 -2.8520
 8395SOL    HW236645   2.624   0.791   9.836  0.1842  0.3601 -0.4334
 8396SOL     OW36646   3.468   3.381  11.503 -0.4126 -0.0588 -0.3588
 8396SOL    HW136647   3.507   3.432  11.432 -1.1975 -0.5087 -1.1055
 8396SOL    HW236648   3.375   3.388  11.483 -0.6266  1.1305  1.0098
 8397SOL     OW36649   2.779   0.276   7.302  0.0646 -0.2303  0.1586
 8397SOL    HW136650   2.840   0.207   7.327  1.0496  0.0522 -1.4617
 8397SOL    HW236651   2.824   0.321   7.230  0.3329  0.5207  0.7885
 8398SOL     OW36652   3.248   0.411  12.360 -0.3997  0.7568 -0.3463
 8398SOL    HW136653   3.281   0.424  12.271 -0.9502 -0.8221 -0.7787
 8398SOL    HW236654   3.254   0.317  12.375  2.2145  0.9406 -0.2574
 8399SOL     OW36655   1.049   4.211   9.586  0.2319  0.6204  0.4480
 8399SOL    HW136656   1.085   4.289   9.544 -0.3544 -0.6238 -2.3484
 8399SOL    HW236657   0.956   4.229   9.574  0.7103  2.1655 -0.8348
 8400SOL     OW36658   3.466   1.011  16.658  0.0482  0.6360 -0.0039
 8400SOL    HW136659   3.448   0.931  16.608 -0.2528  0.5549  0.2408
 8400SOL    HW236660   3.490   1.075  16.590  2.6133 -1.3306 -0.9548
 8401SOL     OW36661   2.195   0.930   3.621 -0.1022  0.0298  0.4555
 8401SOL    HW136662   2.124   0.956   3.562 -1.0235 -0.6966  1.2427
 8401SOL    HW236663   2.257   1.000   3.604 -0.0920 -0.0414  0.2080
 8402SOL     OW36664   1.585   4.460   5.517  0.7071 -1.4063 -0.2077
 8402SOL    HW136665   1.642   4.532   5.545  2.9173 -3.6499  1.0806
 8402SOL    HW236666   1.521   4.471   5.587  0.0208  0.4587 -1.1186
 8403SOL     OW36667   1.577   0.211   2.797 -0.3265 -0.5385 -0.4899
 8403SOL    HW136668   1.601   0.158   2.721 -0.1311  1.3425 -1.7482
 8403SOL    HW236669   1.535   0.152   2.859  0.6743 -1.5661 -0.7983
 8404SOL     OW36670   2.637   1.723   4.644 -0.1175  0.2669 -0.1736
 8404SOL    HW136671   2.553   1.755   4.678 -0.5356  0.9804 -1.8695
 8404SOL    HW236672   2.609   1.712   4.553  1.8986 -1.1022 -0.6181
 8405SOL     OW36673   1.947   0.868   6.367  0.1282 -0.1297 -0.3387
 8405SOL    HW136674   1.930   0.913   6.285 -0.9457 -0.1960 -0.1490
 8405SOL    HW236675   1.868   0.894   6.415  1.2358  1.2395  0.7710
 8406SOL     OW36676   1.510   2.130   4.141 -0.0671 -0.1973  0.1493
 8406SOL    HW136677   1.602   2.123   4.165 -0.1751  0.5509  0.7603
 8406SOL    HW236678   1.489   2.047   4.098  0.0834 -2.1089  3.7665
 8407SOL     OW36679   3.604   4.513   6.774 -0.0238  0.6329  0.3853
 8407SOL    HW136680   3.665   4.565   6.826 -0.6017 -0.1265  1.8324
 8407SOL    HW236681   3.584   4.454   6.847 -1.0197  1.5822  0.8867
 8408SOL     OW36682   3.626   4.219   3.477  0.2797  0.2399 -0.0842
 8408SOL    HW136683   3.564   4.195   3.408  0.5671 -1.2498  0.1665
 8408SOL    HW236684   3.710   4.210   3.431 -1.2375 -2.4944 -2.2733
 8409SOL     OW36685   2.568   3.034   7.302 -0.0920  0.0510  0.3502
 8409SOL    HW136686   2.505   3.073   7.363 -0.0644  2.3620 -1.1124
 8409SOL    HW236687   2.640   3.096   7.294  0.1408  0.0483  2.4129
 8410SOL     OW36688   3.650   2.009  14.088  0.1638 -0.0576  0.4985
 8410SOL    HW136689   3.716   1.983  14.153  0.9801  0.7192 -0.0258
 8410SOL    HW236690   3.704   2.052  14.022 -1.9270 -0.7904 -1.6730
 8411SOL     OW36691   1.699   1.549   9.719 -0.1802  0.1396  0.2763
 8411SOL    HW136692   1.747   1.618   9.674  1.1002 -0.8661  0.1153
 8411SOL    HW236693   1.661   1.583   9.801 -0.8226 -3.6858  1.5649
 8412SOL     OW36694   4.264   1.292   6.501  0.1444 -0.0797 -0.0942
 8412SOL    HW136695   4.262   1.206   6.544 -0.1530  0.1778  0.3922
 8412SOL    HW236696   4.280   1.249   6.416  2.3243  2.1820 -0.8347
 8413SOL     OW36697   0.722   1.990  15.632  0.1814 -0.3969 -0.2711
 8413SOL    HW136698   0.767   2.048  15.570  0.4503 -1.2068 -0.8269
 8413SOL    HW236699   0.727   2.040  15.714 -0.6857 -0.0029 -0.4534
 8414SOL     OW36700   3.459   0.033   7.326  0.6154  0.3210  0.3811
 8414SOL    HW136701   3.544   0.071   7.348  0.7102 -0.2964  1.0885
 8414SOL    HW236702   3.460   0.072   7.238 -0.4935 -0.9189 -0.1669
 8415SOL     OW36703   1.802   1.482   4.014  0.4277  0.1148 -0.1345
 8415SOL    HW136704   1.815   1.389   4.036 -3.4372  0.6791  4.5350
 8415SOL    HW236705   1.852   1.489   3.933 -1.3223 -0.9548 -1.2921
 8416SOL     OW36706   2.705   2.038   3.555  0.6463  0.2197 -0.3886
 8416SOL    HW136707   2.629   2.085   3.589 -0.5998  0.3903 -3.4838
 8416SOL    HW236708   2.662   1.989   3.486 -0.9894 -1.3559  1.7417
 8417SOL     OW36709   4.465   0.906   5.075 -0.5026  0.0700 -0.1281
 8417SOL    HW136710   4.537   0.847   5.095 -2.0341 -0.5511  3.6109
 8417SOL    HW236711   4.505   0.935   4.994  0.6442  1.8984  1.0852
 8418SOL     OW36712   2.232   2.063   7.359 -0.7081  0.2195  0.5479
 8418SOL    HW136713   2.154   2.007   7.361  0.9303 -1.9746  2.5272
 8418SOL    HW236714   2.225   2.098   7.448  0.3993  1.3924  0.1764
 8419SOL     OW36715   0.525   3.083   4.862  0.3049  0.2982  0.6557
 8419SOL    HW136716   0.536   3.111   4.772  0.9576 -0.4577  0.5005
 8419SOL    HW236717   0.532   3.165   4.911  0.7661  0.8137 -0.2802
 8420SOL     OW36718   4.211   1.544   6.386  0.4193 -0.4680 -0.4249
 8420SOL    HW136719   4.157   1.584   6.454  1.2254  0.8529 -0.5444
 8420SOL    HW236720   4.234   1.457   6.417 -3.4234 -1.7004 -1.0524
 8421SOL     OW36721   4.674   4.494  14.243  0.2913 -0.0983 -0.4642
 8421SOL    HW136722   0.005   4.546  14.302  0.4438 -1.9361  1.0170
 8421SOL    HW236723   4.687   4.544  14.163 -2.3322  0.4908 -0.4929
 8422SOL     OW36724   1.289   2.403   9.763  0.1244 -0.3317 -0.5808
 8422SOL    HW136725   1.340   2.434   9.838 -2.4922 -0.1606  1.1570
 8422SOL    HW236726   1.312   2.472   9.701  2.9247 -0.9395 -0.2084
 8423SOL     OW36727   4.675   0.860   3.609  0.6063 -0.2995  0.0064
 8423SOL    HW136728   4.666   0.940   3.556  1.7460 -0.9438 -1.1466
 8423SOL    HW236729   4.585   0.868   3.641 -0.1634  2.5827 -2.7892
 8424SOL     OW36730   4.391   2.506   1.221 -0.1887  0.3385  0.6185
 8424SOL    HW136731   4.343   2.544   1.148 -1.0623 -1.5264  0.2260
 8424SOL    HW236732   4.321   2.458   1.265  1.3760 -2.3483  0.1537
 8425SOL     OW36733   1.308   4.605   0.660 -0.6599  0.1525  0.2601
 8425SOL    HW136734   1.389   4.621   0.708  0.6880  0.1935 -2.0133
 8425SOL    HW236735   1.301   4.509   0.665  3.9054 -0.3745 -2.6439
 8426SOL     OW36736   4.415   2.258   8.967 -0.3933  0.4593  0.6572
 8426SOL    HW136737   4.355   2.255   9.042  0.5319  1.3160  1.4398
 8426SOL    HW236738   4.492   2.231   9.017 -1.4759  0.3474  2.2464
 8427SOL     OW36739   2.540   1.537  10.477 -0.3049 -0.4406  0.0996
 8427SOL    HW136740   2.567   1.474  10.544  2.5254 -0.9350 -1.5019
 8427SOL    HW236741   2.620   1.585  10.457 -0.4476 -1.1088 -2.1370
 8428SOL     OW36742   3.373   1.165   2.966  0.2988 -0.1194 -0.6648
 8428SOL    HW136743   3.452   1.117   2.943  0.3712  0.2806 -1.2528
 8428SOL    HW236744   3.390   1.200   3.053  2.6305 -1.2392 -0.6816
 8429SOL     OW36745   1.628   0.047   1.956  0.8027  0.1957  0.0173
 8429SOL    HW136746   1.567   0.114   1.924  0.1453  0.0190  0.8788
 8429SOL    HW236747   1.575   4.715   2.013 -0.6809 -0.7773 -2.3166
 8430SOL     OW36748   3.470   1.916  10.207  0.2369 -0.2188 -0.4170
 8430SOL    HW136749   3.551   1.917  10.257  0.4845  1.5517 -0.8625
 8430SOL    HW236750   3.404   1.960  10.260 -1.1540 -1.3800 -1.1593
 8431SOL     OW36751   2.763   0.113  16.866  0.4347 -0.2521 -0.2733
 8431SOL    HW136752   2.689   0.129  16.807 -0.7925 -0.1194  1.3136
 8431SOL    HW236753   2.811   0.195  16.857  2.5319 -1.3181  1.2969
 8432SOL     OW36754   4.255   3.598   6.059  0.2007 -0.2251  0.0488
 8432SOL    HW136755   4.175   3.620   6.107  1.3971  2.9763  0.6361
 8432SOL    HW236756   4.310   3.559   6.126 -0.6996 -0.2790  0.7600
 8433SOL     OW36757   2.683   4.228   5.687  0.0523 -0.3664 -0.4955
 8433SOL    HW136758   2.738   4.153   5.709  1.6460  0.5119 -1.4907
 8433SOL    HW236759   2.733   4.279   5.623 -1.2156 -0.2930 -1.4398
 8434SOL     OW36760   4.350   3.387   8.017 -0.2368  0.0415  0.1955
 8434SOL    HW136761   4.277   3.448   8.027  0.1159  0.7500 -1.7195
 8434SOL    HW236762   4.319   3.340   7.939  0.2797  2.4282 -1.4258
 8435SOL     OW36763   1.594   3.483   1.657 -0.2674 -0.0888  0.2182
 8435SOL    HW136764   1.604   3.520   1.744 -1.5476 -2.8858  1.5676
 8435SOL    HW236765   1.681   3.494   1.619 -0.2476  0.8328  0.5433
 8436SOL     OW36766   4.477   2.007   8.404  0.5826  0.0410 -0.1350
 8436SOL    HW136767   4.453   2.052   8.323 -0.6700 -0.3425  0.0145
 8436SOL    HW236768   4.527   1.935   8.367  0.9040  1.0261 -1.5910
 8437SOL     OW36769   3.126   0.680  11.499 -0.2748 -0.4740 -0.3210
 8437SOL    HW136770   3.137   0.769  11.466 -0.5520 -0.1282  0.5245
 8437SOL    HW236771   3.168   0.635  11.426  1.0154 -1.7930  1.2250
 8438SOL     OW36772   0.438   3.406   5.418  0.5379 -0.0531  0.2131
 8438SOL    HW136773   0.504   3.422   5.485  0.4157 -0.6013  0.4616
 8438SOL    HW236774   0.370   3.355   5.462  0.6209 -0.3214  0.0343
 8439SOL     OW36775   1.551   1.037   9.865 -0.0959  0.5547  0.2131
 8439SOL    HW136776   1.557   1.132   9.878 -2.1296  0.7871 -0.6380
 8439SOL    HW236777   1.640   1.013   9.840 -0.0012  0.2996  0.7844
 8440SOL     OW36778   4.543   0.261  17.476 -0.4178  0.3458  0.2671
 8440SOL    HW136779   4.481   0.189  17.469  0.0020  0.3232 -2.8767
 8440SOL    HW236780   4.514   0.289  17.563  0.2379  0.4893  0.4380
 8441SOL     OW36781   3.220   3.652  15.563 -0.7687  0.8594 -0.1378
 8441SOL    HW136782   3.284   3.584  15.586  0.3701  1.9124 -0.2059
 8441SOL    HW236783   3.140   3.600  15.568 -0.4478  0.5021  1.3041
 8442SOL     OW36784   1.237   2.067   0.420 -0.5213  0.1036  0.2287
 8442SOL    HW136785   1.270   2.157   0.428 -1.8972  0.8445 -2.3826
 8442SOL    HW236786   1.144   2.088   0.414 -0.8377 -1.5776 -0.6569
 8443SOL     OW36787   4.550   4.053  16.164 -0.3672 -0.1861 -0.5011
 8443SOL    HW136788   4.521   3.962  16.157 -1.5840  0.2481 -1.0558
 8443SOL    HW236789   4.608   4.062  16.088 -0.6869  3.3376 -0.3364
 8444SOL     OW36790   3.985   2.036   2.148  0.3400 -0.2271 -0.6189
 8444SOL    HW136791   4.013   2.000   2.232  0.5203  0.0477 -0.5636
 8444SOL    HW236792   3.890   2.032   2.156  0.2992  0.9240 -0.6088
 8445SOL     OW36793   0.388   2.797  16.444  0.2195 -0.3711 -0.3867
 8445SOL    HW136794   0.405   2.827  16.533 -2.7374 -2.0297  0.7442
 8445SOL    HW236795   0.400   2.703  16.462 -1.1255 -0.5250 -0.3251
 8446SOL     OW36796   0.581   1.373   6.164  0.3870  0.0016  0.9032
 8446SOL    HW136797   0.662   1.327   6.141 -0.0252 -0.1441 -0.2404
 8446SOL    HW236798   0.590   1.403   6.255  1.0936 -0.3382  0.9471
 8447SOL     OW36799   2.473   1.983   0.751 -0.2166 -0.1031 -0.7928
 8447SOL    HW136800   2.437   2.061   0.708 -0.7813  0.1878  0.2298
 8447SOL    HW236801   2.564   1.974   0.721  0.0958 -0.0874  0.1535
 8448SOL     OW36802   1.763   2.628   4.862  0.0707  0.2853  1.1954
 8448SOL    HW136803   1.822   2.591   4.797  1.0562  1.4614  1.4245
 8448SOL    HW236804   1.779   2.572   4.938 -1.0890  0.0130  1.2501
 8449SOL     OW36805   1.950   3.532   1.808 -0.4549  0.4380  0.1736
 8449SOL    HW136806   2.032   3.560   1.768  0.0247  0.6246  1.2682
 8449SOL    HW236807   1.885   3.578   1.756 -1.9720 -0.2131  1.4963
 8450SOL     OW36808   1.559   3.253   5.302 -0.2482  0.9104  0.4317
 8450SOL    HW136809   1.623   3.312   5.343 -1.3913  1.2110  1.7835
 8450SOL    HW236810   1.575   3.257   5.208 -1.0889 -0.5979  0.2337
 8451SOL     OW36811   1.162   2.916   5.246 -0.2453  0.2298 -0.1151
 8451SOL    HW136812   1.223   2.966   5.301  0.9278 -0.9918 -0.3111
 8451SOL    HW236813   1.207   2.924   5.162  1.7281  0.9947  1.0076
 8452SOL     OW36814   4.156   4.329   3.909 -0.6986 -0.1414  0.0889
 8452SOL    HW136815   4.229   4.269   3.895 -1.5152 -0.3361 -3.4457
 8452SOL    HW236816   4.097   4.277   3.964 -0.3454 -0.1297  0.4790
 8453SOL     OW36817   4.724   1.848  12.512 -0.0160 -0.2529 -0.1477
 8453SOL    HW136818   0.008   1.831  12.606 -0.1777 -0.7616 -0.2312
 8453SOL    HW236819   4.630   1.867  12.503 -0.3851 -2.7675 -1.5928
 8454SOL     OW36820   0.897   2.172   6.397  0.3560 -0.1184 -0.6574
 8454SOL    HW136821   0.938   2.120   6.466 -1.1516  0.7183  0.8607
 8454SOL    HW236822   0.803   2.161   6.409  0.3792  1.1220  0.7953
 8455SOL     OW36823   1.378   4.590  17.157 -0.8773  0.2911 -0.0053
 8455SOL    HW136824   1.452   4.617  17.102  0.1731 -0.5504  0.9833
 8455SOL    HW236825   1.311   4.575  17.090 -0.2335  2.5013 -1.1290
 8456SOL     OW36826   1.545   2.149   1.130 -0.1235  0.0781 -0.3316
 8456SOL    HW136827   1.559   2.066   1.175 -2.9443  0.5608  1.4457
 8456SOL    HW236828   1.488   2.194   1.193 -0.7694  0.8057 -1.4412
 8457SOL     OW36829   2.433   4.182   6.750  0.7388 -0.5782  0.2119
 8457SOL    HW136830   2.446   4.252   6.815 -0.4990 -0.7583  0.6440
 8457SOL    HW236831   2.469   4.106   6.795 -0.3434  0.4005  2.7528
 8458SOL     OW36832   3.543   2.352  11.599 -0.3105 -0.0337  0.1594
 8458SOL    HW136833   3.479   2.375  11.666  1.5519  2.2373  1.1489
 8458SOL    HW236834   3.631   2.367  11.633  0.1699  2.7000 -2.2267
 8459SOL     OW36835   3.054   2.886   0.523  0.2528  0.2182  0.0721
 8459SOL    HW136836   2.996   2.962   0.515  0.9682  0.3944 -3.1593
 8459SOL    HW236837   3.029   2.832   0.448 -1.0220 -3.2003  2.9281
 8460SOL     OW36838   4.429   4.559   5.215  0.1442 -0.1791  0.1242
 8460SOL    HW136839   4.476   4.633   5.254  0.5865 -0.7593  0.6926
 8460SOL    HW236840   4.357   4.599   5.166 -0.8937 -1.5905  0.4900
 8461SOL     OW36841   2.332   4.248   4.320 -0.3067 -0.6244  0.5237
 8461SOL    HW136842   2.392   4.185   4.280  1.9772  0.7785  1.7082
 8461SOL    HW236843   2.360   4.331   4.281 -2.0426 -0.4547 -0.3420
 8462SOL     OW36844   0.997   1.296   5.779 -0.1498  0.6711  0.2146
 8462SOL    HW136845   1.014   1.388   5.762 -1.3735  1.1640  1.5372
 8462SOL    HW236846   0.909   1.285   5.743 -0.6259 -2.8306  2.3846
 8463SOL     OW36847   1.310   0.305   6.046  0.2827 -0.4037  0.5017
 8463SOL    HW136848   1.307   0.297   5.950 -0.0064 -1.7488  0.6137
 8463SOL    HW236849   1.327   0.399   6.049 -1.1546 -0.0794 -1.6396
 8464SOL     OW36850   0.549   1.943   1.109  0.1428 -0.5908 -0.0594
 8464SOL    HW136851   0.508   1.903   1.185  0.1747  0.3049  0.4276
 8464SOL    HW236852   0.610   2.008   1.144  0.6434 -0.4226 -1.2272
 8465SOL     OW36853   2.960   1.526  12.901  0.6033  0.0585 -0.2105
 8465SOL    HW136854   2.926   1.523  12.812 -0.6620 -0.4594  0.2797
 8465SOL    HW236855   2.908   1.461  12.948  2.2197  0.8081  2.6087
 8466SOL     OW36856   1.613   3.536  16.154 -0.7027 -0.6386  0.0608
 8466SOL    HW136857   1.550   3.607  16.168 -0.9957 -0.5159 -1.9347
 8466SOL    HW236858   1.560   3.458  16.173 -2.1605 -0.0103 -1.4626
 8467SOL     OW36859   1.156   0.951  13.440 -0.2932  0.3961  0.1048
 8467SOL    HW136860   1.214   0.993  13.377  1.0602 -0.3259  0.8493
 8467SOL    HW236861   1.224   0.920  13.500 -0.0347  1.2281  0.2433
 8468SOL     OW36862   2.447   0.950   3.161  0.0960  0.6492  0.3281
 8468SOL    HW136863   2.497   0.931   3.241 -0.3880  1.2677  0.7781
 8468SOL    HW236864   2.390   0.873   3.161  1.7050 -0.5313  0.0052
 8469SOL     OW36865   1.101   0.025  15.362 -0.2586  0.1636  0.3105
 8469SOL    HW136866   1.131   4.674  15.310  0.6322  1.7690 -1.4971
 8469SOL    HW236867   1.017   0.038  15.317 -0.2538  0.0986  0.2824
 8470SOL     OW36868   0.021   0.235   8.293 -0.0582  0.6554 -0.3805
 8470SOL    HW136869   4.707   0.147   8.289 -0.3465  0.7701 -0.2583
 8470SOL    HW236870   4.666   0.287   8.312 -0.2021 -0.1188  1.1251
 8471SOL     OW36871   4.674   0.794   8.303 -0.0787 -0.2713 -0.0637
 8471SOL    HW136872   0.016   0.810   8.235 -0.8292 -1.6270 -1.0899
 8471SOL    HW236873   4.671   0.698   8.306 -0.4122 -0.2312  0.8961
 8472SOL     OW36874   4.010   4.380   5.032 -0.4890 -0.2844 -0.1621
 8472SOL    HW136875   3.981   4.290   5.020 -1.6144 -0.1179  1.2345
 8472SOL    HW236876   3.983   4.417   4.948  0.1085  1.0654  0.2365
 8473SOL     OW36877   2.187   1.291  13.533  0.2552  0.2924 -0.0662
 8473SOL    HW136878   2.257   1.297  13.597 -1.1212 -1.8440  1.6312
 8473SOL    HW236879   2.116   1.345  13.568 -0.1563 -0.6586  0.5676
 8474SOL     OW36880   2.630   0.417   3.459  0.2163 -0.2155  0.0407
 8474SOL    HW136881   2.676   0.364   3.525 -0.6931 -1.0899 -0.0316
 8474SOL    HW236882   2.595   0.342   3.411 -0.8481 -0.6123  1.4313
 8475SOL     OW36883   3.499   0.147  15.125  0.0159  0.1462  0.7366
 8475SOL    HW136884   3.485   0.228  15.076 -0.4738  0.8110  1.9808
 8475SOL    HW236885   3.464   0.088  15.059  0.5869  0.6036  0.0277
 8476SOL     OW36886   2.900   4.065   2.133 -0.5053 -0.1960  0.1494
 8476SOL    HW136887   2.815   4.023   2.147 -1.8954  2.4193 -0.5085
 8476SOL    HW236888   2.955   4.002   2.180  0.5349  0.2315 -0.4973
 8477SOL     OW36889   3.970   2.527  17.303  0.6312  0.2019  0.0462
 8477SOL    HW136890   4.053   2.480  17.298  0.9024  0.6682  0.2109
 8477SOL    HW236891   4.005   2.594  17.362  1.4607  1.3841 -1.8268
 8478SOL     OW36892   0.413   1.290   4.719 -0.2154 -0.0205 -0.3004
 8478SOL    HW136893   0.366   1.373   4.708  0.4224 -0.0850 -3.7305
 8478SOL    HW236894   0.441   1.268   4.630  0.5915 -0.1338 -0.0255
 8479SOL     OW36895   4.447   2.808   0.695 -0.5002 -0.1770 -0.4335
 8479SOL    HW136896   4.468   2.738   0.757 -1.3801 -0.5233 -0.5274
 8479SOL    HW236897   4.398   2.864   0.755 -0.7833 -0.1841 -0.6619
 8480SOL     OW36898   1.419   0.320   8.942  0.2450  0.0304 -0.6494
 8480SOL    HW136899   1.454   0.401   8.978  0.9539  0.0043 -1.2782
 8480SOL    HW236900   1.411   0.265   9.020 -0.6858  0.5052 -0.4199
 8481SOL     OW36901   4.350   3.371   9.622 -0.0410  0.0310  0.5085
 8481SOL    HW136902   4.296   3.448   9.604  1.4299  1.1529  0.8929
 8481SOL    HW236903   4.357   3.357   9.716  0.1321 -1.3411  0.2943
 8482SOL     OW36904   0.569   3.171  15.112  0.0190  0.4979  0.0346
 8482SOL    HW136905   0.576   3.162  15.208  0.8500 -0.9489 -0.1550
 8482SOL    HW236906   0.655   3.207  15.090  0.3946  1.8568  3.6745
 8483SOL     OW36907   4.327   1.091   1.596 -0.3037 -0.1351  1.0629
 8483SOL    HW136908   4.414   1.092   1.635  0.2856 -1.6452 -0.2242
 8483SOL    HW236909   4.330   1.161   1.531 -0.0433 -1.7167 -0.6058
 8484SOL     OW36910   0.044   2.894   7.916 -0.3141 -0.7660  0.2445
 8484SOL    HW136911   0.099   2.971   7.932 -1.6078  0.0819  0.5432
 8484SOL    HW236912   0.047   2.882   7.822  1.1479 -3.2878  0.5966
 8485SOL     OW36913   3.106   3.373   6.877 -0.2442  0.2448 -0.3502
 8485SOL    HW136914   3.126   3.394   6.968  0.0256  2.3699 -0.8880
 8485SOL    HW236915   3.016   3.408   6.878  0.0497  0.9455  2.8945
 8486SOL     OW36916   1.629   4.001   4.347 -0.1222 -0.4656 -0.1659
 8486SOL    HW136917   1.701   3.968   4.292  0.8022  0.5905  0.4189
 8486SOL    HW236918   1.600   4.077   4.297  1.0866 -0.8494 -1.4591
 8487SOL     OW36919   1.213   2.099  10.800  0.0417 -0.4092 -0.1102
 8487SOL    HW136920   1.222   2.036  10.728  0.2402 -0.6060  0.0843
 8487SOL    HW236921   1.205   2.039  10.874  0.8663  1.5799  1.5647
 8488SOL     OW36922   3.702   3.981   3.189 -0.4591 -0.0945 -0.2153
 8488SOL    HW136923   3.795   3.963   3.207 -0.7617  0.5548  2.0361
 8488SOL    HW236924   3.673   3.895   3.160 -1.6421  0.3665 -0.3746
 8489SOL     OW36925   3.257   0.772   3.689  0.1775  0.2576 -0.5840
 8489SOL    HW136926   3.259   0.679   3.712  2.0491  1.1763  2.9523
 8489SOL    HW236927   3.348   0.803   3.688  0.4108 -0.4322 -1.3484
 8490SOL     OW36928   1.875   3.206   8.335 -0.2583 -0.2648  0.3733
 8490SOL    HW136929   1.801   3.266   8.323  0.8049  1.1094  0.6434
 8490SOL    HW236930   1.833   3.123   8.355 -2.1118  0.8888  1.3014
 8491SOL     OW36931   0.618   3.132   5.893 -0.2274 -1.0081  1.3184
 8491SOL    HW136932   0.584   3.055   5.849 -1.4117  1.2577 -1.7190
 8491SOL    HW236933   0.668   3.096   5.967 -1.0314 -0.7468  1.9968
 8492SOL     OW36934   0.156   3.411  15.530  0.1907 -0.2709  0.2830
 8492SOL    HW136935   0.210   3.454  15.464  1.7263  0.2050  1.8673
 8492SOL    HW236936   0.071   3.426  15.488 -0.6082  0.5736  2.2032
 8493SOL     OW36937   3.239   3.960   8.773  0.2067 -0.3566  0.0015
 8493SOL    HW136938   3.239   3.901   8.849  0.3883  1.9272  1.7894
 8493SOL    HW236939   3.329   3.992   8.783  0.2028  0.2711 -2.1284
 8494SOL     OW36940   2.298   0.103  11.660 -0.4900  0.8044  0.1121
 8494SOL    HW136941   2.358   0.033  11.635  0.6609  1.8992 -0.1704
 8494SOL    HW236942   2.291   0.159  11.583 -0.1367 -1.8552 -1.8410
 8495SOL     OW36943   0.081   3.444   2.690  0.1572 -0.0130  0.0740
 8495SOL    HW136944   0.070   3.349   2.691  4.3885 -0.4792 -0.3697
 8495SOL    HW236945   0.174   3.456   2.675  0.7292 -2.1123  1.8320
 8496SOL     OW36946   1.457   1.258   5.327  0.3536 -0.4709 -0.2454
 8496SOL    HW136947   1.499   1.176   5.301 -0.6390 -0.6037 -1.4201
 8496SOL    HW236948   1.479   1.274   5.419  1.6066  1.4112 -0.8745
 8497SOL     OW36949   3.457   0.943   6.998 -0.2254 -0.2060  0.5083
 8497SOL    HW136950   3.374   0.898   7.012  0.5879 -1.6032  0.8364
 8497SOL    HW236951   3.490   0.884   6.930 -1.0392 -0.3696  0.2528
 8498SOL     OW36952   0.239   0.792   3.018 -0.3148 -0.0297 -0.5292
 8498SOL    HW136953   0.253   0.715   2.963  2.7794  0.5756 -0.6326
 8498SOL    HW236954   0.179   0.838   2.960  0.1885 -1.1166 -1.9210
 8499SOL     OW36955   3.514   2.555   7.014  0.3268 -0.0816  0.0797
 8499SOL    HW136956   3.519   2.638   6.966 -0.5614 -0.7812 -1.2450
 8499SOL    HW236957   3.427   2.566   7.051 -1.2277 -2.0357 -2.8952
 8500SOL     OW36958   2.243   2.678  16.152 -0.1578 -0.1693 -0.0153
 8500SOL    HW136959   2.170   2.740  16.150  1.5443  1.8037 -0.7801
 8500SOL    HW236960   2.290   2.726  16.220  2.7095 -0.3495 -1.8713
 8501SOL     OW36961   3.336   0.445  12.060 -0.8223 -0.0951  0.2051
 8501SOL    HW136962   3.249   0.453  12.021  0.0956  2.6785 -1.2727
 8501SOL    HW236963   3.369   0.370  12.012 -3.9116 -1.5491  0.3412
 8502SOL     OW36964   0.647   0.735   3.247 -0.0095 -0.6381 -0.5987
 8502SOL    HW136965   0.554   0.715   3.238 -0.5149  1.8294 -0.9457
 8502SOL    HW236966   0.673   0.652   3.287  3.7963  0.5708 -0.5547
 8503SOL     OW36967   2.191   3.730  13.832  1.0924  0.5256  0.1630
 8503SOL    HW136968   2.191   3.775  13.748 -1.5408 -0.7375 -0.4869
 8503SOL    HW236969   2.232   3.648  13.803  0.6147  0.7666 -1.1931
 8504SOL     OW36970   3.208   1.339   6.567  0.1438  0.0620  0.1025
 8504SOL    HW136971   3.148   1.355   6.639 -1.9248 -0.4873 -1.4950
 8504SOL    HW236972   3.156   1.370   6.493  1.5453  0.1557 -0.8375
 8505SOL     OW36973   4.528   4.437   7.995 -0.8980  0.6664  0.1874
 8505SOL    HW136974   4.566   4.450   7.909  1.6924 -0.5834  1.1578
 8505SOL    HW236975   4.515   4.531   8.010  0.2983  0.3606  3.2509
 8506SOL     OW36976   2.026   4.003   5.243  0.0259  0.4838  0.5976
 8506SOL    HW136977   1.944   4.023   5.288 -0.6674 -1.8844  0.3932
 8506SOL    HW236978   2.001   4.032   5.155  0.5209  1.0107  0.6284
 8507SOL     OW36979   3.296   1.386   7.635  0.4731  0.5539  0.8053
 8507SOL    HW136980   3.298   1.348   7.723 -0.7473  0.1180  0.6479
 8507SOL    HW236981   3.386   1.418   7.627  0.8105 -0.4010  0.8425
 8508SOL     OW36982   1.614   1.068   2.609 -0.1312 -0.0466 -0.1603
 8508SOL    HW136983   1.541   1.011   2.588 -0.7640  0.3372  1.0245
 8508SOL    HW236984   1.657   1.033   2.687 -0.4571 -1.6869 -0.7275
 8509SOL     OW36985   0.398   3.928   3.801 -1.3400  0.7629 -0.2769
 8509SOL    HW136986   0.387   3.837   3.775 -0.9270  0.1835  1.5915
 8509SOL    HW236987   0.429   3.968   3.719  0.8126 -0.5726 -0.1079
 8510SOL     OW36988   1.920   1.393   3.732  0.0265 -0.2311 -0.1300
 8510SOL    HW136989   1.905   1.377   3.639  1.7981  0.0655 -0.4667
 8510SOL    HW236990   1.947   1.308   3.764 -1.9005 -1.5140 -1.9029
 8511SOL     OW36991   3.455   1.268   2.305 -0.1994  0.0094 -0.4870
 8511SOL    HW136992   3.402   1.348   2.307 -0.2147 -0.0066 -0.2080
 8511SOL    HW236993   3.527   1.283   2.244 -0.9598 -1.6399 -1.7847
 8512SOL     OW36994   2.857   0.599   9.319  0.2877 -0.4940 -0.2836
 8512SOL    HW136995   2.859   0.548   9.400 -0.9724  1.3894  0.9282
 8512SOL    HW236996   2.936   0.649   9.341 -1.0098  1.7036 -0.6069
 8513SOL     OW36997   4.557   1.683   9.077 -0.5859  0.2358 -0.1413
 8513SOL    HW136998   4.560   1.714   8.986 -0.9403 -0.5241 -0.4056
 8513SOL    HW236999   4.469   1.649   9.088  0.8051 -3.2849  0.0524
 8514SOL     OW37000   2.403   0.461   7.425 -0.3886  0.3701 -0.5047
 8514SOL    HW137001   2.416   0.534   7.486  2.0892 -0.3162 -0.2247
 8514SOL    HW237002   2.457   0.393   7.465 -1.0633 -1.5525 -2.8850
 8515SOL     OW37003   3.934   4.301   6.133 -0.2209 -0.2635 -0.0697
 8515SOL    HW137004   4.010   4.283   6.188  0.7986  0.3006 -1.3058
 8515SOL    HW237005   3.910   4.210   6.112 -1.2947 -0.4086  1.7199
 8516SOL     OW37006   1.236   1.418   9.863 -0.0638 -0.0858 -0.2859
 8516SOL    HW137007   1.253   1.331   9.900  0.5466 -0.5302 -1.6121
 8516SOL    HW237008   1.147   1.442   9.888 -0.7991 -1.7090 -1.3430
 8517SOL     OW37009   3.440   4.722   5.852 -0.3715 -0.0314  0.2890
 8517SOL    HW137010   3.493   4.649   5.820 -0.1895  1.3649 -2.6132
 8517SOL    HW237011   3.351   4.692   5.836  0.1399 -2.0805  1.3188
 8518SOL     OW37012   0.230   3.066  16.495  0.2516  0.5666  0.3767
 8518SOL    HW137013   0.298   3.130  16.517  0.1398  0.3798  1.2635
 8518SOL    HW237014   0.250   2.993  16.554 -0.4829  1.4309  1.6969
 8519SOL     OW37015   0.518   1.607   7.345 -0.9790  0.4520 -0.3670
 8519SOL    HW137016   0.584   1.593   7.277 -1.3116  2.2892 -1.0619
 8519SOL    HW237017   0.433   1.613   7.300 -1.4792  0.2971  0.5602
 8520SOL     OW37018   0.377   0.421   6.995  0.0748  0.1471  0.1832
 8520SOL    HW137019   0.344   0.464   6.916 -1.5101  1.7176  1.6951
 8520SOL    HW237020   0.463   0.396   6.963  0.2165 -0.2739  0.9028
 8521SOL     OW37021   2.465   0.706   7.959 -0.2143 -0.5746 -0.1813
 8521SOL    HW137022   2.466   0.614   7.935  1.3033 -0.1662 -1.6680
 8521SOL    HW237023   2.447   0.752   7.876 -0.4879 -0.3511  0.0017
 8522SOL     OW37024   0.420   4.546   7.370 -0.1000  0.2641  0.2410
 8522SOL    HW137025   0.431   4.601   7.293 -0.5136  2.8081  1.9685
 8522SOL    HW237026   0.513   4.541   7.394  0.5234  2.9115 -1.6318
 8523SOL     OW37027   2.416   0.910   9.227  0.4242 -0.1587  0.0681
 8523SOL    HW137028   2.476   0.836   9.240 -0.7655 -1.3948 -1.4789
 8523SOL    HW237029   2.361   0.889   9.302 -0.4152  0.6859 -0.3115
 8524SOL     OW37030   2.838   0.795   1.975  0.7505 -0.0484  0.0300
 8524SOL    HW137031   2.782   0.790   2.053 -1.0838  2.1474 -1.1048
 8524SOL    HW237032   2.828   0.707   1.939  0.0528 -0.1634  0.4873
 8525SOL     OW37033   3.050   4.364   4.841 -0.4023 -0.4507 -0.0177
 8525SOL    HW137034   3.039   4.335   4.931 -2.9007  0.6268  0.0342
 8525SOL    HW237035   2.965   4.376   4.797  0.0187 -1.0634 -1.0140
 8526SOL     OW37036   0.313   0.932   6.445  0.2717  0.1681  0.2178
 8526SOL    HW137037   0.334   1.022   6.420 -3.1859  0.2444 -2.4364
 8526SOL    HW237038   0.266   0.904   6.367  3.0791 -0.6286 -1.1939
 8527SOL     OW37039   0.404   3.499   7.623 -0.4971  0.3751 -0.6928
 8527SOL    HW137040   0.385   3.566   7.558 -0.4132 -0.5591 -1.6928
 8527SOL    HW237041   0.315   3.464   7.632  0.0372  0.1859  3.5828
 8528SOL     OW37042   4.519   1.360  16.614 -0.3352  0.2944 -0.2959
 8528SOL    HW137043   4.474   1.287  16.656 -1.3729  0.2974 -1.3766
 8528SOL    HW237044   4.450   1.411  16.570 -1.5083 -0.0072  1.1776
 8529SOL     OW37045   4.335   0.981   4.059  0.1858 -0.2610 -0.7795
 8529SOL    HW137046   4.419   1.022   4.038  1.5535 -2.4370  0.4409
 8529SOL    HW237047   4.359   0.889   4.053  0.9774 -0.1317  0.5453
 8530SOL     OW37048   2.057   1.933   0.922  0.2390  0.3542 -0.1485
 8530SOL    HW137049   2.023   1.883   0.848 -1.0125  0.4685  0.3556
 8530SOL    HW237050   2.069   1.869   0.993 -0.4309 -1.0640 -1.3184
 8531SOL     OW37051   1.755   2.072   6.096  0.7643  0.1395 -0.5010
 8531SOL    HW137052   1.842   2.108   6.077  1.1413 -1.7385 -2.3576
 8531SOL    HW237053   1.704   2.152   6.080  0.3021  0.1758  1.2438
 8532SOL     OW37054   4.019   1.978   7.885  0.2776 -0.5913 -0.0500
 8532SOL    HW137055   3.929   1.987   7.852  0.8536 -0.1214 -1.4654
 8532SOL    HW237056   4.069   2.030   7.823  0.3871  0.6030  1.0273
 8533SOL     OW37057   3.166   3.156   0.378  0.1785  0.0558  0.6316
 8533SOL    HW137058   3.073   3.137   0.392 -0.4701  0.9796 -2.4512
 8533SOL    HW237059   3.191   3.097   0.307  1.8516 -1.2598  2.3300
 8534SOL     OW37060   2.686   3.560   3.144 -0.3004  0.5469  0.3022
 8534SOL    HW137061   2.622   3.524   3.206  2.0562 -0.4173  2.1721
 8534SOL    HW237062   2.729   3.622   3.202  1.2141  1.1245 -1.4660
 8535SOL     OW37063   0.293   3.349   7.067 -0.0670 -0.2312 -0.3541
 8535SOL    HW137064   0.219   3.355   7.127  1.5685 -0.1600  1.6724
 8535SOL    HW237065   0.280   3.255   7.055 -0.7285  0.1783 -2.8885
 8536SOL     OW37066   1.309   1.638   1.943  0.3919  0.4854 -0.4099
 8536SOL    HW137067   1.330   1.621   2.034 -0.6959 -1.5949 -0.5411
 8536SOL    HW237068   1.294   1.544   1.934  1.2240  0.4880 -1.9292
 8537SOL     OW37069   0.106   3.895  17.137  0.1611 -0.3696  0.2407
 8537SOL    HW137070   0.108   3.960  17.208  2.7393  1.2363 -1.2926
 8537SOL    HW237071   0.028   3.842  17.155  1.0010 -1.5631  0.3389
 8538SOL     OW37072   0.895   3.877   6.499 -0.0805 -0.1363  0.1103
 8538SOL    HW137073   0.950   3.939   6.450 -1.6745  1.8509  0.8286
 8538SOL    HW237074   0.891   3.927   6.580 -1.4797  1.5894 -1.0070
 8539SOL     OW37075   1.283   1.281   7.961 -0.5180 -0.2945  0.1301
 8539SOL    HW137076   1.259   1.252   7.873  0.1818  0.4449 -0.3010
 8539SOL    HW237077   1.372   1.253   7.980  0.2178  0.5852 -1.9829
 8540SOL     OW37078   1.697   4.366   2.594  0.4616  0.3029 -0.2264
 8540SOL    HW137079   1.625   4.311   2.561  0.9642 -0.5338  0.0593
 8540SOL    HW237080   1.740   4.300   2.649 -0.4534 -0.3160 -0.2468
 8541SOL     OW37081   3.925   2.269  10.939 -0.1663 -0.2881  0.3859
 8541SOL    HW137082   3.914   2.253  11.033  1.2799  0.3761  0.6547
 8541SOL    HW237083   4.018   2.248  10.934 -0.1751 -0.2204 -0.0562
 8542SOL     OW37084   1.158   3.973   7.973 -0.1457 -0.2200  0.4662
 8542SOL    HW137085   1.129   4.043   8.032  1.6782  0.4050  0.6029
 8542SOL    HW237086   1.203   3.909   8.029  1.4341 -0.6591 -1.3310
 8543SOL     OW37087   0.708   0.547   7.682  0.3912 -0.0379 -0.4356
 8543SOL    HW137088   0.629   0.565   7.629  1.1369  1.1092 -1.1726
 8543SOL    HW237089   0.776   0.578   7.622 -0.9817  1.7150 -1.1061
 8544SOL     OW37090   2.112   3.031  11.139 -0.2437 -0.4163 -0.1315
 8544SOL    HW137091   2.187   2.981  11.106 -0.0402 -1.2122  1.5041
 8544SOL    HW237092   2.152   3.080  11.210  1.4802  0.5008 -1.7312
 8545SOL     OW37093   0.766   0.981  14.802 -0.5982 -0.2414 -0.1553
 8545SOL    HW137094   0.678   1.014  14.820 -0.8952 -1.3980  0.5476
 8545SOL    HW237095   0.789   0.917  14.870 -2.1930 -0.3849  0.2463
 8546SOL     OW37096   3.285   3.181   2.780 -0.2791 -0.0159 -0.6648
 8546SOL    HW137097   3.320   3.235   2.850 -0.9576  0.5600 -0.7735
 8546SOL    HW237098   3.369   3.163   2.737  0.1756 -2.5173  1.2977
 8547SOL     OW37099   1.766   0.807  10.939  0.1156  0.1720  0.0030
 8547SOL    HW137100   1.776   0.742  10.869  1.1984  0.5012 -0.1425
 8547SOL    HW237101   1.843   0.776  10.986  0.7301  0.2810 -0.9422
 8548SOL     OW37102   1.809   4.155   6.630  0.0610 -0.3864  0.2925
 8548SOL    HW137103   1.866   4.153   6.554 -3.2471 -0.3965 -2.1705
 8548SOL    HW237104   1.783   4.063   6.635  1.1716 -0.7230 -0.2101
 8549SOL     OW37105   4.378   3.371   6.945  1.2871 -0.0120  0.4913
 8549SOL    HW137106   4.323   3.340   7.017 -0.1702  1.3056 -0.0452
 8549SOL    HW237107   4.323   3.402   6.873  2.5193 -0.7893 -0.7702
 8550SOL     OW37108   1.178   0.240   7.409  0.2238 -0.3416  0.5728
 8550SOL    HW137109   1.203   0.292   7.333  1.9057 -0.2638  1.1731
 8550SOL    HW237110   1.196   0.303   7.479  1.2206  0.0244 -0.0128
 8551SOL     OW37111   3.825   1.280   9.030 -0.1559 -0.0342 -0.1703
 8551SOL    HW137112   3.751   1.234   8.991  0.0758 -1.2958  0.8598
 8551SOL    HW237113   3.835   1.228   9.110 -1.3890 -0.8017 -0.5134
 8552SOL     OW37114   3.992   4.542   6.504  0.0566  0.3656 -0.5979
 8552SOL    HW137115   4.008   4.617   6.561 -0.5002 -0.9304  1.2685
 8552SOL    HW237116   3.896   4.544   6.499  0.1173  1.0130 -1.6277
 8553SOL     OW37117   0.805   0.014  11.902 -0.0227  0.1014  0.4821
 8553SOL    HW137118   0.900   0.005  11.912  0.3764  2.1798 -1.4236
 8553SOL    HW237119   0.769   0.024  11.990 -1.5394 -0.8187 -0.0409
 8554SOL     OW37120   1.420   4.159   8.823 -0.0831 -0.4891  0.1385
 8554SOL    HW137121   1.447   4.221   8.891  1.2619 -0.4999 -0.3808
 8554SOL    HW237122   1.508   4.144   8.788 -0.3272 -0.5820 -0.4312
 8555SOL     OW37123   3.915   4.598   5.702 -0.6099  0.4137 -0.0506
 8555SOL    HW137124   4.004   4.583   5.672 -0.9246 -1.4177 -0.0635
 8555SOL    HW237125   3.913   4.694   5.694  0.1142  0.3054 -1.3589
 8556SOL     OW37126   1.431   4.570   6.342  0.4046  0.1068  0.5250
 8556SOL    HW137127   1.477   4.489   6.320  1.5747  0.9007  0.0635
 8556SOL    HW237128   1.473   4.636   6.288  1.2837  0.4744  1.6589
 8557SOL     OW37129   1.994   4.686  12.099 -0.7667 -0.0564  0.4670
 8557SOL    HW137130   2.051   0.013  12.041  1.1898 -0.8688  1.6731
 8557SOL    HW237131   1.917   4.678  12.044 -0.4425  4.3550 -0.6081
 8558SOL     OW37132   3.082   3.381   2.109 -0.1842 -0.1216 -0.5531
 8558SOL    HW137133   3.100   3.432   2.188 -0.3063 -0.2432 -0.4482
 8558SOL    HW237134   3.139   3.426   2.046  0.8397 -1.7536 -0.8032
 8559SOL     OW37135   0.120   2.310   8.953 -0.0454 -0.1874  0.3873
 8559SOL    HW137136   0.055   2.281   9.017  1.0122  1.6823  2.2865
 8559SOL    HW237137   0.056   2.332   8.885  0.0801  1.7354  0.8931
 8560SOL     OW37138   0.773   4.696   9.822  0.4900  0.3714 -0.0152
 8560SOL    HW137139   0.773   4.676   9.729  0.9892 -1.1470  0.2970
 8560SOL    HW237140   0.840   4.631   9.844 -0.7536 -1.0069 -0.3246
 8561SOL     OW37141   4.455   4.643   3.686  0.3087 -0.1432  0.3714
 8561SOL    HW137142   4.460   4.558   3.729  2.2361 -0.1893  0.0577
 8561SOL    HW237143   4.474   4.703   3.759  0.6139 -0.1044  0.2606
 8562SOL     OW37144   0.298   0.986   7.162 -0.0992  0.1219 -0.5964
 8562SOL    HW137145   0.349   0.971   7.083  1.3214  0.1397  0.3140
 8562SOL    HW237146   0.296   1.082   7.158 -2.2486  0.0408 -1.3335
 8563SOL     OW37147   1.409   3.216   3.936 -0.0776 -0.3253 -0.0677
 8563SOL    HW137148   1.330   3.197   3.986 -0.6904  0.9537 -0.5408
 8563SOL    HW237149   1.403   3.312   3.940  0.8863 -0.2704 -0.0348
 8564SOL     OW37150   3.028   0.347  10.783 -0.6660  0.0900 -0.1905
 8564SOL    HW137151   3.069   0.408  10.722 -0.3077 -0.7598 -0.8065
 8564SOL    HW237152   2.963   0.402  10.828  0.2908 -0.1526  1.5099
 8565SOL     OW37153   2.018   3.194   9.726 -0.2374 -1.2700 -0.3479
 8565SOL    HW137154   2.095   3.205   9.781 -0.6196  1.6416 -0.4030
 8565SOL    HW237155   2.055   3.166   9.642 -1.2994 -0.5391 -1.0527
 8566SOL     OW37156   4.305   3.347   9.895 -0.0496 -0.1670 -0.1774
 8566SOL    HW137157   4.365   3.404   9.944 -0.3812  0.3983 -0.4190
 8566SOL    HW237158   4.218   3.382   9.915 -0.3953  1.1572 -3.8350
 8567SOL     OW37159   3.760   4.688   5.192  0.1614  0.0144 -0.2283
 8567SOL    HW137160   3.770   0.058   5.204 -1.5750  0.1247  0.3098
 8567SOL    HW237161   3.852   4.664   5.183 -0.2635 -2.1314  1.0652
 8568SOL     OW37162   3.565   1.064   3.963  0.0244  0.1654  0.0538
 8568SOL    HW137163   3.507   1.127   3.919  1.4713  1.1569 -0.4453
 8568SOL    HW237164   3.519   0.984   3.940  0.9465 -0.4136  0.2191
 8569SOL     OW37165   1.657   1.019  17.479 -0.7246  0.0418 -0.5055
 8569SOL    HW137166   1.632   0.977  17.397  0.3041 -2.5880  0.5048
 8569SOL    HW237167   1.572   1.015  17.521 -0.0403 -0.0048  0.8847
 8570SOL     OW37168   1.405   0.558   9.049 -0.5233 -0.0375 -0.5486
 8570SOL    HW137169   1.438   0.624   8.988 -0.2904 -0.8094 -1.2511
 8570SOL    HW237170   1.353   0.614   9.108  2.7180  1.8319  0.5418
 8571SOL     OW37171   0.787   2.356   0.394  0.0203  0.8119  0.3561
 8571SOL    HW137172   0.762   2.308   0.473 -0.0213 -1.7145 -1.1973
 8571SOL    HW237173   0.854   2.414   0.433 -0.0210  0.9643  0.2012
 8572SOL     OW37174   3.155   4.284   5.182 -0.0978  0.1272  0.3272
 8572SOL    HW137175   3.231   4.338   5.201  1.7694 -1.8566 -1.4418
 8572SOL    HW237176   3.161   4.239   5.267  1.6861  0.0877  0.1750
 8573SOL     OW37177   2.869   0.240  16.196  0.5981 -0.7930 -0.3255
 8573SOL    HW137178   2.811   0.315  16.212  1.0318 -0.6300  0.4741
 8573SOL    HW237179   2.804   0.172  16.212  0.1811 -0.6605 -1.4287
 8574SOL     OW37180   2.964   1.947   3.574  0.5574 -0.2099  0.0842
 8574SOL    HW137181   2.896   2.014   3.587 -0.1997 -0.5710 -2.0953
 8574SOL    HW237182   2.999   1.978   3.491 -1.9577  0.8374 -0.5903
 8575SOL     OW37183   0.427   2.479   2.242 -0.1951  0.5115  0.4163
 8575SOL    HW137184   0.436   2.571   2.220  3.1820 -0.2078 -1.2969
 8575SOL    HW237185   0.475   2.446   2.166 -0.8284  0.4562  0.0365
 8576SOL     OW37186   2.027   1.506   9.233 -0.4749  0.0241 -0.5202
 8576SOL    HW137187   2.089   1.489   9.162  2.3699 -0.6466  2.1307
 8576SOL    HW237188   2.032   1.418   9.270  0.4813 -0.1563 -1.0625
 8577SOL     OW37189   1.083   2.625  17.329 -0.2192  0.2667  0.4900
 8577SOL    HW137190   1.177   2.632  17.311 -0.5470 -0.5397 -1.5382
 8577SOL    HW237191   1.044   2.687  17.267 -0.0131  0.2235  0.3136
 8578SOL     OW37192   2.483   4.652   6.854  0.6297  0.2806  0.2397
 8578SOL    HW137193   2.541   4.666   6.779  1.1995 -1.4539  0.3357
 8578SOL    HW237194   2.544   4.659   6.927  0.1410  0.7355  0.6044
 8579SOL     OW37195   2.787   2.707   2.337 -0.3867  0.1035  0.2530
 8579SOL    HW137196   2.873   2.729   2.301  1.3302 -0.4309  4.0654
 8579SOL    HW237197   2.779   2.619   2.299 -0.2779 -0.2521  1.0615
 8580SOL     OW37198   1.724   2.702   5.898 -0.4169  0.0561  0.1833
 8580SOL    HW137199   1.683   2.748   5.825 -1.1361  2.8190  2.3330
 8580SOL    HW237200   1.656   2.640   5.924  0.1780 -0.2886  0.9290
 8581SOL     OW37201   3.597   2.334   0.803 -0.6035 -0.0723 -0.6375
 8581SOL    HW137202   3.611   2.342   0.897  2.0716  2.3684 -1.2743
 8581SOL    HW237203   3.531   2.400   0.783 -0.7043 -0.6840 -2.3229
 8582SOL     OW37204   1.486   1.439   9.567 -0.4631 -0.4618  0.3355
 8582SOL    HW137205   1.549   1.461   9.636 -0.4138  0.5947 -0.0361
 8582SOL    HW237206   1.462   1.525   9.531 -2.3519 -1.0323  0.2323
 8583SOL     OW37207   3.003   3.247   0.761  0.9540 -0.4128  0.0497
 8583SOL    HW137208   2.960   3.196   0.830 -0.8622 -3.1697 -3.1148
 8583SOL    HW237209   3.098   3.248   0.776  0.9966  0.1192 -0.2537
 8584SOL     OW37210   2.495   2.219   0.061 -0.4592 -0.5488 -0.3260
 8584SOL    HW137211   2.489   2.189   0.151  0.4846  1.1513  0.3069
 8584SOL    HW237212   2.589   2.239   0.057 -0.5853  0.6435  2.5946
 8585SOL     OW37213   1.101   0.318  15.809 -0.1891  0.3703  0.2935
 8585SOL    HW137214   1.092   0.334  15.715 -1.5086 -1.5929  0.0881
 8585SOL    HW237215   1.049   0.394  15.838 -0.4750  0.4732 -0.5049
 8586SOL     OW37216   2.150   1.892   3.591  0.2780 -0.0335 -0.2391
 8586SOL    HW137217   2.064   1.925   3.569  0.0517  0.2052  1.0199
 8586SOL    HW237218   2.187   1.957   3.650  0.2842  0.4702 -0.8049
 8587SOL     OW37219   3.849   4.570  13.516 -0.1850 -0.0599 -0.4777
 8587SOL    HW137220   3.905   4.495  13.536 -2.3238 -1.1496  1.2943
 8587SOL    HW237221   3.880   4.643  13.571 -1.3044  0.3251 -0.3533
 8588SOL     OW37222   1.061   4.442  17.098 -0.5962 -0.6701 -0.2563
 8588SOL    HW137223   1.104   4.456  17.014 -1.3747  2.2188 -0.1780
 8588SOL    HW237224   1.019   4.523  17.127 -1.1583 -0.7361 -0.9038
 8589SOL     OW37225   0.765   0.335   5.232 -0.0908 -0.2502 -0.1238
 8589SOL    HW137226   0.719   0.394   5.291 -1.6487 -1.4567 -0.1389
 8589SOL    HW237227   0.712   0.347   5.153  0.8129 -0.7790 -0.8120
 8590SOL     OW37228   2.012   0.857  12.439  0.4228 -0.4879  0.2716
 8590SOL    HW137229   2.036   0.778  12.488  0.9784 -1.0445 -0.8921
 8590SOL    HW237230   1.983   0.910  12.513  1.1189  0.5321 -0.1931
 8591SOL     OW37231   0.502   0.576  15.060  0.3429 -0.0822  0.3411
 8591SOL    HW137232   0.502   0.638  15.133  2.5091  0.1115  0.1785
 8591SOL    HW237233   0.576   0.616  15.014 -0.8948  0.9036 -0.8173
 8592SOL     OW37234   1.942   0.220   3.115  0.1302 -0.0067  0.0081
 8592SOL    HW137235   1.846   0.219   3.118  0.1534  1.4561  1.2897
 8592SOL    HW237236   1.959   0.204   3.023 -0.8133 -3.3528  0.4135
 8593SOL     OW37237   4.375   1.851   4.092 -0.3625  0.1957 -0.1127
 8593SOL    HW137238   4.350   1.939   4.064 -1.2768  0.7557  2.4730
 8593SOL    HW237239   4.329   1.797   4.028  1.0490 -1.0730 -0.0624
 8594SOL     OW37240   2.860   2.187   1.596  0.2455 -0.1226 -0.0523
 8594SOL    HW137241   2.796   2.257   1.583 -0.5126 -0.6663  0.8105
 8594SOL    HW237242   2.803   2.122   1.637  0.7522 -1.6879 -1.8584
 8595SOL     OW37243   0.467   1.805   9.494 -0.0839  0.3153 -0.3712
 8595SOL    HW137244   0.427   1.724   9.460  0.9960 -1.5117  2.6962
 8595SOL    HW237245   0.550   1.766   9.521 -1.0044 -0.0486  1.8929
 8596SOL     OW37246   0.748   0.041  14.559  0.3056  0.0037  0.2452
 8596SOL    HW137247   0.828   0.072  14.517  0.5179  0.6923  1.1599
 8596SOL    HW237248   0.769   0.065  14.649  0.1410  0.9666  0.0270
 8597SOL     OW37249   3.798   3.794  13.355 -0.5113  0.2240  0.0506
 8597SOL    HW137250   3.869   3.744  13.394 -1.3099 -0.5514  0.5309
 8597SOL    HW237251   3.825   3.791  13.263 -0.4003  2.8527 -0.0150
 8598SOL     OW37252   2.614   3.115   1.825 -0.4483  0.4657 -0.1902
 8598SOL    HW137253   2.538   3.170   1.844 -1.7726 -1.4984  0.1565
 8598SOL    HW237254   2.598   3.111   1.730  0.1522 -1.4385 -0.2091
 8599SOL     OW37255   4.128   1.370   4.954  0.0876 -0.8390 -0.1055
 8599SOL    HW137256   4.165   1.407   4.873  0.5854  2.3043  1.5320
 8599SOL    HW237257   4.120   1.445   5.013 -2.0313  0.0889 -1.5674
 8600SOL     OW37258   2.519   2.969   4.209  0.0393  0.1547  0.2939
 8600SOL    HW137259   2.499   2.959   4.116 -2.1940 -0.7456  0.8669
 8600SOL    HW237260   2.505   3.064   4.213 -1.9720 -0.1043 -0.7904
 8601SOL     OW37261   1.469   3.675   3.185 -0.4813  0.2339  0.6347
 8601SOL    HW137262   1.464   3.757   3.235 -0.0258  1.2490 -0.9621
 8601SOL    HW237263   1.385   3.666   3.139 -0.3949  1.3140  0.2662
 8602SOL     OW37264   4.156   0.439   5.818  0.0718 -0.4483 -0.0852
 8602SOL    HW137265   4.084   0.489   5.781  0.3590 -0.2080 -0.3114
 8602SOL    HW237266   4.109   0.358   5.839  0.5925 -1.1906 -1.8617
 8603SOL     OW37267   4.080   0.900   8.415  0.5230  0.2669 -0.3792
 8603SOL    HW137268   4.132   0.980   8.414 -0.5001  0.9636  1.9676
 8603SOL    HW237269   4.025   0.926   8.340  0.3277  1.5959  0.2144
 8604SOL     OW37270   2.058   2.869   5.832  0.3820  0.1724  0.0950
 8604SOL    HW137271   1.969   2.884   5.801  0.6375  3.5962  1.0035
 8604SOL    HW237272   2.056   2.783   5.874 -0.7340 -0.9521 -2.2879
 8605SOL     OW37273   2.461   1.178   9.776 -0.0801  0.1358 -0.5253
 8605SOL    HW137274   2.367   1.197   9.777 -0.1012 -0.0841  1.3583
 8605SOL    HW237275   2.490   1.211   9.691  0.7852  1.9554  0.4624
 8606SOL     OW37276   3.190   1.732   7.844  0.6543  0.0873  0.6419
 8606SOL    HW137277   3.247   1.659   7.871  1.2993  0.2796 -0.1765
 8606SOL    HW237278   3.240   1.807   7.874  1.0654 -0.4896  1.3880
 8607SOL     OW37279   2.801   4.632   7.291  0.4149 -0.2938 -0.2608
 8607SOL    HW137280   2.784   4.689   7.367  1.8354 -0.5398  0.2336
 8607SOL    HW237281   2.746   4.560   7.323 -0.1588 -0.2632 -1.1940
 8608SOL     OW37282   0.902   0.570   0.923 -0.3518 -0.0438  0.1042
 8608SOL    HW137283   0.880   0.569   1.016  1.1808  1.7177  0.4704
 8608SOL    HW237284   0.877   0.485   0.887  2.4273  0.2169 -2.3961
 8609SOL     OW37285   3.083   0.717   2.200  0.7288  0.1934  0.4696
 8609SOL    HW137286   3.015   0.683   2.142 -1.1210  1.1793  2.0438
 8609SOL    HW237287   3.090   0.637   2.253 -0.1927 -1.0012 -1.2170
 8610SOL     OW37288   3.593   3.027   0.891 -0.4282 -0.4180 -0.5863
 8610SOL    HW137289   3.607   2.951   0.834 -0.4930 -1.3593  0.6397
 8610SOL    HW237290   3.676   3.074   0.886 -1.5082  1.4428 -0.9402
 8611SOL     OW37291   4.428   0.501   5.789 -0.0713  0.3501  0.0574
 8611SOL    HW137292   4.333   0.493   5.797 -0.1514 -1.0402 -2.4075
 8611SOL    HW237293   4.448   0.542   5.873 -2.8381  0.3180  0.7312
 8612SOL     OW37294   1.562   4.185  15.461  0.1140  0.5965 -0.1713
 8612SOL    HW137295   1.624   4.237  15.511 -0.3203  0.6502  0.3155
 8612SOL    HW237296   1.573   4.220  15.373  1.3801 -0.7100 -0.5196
 8613SOL     OW37297   2.619   1.411   7.610 -0.2205 -0.0859  0.1965
 8613SOL    HW137298   2.680   1.439   7.678  0.5990  2.8493 -1.7492
 8613SOL    HW237299   2.651   1.477   7.549  0.5457 -0.1057  0.5772
 8614SOL     OW37300   1.380   1.674   9.421 -0.1277  0.5169  0.2741
 8614SOL    HW137301   1.426   1.755   9.398  1.3196  0.2885  2.3377
 8614SOL    HW237302   1.295   1.718   9.423 -0.3139  0.2591 -1.7694
 8615SOL     OW37303   3.413   1.941   3.204  0.4114  0.3087 -0.7726
 8615SOL    HW137304   3.407   2.037   3.209 -1.4823  0.3120 -3.2195
 8615SOL    HW237305   3.507   1.942   3.222 -0.1780 -0.7520  2.2668
 8616SOL     OW37306   3.810   2.502   5.274  0.5904 -0.2019  0.5650
 8616SOL    HW137307   3.737   2.476   5.330  1.2775 -1.0436  1.0710
 8616SOL    HW237308   3.885   2.489   5.332 -0.2344 -0.2000  1.6264
 8617SOL     OW37309   3.230   0.107   1.951 -0.0445  0.2948  0.1160
 8617SOL    HW137310   3.163   0.175   1.941  1.1808  1.5852  0.7214
 8617SOL    HW237311   3.311   0.152   1.976  0.7310 -0.2540 -1.3823
 8618SOL     OW37312   3.540   3.367   7.296  0.4385 -0.2251 -0.3844
 8618SOL    HW137313   3.496   3.425   7.358  2.8682  1.1366  0.0595
 8618SOL    HW237314   3.582   3.307   7.358 -0.8229 -0.0793  0.6123
 8619SOL     OW37315   3.676   1.515   9.509  0.1861 -0.0577  0.4437
 8619SOL    HW137316   3.651   1.501   9.601 -0.7082 -0.4429  0.1447
 8619SOL    HW237317   3.657   1.436   9.459 -2.1672  0.7942 -0.0186
 8620SOL     OW37318   1.633   2.780   4.109  0.0913  0.4365  0.6306
 8620SOL    HW137319   1.635   2.735   4.193  1.7966  1.2924  1.0485
 8620SOL    HW237320   1.592   2.859   4.146  1.1569  1.5900 -0.6558
 8621SOL     OW37321   3.309   1.285   7.888 -0.0509  0.0362  0.1712
 8621SOL    HW137322   3.339   1.264   7.976  1.1382  1.8579  0.1972
 8621SOL    HW237323   3.287   1.194   7.868 -2.8263  1.0847 -1.5114
 8622SOL     OW37324   4.518   3.210   3.861  0.0381 -0.1365 -0.1838
 8622SOL    HW137325   4.561   3.275   3.805  0.6518  0.7444  1.3056
 8622SOL    HW237326   4.425   3.232   3.855 -0.2616 -1.3063  0.2348
 8623SOL     OW37327   0.005   0.272   5.213  0.3141  0.1217 -0.0975
 8623SOL    HW137328   0.057   0.244   5.138  0.7767  2.1174 -0.5304
 8623SOL    HW237329   0.050   0.221   5.280  1.1559  0.7381 -0.1860
 8624SOL     OW37330   2.298   1.797   0.846 -0.4294  0.7688 -0.0833
 8624SOL    HW137331   2.230   1.864   0.833 -0.2575  0.5395 -2.2647
 8624SOL    HW237332   2.374   1.848   0.816  0.4236 -0.8719 -0.6752
 8625SOL     OW37333   2.443   2.644   9.917  0.1059  0.2917  0.0229
 8625SOL    HW137334   2.534   2.667   9.898  0.1568 -0.9532 -1.2373
 8625SOL    HW237335   2.403   2.658   9.831 -0.3234  2.2428  0.5282
 8626SOL     OW37336   2.389   0.222   2.843 -0.0135  0.1325 -0.1783
 8626SOL    HW137337   2.465   0.171   2.872 -0.5146 -0.3933  0.2151
 8626SOL    HW237338   2.410   0.230   2.750 -0.2718 -1.1983 -0.3527
 8627SOL     OW37339   4.413   3.844   5.190  0.0026  0.0760 -0.6197
 8627SOL    HW137340   4.386   3.846   5.098 -1.2103  0.9500 -0.2485
 8627SOL    HW237341   4.329   3.822   5.230  0.1268  1.8060  0.6284
 8628SOL     OW37342   1.187   1.418   3.905 -0.0983 -0.2160 -0.0395
 8628SOL    HW137343   1.114   1.362   3.932 -0.8317  1.5855  1.7103
 8628SOL    HW237344   1.230   1.363   3.840  1.7394 -1.0850  1.9225
 8629SOL     OW37345   0.405   0.092   8.232 -0.6549  0.0057 -0.9783
 8629SOL    HW137346   0.364   0.059   8.312 -0.6423 -1.3035 -1.4935
 8629SOL    HW237347   0.428   0.010   8.188  0.7811 -0.6525  0.9930
 8630SOL     OW37348   2.701   3.857  13.959  0.0940 -0.7020 -0.0666
 8630SOL    HW137349   2.773   3.869  14.021 -0.0310  0.9299 -0.2405
 8630SOL    HW237350   2.740   3.805  13.888  1.2308  1.3993 -0.9825
 8631SOL     OW37351   3.894   1.529   9.110  0.0175 -0.2928 -0.1674
 8631SOL    HW137352   3.881   1.579   9.029  0.4142 -1.8211 -1.1775
 8631SOL    HW237353   3.858   1.443   9.087 -0.5519 -0.1238  0.0892
 8632SOL     OW37354   4.591   1.712   2.655 -0.0388 -0.3010  0.6949
 8632SOL    HW137355   4.634   1.753   2.731 -0.1046  1.2076 -0.0700
 8632SOL    HW237356   4.659   1.648   2.633 -0.0087 -0.4891  1.3263
 8633SOL     OW37357   2.510   3.362   5.035  0.1028  0.1858  0.0038
 8633SOL    HW137358   2.433   3.410   5.065  0.3864  1.4164 -1.1991
 8633SOL    HW237359   2.574   3.432   5.045  0.1980  0.0696  0.1948
 8634SOL     OW37360   0.159   3.164   4.748 -0.0762  0.0461  0.7271
 8634SOL    HW137361   0.197   3.122   4.671 -1.2367  0.6430 -0.1803
 8634SOL    HW237362   0.192   3.108   4.818 -1.4816 -2.4469 -0.6173
 8635SOL     OW37363   0.141   3.443  14.548  0.0474 -0.3680 -0.1117
 8635SOL    HW137364   0.115   3.412  14.461 -2.4501  1.7299 -0.1051
 8635SOL    HW237365   0.057   3.449  14.593 -1.1963 -0.4086 -2.4608
 8636SOL     OW37366   2.515   3.444  13.662 -0.3499  0.6272 -0.2643
 8636SOL    HW137367   2.436   3.433  13.610  0.0012 -3.0908  0.0462
 8636SOL    HW237368   2.496   3.529  13.703 -1.3966  0.1427  0.2441
 8637SOL     OW37369   3.807   2.978  15.934  0.3480  0.6741  0.2955
 8637SOL    HW137370   3.786   3.046  15.998 -0.4369  0.5179  0.1953
 8637SOL    HW237371   3.746   2.910  15.964  0.8365  0.5012  0.8871
 8638SOL     OW37372   1.720   2.855   9.219  0.1605  0.5079 -0.5120
 8638SOL    HW137373   1.654   2.815   9.163  1.5257 -1.4115 -0.7550
 8638SOL    HW237374   1.669   2.927   9.256 -1.2874  0.5446 -2.5879
 8639SOL     OW37375   2.922   2.337  10.549  0.1632  0.8971  0.2726
 8639SOL    HW137376   2.959   2.281  10.618  0.1546  0.1913 -0.2927
 8639SOL    HW237377   2.991   2.386  10.506  0.9860 -0.6591 -0.2017
 8640SOL     OW37378   2.579   3.850   6.511  0.3857 -0.8496 -0.3049
 8640SOL    HW137379   2.602   3.924   6.456 -0.0096 -0.3609  0.1777
 8640SOL    HW237380   2.544   3.796   6.440 -4.0304  0.0050  1.2201
 8641SOL     OW37381   4.556   2.614   0.876  0.0079  0.5675 -0.8031
 8641SOL    HW137382   4.599   2.581   0.955 -2.1898  0.1387  0.2402
 8641SOL    HW237383   4.613   2.576   0.810  1.3489  0.0999  0.6366
 8642SOL     OW37384   0.961   2.583   4.210  0.2639 -0.3308  0.2234
 8642SOL    HW137385   1.034   2.629   4.251  2.3601 -0.9822 -2.7452
 8642SOL    HW237386   0.906   2.573   4.287 -1.0317 -1.8828 -0.9036
 8643SOL     OW37387   0.212   1.581  11.585  0.2065 -0.0772  0.4095
 8643SOL    HW137388   0.291   1.546  11.542  0.2568  1.1455 -0.4773
 8643SOL    HW237389   0.172   1.619  11.506  1.7521 -1.3396 -0.9978
 8644SOL     OW37390   2.104   0.814  16.860  0.2232 -0.5911 -0.2640
 8644SOL    HW137391   2.088   0.854  16.945  0.4306  0.5859 -0.7888
 8644SOL    HW237392   2.103   0.719  16.874  2.7976 -0.7854 -1.4947
 8645SOL     OW37393   2.606   1.744   4.368  0.2023 -0.1737 -0.3917
 8645SOL    HW137394   2.670   1.791   4.315  0.1969  1.3841  0.9634
 8645SOL    HW237395   2.547   1.703   4.305  0.5872 -1.6264  0.2118
 8646SOL     OW37396   2.795   2.990   6.989  0.3848 -0.4133  0.1003
 8646SOL    HW137397   2.833   2.938   6.918  0.5649  0.5491 -0.5196
 8646SOL    HW237398   2.701   2.973   6.983  0.4006 -1.5045  3.0091
 8647SOL     OW37399   2.272   0.069   8.114  0.2898  0.2580  0.3367
 8647SOL    HW137400   2.228   0.152   8.133 -0.3580  0.1778 -0.8143
 8647SOL    HW237401   2.308   0.092   8.029 -0.6376  1.5762  0.2851
 8648SOL     OW37402   2.974   2.241  12.136  0.1316  0.0820 -0.0585
 8648SOL    HW137403   2.918   2.234  12.213 -0.1037 -0.5112 -0.2884
 8648SOL    HW237404   3.013   2.153  12.136  1.0899  0.4955 -2.7120
 8649SOL     OW37405   3.427   4.221  12.744 -0.2244 -0.2064 -0.4644
 8649SOL    HW137406   3.464   4.306  12.768  0.7323 -0.8012  0.1571
 8649SOL    HW237407   3.496   4.165  12.778 -0.2158  1.8966  3.0320
 8650SOL     OW37408   2.886   1.686   4.028  0.2659  0.0101 -0.5252
 8650SOL    HW137409   2.949   1.616   4.043  1.5489  1.1803 -0.3877
 8650SOL    HW237410   2.868   1.674   3.935  1.6278  0.6378 -0.8768
 8651SOL     OW37411   1.113   2.379  16.660 -0.2433  0.1652 -0.6968
 8651SOL    HW137412   1.074   2.296  16.687 -1.6342  0.3847 -2.0914
 8651SOL    HW237413   1.137   2.400  16.751 -1.2860 -0.8964 -0.1890
 8652SOL     OW37414   4.503   0.563   0.718  0.3473 -0.0800 -0.0651
 8652SOL    HW137415   4.485   0.651   0.685  2.2755  0.3767  0.0700
 8652SOL    HW237416   4.552   0.522   0.646 -0.4755  0.5918 -1.0046
 8653SOL     OW37417   1.143   0.279  12.870  0.3450  0.1673  0.2435
 8653SOL    HW137418   1.051   0.261  12.889  0.3468  1.2336  1.2347
 8653SOL    HW237419   1.156   0.206  12.810 -2.5034 -1.2185  1.3209
 8654SOL     OW37420   0.978   1.404  13.975  0.3271  0.0845  0.5715
 8654SOL    HW137421   1.016   1.459  13.906  1.1951  1.5790  2.2341
 8654SOL    HW237422   0.887   1.406  13.947  0.4376 -0.3140  0.1887
 8655SOL     OW37423   3.869   0.875   0.966 -0.3700 -0.3347  0.2402
 8655SOL    HW137424   3.951   0.826   0.973 -0.4887 -0.5637  0.0332
 8655SOL    HW237425   3.827   0.841   0.887 -1.2576 -0.2301  0.6662
 8656SOL     OW37426   3.668   1.702  15.910  0.2889 -0.3309  0.0716
 8656SOL    HW137427   3.604   1.696  15.981 -2.9143  2.1716 -2.6388
 8656SOL    HW237428   3.621   1.689  15.828 -0.1944  0.5964  0.2036
 8657SOL     OW37429   0.511   0.471   4.620  0.6285 -0.6484  0.0644
 8657SOL    HW137430   0.455   0.441   4.692  0.6431 -1.0573 -0.0943
 8657SOL    HW237431   0.579   0.404   4.612 -0.1668 -1.3235 -1.0661
 8658SOL     OW37432   3.113   2.017   7.073 -0.0944 -0.3106  0.3077
 8658SOL    HW137433   3.059   2.029   6.994  0.1375  1.6628  0.4462
 8658SOL    HW237434   3.039   2.007   7.133 -1.5014  1.1531 -1.1630
 8659SOL     OW37435   1.453   4.267  12.522 -0.8268 -0.0446  0.0990
 8659SOL    HW137436   1.392   4.192  12.518 -0.1863 -0.6202  1.2594
 8659SOL    HW237437   1.456   4.271  12.617 -0.0162  1.7500 -0.0141
 8660SOL     OW37438   0.805   2.228   1.981 -0.2894  0.0435  0.5617
 8660SOL    HW137439   0.762   2.206   1.898 -0.0848  1.4238  0.0986
 8660SOL    HW237440   0.867   2.155   1.988 -0.0952  0.2522  0.9983
 8661SOL     OW37441   1.642   1.819   9.816  0.2479  0.1136  0.5595
 8661SOL    HW137442   1.680   1.892   9.864 -1.9089  1.8099 -0.3241
 8661SOL    HW237443   1.710   1.817   9.748 -1.6653 -0.9392 -1.3117
 8662SOL     OW37444   3.854   4.221   8.499  0.1953  0.2285  0.2003
 8662SOL    HW137445   3.802   4.227   8.578 -0.7190 -1.5100 -0.2828
 8662SOL    HW237446   3.907   4.301   8.500  0.0855  0.3278 -1.2115
 8663SOL     OW37447   1.727   3.902   2.412  0.0534 -0.2458  0.0655
 8663SOL    HW137448   1.753   3.975   2.468 -0.8108  0.1634 -0.0654
 8663SOL    HW237449   1.681   3.839   2.467 -0.6182 -0.0677 -0.2907
 8664SOL     OW37450   0.572   2.376   2.010  0.5136 -0.3938 -0.3809
 8664SOL    HW137451   0.582   2.430   1.931 -2.9903  1.0654  0.1620
 8664SOL    HW237452   0.645   2.315   2.018 -0.0216 -0.9639  0.2225
 8665SOL     OW37453   1.341   0.197  10.616 -0.1911 -0.5550 -0.2682
 8665SOL    HW137454   1.436   0.189  10.603  0.1066  2.2894  0.1354
 8665SOL    HW237455   1.306   0.153  10.539 -1.5490  2.1410 -1.2112
 8666SOL     OW37456   0.011   0.437  11.376 -0.1464  0.0946 -0.4602
 8666SOL    HW137457   0.057   0.410  11.297  1.0084  1.7752 -0.3598
 8666SOL    HW237458   4.665   0.371  11.375 -0.5277  0.4892  2.3782
 8667SOL     OW37459   1.050   0.374   5.787  0.1046  0.4486 -0.0190
 8667SOL    HW137460   0.977   0.417   5.741  0.2504  1.0679  0.3280
 8667SOL    HW237461   1.084   0.455   5.826  3.1911  0.0268 -1.8896
 8668SOL     OW37462   0.369   0.371   9.753 -0.1991  0.4814 -0.0169
 8668SOL    HW137463   0.403   0.299   9.701  0.9921  2.2917 -1.7320
 8668SOL    HW237464   0.295   0.322   9.789 -0.3791 -0.3157 -1.4711
 8669SOL     OW37465   2.985   3.447   0.469  0.3079 -0.5388 -0.3236
 8669SOL    HW137466   2.940   3.525   0.499  0.9095  0.2248 -1.4020
 8669SOL    HW237467   2.999   3.401   0.552  1.2046  1.0443  0.4020
 8670SOL     OW37468   0.351   4.241   0.389  0.0201 -0.1262  0.5039
 8670SOL    HW137469   0.377   4.190   0.313 -2.4479  1.5289 -1.4753
 8670SOL    HW237470   0.440   4.252   0.423 -0.6295 -0.0128  2.1870
 8671SOL     OW37471   2.989   3.188   5.787  0.1130 -0.1523  0.1495
 8671SOL    HW137472   2.913   3.191   5.845  0.6805  0.4467  0.8473
 8671SOL    HW237473   2.990   3.095   5.762 -1.6077  0.0053 -0.5666
 8672SOL     OW37474   2.732   2.132  10.562  0.1748  0.0999  0.3043
 8672SOL    HW137475   2.784   2.211  10.545 -0.2830 -0.0939 -2.1086
 8672SOL    HW237476   2.655   2.164  10.514 -0.0417 -1.8693 -0.6668
 8673SOL     OW37477   0.765   3.680  17.234 -0.0464 -0.0934 -0.1663
 8673SOL    HW137478   0.769   3.721  17.320  2.1683 -1.0404  0.1797
 8673SOL    HW237479   0.685   3.632  17.255 -0.1961  1.3427  2.4654
 8674SOL     OW37480   0.662   3.441   8.862 -0.5915  0.4009  0.4216
 8674SOL    HW137481   0.730   3.387   8.901 -0.9610  0.2257  0.8252
 8674SOL    HW237482   0.585   3.388   8.883 -0.4311 -0.2329 -0.6020
 8675SOL     OW37483   3.980   2.546   7.417 -0.0574  0.2105  0.0482
 8675SOL    HW137484   4.016   2.466   7.379 -4.0277 -1.4500 -0.2480
 8675SOL    HW237485   3.930   2.507   7.489 -0.4826  1.3905  0.3895
 8676SOL     OW37486   0.127   0.038  11.855  0.2907 -0.0353 -0.4065
 8676SOL    HW137487   0.150   0.059  11.946 -0.9721 -0.1508 -0.0655
 8676SOL    HW237488   0.035   0.063  11.861  0.5585  0.9759 -0.5560
 8677SOL     OW37489   3.845   3.848   8.580 -0.1325 -0.1983 -0.2300
 8677SOL    HW137490   3.825   3.882   8.667 -0.7400  2.5931 -1.4628
 8677SOL    HW237491   3.929   3.892   8.568 -0.8370  1.3997  0.7803
 8678SOL     OW37492   4.699   3.115   7.637  0.1047 -0.1200 -0.2247
 8678SOL    HW137493   4.671   3.104   7.728 -2.1175  2.2011 -0.6365
 8678SOL    HW237494   0.040   3.185   7.642 -0.5813  0.2888  2.9969
 8679SOL     OW37495   1.976   2.361   6.056 -0.1304 -0.1386 -0.2147
 8679SOL    HW137496   1.975   2.438   6.113  0.8163 -0.1146 -0.2303
 8679SOL    HW237497   2.022   2.299   6.113  1.5608 -0.2751 -1.6923
 8680SOL     OW37498   3.322   0.784   5.684 -0.6961  0.2061  0.3208
 8680SOL    HW137499   3.402   0.801   5.734  0.6577 -1.1125 -1.3721
 8680SOL    HW237500   3.283   0.711   5.733  2.4708 -0.0527  2.4765
 8681SOL     OW37501   1.836   2.734   7.354 -0.4982  0.2508  0.3633
 8681SOL    HW137502   1.870   2.737   7.265 -0.1653 -2.2959  0.3954
 8681SOL    HW237503   1.915   2.751   7.406 -0.0450 -0.2951 -0.1485
 8682SOL     OW37504   1.920   4.327   5.906  0.3294  0.1288 -0.1158
 8682SOL    HW137505   1.900   4.235   5.886 -0.1686  0.0247  0.8294
 8682SOL    HW237506   2.016   4.329   5.904  0.3269 -0.9202 -1.2689
 8683SOL     OW37507   3.558   1.414   7.678 -0.1352  0.1739  0.4614
 8683SOL    HW137508   3.556   1.389   7.770  2.0155 -0.6970  0.2691
 8683SOL    HW237509   3.639   1.465   7.679  1.2717 -2.1316  1.2016
 8684SOL     OW37510   1.780   0.118   8.401 -1.1025  0.3524  0.6422
 8684SOL    HW137511   1.728   0.093   8.324  1.1180  1.4879 -1.2370
 8684SOL    HW237512   1.749   0.207   8.414 -2.6507 -0.0486 -0.2178
 8685SOL     OW37513   2.011   4.513   3.708  0.4891  0.1197  0.0080
 8685SOL    HW137514   1.965   4.595   3.693 -1.7512 -0.6883  2.4487
 8685SOL    HW237515   2.103   4.538   3.696  0.5853 -0.2295 -0.0127
 8686SOL     OW37516   3.523   3.282   4.494 -0.6924  0.0327 -0.1727
 8686SOL    HW137517   3.520   3.332   4.575  1.4758  0.3890 -0.3253
 8686SOL    HW237518   3.432   3.255   4.483 -0.0298 -3.3075  2.8006
 8687SOL     OW37519   0.701   0.596   7.039 -0.1081 -0.3488 -0.4610
 8687SOL    HW137520   0.665   0.683   7.027  1.2007  0.2287 -0.2237
 8687SOL    HW237521   0.793   0.605   7.011  0.2528  3.0098  1.8204
 8688SOL     OW37522   3.340   1.525   3.809  0.7567 -0.5592 -0.4204
 8688SOL    HW137523   3.319   1.473   3.731 -0.2182  0.1299 -0.6156
 8688SOL    HW237524   3.366   1.609   3.773  0.6198 -0.3757 -0.0943
 8689SOL     OW37525   0.881   1.993   8.046  0.4322  0.0962 -0.1465
 8689SOL    HW137526   0.900   2.087   8.045  0.4602  0.0944  0.5343
 8689SOL    HW237527   0.788   1.990   8.025  0.1433  1.4386  0.9194
 8690SOL     OW37528   2.838   4.585   4.908 -0.1561 -0.1032  0.0369
 8690SOL    HW137529   2.769   4.610   4.970  0.0840  1.2637 -0.2536
 8690SOL    HW237530   2.909   4.586   4.972  0.5270  2.4575 -0.7487
 8691SOL     OW37531   3.609   3.564   7.672 -0.5566 -0.0528  0.8619
 8691SOL    HW137532   3.545   3.625   7.708 -1.4374 -1.0119  0.9120
 8691SOL    HW237533   3.548   3.526   7.609  0.7664 -0.4637 -0.1634
 8692SOL     OW37534   1.078   0.139  16.065 -0.6756  0.1705  0.2996
 8692SOL    HW137535   1.080   0.114  16.158  2.0838  1.0187  0.4372
 8692SOL    HW237536   1.047   0.228  16.085  3.5361  1.7517 -0.2604
 8693SOL     OW37537   2.049   3.796   5.435  0.4969  0.5108  0.1135
 8693SOL    HW137538   2.039   3.849   5.355 -0.5013  2.4819  1.5348
 8693SOL    HW237539   2.037   3.861   5.504 -2.0227 -0.3739  0.5150
 8694SOL     OW37540   3.187   1.093   5.948  0.3612  0.5357  0.4466
 8694SOL    HW137541   3.151   1.178   5.971 -1.3409 -0.1066  0.1408
 8694SOL    HW237542   3.110   1.037   5.962  0.9240 -1.1485 -3.1815
 8695SOL     OW37543   2.601   0.190   4.786 -0.0193 -0.2917  0.0305
 8695SOL    HW137544   2.665   0.129   4.749  3.2344  0.7777  3.8130
 8695SOL    HW237545   2.656   0.267   4.804 -0.0840 -0.2003 -0.1627
 8696SOL     OW37546   4.606   3.696   4.928 -0.2781  0.1045  0.0855
 8696SOL    HW137547   4.610   3.697   4.833  0.1621 -1.2201  0.0873
 8696SOL    HW237548   4.597   3.787   4.956  0.3161 -0.2866  1.5815
 8697SOL     OW37549   4.130   2.319   7.268 -0.3495 -0.6321  0.1796
 8697SOL    HW137550   4.088   2.307   7.183 -0.0031 -0.0383 -0.0773
 8697SOL    HW237551   4.185   2.397   7.259 -1.5426  0.2026  0.1781
 8698SOL     OW37552   1.763   2.747   3.866  0.1534 -0.6175  0.2314
 8698SOL    HW137553   1.711   2.766   3.944 -3.0959  0.1163 -2.1061
 8698SOL    HW237554   1.723   2.661   3.854  1.5594 -1.6574  3.2372
 8699SOL     OW37555   1.394   3.987   5.125  0.1717  0.7512 -0.5456
 8699SOL    HW137556   1.452   3.917   5.093 -2.0113 -1.5723  0.5688
 8699SOL    HW237557   1.345   3.999   5.044 -2.4505  1.2051  1.1386
 8700SOL     OW37558   1.538   2.022  10.229  0.0548  0.5188  0.0888
 8700SOL    HW137559   1.490   1.940  10.215  0.2146  0.8027 -2.0943
 8700SOL    HW237560   1.561   2.016  10.322  0.9097  0.2906 -0.1371
 8701SOL     OW37561   3.749   2.111   2.261 -0.8064  0.4799  0.7876
 8701SOL    HW137562   3.761   2.062   2.343 -1.4582  0.3621  0.8132
 8701SOL    HW237563   3.735   2.198   2.298 -0.8078  0.2788  1.2652
 8702SOL     OW37564   2.688   3.760   1.835 -0.6615 -0.2551  0.0926
 8702SOL    HW137565   2.655   3.734   1.749  1.7053 -1.0769 -0.5569
 8702SOL    HW237566   2.642   3.844   1.847 -0.1719 -0.5610  3.9417
 8703SOL     OW37567   0.255   3.230   7.731  0.4850 -0.0454 -0.2731
 8703SOL    HW137568   0.344   3.195   7.738  0.6148  0.6128  1.2480
 8703SOL    HW237569   0.225   3.216   7.821  3.1552 -0.5488  0.5142
 8704SOL     OW37570   2.439   0.564   6.452  0.1437  0.3120 -0.2874
 8704SOL    HW137571   2.506   0.544   6.518 -1.5302  0.9801  1.5784
 8704SOL    HW237572   2.418   0.655   6.470  2.8966  0.3277  2.9689
 8705SOL     OW37573   0.638   0.555  10.277 -0.5838  0.6653 -0.2713
 8705SOL    HW137574   0.705   0.489  10.258 -2.1135 -0.7480 -0.7306
 8705SOL    HW237575   0.691   0.593  10.347 -1.1595 -0.5636  0.8179
 8706SOL     OW37576   3.541   1.908   5.283  0.0875  0.1254 -0.1786
 8706SOL    HW137577   3.541   1.864   5.368  0.3355  2.8333  1.2162
 8706SOL    HW237578   3.623   1.874   5.248 -0.5385 -1.7707  0.2064
 8707SOL     OW37579   2.739   1.220   6.842 -0.2788  0.3200 -0.1995
 8707SOL    HW137580   2.787   1.285   6.791  2.4399 -1.4513  0.0876
 8707SOL    HW237581   2.792   1.218   6.922  0.7663  1.5256 -0.8701
 8708SOL     OW37582   3.009   3.677   0.247  0.2343 -0.1725 -0.0664
 8708SOL    HW137583   3.039   3.586   0.248  0.9939  0.0715 -0.1946
 8708SOL    HW237584   2.922   3.683   0.208 -0.3941  1.1528  1.5733
 8709SOL     OW37585   1.166   2.202  15.049 -0.1390 -0.3593 -0.2822
 8709SOL    HW137586   1.242   2.228  14.997 -0.0938  0.2168  0.0723
 8709SOL    HW237587   1.100   2.264  15.017  1.6514  2.1222  0.8583
 8710SOL     OW37588   1.745   1.683   6.253  0.6681 -0.2986  0.2764
 8710SOL    HW137589   1.837   1.672   6.279  0.0465 -1.4567  2.0150
 8710SOL    HW237590   1.732   1.776   6.238 -0.3407 -0.4518  0.1628
 8711SOL     OW37591   0.608   2.115  16.189 -0.1779  0.7400 -0.3527
 8711SOL    HW137592   0.517   2.128  16.214 -0.0991 -2.3932  1.6312
 8711SOL    HW237593   0.602   2.085  16.098  4.3304 -1.2280 -0.0526
 8712SOL     OW37594   4.187   0.747   5.677  0.4233 -0.5553 -0.2588
 8712SOL    HW137595   4.218   0.735   5.767  1.2592  0.2293 -0.4438
 8712SOL    HW237596   4.213   0.836   5.653  0.5299 -0.3407  0.6611
 8713SOL     OW37597   0.110   1.070   4.760 -0.0119 -0.4678  0.1864
 8713SOL    HW137598   0.176   1.078   4.691 -1.2042 -1.2806 -1.0559
 8713SOL    HW237599   0.082   1.161   4.754  1.7244  0.1075  0.7310
 8714SOL     OW37600   1.179   4.659   1.351 -0.3974  0.2864 -0.1758
 8714SOL    HW137601   1.087   4.675   1.371 -0.3964  1.8396 -1.3683
 8714SOL    HW237602   1.215   4.654   1.439 -1.9755  2.2199  0.5776
 8715SOL     OW37603   2.606   1.511  13.449 -0.7210 -0.0823 -0.8245
 8715SOL    HW137604   2.651   1.452  13.510 -1.3115 -0.6613 -0.9493
 8715SOL    HW237605   2.533   1.547  13.498 -1.7717 -3.3087  0.0259
 8716SOL     OW37606   3.595   3.003   7.349  0.2816  0.6919  0.4714
 8716SOL    HW137607   3.578   2.966   7.436 -1.0910  0.1391 -0.0360
 8716SOL    HW237608   3.506   2.980   7.322  0.6614  0.7986 -0.8711
 8717SOL     OW37609   0.211   4.401  11.467 -0.0894  0.1177 -0.2852
 8717SOL    HW137610   0.278   4.333  11.460 -1.5020 -1.4574  1.3587
 8717SOL    HW237611   0.220   4.425  11.559 -1.1184 -1.4280  0.2268
 8718SOL     OW37612   3.985   1.809   3.466 -0.0852 -0.3380 -0.3891
 8718SOL    HW137613   3.945   1.738   3.516 -1.3458  1.5883  1.3703
 8718SOL    HW237614   4.062   1.822   3.521 -0.8197 -2.8110  1.2474
 8719SOL     OW37615   4.173   4.659   0.287  0.1455 -0.1125 -0.6506
 8719SOL    HW137616   4.234   4.595   0.249 -0.0851 -1.3871  1.1052
 8719SOL    HW237617   4.147   4.704   0.206 -0.5072  2.0387  0.7610
 8720SOL     OW37618   4.364   4.237   4.915 -0.4918  0.3815  0.8522
 8720SOL    HW137619   4.409   4.288   4.847  1.4329 -0.9479  1.1119
 8720SOL    HW237620   4.417   4.267   4.988  0.6162 -0.9759  0.6037
 8721SOL     OW37621   2.255   2.507   8.352 -0.0406  0.2043  0.6263
 8721SOL    HW137622   2.210   2.583   8.387  2.7483  2.9323 -1.7334
 8721SOL    HW237623   2.240   2.513   8.257  0.0905 -0.5915  0.5474
 8722SOL     OW37624   2.163   0.348  15.903 -0.0611 -0.3819  0.0619
 8722SOL    HW137625   2.175   0.280  15.838  3.5436  1.9525 -1.7542
 8722SOL    HW237626   2.206   0.297  15.971  0.9155 -1.2265 -1.1987
 8723SOL     OW37627   0.588   3.968   1.725  0.4300  0.4809  0.1019
 8723SOL    HW137628   0.524   3.906   1.691  0.4737  0.2656  0.4159
 8723SOL    HW237629   0.633   3.903   1.780  2.1075  1.3727 -0.2280
 8724SOL     OW37630   1.145   0.536   1.175  0.3478 -0.2386  0.1511
 8724SOL    HW137631   1.198   0.557   1.252 -0.8439  1.5379  0.4903
 8724SOL    HW237632   1.114   0.447   1.188  0.1611 -0.1092  0.5778
 8725SOL     OW37633   0.995   4.588  16.426  0.2183 -0.1993 -0.2702
 8725SOL    HW137634   0.950   4.551  16.350  0.4662 -1.2719  0.0994
 8725SOL    HW237635   1.039   4.653  16.371  0.2666 -0.3255 -0.3831
 8726SOL     OW37636   1.896   4.719  10.622 -0.2100  0.1943  0.4317
 8726SOL    HW137637   1.939   4.642  10.659  2.0334  1.2254  0.0199
 8726SOL    HW237638   1.940   0.065  10.670  0.3541 -0.3850  0.7632
 8727SOL     OW37639   2.332   1.814   3.391 -0.0107  0.1829  0.1455
 8727SOL    HW137640   2.258   1.830   3.450  2.1833  0.2222  2.8862
 8727SOL    HW237641   2.294   1.852   3.312  0.7695  4.2551  1.7461
 8728SOL     OW37642   3.188   0.824   9.023 -0.1754  0.5925  0.4227
 8728SOL    HW137643   3.119   0.838   8.958 -0.6914 -0.8588  0.6634
 8728SOL    HW237644   3.152   0.882   9.091  0.0853  1.5141 -0.2272
 8729SOL     OW37645   3.266   2.078   1.990  0.2668  0.3579 -0.4718
 8729SOL    HW137646   3.346   2.075   2.043  0.6043  0.9006 -0.9558
 8729SOL    HW237647   3.270   2.163   1.946 -1.3614  0.4884 -0.3732
 8730SOL     OW37648   3.267   4.222   1.469  0.2221  0.5281 -0.3011
 8730SOL    HW137649   3.225   4.297   1.510  1.1187 -0.9082  3.2787
 8730SOL    HW237650   3.308   4.174   1.541 -1.5325  0.4547  0.6421
 8731SOL     OW37651   1.922   1.048   7.669 -0.3950  0.5430 -0.0549
 8731SOL    HW137652   1.952   0.957   7.663 -1.4276  0.2137 -0.1656
 8731SOL    HW237653   1.936   1.081   7.581  1.3946 -1.4411 -0.5064
 8732SOL     OW37654   3.171   1.310   9.878  0.0402  0.6293 -0.1581
 8732SOL    HW137655   3.223   1.287   9.955 -0.6564 -2.1878 -0.5230
 8732SOL    HW237656   3.159   1.400   9.909  1.2257  0.8742 -0.4027
 8733SOL     OW37657   1.694   0.347   1.581  0.4387  0.0154  0.2516
 8733SOL    HW137658   1.734   0.348   1.668  2.1821 -0.4802 -0.5416
 8733SOL    HW237659   1.629   0.277   1.584 -0.0248  0.3541 -1.3786
 8734SOL     OW37660   0.865   0.915  11.351  0.1263  0.0679 -0.1421
 8734SOL    HW137661   0.927   0.846  11.326  0.7325  0.5722  0.0048
 8734SOL    HW237662   0.788   0.862  11.329 -0.7552  1.7257 -1.0571
 8735SOL     OW37663   1.323   2.584  11.732  0.3890  0.2331  0.0483
 8735SOL    HW137664   1.314   2.524  11.806  1.5633 -0.9382 -0.7732
 8735SOL    HW237665   1.249   2.544  11.686  0.0831  2.1011 -1.0921
 8736SOL     OW37666   1.368   3.418   9.517 -0.3445 -0.1145  0.1074
 8736SOL    HW137667   1.460   3.426   9.543 -0.0459 -3.6548  0.1207
 8736SOL    HW237668   1.327   3.449   9.597  0.8229  1.5327  0.0633
 8737SOL     OW37669   3.084   2.954   7.386 -0.6173  0.0363 -0.0532
 8737SOL    HW137670   3.055   2.981   7.473 -1.3515 -0.7883 -0.0411
 8737SOL    HW237671   3.004   2.950   7.333 -0.5220 -0.7246 -0.1401
 8738SOL     OW37672   1.752   3.405   4.557 -0.6188 -0.3192  0.2297
 8738SOL    HW137673   1.794   3.486   4.585 -1.2533 -0.1188  0.6149
 8738SOL    HW237674   1.737   3.403   4.462  1.3952 -1.3426 -0.0525
 8739SOL     OW37675   1.261   3.379   4.487  0.5501 -0.2991  0.1748
 8739SOL    HW137676   1.271   3.284   4.492 -0.1161 -0.3354  0.8216
 8739SOL    HW237677   1.340   3.412   4.530  0.8656  1.2986 -1.6688
 8740SOL     OW37678   0.688   3.610   9.453  0.8621 -0.3441  0.1088
 8740SOL    HW137679   0.770   3.640   9.415  0.0874  0.6636 -0.7624
 8740SOL    HW237680   0.714   3.525   9.488  0.7569 -0.8388 -1.0200
 8741SOL     OW37681   2.371   4.582  14.584  0.6490  0.2743 -0.0221
 8741SOL    HW137682   2.279   4.556  14.587  0.9667 -0.6352  2.2511
 8741SOL    HW237683   2.372   4.642  14.659  1.7670  1.3908 -0.9467
 8742SOL     OW37684   0.897   2.502   5.313  0.6323 -0.0256  0.3641
 8742SOL    HW137685   0.915   2.580   5.365 -2.2324  1.2419 -0.5639
 8742SOL    HW237686   0.961   2.435   5.338  1.9117  1.0783 -0.0036
 8743SOL     OW37687   2.343   2.524   2.849  0.1305  0.5244  0.5528
 8743SOL    HW137688   2.282   2.591   2.818  1.0952 -0.1207 -2.7125
 8743SOL    HW237689   2.428   2.566   2.839 -0.5343  1.2772 -1.8849
 8744SOL     OW37690   2.415   2.722  12.289 -0.4046 -0.3459  0.1913
 8744SOL    HW137691   2.417   2.801  12.342  0.2915  1.5891 -2.7058
 8744SOL    HW237692   2.483   2.735  12.222 -0.1624 -3.9388 -0.3060
 8745SOL     OW37693   1.848   2.328   2.840  0.1553 -0.4042  0.4334
 8745SOL    HW137694   1.796   2.367   2.911  0.8880  0.3858  0.5358
 8745SOL    HW237695   1.931   2.347   2.883  0.4060 -1.5598  0.4615
 8746SOL     OW37696   4.314   4.468   0.162  0.0111 -0.6048 -0.0063
 8746SOL    HW137697   4.251   4.414   0.114 -0.0598 -0.3466 -0.2004
 8746SOL    HW237698   4.381   4.482   0.095 -1.6181 -1.2985 -1.7678
 8747SOL     OW37699   1.698   2.639   4.341 -0.4943  0.3794 -0.3831
 8747SOL    HW137700   1.633   2.603   4.401  2.5036 -0.2228  2.4724
 8747SOL    HW237701   1.783   2.623   4.382 -1.4403 -1.1593  0.9596
 8748SOL     OW37702   2.360   0.948  16.285  0.4953  0.1950  0.2307
 8748SOL    HW137703   2.442   0.954  16.237 -0.3663 -0.5220 -1.3401
 8748SOL    HW237704   2.343   0.856  16.265  0.4149 -0.0138  1.2796
 8749SOL     OW37705   2.964   4.312   8.956 -0.4963 -0.4661 -0.1889
 8749SOL    HW137706   3.004   4.254   9.022 -0.3411  0.3846  0.4590
 8749SOL    HW237707   3.040   4.340   8.905  0.2344 -3.0938 -0.5467
 8750SOL     OW37708   3.731   1.837   0.216  0.5169  0.9169 -0.0131
 8750SOL    HW137709   3.706   1.928   0.207 -2.0454  0.1267 -0.9200
 8750SOL    HW237710   3.639   1.814   0.205  0.1617  2.5789 -0.4529
 8751SOL     OW37711   0.033   4.604  17.323  0.2975  0.1232 -0.1286
 8751SOL    HW137712   4.709   4.676  17.281  2.3042  2.4109  1.5042
 8751SOL    HW237713   0.077   4.648  17.396  3.7175 -2.1446 -0.7840
 8752SOL     OW37714   2.661   3.324  14.971  0.0505  0.1058  0.2954
 8752SOL    HW137715   2.657   3.254  14.906 -1.7656 -0.1272  0.6795
 8752SOL    HW237716   2.745   3.309  15.014  0.4371  0.1373 -0.4424
 8753SOL     OW37717   0.467   3.734   2.682  0.1475 -0.0692 -0.2822
 8753SOL    HW137718   0.473   3.773   2.594 -0.3851 -0.2908 -0.4150
 8753SOL    HW237719   0.417   3.653   2.675  0.7693 -0.4316 -0.5278
 8754SOL     OW37720   3.497   2.017   2.120 -0.7572 -0.0219 -0.1137
 8754SOL    HW137721   3.546   1.952   2.071 -2.2271 -0.8511 -0.4821
 8754SOL    HW237722   3.562   2.067   2.170 -1.2832 -1.1603  1.7069
 8755SOL     OW37723   3.201   1.752   8.181  0.2955 -0.0842 -0.3500
 8755SOL    HW137724   3.235   1.701   8.108  1.3889  0.1760 -0.0244
 8755SOL    HW237725   3.265   1.745   8.252  0.3958 -2.6516 -0.7173
 8756SOL     OW37726   1.227   3.901  16.871  0.0310 -0.3068  0.7350
 8756SOL    HW137727   1.206   3.940  16.786  2.0401  0.4351  0.5972
 8756SOL    HW237728   1.257   3.985  16.905  1.6949 -0.0105 -1.4881
 8757SOL     OW37729   1.164   0.368   7.145 -1.1984  0.0979  0.6446
 8757SOL    HW137730   1.189   0.295   7.088 -0.3145  0.1213  1.0011
 8757SOL    HW237731   1.143   0.440   7.085 -0.1216 -0.7007 -0.7011
 8758SOL     OW37732   2.491   3.965   4.783  0.5599  0.1026 -0.1773
 8758SOL    HW137733   2.549   3.892   4.807  0.7756  0.6757  1.0547
 8758SOL    HW237734   2.537   4.029   4.837  0.2449 -0.2088  0.4602
 8759SOL     OW37735   1.067   2.122   0.719  0.0039 -0.1864  0.2275
 8759SOL    HW137736   1.016   2.042   0.703  0.6529 -0.2127 -1.7791
 8759SOL    HW237737   1.029   2.138   0.805  2.3786  0.7802  1.0942
 8760SOL     OW37738   2.471   4.055   8.946  0.0523 -0.1574  0.2867
 8760SOL    HW137739   2.455   4.139   8.903 -0.5481  0.6678  2.0829
 8760SOL    HW237740   2.564   4.074   8.959  0.2568 -1.9001  1.4790
 8761SOL     OW37741   2.194   0.079  16.554 -0.0176 -0.2329  0.3693
 8761SOL    HW137742   2.251   0.013  16.594  2.0005  1.5787  0.4558
 8761SOL    HW237743   2.212   0.059  16.462 -1.5965  0.3772 -0.0665
 8762SOL     OW37744   3.985   3.639   8.456  0.0697 -0.0686 -0.0383
 8762SOL    HW137745   3.961   3.721   8.497  1.8968 -0.7372  2.3250
 8762SOL    HW237746   3.906   3.589   8.477  0.2824  0.2228  1.4257
 8763SOL     OW37747   2.587   0.926   8.056 -0.1000  0.4092  0.2057
 8763SOL    HW137748   2.559   0.940   8.146  1.1199 -2.1751  1.0004
 8763SOL    HW237749   2.541   0.849   8.021  1.3238  0.5526 -2.0107
 8764SOL     OW37750   2.827   3.156  10.988  0.1711  0.3126 -0.1045
 8764SOL    HW137751   2.893   3.180  10.922  3.6621  0.4277  3.4336
 8764SOL    HW237752   2.769   3.106  10.931  0.4532 -0.4498  0.2871
 8765SOL     OW37753   3.862   4.671  16.485  0.1732 -0.8280  0.3953
 8765SOL    HW137754   3.781   4.639  16.445 -0.6817  1.8157  0.0637
 8765SOL    HW237755   3.852   4.666  16.580 -1.5542  1.0543  0.3126
 8766SOL     OW37756   0.640   1.472  12.815  0.3358 -0.1227 -0.3176
 8766SOL    HW137757   0.604   1.494  12.730  1.8733  1.1872 -0.6260
 8766SOL    HW237758   0.568   1.491  12.876 -0.1131 -1.4077 -0.4395
 8767SOL     OW37759   3.626   0.969   5.780  0.8857  0.0936 -0.0690
 8767SOL    HW137760   3.612   0.917   5.859  1.0355  0.2468  0.0595
 8767SOL    HW237761   3.721   0.963   5.778  0.8266 -0.7960 -0.3586
 8768SOL     OW37762   1.831   3.943  13.633  0.7710  0.3174 -0.0617
 8768SOL    HW137763   1.803   3.962  13.723 -1.0542  1.7585 -0.9429
 8768SOL    HW237764   1.811   4.022  13.583 -0.3708  0.4559  0.6262
 8769SOL     OW37765   3.438   0.428   4.186  0.5508 -0.4842  0.2764
 8769SOL    HW137766   3.348   0.403   4.205 -0.5818  2.1780 -1.5834
 8769SOL    HW237767   3.449   0.508   4.239 -3.0014 -0.0269  0.2997
 8770SOL     OW37768   3.489   1.289  10.975 -0.0431 -0.0703 -0.1719
 8770SOL    HW137769   3.506   1.194  10.975  1.3327  0.1691 -0.3545
 8770SOL    HW237770   3.410   1.302  11.027 -1.1033  2.6008 -2.4773
 8771SOL     OW37771   4.023   2.182   4.002  1.0031 -0.3401  0.8412
 8771SOL    HW137772   3.958   2.225   4.058  0.2198 -0.4192  0.0014
 8771SOL    HW237773   4.043   2.111   4.063 -0.9722 -2.6526 -1.2401
 8772SOL     OW37774   0.074   3.081  15.982 -0.4005  0.2990 -0.1012
 8772SOL    HW137775   4.708   3.085  15.949 -0.2846 -0.8487 -0.5787
 8772SOL    HW237776   0.125   3.112  15.907 -0.4938 -2.8472 -1.4847
 8773SOL     OW37777   0.916   3.900   5.181 -0.0046  0.1507  0.2085
 8773SOL    HW137778   0.851   3.887   5.112  1.9040 -1.3834 -1.2744
 8773SOL    HW237779   0.924   3.808   5.204 -1.5588 -0.0358  0.0016
 8774SOL     OW37780   1.210   4.549   0.092  0.0093  0.3312 -0.2687
 8774SOL    HW137781   1.162   4.630   0.108  0.0009  0.0338  1.1911
 8774SOL    HW237782   1.202   4.555  17.693 -1.9333  2.7632  0.0540
 8775SOL     OW37783   3.962   3.049   2.482 -0.6368 -0.3453  0.1576
 8775SOL    HW137784   3.924   2.962   2.469 -0.7666 -0.0549 -1.4321
 8775SOL    HW237785   3.905   3.105   2.429 -0.9182  0.6503  1.5249
 8776SOL     OW37786   0.135   3.617   1.668  0.5189 -0.0224  0.6844
 8776SOL    HW137787   0.223   3.581   1.679  0.7380  0.4636  0.5197
 8776SOL    HW237788   0.092   3.578   1.744  1.4518 -2.7612 -0.1847
 8777SOL     OW37789   2.850   4.595  13.036 -0.2690  0.3359 -0.7465
 8777SOL    HW137790   2.796   4.675  13.036 -1.2674 -0.3354 -0.7080
 8777SOL    HW237791   2.881   4.600  13.126 -1.5680 -0.3007 -0.2630
 8778SOL     OW37792   1.981   3.149   7.672 -0.2800 -0.0376 -0.7885
 8778SOL    HW137793   1.915   3.190   7.617  0.0877  1.4212 -0.1355
 8778SOL    HW237794   2.016   3.223   7.721 -2.1882  0.6364 -0.4542
 8779SOL     OW37795   2.905   3.304   5.015 -0.3530 -0.6709  0.2456
 8779SOL    HW137796   2.836   3.271   5.072 -1.4665 -0.7594 -1.1430
 8779SOL    HW237797   2.958   3.353   5.078  0.6528 -1.2854 -0.1283
 8780SOL     OW37798   0.239   2.069   5.438 -0.0729  0.0371  0.6141
 8780SOL    HW137799   0.238   2.007   5.510  2.0486 -2.0226 -1.1290
 8780SOL    HW237800   0.186   2.025   5.371  1.7193 -1.0081 -0.1154
 8781SOL     OW37801   0.416   3.291  16.549  0.2893  0.6664  0.3665
 8781SOL    HW137802   0.503   3.331  16.539  0.3540  0.9847  2.2224
 8781SOL    HW237803   0.355   3.364  16.533 -0.5074 -0.1699 -0.3803
 8782SOL     OW37804   0.674   3.544   2.407  0.0916 -0.6146 -0.2620
 8782SOL    HW137805   0.708   3.475   2.463  0.2369 -2.7453 -2.9837
 8782SOL    HW237806   0.652   3.486   2.334  1.6053  1.0721 -2.0592
 8783SOL     OW37807   2.834   3.365   1.967  0.1111  0.1729 -0.6704
 8783SOL    HW137808   2.841   3.271   1.949 -0.4091  0.2704 -1.4152
 8783SOL    HW237809   2.894   3.369   2.041  0.7690 -2.4517 -1.0655
 8784SOL     OW37810   2.712   0.352   6.423 -0.5329 -0.0576  0.3409
 8784SOL    HW137811   2.676   0.411   6.489  0.4340  0.4437  0.4123
 8784SOL    HW237812   2.743   0.421   6.365 -1.0663 -0.9111 -0.9625
 8785SOL     OW37813   3.446   2.231   9.750  0.7108  0.0567 -0.0693
 8785SOL    HW137814   3.512   2.300   9.744  1.8468 -1.0555 -0.4499
 8785SOL    HW237815   3.460   2.202   9.841  0.6895  0.0736 -0.0607
 8786SOL     OW37816   4.421   3.680   6.939  1.0531  0.0811  0.7122
 8786SOL    HW137817   4.348   3.671   7.000  1.3033  1.5752  1.2265
 8786SOL    HW237818   4.425   3.775   6.935  0.4899  0.0917  0.4107
 8787SOL     OW37819   3.247   3.671   7.223 -0.2781  0.1579 -0.8841
 8787SOL    HW137820   3.281   3.705   7.140 -0.0491  0.3874 -0.6963
 8787SOL    HW237821   3.317   3.681   7.288 -0.1554 -4.4016 -0.3773
 8788SOL     OW37822   3.828   2.801   2.434  0.0843  0.5331 -0.3191
 8788SOL    HW137823   3.779   2.763   2.361  0.1603 -0.4371  0.1514
 8788SOL    HW237824   3.881   2.726   2.459 -0.5110 -0.2151 -1.2973
 8789SOL     OW37825   1.648   1.140   8.941  0.2450  0.4427 -0.4209
 8789SOL    HW137826   1.589   1.216   8.945  2.1953  1.9281 -0.0478
 8789SOL    HW237827   1.729   1.184   8.966  0.1864  0.0401  0.4546
 8790SOL     OW37828   1.059   4.689   1.683  0.5080  0.0704 -0.3311
 8790SOL    HW137829   1.010   4.720   1.759  0.5678  5.1341 -2.3367
 8790SOL    HW237830   1.150   4.713   1.704  0.9094 -2.4964  0.8451
 8791SOL     OW37831   2.601   2.067   9.340 -0.5766  0.0745  0.0700
 8791SOL    HW137832   2.693   2.084   9.315 -0.5209 -0.4418 -0.0796
 8791SOL    HW237833   2.606   1.973   9.356  0.1828  0.3085  1.1578
 8792SOL     OW37834   1.200   2.120   6.177  0.2553  0.1268  0.5410
 8792SOL    HW137835   1.115   2.079   6.160 -0.0208 -0.6278  3.7131
 8792SOL    HW237836   1.255   2.059   6.129 -0.9513  0.8460 -1.7491
 8793SOL     OW37837   4.066   4.220   8.097 -0.3567 -0.7814  0.3330
 8793SOL    HW137838   4.145   4.225   8.043 -1.2374 -0.5965 -0.9544
 8793SOL    HW237839   4.079   4.135   8.138 -0.5212 -0.5641  0.8430
 8794SOL     OW37840   2.047   1.015   7.085 -0.2060  0.0679  0.4932
 8794SOL    HW137841   2.007   1.101   7.073  0.1038 -0.1112 -1.8465
 8794SOL    HW237842   2.136   1.032   7.053 -0.0743  0.7055  1.2008
 8795SOL     OW37843   0.738   3.190   3.779 -0.2642  0.6695  0.6616
 8795SOL    HW137844   0.749   3.137   3.701 -1.3664 -0.4216  1.2588
 8795SOL    HW237845   0.759   3.273   3.736  1.1452 -0.0704 -0.0803
 8796SOL     OW37846   0.341   2.131   9.190  0.2681 -0.1017  0.3171
 8796SOL    HW137847   0.400   2.103   9.260  1.6750  0.0518 -0.8185
 8796SOL    HW237848   0.408   2.144   9.123 -1.6853  0.6242 -1.4854
 8797SOL     OW37849   2.944   2.896  13.630 -0.6181 -0.1320 -0.1486
 8797SOL    HW137850   2.885   2.954  13.580 -1.6828  0.6726  2.0152
 8797SOL    HW237851   2.974   2.835  13.563 -1.3969  0.4065 -0.9979
 8798SOL     OW37852   1.248   2.961  16.147 -0.4083  0.2211 -0.3605
 8798SOL    HW137853   1.223   2.985  16.236 -0.2369 -0.8842 -0.0249
 8798SOL    HW237854   1.208   3.041  16.111 -1.8303 -0.1255  0.4574
 8799SOL     OW37855   1.862   2.314   8.404 -0.2025 -0.0410  0.1364
 8799SOL    HW137856   1.949   2.313   8.444 -0.1603 -1.1949  0.0085
 8799SOL    HW237857   1.805   2.298   8.479  0.0466  1.7037  0.6987
 8800SOL     OW37858   0.412   0.652  16.932 -0.1182  0.5083 -0.4985
 8800SOL    HW137859   0.481   0.589  16.915 -0.5037 -0.3042  0.9337
 8800SOL    HW237860   0.341   0.629  16.871  0.2199  2.3765 -1.5903
 8801SOL     OW37861   0.366   3.175  15.830 -0.3282  0.2759 -0.8036
 8801SOL    HW137862   0.384   3.168  15.736 -0.0841  1.0972 -0.8165
 8801SOL    HW237863   0.446   3.148  15.876 -1.1373 -0.1684  0.3494
 8802SOL     OW37864   3.313   1.624   3.222 -0.2165 -0.0366 -0.3785
 8802SOL    HW137865   3.314   1.682   3.146 -0.2972  0.4729  0.0132
 8802SOL    HW237866   3.239   1.654   3.275  0.5408 -0.2758  0.8233
 8803SOL     OW37867   0.534   1.523   5.950 -0.2037  0.5147 -0.6878
 8803SOL    HW137868   0.573   1.459   5.891  0.6615  0.9045 -0.5448
 8803SOL    HW237869   0.545   1.477   6.033 -1.4585  0.4718 -0.5365
 8804SOL     OW37870   3.752   0.285  13.277  0.8806  0.3575 -0.1605
 8804SOL    HW137871   3.806   0.333  13.215  1.4616  2.1807  1.7654
 8804SOL    HW237872   3.730   0.217  13.213 -2.9641  1.4723 -0.0585
 8805SOL     OW37873   4.198   1.670  16.524 -0.3160  0.3910 -0.8435
 8805SOL    HW137874   4.182   1.618  16.445  0.0505 -0.7251 -0.1797
 8805SOL    HW237875   4.144   1.624  16.588 -0.1443  0.9781 -0.2773
 8806SOL     OW37876   1.095   4.301   9.006  0.5932  0.1061  0.0855
 8806SOL    HW137877   1.133   4.380   9.043  1.5888 -0.1814 -0.3246
 8806SOL    HW237878   1.128   4.311   8.917 -2.8915  1.9645 -1.0083
 8807SOL     OW37879   2.221   1.655   3.770 -0.5610 -0.1016 -0.1978
 8807SOL    HW137880   2.228   1.737   3.722  0.0290  0.4005  0.7319
 8807SOL    HW237881   2.263   1.691   3.849  1.2861  0.2588 -1.3563
 8808SOL     OW37882   1.853   2.009   7.306  0.0402  0.2800  0.6401
 8808SOL    HW137883   1.922   1.966   7.356 -1.3755 -1.3103  1.2575
 8808SOL    HW237884   1.827   1.926   7.266 -0.4560  0.7199  0.0590
 8809SOL     OW37885   3.634   2.604   4.842 -0.0504  0.1227  0.4133
 8809SOL    HW137886   3.569   2.568   4.782 -0.3298  1.0467  0.1657
 8809SOL    HW237887   3.595   2.691   4.848  0.5277  0.3564  0.8328
 8810SOL     OW37888   4.271   3.307  13.112  0.1174 -0.1743 -0.1224
 8810SOL    HW137889   4.281   3.370  13.041 -1.5901  0.9189  0.6182
 8810SOL    HW237890   4.209   3.353  13.167  0.1561  2.9602 -2.6830
 8811SOL     OW37891   0.376   3.233   9.672 -0.3687 -0.5131 -0.1149
 8811SOL    HW137892   0.305   3.266   9.617 -0.8384 -0.6571  0.4186
 8811SOL    HW237893   0.450   3.259   9.616 -0.3603  0.8174  0.5227
 8812SOL     OW37894   3.909   0.951   5.511  0.0456  0.0778  0.1841
 8812SOL    HW137895   4.000   0.964   5.485 -0.2038  0.4096 -0.5126
 8812SOL    HW237896   3.857   1.007   5.453  2.1855  1.9125  0.0524
 8813SOL     OW37897   0.496   4.139  13.388  0.6313  0.1810 -0.6739
 8813SOL    HW137898   0.490   4.234  13.386 -2.0761  0.0100 -0.4032
 8813SOL    HW237899   0.504   4.119  13.294  0.9647 -2.0681 -0.1772
 8814SOL     OW37900   0.681   2.875   8.668 -0.4474 -0.4318  0.4119
 8814SOL    HW137901   0.640   2.908   8.747 -1.7189 -2.9665  0.8153
 8814SOL    HW237902   0.770   2.904   8.687 -0.4043 -0.3502  0.0804
 8815SOL     OW37903   4.105   3.472   0.370  0.5334  0.7397  0.0049
 8815SOL    HW137904   4.089   3.454   0.277 -0.5807 -0.5215  0.4323
 8815SOL    HW237905   4.200   3.460   0.374  0.4673 -0.1649 -1.0750
 8816SOL     OW37906   0.928   0.721   8.692 -0.0610 -0.1453  0.2492
 8816SOL    HW137907   1.009   0.730   8.742 -0.4649 -0.4634  0.9583
 8816SOL    HW237908   0.892   0.809   8.703 -0.0667 -0.0519 -0.4894
 8817SOL     OW37909   2.236   3.728  16.920 -0.4015 -0.4534  0.3624
 8817SOL    HW137910   2.146   3.759  16.933  0.0851  1.2742 -0.3804
 8817SOL    HW237911   2.219   3.653  16.977 -0.7832 -0.5957  0.0590
 8818SOL     OW37912   0.514   3.412  13.894 -0.1950  0.2891  0.2183
 8818SOL    HW137913   0.572   3.436  13.967  0.5069  1.2754 -0.6529
 8818SOL    HW237914   0.442   3.371  13.942  0.3469  1.1368  1.7489
 8819SOL     OW37915   3.938   3.746   7.624  0.4228 -0.0610  0.0016
 8819SOL    HW137916   3.955   3.732   7.717  0.7581  2.3236  0.2899
 8819SOL    HW237917   3.912   3.657   7.600  2.0879 -0.2283 -1.1147
 8820SOL     OW37918   0.571   4.229   9.895  0.3379  0.0582 -0.6199
 8820SOL    HW137919   0.557   4.323   9.889 -0.8607 -0.0514  0.5416
 8820SOL    HW237920   0.496   4.197   9.843 -0.5728  4.3268 -1.9054
 8821SOL     OW37921   2.067   3.404   1.364  0.2548 -0.3507 -0.4710
 8821SOL    HW137922   2.138   3.423   1.303 -0.2869 -2.0821 -1.6531
 8821SOL    HW237923   2.097   3.313   1.375  1.0928 -0.2436 -1.8283
 8822SOL     OW37924   4.658   2.247  15.862 -0.1944 -0.6878  0.1534
 8822SOL    HW137925   0.019   2.285  15.886 -0.0469 -1.1532  0.3789
 8822SOL    HW237926   4.588   2.305  15.890 -1.1997 -1.5683 -0.5417
 8823SOL     OW37927   1.532   1.556   6.112 -0.0857  0.1283 -0.1834
 8823SOL    HW137928   1.539   1.472   6.157  0.8210  1.2907  1.8428
 8823SOL    HW237929   1.586   1.612   6.167  0.9842  0.0812 -1.1912
 8824SOL     OW37930   2.575   0.184   5.266  0.1095  0.4689 -0.2864
 8824SOL    HW137931   2.484   0.179   5.238 -0.4232  0.7108  1.4494
 8824SOL    HW237932   2.565   0.124   5.340 -2.0939  2.7322  1.2293
 8825SOL     OW37933   0.244   2.797   4.589 -0.1236  0.4726  0.3547
 8825SOL    HW137934   0.321   2.779   4.536  1.1232  1.6641  1.7536
 8825SOL    HW237935   0.281   2.791   4.677  1.7495  1.2634 -0.3694
 8826SOL     OW37936   3.077   3.090   8.095 -0.2638  0.4828  0.2989
 8826SOL    HW137937   3.082   3.096   8.190 -1.9512  0.2361  0.3872
 8826SOL    HW237938   3.009   3.155   8.078  1.0211  2.2314  1.9242
 8827SOL     OW37939   3.341   3.644   6.021  0.0152 -0.4885  0.0591
 8827SOL    HW137940   3.318   3.559   6.057  1.5899 -1.5993 -1.5552
 8827SOL    HW237941   3.360   3.613   5.932 -1.1737 -2.2617  0.4271
 8828SOL     OW37942   4.247   3.275   4.042 -0.0966 -0.4651  0.4079
 8828SOL    HW137943   4.273   3.272   4.134  0.2213  0.9022  0.3694
 8828SOL    HW237944   4.200   3.193   4.031  0.0747 -0.3294 -1.3675
 8829SOL     OW37945   1.087   3.596   1.336 -0.1775 -0.4346 -0.0871
 8829SOL    HW137946   1.105   3.644   1.417 -2.2063  2.2491 -1.2329
 8829SOL    HW237947   1.077   3.508   1.371  0.8017  0.0201  1.3317
 8830SOL     OW37948   0.783   1.694   8.811 -0.8967  0.8644  0.6666
 8830SOL    HW137949   0.779   1.602   8.839  1.7221  0.6555  0.3768
 8830SOL    HW237950   0.870   1.721   8.839 -1.0443  0.2851  1.6831
 8831SOL     OW37951   3.135   0.966   6.448 -0.3177  0.0772 -0.1484
 8831SOL    HW137952   3.053   0.917   6.441 -0.1096 -0.0633 -1.5474
 8831SOL    HW237953   3.163   0.949   6.358  0.1252 -1.6685  0.3354
 8832SOL     OW37954   4.424   0.441   6.591  0.5443 -0.2679 -0.4251
 8832SOL    HW137955   4.353   0.393   6.548 -1.9246  0.2497  3.0660
 8832SOL    HW237956   4.399   0.420   6.681 -1.8322  1.9784 -0.5583
 8833SOL     OW37957   2.010   1.609   5.662  0.9001  0.0000  0.4002
 8833SOL    HW137958   2.103   1.623   5.679  1.2231 -1.6039 -0.0633
 8833SOL    HW237959   2.009   1.651   5.576 -1.4558  0.9806  0.9079
 8834SOL     OW37960   1.675   3.471   5.429 -0.3907 -0.2294 -0.1897
 8834SOL    HW137961   1.624   3.516   5.496  0.7051  1.0252 -0.2036
 8834SOL    HW237962   1.757   3.509   5.461  0.3292 -0.1824 -2.1095
 8835SOL     OW37963   1.254   1.544   4.751  0.6945  0.3266 -0.0244
 8835SOL    HW137964   1.255   1.614   4.816  2.2736  0.2912 -0.0064
 8835SOL    HW237965   1.287   1.592   4.675  0.4703 -1.2956 -1.1602
 8836SOL     OW37966   3.062   2.135   8.350  0.2150 -0.2914 -0.0134
 8836SOL    HW137967   3.126   2.110   8.416  2.2440  0.0517 -1.8521
 8836SOL    HW237968   3.056   2.230   8.343 -0.3363 -0.2043  1.6974
 8837SOL     OW37969   2.550   1.995   2.032  0.1117 -0.9648  0.0306
 8837SOL    HW137970   2.500   2.066   1.992 -4.3996 -2.5601  2.8346
 8837SOL    HW237971   2.539   1.927   1.966  0.8182 -0.5749 -0.4857
 8838SOL     OW37972   0.724   4.612   2.983 -0.0247 -0.0325 -0.1270
 8838SOL    HW137973   0.652   4.619   3.045 -0.2448  2.8281 -0.6667
 8838SOL    HW237974   0.718   4.697   2.938 -2.7712  0.6234  1.4556
 8839SOL     OW37975   0.073   3.509   7.651  0.1985 -0.0889 -0.8891
 8839SOL    HW137976   4.704   3.494   7.671  0.4946 -1.2676 -0.4278
 8839SOL    HW237977   0.068   3.599   7.619 -0.4835  0.2408  0.1135
 8840SOL     OW37978   3.718   1.817   7.687  0.0778 -0.3773  0.6023
 8840SOL    HW137979   3.731   1.888   7.750 -2.4371  0.0805  0.5951
 8840SOL    HW237980   3.625   1.823   7.666  0.3407 -0.6561 -0.6531
 8841SOL     OW37981   1.492   0.293   4.862 -0.3522  0.0831  0.3797
 8841SOL    HW137982   1.411   0.269   4.816  0.1427 -1.5979  0.3876
 8841SOL    HW237983   1.479   0.255   4.949  0.2699 -0.2581  0.3270
 8842SOL     OW37984   3.604   2.726   5.943 -0.3037  0.1460  0.2829
 8842SOL    HW137985   3.668   2.785   5.903 -1.0877  0.4572 -0.4972
 8842SOL    HW237986   3.521   2.757   5.909  0.5198  1.1113 -0.8514
 8843SOL     OW37987   3.390   2.036   2.522  0.3050 -0.5239  0.6372
 8843SOL    HW137988   3.407   1.985   2.443 -2.0915  0.5431 -0.5601
 8843SOL    HW237989   3.460   2.000   2.577  2.4340  2.1194 -0.3557
 8844SOL     OW37990   1.522   2.383  17.057 -0.0881 -0.2719  0.3449
 8844SOL    HW137991   1.497   2.470  17.025  0.3448  0.6335  2.4929
 8844SOL    HW237992   1.547   2.339  16.976  4.2248  1.9234  0.5139
 8845SOL     OW37993   3.922   3.961   0.899 -0.1777  0.3078 -0.2485
 8845SOL    HW137994   3.986   3.892   0.885 -0.9108 -0.4296  0.0653
 8845SOL    HW237995   3.957   4.035   0.848  1.2512 -0.1441  0.0919
 8846SOL     OW37996   0.302   3.501   8.922 -0.4527  0.1932  0.3901
 8846SOL    HW137997   0.294   3.447   8.843 -0.3235 -2.0121  1.8688
 8846SOL    HW237998   0.355   3.571   8.886 -0.1664 -1.1229 -1.7351
 8847SOL     OW37999   4.551   2.136   5.320  0.4346  0.4945 -0.2699
 8847SOL    HW138000   4.494   2.209   5.296 -0.6709 -0.5755 -0.9144
 8847SOL    HW238001   4.540   2.143   5.415 -0.1957 -1.4768 -0.1967
 8848SOL     OW38002   0.491   0.350   8.891  0.3523  0.0217 -0.7457
 8848SOL    HW138003   0.501   0.442   8.916 -1.2400  0.4866 -1.8416
 8848SOL    HW238004   0.542   0.312   8.963 -2.0187  0.9850  1.4141
 8849SOL     OW38005   0.080   1.106   4.275  0.6723 -0.8588  0.2092
 8849SOL    HW138006   0.158   1.105   4.330  0.9739 -0.0931 -0.1993
 8849SOL    HW238007   0.015   1.142   4.335  0.6907 -1.5094  0.6108
 8850SOL     OW38008   2.740   2.496   8.077 -0.1310  0.3735 -0.1727
 8850SOL    HW138009   2.719   2.563   8.012 -1.4701  0.7937  0.6997
 8850SOL    HW238010   2.825   2.458   8.052  0.9065  3.8235 -1.8690
 8851SOL     OW38011   3.528   2.659   4.325 -0.3512  0.3768 -0.3798
 8851SOL    HW138012   3.618   2.680   4.301  0.4312 -0.2030  1.9837
 8851SOL    HW238013   3.496   2.749   4.331  1.5557  1.1369 -1.6496
 8852SOL     OW38014   0.544   4.577   3.426  0.3627 -0.2197  0.5643
 8852SOL    HW138015   0.593   4.519   3.367 -0.9746  0.0498 -0.8232
 8852SOL    HW238016   0.530   4.524   3.504 -1.5746 -0.9874 -0.2811
 8853SOL     OW38017   2.797   3.759   6.777 -0.2045 -0.4248 -0.6029
 8853SOL    HW138018   2.849   3.826   6.733  0.4459  1.3192  2.8123
 8853SOL    HW238019   2.762   3.703   6.708 -1.9245 -0.5448  0.3711
 8854SOL     OW38020   0.781   1.022   7.674 -0.4513 -0.4819  0.3464
 8854SOL    HW138021   0.874   1.019   7.649 -0.2385 -2.1869  1.3161
 8854SOL    HW238022   0.791   1.097   7.733 -2.5906 -1.9120  2.5088
 8855SOL     OW38023   3.190   4.087   2.057 -0.3796 -0.3830 -0.0749
 8855SOL    HW138024   3.159   3.997   2.070 -1.1867 -0.1952 -0.7190
 8855SOL    HW238025   3.113   4.142   2.071  1.6930  1.7932  2.7813
 8856SOL     OW38026   1.383   1.246  13.462  0.1991 -0.2439 -0.1065
 8856SOL    HW138027   1.334   1.231  13.543  0.4127  0.6285  0.1924
 8856SOL    HW238028   1.469   1.239  13.504 -1.1412  0.1182  2.7253
 8857SOL     OW38029   4.640   4.380   6.923 -0.0923  0.2481 -0.3160
 8857SOL    HW138030   0.003   4.362   6.957  0.8939  1.4378 -2.2116
 8857SOL    HW238031   4.652   4.340   6.837 -0.3724  1.8177 -1.0739
 8858SOL     OW38032   4.675   2.147   2.243 -0.2651 -0.2926 -0.6239
 8858SOL    HW138033   4.618   2.115   2.312  3.7210 -3.6163  1.0906
 8858SOL    HW238034   0.013   2.074   2.234  1.2091  0.8032  0.5521
 8859SOL     OW38035   4.615   4.033  11.597 -0.7789 -0.3579 -0.3191
 8859SOL    HW138036   4.624   3.962  11.533 -0.4772 -0.0788 -0.5845
 8859SOL    HW238037   4.654   3.993  11.675 -1.6492 -2.2496 -0.8496
 8860SOL     OW38038   1.490   1.701   8.845  0.2061  0.2814  0.4005
 8860SOL    HW138039   1.527   1.787   8.828 -0.7909  0.8988  1.3652
 8860SOL    HW238040   1.470   1.716   8.938  1.4377 -0.8252  0.8405
 8861SOL     OW38041   2.809   1.052   6.265 -0.0517  0.1986  0.1570
 8861SOL    HW138042   2.797   0.982   6.330  0.4506  0.8037  0.8931
 8861SOL    HW238043   2.859   1.114   6.318  1.5280 -0.3897 -0.6425
 8862SOL     OW38044   1.793   2.468   8.168  0.1093  0.0337  0.2335
 8862SOL    HW138045   1.866   2.431   8.118  0.2572  1.4073 -0.5671
 8862SOL    HW238046   1.813   2.446   8.259 -1.5858 -0.0194  0.6037
 8863SOL     OW38047   1.865   0.957   1.986  0.6621  0.6329  0.3034
 8863SOL    HW138048   1.913   0.973   2.068  2.5579  0.3589 -0.7713
 8863SOL    HW238049   1.841   1.049   1.976  0.3870  0.1551 -3.1235
 8864SOL     OW38050   4.284   2.078   2.873  0.1671  0.5687  0.1652
 8864SOL    HW138051   4.306   1.991   2.841 -0.9623  0.6676 -0.8319
 8864SOL    HW238052   4.297   2.133   2.796 -0.8214 -1.2059 -1.2471
 8865SOL     OW38053   2.169   3.498   9.713 -0.7164 -0.4894  0.1377
 8865SOL    HW138054   2.251   3.528   9.674 -0.2141  0.6105  2.0680
 8865SOL    HW238055   2.200   3.470   9.799  1.4953  2.6597  0.3909
 8866SOL     OW38056   3.243   0.928  13.919  0.1274  0.3488  0.0462
 8866SOL    HW138057   3.218   1.005  13.868 -1.5978 -1.7045 -2.2070
 8866SOL    HW238058   3.329   0.905  13.884  1.4159  1.3312  2.6021
 8867SOL     OW38059   3.369   1.538   7.911  0.1361 -0.2498 -0.0311
 8867SOL    HW138060   3.345   1.446   7.904 -0.5229 -0.0340 -0.6579
 8867SOL    HW238061   3.458   1.523   7.941  0.4314 -0.6351 -1.1001
 8868SOL     OW38062   2.386   2.632  14.135 -0.6828 -0.2569 -0.5503
 8868SOL    HW138063   2.378   2.611  14.042  1.0275 -0.1618 -0.7098
 8868SOL    HW238064   2.421   2.549  14.167  0.7537  0.4842 -0.1961
 8869SOL     OW38065   4.588   3.579   5.174 -0.0672  0.1504  0.7922
 8869SOL    HW138066   4.605   3.623   5.091 -0.1995 -0.6492  0.3409
 8869SOL    HW238067   4.596   3.488   5.146  0.8691  0.4480  0.1037
 8870SOL     OW38068   2.707   1.678  12.074  0.0835 -0.5266  0.6112
 8870SOL    HW138069   2.682   1.597  12.029  0.4027  0.1504 -0.7688
 8870SOL    HW238070   2.801   1.666  12.086  0.3608  0.7294 -0.3389
 8871SOL     OW38071   0.081   1.923   2.273 -0.2800 -0.1327 -0.4105
 8871SOL    HW138072   0.002   1.896   2.320 -0.4736 -3.8318 -2.8339
 8871SOL    HW238073   0.129   1.841   2.261 -0.7281 -0.3566 -0.6994
 8872SOL     OW38074   3.463   1.856   9.550 -0.2817 -0.1142  0.0694
 8872SOL    HW138075   3.463   1.950   9.531 -2.0567 -0.0427  0.3837
 8872SOL    HW238076   3.436   1.819   9.466 -0.0674 -2.0253  0.8446
 8873SOL     OW38077   2.659   3.242   3.503 -0.0446  0.2339  0.1575
 8873SOL    HW138078   2.729   3.276   3.448 -0.2077 -2.7873 -1.9354
 8873SOL    HW238079   2.632   3.164   3.454 -1.9429  1.0014 -0.0248
 8874SOL     OW38080   2.539   0.650   4.693  0.4258 -0.5785  0.2793
 8874SOL    HW138081   2.583   0.668   4.776  1.5501  0.3378 -0.5123
 8874SOL    HW238082   2.451   0.663   4.727 -0.3175 -0.6844 -1.6230
 8875SOL     OW38083   0.842   3.583   5.540  0.1381  0.0086  0.2831
 8875SOL    HW138084   0.759   3.594   5.586 -0.2357  2.5765 -1.0336
 8875SOL    HW238085   0.903   3.624   5.601  0.4678 -1.1440  0.7412
 8876SOL     OW38086   1.571   0.681   3.372 -0.3585 -0.1570  0.1399
 8876SOL    HW138087   1.599   0.594   3.399  0.1805  0.5290  1.7425
 8876SOL    HW238088   1.655   0.728   3.379 -1.3992  1.5599  1.0119
 8877SOL     OW38089   0.512   0.456  15.645 -0.2875 -0.1721  0.2945
 8877SOL    HW138090   0.467   0.541  15.648 -0.3059 -0.1393 -1.0029
 8877SOL    HW238091   0.530   0.449  15.552 -0.5161 -2.0201  0.3769
 8878SOL     OW38092   4.688   3.088  15.702  0.2872  0.1917 -0.5814
 8878SOL    HW138093   4.645   3.006  15.725 -0.6357  0.7845 -0.2049
 8878SOL    HW238094   4.721   3.054  15.619  0.5529 -0.4127 -0.2295
 8879SOL     OW38095   0.480   2.861   6.078  0.4172  1.0183  0.2636
 8879SOL    HW138096   0.437   2.929   6.130  1.1894  0.5494  1.5054
 8879SOL    HW238097   0.415   2.797   6.109  3.3067 -2.4928 -0.9117
 8880SOL     OW38098   2.269   2.600  15.199  0.1534 -0.1398  0.3892
 8880SOL    HW138099   2.329   2.638  15.264 -0.4115 -0.2995  1.0023
 8880SOL    HW238100   2.209   2.674  15.188 -0.0960 -0.5161 -0.7953
 8881SOL     OW38101   1.232   0.513   9.498  0.1428 -0.5474  0.1504
 8881SOL    HW138102   1.144   0.508   9.459  0.7162 -3.8888 -0.7167
 8881SOL    HW238103   1.235   0.608   9.506 -0.0240 -0.3878 -1.7179
 8882SOL     OW38104   1.782   3.456   8.712 -0.7488 -0.0121 -0.0447
 8882SOL    HW138105   1.771   3.396   8.639  3.4598 -1.6419  0.6296
 8882SOL    HW238106   1.838   3.397   8.763 -0.0903  0.1985 -0.5246
 8883SOL     OW38107   2.161   0.375   7.338  0.2581  0.2378 -0.6503
 8883SOL    HW138108   2.092   0.373   7.403  1.0974 -0.8728  0.2129
 8883SOL    HW238109   2.238   0.418   7.377  0.2370  0.9186 -1.3575
 8884SOL     OW38110   0.725   4.672   5.035 -0.0997  0.5854  0.3922
 8884SOL    HW138111   0.772   4.704   4.958  0.2588  1.6699  1.0631
 8884SOL    HW238112   0.691   4.589   5.001  2.3960 -0.6154  0.8104
 8885SOL     OW38113   4.595   4.238   6.680  0.7138 -0.1872 -0.7836
 8885SOL    HW138114   4.642   4.158   6.657 -0.8655 -1.3635 -0.0194
 8885SOL    HW238115   4.504   4.207   6.682  0.1765  1.4598  1.1600
 8886SOL     OW38116   0.858   0.344   3.844  0.4612  0.0980 -0.1787
 8886SOL    HW138117   0.772   0.348   3.887  1.1095 -0.2294  1.1210
 8886SOL    HW238118   0.848   0.425   3.794  0.8349  1.0720  1.3242
 8887SOL     OW38119   2.406   1.585  13.586  0.3555  0.1171 -0.1692
 8887SOL    HW138120   2.321   1.629  13.589 -0.0774 -0.7203 -0.0433
 8887SOL    HW238121   2.383   1.508  13.638  1.9691  0.3535  0.8870
 8888SOL     OW38122   1.627   4.223   8.273 -0.1239  0.0284  0.4170
 8888SOL    HW138123   1.584   4.179   8.346 -1.2933  0.2889 -0.1143
 8888SOL    HW238124   1.638   4.147   8.216  0.7157  0.6707 -0.2909
 8889SOL     OW38125   1.949   3.415   4.782 -0.5610  0.0171  0.0057
 8889SOL    HW138126   1.988   3.377   4.703  0.3253  1.0095 -0.0324
 8889SOL    HW238127   1.861   3.378   4.777 -0.5305  0.0368 -0.6888
 8890SOL     OW38128   3.991   0.049  10.261  0.5250  0.4311  0.2922
 8890SOL    HW138129   3.927   0.112  10.292  1.6945  0.7290  2.1050
 8890SOL    HW238130   4.034   0.101  10.193  0.2838  0.9975  0.5787
 8891SOL     OW38131   3.104   0.943   3.862  0.2595 -0.5941  0.6245
 8891SOL    HW138132   3.160   0.913   3.790  0.3564 -0.6474  0.7231
 8891SOL    HW238133   3.028   0.893   3.832  0.9992  0.8241 -3.7130
 8892SOL     OW38134   4.320   2.359   6.263 -0.5915  0.0377 -0.9265
 8892SOL    HW138135   4.408   2.366   6.225 -0.2192  0.4747  0.0334
 8892SOL    HW238136   4.316   2.265   6.281  0.4269  0.1162 -0.3098
 8893SOL     OW38137   2.996   1.199  10.198 -0.5606 -0.1129  1.1485
 8893SOL    HW138138   2.978   1.291  10.216  2.2216  0.4639  0.9139
 8893SOL    HW238139   2.956   1.155  10.273 -1.1359 -2.4104 -0.5145
 8894SOL     OW38140   4.615   4.027   2.226 -0.4181  0.5413  0.3423
 8894SOL    HW138141   4.567   3.956   2.270 -0.1538  0.5046  0.5743
 8894SOL    HW238142   4.566   4.105   2.251 -1.7015  0.3184 -1.4557
 8895SOL     OW38143   3.498   0.633   1.855 -0.3028 -0.1180  0.2288
 8895SOL    HW138144   3.465   0.650   1.943  1.3441  2.3270  0.3910
 8895SOL    HW238145   3.556   0.709   1.849 -1.6831  0.9192  0.3047
 8896SOL     OW38146   0.356   2.470   3.220  0.1930  0.1301  0.4300
 8896SOL    HW138147   0.411   2.440   3.148 -0.2841 -1.1564  0.6118
 8896SOL    HW238148   0.346   2.393   3.276 -0.0056 -0.1506  0.0010
 8897SOL     OW38149   0.775   1.458   8.930 -0.6404 -0.1144  0.1119
 8897SOL    HW138150   0.753   1.367   8.909 -1.8260  0.1772  0.0779
 8897SOL    HW238151   0.716   1.475   9.003  0.0625 -0.3196  0.7253
 8898SOL     OW38152   2.916   3.096   9.158 -0.5991 -0.2879  0.4688
 8898SOL    HW138153   2.927   3.021   9.216 -1.5661  0.9160  2.1953
 8898SOL    HW238154   2.878   3.163   9.215 -3.0158  0.2767 -1.8287
 8899SOL     OW38155   4.422   0.411   2.178  0.3502 -0.3419  0.2361
 8899SOL    HW138156   4.452   0.363   2.101 -0.2591  0.3354 -0.4335
 8899SOL    HW238157   4.500   0.415   2.233  0.2901  0.9500  0.2248
 8900SOL     OW38158   4.604   2.466   1.931 -0.1289 -0.3644  0.3197
 8900SOL    HW138159   4.562   2.516   1.861  1.9078 -0.6828 -1.1212
 8900SOL    HW238160   4.695   2.495   1.927 -0.8359  2.1101  2.0606
 8901SOL     OW38161   3.147   1.144   1.471 -0.3035  0.3894  0.5299
 8901SOL    HW138162   3.132   1.236   1.493  0.3942  0.9110 -1.1415
 8901SOL    HW238163   3.243   1.141   1.480 -0.3299  1.8040  1.2200
 8902SOL     OW38164   0.786   0.126   7.510  0.1387  0.0732  0.3863
 8902SOL    HW138165   0.714   0.184   7.487  0.9174  0.9583  0.2036
 8902SOL    HW238166   0.820   0.173   7.586 -0.7160  2.3606 -0.6496
 8903SOL     OW38167   3.076   4.413   7.111  0.3453  0.1837  0.0941
 8903SOL    HW138168   3.050   4.487   7.166  0.1807  0.1692  0.0352
 8903SOL    HW238169   2.989   4.379   7.088  0.9353  0.2595 -2.2456
 8904SOL     OW38170   4.054   2.027   4.605 -0.3688 -0.1763  0.7703
 8904SOL    HW138171   4.136   2.019   4.654 -0.4210  0.8075  1.0159
 8904SOL    HW238172   3.994   2.029   4.680 -0.6115  1.7382  0.5181
 8905SOL     OW38173   2.543   2.667   8.297 -0.2422  0.1241 -0.6792
 8905SOL    HW138174   2.480   2.736   8.279 -0.3351  0.1717 -0.1875
 8905SOL    HW238175   2.616   2.715   8.259 -0.4203  1.8230  1.1585
 8906SOL     OW38176   1.233   1.795   7.615  0.0660  0.1456  0.4807
 8906SOL    HW138177   1.255   1.813   7.706  0.4419  1.9996  0.0395
 8906SOL    HW238178   1.204   1.878   7.576 -0.9137 -1.1344 -1.5093
 8907SOL     OW38179   1.868   2.222   7.119 -0.1853  0.3157  0.1256
 8907SOL    HW138180   1.876   2.137   7.161 -0.6283  0.4725  0.5202
 8907SOL    HW238181   1.956   2.259   7.126 -0.3900  0.8783 -0.2332
 8908SOL     OW38182   1.934   4.302  11.242 -0.3041  0.2850 -0.3374
 8908SOL    HW138183   1.867   4.366  11.265 -0.2142 -0.5175  2.2705
 8908SOL    HW238184   1.895   4.218  11.268  0.1137  0.9313  2.4110
 8909SOL     OW38185   1.160   3.914   9.795  0.1205 -0.0004  0.3729
 8909SOL    HW138186   1.225   3.847   9.818 -0.5919 -0.1201  2.0370
 8909SOL    HW238187   1.084   3.862   9.769 -0.7472  1.3100  0.3153
 8910SOL     OW38188   0.116   1.969   6.420 -0.1677 -0.2550  0.3440
 8910SOL    HW138189   0.154   1.898   6.471 -0.1621  0.6976  1.6708
 8910SOL    HW238190   0.024   1.941   6.414 -0.7302  1.4628  0.7979
 8911SOL     OW38191   2.750   3.047   3.733  0.4242 -0.3082 -0.1350
 8911SOL    HW138192   2.721   2.956   3.742 -1.9495  0.3192 -1.2742
 8911SOL    HW238193   2.841   3.028   3.710  0.4860  1.2290 -1.1995
 8912SOL     OW38194   0.615   1.059   9.194  0.4575 -0.0544 -0.1185
 8912SOL    HW138195   0.690   1.078   9.251  1.3951  0.2563 -1.4694
 8912SOL    HW238196   0.548   1.123   9.218  0.0259 -0.6016  0.1599
 8913SOL     OW38197   3.910   3.413  16.798 -0.3130 -0.5341 -0.4527
 8913SOL    HW138198   3.851   3.467  16.851  0.1871  0.3210 -0.7785
 8913SOL    HW238199   3.976   3.379  16.858 -1.0234  1.2747  1.3673
 8914SOL     OW38200   4.065   0.541   3.953  0.3488 -0.4041 -0.1107
 8914SOL    HW138201   3.982   0.514   3.913 -0.8320 -0.3212  2.2890
 8914SOL    HW238202   4.120   0.515   3.879 -0.6431 -1.0006 -0.6360
 8915SOL     OW38203   1.872   0.244   0.062 -0.1176 -0.4969  0.3183
 8915SOL    HW138204   1.909   0.284   0.141 -1.2774 -0.3418  0.7880
 8915SOL    HW238205   1.848   0.155   0.086  1.0153 -1.5530 -2.5388
 8916SOL     OW38206   1.834   1.559   4.791  0.1401  0.0985  0.5750
 8916SOL    HW138207   1.904   1.615   4.758 -1.2380  2.6150  1.9439
 8916SOL    HW238208   1.860   1.475   4.753 -1.9757  0.1477 -1.0148
 8917SOL     OW38209   0.064   1.930   5.241  0.3166  0.0247  0.2720
 8917SOL    HW138210   4.700   1.955   5.270 -0.0613 -0.3045 -0.5700
 8917SOL    HW238211   0.054   1.834   5.239 -0.1304  0.1039 -1.2079
 8918SOL     OW38212   3.767   0.846   0.728 -0.2081  0.1999 -0.0061
 8918SOL    HW138213   3.680   0.806   0.725  0.5805 -1.4734 -0.9270
 8918SOL    HW238214   3.814   0.789   0.667 -0.7452  0.8656 -1.0391
 8919SOL     OW38215   2.127   4.613   6.086  0.1787 -0.2316 -0.5217
 8919SOL    HW138216   2.070   4.537   6.098 -0.3941  0.2907  0.0412
 8919SOL    HW238217   2.205   4.582   6.132 -0.6892 -0.6942  0.6374
 8920SOL     OW38218   2.869   1.099   0.902 -0.2024 -0.0383  0.0233
 8920SOL    HW138219   2.813   1.058   0.836  0.8984  0.2590 -1.1217
 8920SOL    HW238220   2.887   1.025   0.960 -0.3659 -0.4389 -0.4305
 8921SOL     OW38221   0.357   3.503   9.201 -0.1410 -0.0428 -0.0238
 8921SOL    HW138222   0.305   3.429   9.233 -1.2096 -0.3570 -2.4764
 8921SOL    HW238223   0.347   3.499   9.106 -2.6236 -1.5132  0.2853
 8922SOL     OW38224   1.204   1.760   4.903  0.0829 -0.0368  0.1599
 8922SOL    HW138225   1.129   1.785   4.849  0.6974 -0.9200 -1.1100
 8922SOL    HW238226   1.217   1.848   4.939 -2.1964  0.4205 -0.1658
 8923SOL     OW38227   3.033   3.876   7.552 -0.1362  0.2403  0.1325
 8923SOL    HW138228   3.089   3.881   7.630  0.5481  0.4120 -0.3782
 8923SOL    HW238229   2.994   3.963   7.560 -1.6271 -0.6965  3.3447
 8924SOL     OW38230   2.204   1.499  16.573 -0.0403  0.1129 -0.2007
 8924SOL    HW138231   2.190   1.408  16.550  1.5799  0.2286 -1.6340
 8924SOL    HW238232   2.111   1.523  16.565  0.0991 -0.4560 -3.4097
 8925SOL     OW38233   3.346   3.641   6.729  0.2601 -0.3741  1.0555
 8925SOL    HW138234   3.442   3.639   6.728  0.1891 -2.1138 -0.9976
 8925SOL    HW238235   3.325   3.550   6.710  1.8242  0.2266 -3.3577
 8926SOL     OW38236   2.553   3.209   6.395 -0.5309 -0.4449 -0.0117
 8926SOL    HW138237   2.586   3.139   6.451 -0.3742 -1.0874 -0.9035
 8926SOL    HW238238   2.486   3.167   6.341  0.5100 -2.1967  0.0397
 8927SOL     OW38239   0.078   2.314   3.026 -0.1484 -0.5522 -0.2136
 8927SOL    HW138240   0.079   2.390   3.084 -1.9594 -0.0407 -0.8216
 8927SOL    HW238241   0.036   2.347   2.946 -0.1262  0.7631  0.3062
 8928SOL     OW38242   2.935   0.282   4.127 -0.0075  0.4980  0.1420
 8928SOL    HW138243   2.881   0.312   4.054 -1.0079  0.8602  1.0292
 8928SOL    HW238244   2.867   0.249   4.185  1.5817 -0.1520  1.6122
 8929SOL     OW38245   0.367   4.474   1.508  0.7607  0.1804 -0.0500
 8929SOL    HW138246   0.282   4.438   1.483 -0.1012  2.3528 -0.2699
 8929SOL    HW238247   0.361   4.557   1.555  2.6252 -0.3463  1.0804
 8930SOL     OW38248   0.891   3.196   4.980 -0.3388  0.0933  0.6792
 8930SOL    HW138249   0.804   3.234   4.995  0.0303  2.3475 -2.9622
 8930SOL    HW238250   0.915   3.157   5.064 -1.9182  0.4198  1.2896
 8931SOL     OW38251   0.205   0.658   0.851 -0.2398  0.1147  0.1858
 8931SOL    HW138252   0.283   0.609   0.823  0.2399  0.8929  0.1361
 8931SOL    HW238253   0.245   0.741   0.826  1.1529 -0.2025  1.3675
 8932SOL     OW38254   3.425   3.198   0.490 -0.8888 -0.0449  0.2955
 8932SOL    HW138255   3.429   3.116   0.539 -0.1808 -0.8199 -1.0584
 8932SOL    HW238256   3.333   3.194   0.464 -0.7995 -1.6529  0.2384
 8933SOL     OW38257   4.701   1.301   3.683 -0.0814 -0.2580  0.2867
 8933SOL    HW138258   0.067   1.325   3.659 -0.9242  0.9791 -1.6722
 8933SOL    HW238259   4.661   1.312   3.597  0.3554 -0.0466  0.1133
 8934SOL     OW38260   2.867   2.228   4.899 -0.3961  0.1368  0.2059
 8934SOL    HW138261   2.955   2.229   4.862 -0.2597 -0.6018  0.5096
 8934SOL    HW238262   2.814   2.202   4.823 -1.5439  1.5188  0.5302
 8935SOL     OW38263   0.212   1.582  11.862  0.2725 -0.4253  0.1641
 8935SOL    HW138264   0.181   1.564  11.773  2.5404  0.5249 -0.8155
 8935SOL    HW238265   0.184   1.499  11.901  2.1562 -0.4046  1.5609
 8936SOL     OW38266   1.271   2.080   3.247 -0.6161  0.2080 -0.0247
 8936SOL    HW138267   1.339   2.096   3.312 -0.3069 -2.1009  0.2234
 8936SOL    HW238268   1.214   2.016   3.291 -2.3088  1.0905 -0.9350
 8937SOL     OW38269   3.734   2.252   4.074  0.1307  0.9114 -0.0649
 8937SOL    HW138270   3.683   2.179   4.109 -1.0483  2.9142  2.3745
 8937SOL    HW238271   3.744   2.223   3.983 -1.8903  0.7670 -0.2376
 8938SOL     OW38272   1.050   3.501  14.045 -0.3176 -0.4384  0.7446
 8938SOL    HW138273   1.080   3.463  14.127  0.3301 -1.5854 -0.0354
 8938SOL    HW238274   1.041   3.592  14.075 -5.3628 -1.7720  3.2229
 8939SOL     OW38275   4.668   3.677  16.100 -0.2176 -0.2438  0.2482
 8939SOL    HW138276   4.620   3.757  16.120  1.4585  0.5835  0.9549
 8939SOL    HW238277   4.593   3.623  16.074  1.7536 -2.4418 -0.9603
 8940SOL     OW38278   1.876   0.965   5.846  0.3611 -0.3791  0.6514
 8940SOL    HW138279   1.789   0.927   5.832  0.6931 -0.6697 -0.6228
 8940SOL    HW238280   1.894   1.022   5.771  1.1529  0.4014  1.4502
 8941SOL     OW38281   2.372   2.369  13.030 -0.3200  0.1133 -0.3904
 8941SOL    HW138282   2.442   2.321  12.986 -0.2100 -0.1895  0.1082
 8941SOL    HW238283   2.410   2.455  13.048  1.6913 -0.8976  0.1657
 8942SOL     OW38284   1.172   0.892   5.369  0.7238  0.0557 -0.0702
 8942SOL    HW138285   1.103   0.954   5.343  0.0669 -1.1540 -1.2238
 8942SOL    HW238286   1.116   0.814   5.372 -1.3985  1.5206 -0.9899
 8943SOL     OW38287   1.633   3.179   5.564  0.9632  0.0147  0.1548
 8943SOL    HW138288   1.573   3.193   5.490  0.7656  0.8280  0.4642
 8943SOL    HW238289   1.716   3.192   5.519  0.6866  2.0483  0.2117
 8944SOL     OW38290   0.736   4.168  10.771 -0.1788 -0.3226 -0.2618
 8944SOL    HW138291   0.682   4.142  10.697 -0.0044  0.5324 -0.6839
 8944SOL    HW238292   0.765   4.256  10.749  0.8360 -0.2459  1.3926
 8945SOL     OW38293   3.269   2.166  14.496 -0.1499 -0.1697  0.8480
 8945SOL    HW138294   3.193   2.218  14.522 -0.4104 -0.3823  0.5161
 8945SOL    HW238295   3.222   2.089  14.465  0.7841 -0.5809  0.4436
 8946SOL     OW38296   1.182   4.583   3.722 -0.0845 -0.4963  0.0707
 8946SOL    HW138297   1.206   4.530   3.646 -0.7221  0.6554 -0.9297
 8946SOL    HW238298   1.102   4.541   3.755 -1.4170  0.9303 -1.3705
 8947SOL     OW38299   2.696   1.763  14.861  0.1278 -0.1350  0.2230
 8947SOL    HW138300   2.663   1.853  14.854 -2.9502 -1.1603  1.2363
 8947SOL    HW238301   2.614   1.717  14.881  0.7158 -0.5108  1.7521
 8948SOL     OW38302   0.459   3.368   4.926 -0.2089 -0.3037  0.3062
 8948SOL    HW138303   0.437   3.405   4.841  1.1797 -0.2547 -0.0404
 8948SOL    HW238304   0.549   3.402   4.934 -0.6533  0.7361  0.9138
 8949SOL     OW38305   4.321   2.891   2.775 -0.0084  0.0085 -0.0772
 8949SOL    HW138306   4.343   2.941   2.854 -0.8656  1.7079 -0.9094
 8949SOL    HW238307   4.280   2.959   2.722 -1.3614 -1.4879 -0.9554
 8950SOL     OW38308   3.468   4.374   1.369  0.1081  0.4826  0.1668
 8950SOL    HW138309   3.459   4.341   1.279 -1.8372  2.4262 -0.3297
 8950SOL    HW238310   3.402   4.323   1.416 -0.9015  0.5401 -1.1728
 8951SOL     OW38311   1.565   0.551  16.537  0.3582  0.2526  0.1018
 8951SOL    HW138312   1.503   0.623  16.551  0.3233 -0.0118  1.2723
 8951SOL    HW238313   1.644   0.602  16.553 -0.2946  1.2158  0.2450
 8952SOL     OW38314   0.105   2.679   8.513  0.7034  0.3792  0.1219
 8952SOL    HW138315   0.018   2.650   8.540  1.0492  0.5524  1.4360
 8952SOL    HW238316   0.106   2.773   8.529 -0.0954  0.3334  0.4264
 8953SOL     OW38317   3.601   2.187  15.135  0.2507  0.3132  0.0101
 8953SOL    HW138318   3.692   2.169  15.158  0.5284 -1.8377 -2.7953
 8953SOL    HW238319   3.609   2.128  15.061 -0.8727 -2.0291  1.7580
 8954SOL     OW38320   1.031   0.162  13.436 -0.1446 -0.0735  0.5655
 8954SOL    HW138321   1.057   0.122  13.519 -0.9943 -1.8763 -0.0368
 8954SOL    HW238322   1.120   0.178  13.406 -0.5322 -0.7677 -0.9507
 8955SOL     OW38323   0.656   1.596   5.213  0.3057  0.0478  0.0599
 8955SOL    HW138324   0.577   1.545   5.197 -0.0871  1.3138 -2.0051
 8955SOL    HW238325   0.620   1.682   5.192 -1.9894 -0.0818  3.5053
 8956SOL     OW38326   1.774   4.522   7.424 -0.3026 -0.0043 -0.3146
 8956SOL    HW138327   1.822   4.446   7.391 -0.7362  0.1415 -1.2987
 8956SOL    HW238328   1.842   4.575   7.466 -2.4871  2.2962  0.3150
 8957SOL     OW38329   1.202   0.704   9.232 -0.2527  0.4956  0.0181
 8957SOL    HW138330   1.218   0.751   9.315 -0.0930 -1.0727  0.8650
 8957SOL    HW238331   1.137   0.757   9.185 -1.6590 -0.6498  0.6963
 8958SOL     OW38332   1.536   3.997   5.983  0.2907  0.2158 -0.1466
 8958SOL    HW138333   1.488   3.915   5.993  0.9518 -0.1509  0.0017
 8958SOL    HW238334   1.596   3.974   5.913  0.1455  0.7259 -0.4378
 8959SOL     OW38335   2.850   2.481  12.066  0.1785 -0.2133  0.0989
 8959SOL    HW138336   2.908   2.413  12.099  1.8648  0.7976 -0.7617
 8959SOL    HW238337   2.894   2.552  12.113 -0.7410  1.4986 -1.6077
 8960SOL     OW38338   2.175   4.610  17.039 -0.4195 -0.0347 -0.0490
 8960SOL    HW138339   2.229   4.593  17.117  1.1629  2.6097 -0.5432
 8960SOL    HW238340   2.167   4.705  17.041 -1.3842 -0.1074 -0.6919
 8961SOL     OW38341   4.155   0.730  17.453 -0.2748  0.5398  0.7298
 8961SOL    HW138342   4.164   0.712  17.359 -0.6917  2.9927  0.2393
 8961SOL    HW238343   4.223   0.672  17.488  0.1078  2.5299  3.2654
 8962SOL     OW38344   1.697   1.648   4.201  0.1336 -1.0245  0.0493
 8962SOL    HW138345   1.741   1.607   4.127  0.6632  0.2160 -0.3158
 8962SOL    HW238346   1.611   1.670   4.165  0.4621  0.8828  0.3998
 8963SOL     OW38347   1.496   0.456   2.752  0.5410 -0.0229  0.3845
 8963SOL    HW138348   1.540   0.373   2.772 -0.2276 -0.4435  0.3066
 8963SOL    HW238349   1.419   0.434   2.701 -0.1337 -0.0455  1.4209
 8964SOL     OW38350   0.741   1.930   4.665  0.3921  0.4933 -0.0770
 8964SOL    HW138351   0.774   2.016   4.692 -1.4440  0.8881  0.9206
 8964SOL    HW238352   0.771   1.930   4.574 -0.5814  0.2892 -0.3913
 8965SOL     OW38353   1.282   4.343   5.875 -0.0128  0.0685 -0.3811
 8965SOL    HW138354   1.270   4.357   5.781 -1.6216  1.0562 -0.0208
 8965SOL    HW238355   1.272   4.427   5.920  2.5683  0.2093 -0.0539
 8966SOL     OW38356   2.622   4.328   2.654  0.1971 -0.0144  0.7337
 8966SOL    HW138357   2.615   4.419   2.627  1.1546 -0.3574 -0.6586
 8966SOL    HW238358   2.528   4.312   2.649 -0.1963  2.5666 -0.0539
 8967SOL     OW38359   0.608   4.358   6.838  0.0883  0.5672 -0.7588
 8967SOL    HW138360   0.626   4.329   6.749 -2.0994 -1.3261 -0.5682
 8967SOL    HW238361   0.535   4.419   6.828  0.1927  0.2764 -3.0927
 8968SOL     OW38362   3.429   4.078   3.293  0.4667 -0.4054  0.2021
 8968SOL    HW138363   3.502   4.047   3.239 -2.0442 -0.8324 -2.9667
 8968SOL    HW238364   3.363   4.102   3.228 -0.1336 -0.9826  0.5847
 8969SOL     OW38365   1.137   3.282   3.308 -0.2456 -0.0915 -0.1670
 8969SOL    HW138366   1.154   3.368   3.268 -1.9249  0.2098 -0.2227
 8969SOL    HW238367   1.221   3.237   3.308  0.0322  0.4367  0.9686
 8970SOL     OW38368   3.654   0.271   5.795 -0.1341 -0.2768 -0.5841
 8970SOL    HW138369   3.631   0.287   5.887 -0.0760 -0.5142 -0.5270
 8970SOL    HW238370   3.632   0.353   5.753 -2.5887  0.2373  1.6810
 8971SOL     OW38371   3.630   1.299  10.700  0.0484  0.2779 -0.3063
 8971SOL    HW138372   3.629   1.217  10.651 -0.4204  1.0075 -1.5356
 8971SOL    HW238373   3.659   1.272  10.787  0.8561 -1.1334 -1.0140
 8972SOL     OW38374   3.232   0.952   6.201  0.3910 -0.2131  0.5904
 8972SOL    HW138375   3.325   0.973   6.190  0.4947 -2.1185 -2.3694
 8972SOL    HW238376   3.201   0.970   6.112 -0.9023 -2.6227  0.5536
 8973SOL     OW38377   0.009   1.205  14.209  0.4023  0.0035 -0.5902
 8973SOL    HW138378   0.059   1.135  14.250  1.1659  0.3018 -1.0217
 8973SOL    HW238379   4.655   1.197  14.265 -1.2658 -1.1321 -3.0657
 8974SOL     OW38380   1.827   4.603   2.083  0.4580 -0.1434  0.3149
 8974SOL    HW138381   1.817   4.531   2.021 -0.7913  0.7698 -0.5399
 8974SOL    HW238382   1.831   4.672   2.017 -2.2587 -1.9592 -1.7443
 8975SOL     OW38383   3.119   0.924  10.183  0.4096 -0.2542 -0.2950
 8975SOL    HW138384   3.156   0.941  10.270  1.0446 -1.8419 -0.2447
 8975SOL    HW238385   3.095   0.831  10.189 -2.4455  0.5241  0.2569
 8976SOL     OW38386   4.635   3.291   6.977 -0.2916 -0.6249  0.7215
 8976SOL    HW138387   4.552   3.329   6.948  0.2715  0.1979  0.1883
 8976SOL    HW238388   4.633   3.207   6.931  0.4636  0.1415 -0.7164
 8977SOL     OW38389   3.943   0.182   1.756  0.5412 -0.3860 -0.0631
 8977SOL    HW138390   4.020   0.228   1.724 -0.3614 -0.1690 -1.9261
 8977SOL    HW238391   3.973   0.092   1.761  0.2241 -0.3685  2.4981
 8978SOL     OW38392   1.850   3.370   9.839 -0.1144  0.3325 -0.4082
 8978SOL    HW138393   1.821   3.304   9.902 -0.4229  2.7758  2.0167
 8978SOL    HW238394   1.887   3.313   9.772  0.5288  3.3275 -2.5616
 8979SOL     OW38395   0.770   0.064   7.138  0.5153  0.1383  0.4765
 8979SOL    HW138396   0.854   0.060   7.183 -0.8385 -1.8964  2.8082
 8979SOL    HW238397   0.741   0.155   7.148 -0.3549  0.1948 -2.4381
 8980SOL     OW38398   2.545   0.902   2.907  0.4876  0.1582  0.4538
 8980SOL    HW138399   2.634   0.916   2.940  0.2935  1.2043  0.5278
 8980SOL    HW238400   2.500   0.926   2.988  1.1974  0.7895  0.6583
 8981SOL     OW38401   4.573   2.859   5.326  0.0271 -0.1125 -0.1705
 8981SOL    HW138402   4.481   2.859   5.301  0.9779  0.3213 -3.6864
 8981SOL    HW238403   4.578   2.807   5.406 -2.9103  0.6618  0.5188
 8982SOL     OW38404   4.182   3.256  10.286  0.0243 -0.1173 -0.3492
 8982SOL    HW138405   4.157   3.289  10.373  1.1025  0.5282 -0.2855
 8982SOL    HW238406   4.240   3.322  10.249  1.1579  0.9548  3.3042
 8983SOL     OW38407   4.123   2.503   6.062  0.2524 -0.0967 -0.0320
 8983SOL    HW138408   4.054   2.555   6.103  0.4243  0.0051  0.1249
 8983SOL    HW238409   4.156   2.439   6.125  1.0383 -0.4398 -0.7827
 8984SOL     OW38410   2.466   0.250  16.702 -0.2680  0.8669 -0.0445
 8984SOL    HW138411   2.488   0.172  16.651 -1.2079  0.3902  0.2818
 8984SOL    HW238412   2.372   0.260  16.690 -0.7296 -2.9890  0.2454
 8985SOL     OW38413   3.947   3.163   5.858 -0.4737  0.4682 -0.2617
 8985SOL    HW138414   4.016   3.135   5.799 -0.2749  0.2924  0.0564
 8985SOL    HW238415   3.961   3.258   5.866  2.6270 -0.4756  5.1679
 8986SOL     OW38416   1.145   0.073  15.625 -0.0608 -0.2366  0.3639
 8986SOL    HW138417   1.223   0.020  15.607  0.4757  0.9360 -0.7117
 8986SOL    HW238418   1.086   0.048  15.554  1.6343 -1.7348 -0.5389
 8987SOL     OW38419   1.804   2.809   5.183 -0.2670 -0.2612  0.6726
 8987SOL    HW138420   1.893   2.774   5.172 -0.5047 -0.9740  1.0103
 8987SOL    HW238421   1.806   2.884   5.123 -0.6335  0.3806  1.4604
 8988SOL     OW38422   0.483   1.687   7.801 -0.4584  0.8252 -0.2381
 8988SOL    HW138423   0.433   1.745   7.744 -0.2893  2.3265  1.1214
 8988SOL    HW238424   0.469   1.730   7.886  1.6023 -0.6508  0.8584
 8989SOL     OW38425   1.315   1.861   5.538  0.2594  0.1853 -0.7320
 8989SOL    HW138426   1.365   1.856   5.457 -0.3161 -0.0256 -1.0794
 8989SOL    HW238427   1.334   1.772   5.569 -2.1250 -0.3549 -0.8152
 8990SOL     OW38428   4.601   2.115  17.127  0.2529 -0.2718 -0.3214
 8990SOL    HW138429   4.575   2.207  17.116 -1.4951 -0.2330  3.9379
 8990SOL    HW238430   4.539   2.081  17.192  0.2814  0.6577  0.1911
 8991SOL     OW38431   2.789   1.393   5.999  0.1921  0.1721  0.1396
 8991SOL    HW138432   2.725   1.335   6.040  0.3060 -2.1843 -3.0465
 8991SOL    HW238433   2.817   1.338   5.926 -3.1791 -2.4569  0.8741
 8992SOL     OW38434   4.336   2.478   2.985  0.5674  0.7935 -0.0703
 8992SOL    HW138435   4.267   2.411   2.987  1.2732  0.0626  0.0885
 8992SOL    HW238436   4.389   2.457   3.061 -2.6414 -3.6277  0.9590
 8993SOL     OW38437   1.199   4.190   9.801  0.3940  0.1320  0.2922
 8993SOL    HW138438   1.137   4.202   9.729  0.6236 -1.8937 -0.2432
 8993SOL    HW238439   1.177   4.107   9.843 -1.0291  0.9382  1.1339
 8994SOL     OW38440   2.089   0.183   7.052 -0.4296 -0.7785  0.0995
 8994SOL    HW138441   2.164   0.221   7.099 -0.0176  0.3676 -1.4712
 8994SOL    HW238442   2.119   0.208   6.964 -0.8944 -3.0388 -0.7221
 8995SOL     OW38443   3.884   1.270   7.396 -0.3189 -0.2526  0.0384
 8995SOL    HW138444   3.836   1.217   7.459 -1.5316  1.6023  0.6731
 8995SOL    HW238445   3.969   1.233   7.419 -0.1721  1.1554  1.7332
 8996SOL     OW38446   1.597   3.059   7.284  0.5570 -0.1051  0.0544
 8996SOL    HW138447   1.534   3.010   7.337 -0.3488  2.3473  1.2578
 8996SOL    HW238448   1.573   3.029   7.197  0.3944  0.1614  0.0067
 8997SOL     OW38449   4.497   0.310   8.044 -0.1111 -0.1116 -0.2063
 8997SOL    HW138450   4.471   0.335   8.133  2.1098 -1.1870  0.7357
 8997SOL    HW238451   4.588   0.339   8.052 -0.5262  0.5140  2.2245
 8998SOL     OW38452   4.640   2.449  11.372  0.1212 -0.8719  0.0365
 8998SOL    HW138453   4.635   2.493  11.457  1.7502  1.1379 -0.9157
 8998SOL    HW238454   4.574   2.380  11.378 -0.6314 -0.1494  0.0076
 8999SOL     OW38455   2.062   2.528   9.725  0.1057 -0.4141 -0.0632
 8999SOL    HW138456   1.996   2.571   9.670 -1.2259 -0.9930  1.0693
 8999SOL    HW238457   2.039   2.439   9.698 -1.8552 -0.9127  3.1637
 9000SOL     OW38458   3.982   2.524  10.088  0.7035 -0.0352  0.4737
 9000SOL    HW138459   3.909   2.504  10.147  1.9411  1.6856  2.6014
 9000SOL    HW238460   3.954   2.490  10.003 -0.4970  0.9835  0.4497
 9001SOL     OW38461   2.674   3.850   4.915 -0.4448  0.5659  0.0140
 9001SOL    HW138462   2.729   3.897   4.978 -0.3739 -0.8811  1.0252
 9001SOL    HW238463   2.720   3.848   4.830 -0.8250  1.3940 -0.2014
 9002SOL     OW38464   4.650   0.908   7.303  0.1971  0.1560 -0.5927
 9002SOL    HW138465   4.613   0.849   7.368 -1.8794 -0.3007 -2.1709
 9002SOL    HW238466   4.595   0.890   7.226  0.8820 -0.9319 -0.8201
 9003SOL     OW38467   3.338   3.235   3.496 -0.5150  0.6110 -0.1484
 9003SOL    HW138468   3.276   3.286   3.444  2.0618  2.7412 -1.0980
 9003SOL    HW238469   3.417   3.252   3.446 -0.1942 -0.5764 -0.0494
 9004SOL     OW38470   0.178   1.333  17.293  0.1999 -0.0457 -0.2101
 9004SOL    HW138471   0.199   1.240  17.292 -0.8147 -0.2755  0.1987
 9004SOL    HW238472   0.090   1.331  17.256  0.3522 -0.7069 -0.5322
 9005SOL     OW38473   3.467   2.600   4.606  0.0642 -0.4998  0.2505
 9005SOL    HW138474   3.372   2.600   4.616  0.1315  0.9873  0.9167
 9005SOL    HW238475   3.479   2.573   4.515  0.5251 -1.7006  0.6621
 9006SOL     OW38476   1.663   2.866   2.202 -0.1469 -0.6065  0.1838
 9006SOL    HW138477   1.717   2.800   2.159 -3.4122 -2.8106 -0.5335
 9006SOL    HW238478   1.600   2.898   2.137  0.4760 -0.4869 -0.3533
 9007SOL     OW38479   2.795   0.297   5.754  0.4585 -0.2491 -0.0407
 9007SOL    HW138480   2.739   0.220   5.762  1.2297 -0.8863 -0.7095
 9007SOL    HW238481   2.849   0.286   5.833  1.6322  3.8383 -0.2875
 9008SOL     OW38482   3.748   3.434  16.046 -0.1854 -0.4587 -0.6014
 9008SOL    HW138483   3.669   3.486  16.059 -0.0499 -1.0049  2.4153
 9008SOL    HW238484   3.751   3.403  16.137  1.5566 -1.9088 -1.1740
 9009SOL     OW38485   3.448   1.382   1.807 -0.7409 -0.3374 -0.6108
 9009SOL    HW138486   3.378   1.363   1.869  1.2260 -3.6467  0.6190
 9009SOL    HW238487   3.425   1.471   1.782  0.9876  0.2739 -0.0237
 9010SOL     OW38488   4.405   2.551   5.963  0.2542  0.3330  0.1781
 9010SOL    HW138489   4.396   2.457   5.981 -2.3351  0.5806  0.2247
 9010SOL    HW238490   4.405   2.597   6.047  2.2208 -2.4057  1.6954
 9011SOL     OW38491   2.267   1.026   7.573  0.0118  0.0358  0.0842
 9011SOL    HW138492   2.349   1.040   7.619  0.3641 -0.8289 -0.2845
 9011SOL    HW238493   2.277   0.944   7.524  3.5575  1.0263 -0.8501
 9012SOL     OW38494   1.859   3.677   4.540  0.3472 -0.2585 -0.8518
 9012SOL    HW138495   1.876   3.766   4.569 -2.2791  0.6204 -2.0057
 9012SOL    HW238496   1.795   3.693   4.470 -2.2167 -1.2676  1.2244
 9013SOL     OW38497   3.528   3.031   7.040 -0.0058  0.0548 -0.2619
 9013SOL    HW138498   3.536   2.974   7.116  0.5039  0.6015  0.0950
 9013SOL    HW238499   3.463   3.096   7.066  1.2167  1.3204 -0.3271
 9014SOL     OW38500   3.451   0.815   5.929  0.2884 -0.0520  0.0021
 9014SOL    HW138501   3.377   0.790   5.985 -0.0115 -1.0795 -0.8760
 9014SOL    HW238502   3.516   0.785   5.992  0.6295  2.9604  1.0930
 9015SOL     OW38503   0.857   3.996   6.743  0.1710  0.1154 -0.6056
 9015SOL    HW138504   0.887   4.086   6.742 -3.4519  1.3688  2.2352
 9015SOL    HW238505   0.871   3.977   6.836  0.4885 -0.8062 -0.8348
 9016SOL     OW38506   1.024   2.559   6.044  0.1589 -0.0755  0.4392
 9016SOL    HW138507   0.947   2.524   6.089  1.6466 -1.9286  1.5507
 9016SOL    HW238508   1.066   2.473   6.049 -2.8490 -1.5587  0.5482
 9017SOL     OW38509   4.226   3.789   4.953  0.1299 -0.2571  0.0607
 9017SOL    HW138510   4.212   3.875   4.914  1.6826  0.3508  0.8344
 9017SOL    HW238511   4.240   3.731   4.878  1.7218  0.8817 -0.5254
 9018SOL     OW38512   4.155   3.451   6.705 -0.0020  0.0864  0.3286
 9018SOL    HW138513   4.073   3.460   6.657 -0.2316 -1.9961  0.3486
 9018SOL    HW238514   4.201   3.379   6.661 -1.1017  1.0553 -2.4085
 9019SOL     OW38515   1.055   1.056  12.612 -0.2739  0.3262 -0.1044
 9019SOL    HW138516   1.040   1.144  12.646 -0.1252  0.1009  0.5441
 9019SOL    HW238517   0.970   1.022  12.585 -0.0775 -1.8934  2.1370
 9020SOL     OW38518   1.144   4.260   3.869  0.3101 -0.4123 -0.3145
 9020SOL    HW138519   1.080   4.311   3.819  0.8844 -0.9679 -1.6210
 9020SOL    HW238520   1.093   4.261   3.950  1.9070  0.7279  0.6837
 9021SOL     OW38521   1.945   2.706   4.155  0.1922  0.8006 -1.3609
 9021SOL    HW138522   1.859   2.732   4.124 -0.6454 -1.1963 -0.7118
 9021SOL    HW238523   1.935   2.613   4.136 -2.4929  0.7462  0.3115
 9022SOL     OW38524   2.114   2.839   6.143 -0.8372  0.5628 -0.0516
 9022SOL    HW138525   2.023   2.813   6.159 -0.5777  0.5190  1.3151
 9022SOL    HW238526   2.144   2.766   6.089 -0.9752 -0.4530  1.2633
 9023SOL     OW38527   0.283   2.270   3.430 -0.1258 -0.2131  0.0626
 9023SOL    HW138528   0.221   2.209   3.390 -0.3712  0.7127 -0.9640
 9023SOL    HW238529   0.223   2.330   3.474 -0.6920 -0.6039 -0.1824
 9024SOL     OW38530   3.384   0.086   8.405  0.1501  0.1750 -0.0586
 9024SOL    HW138531   3.396   0.175   8.369  2.1551 -0.6385 -1.4130
 9024SOL    HW238532   3.297   0.057   8.377  0.5370  0.4366 -1.5690
 9025SOL     OW38533   4.492   1.814  11.966  0.0324  0.7951  0.3231
 9025SOL    HW138534   4.577   1.817  11.921  0.2699 -0.7731  0.6550
 9025SOL    HW238535   4.440   1.867  11.906  1.4375  2.3400  0.4676
 9026SOL     OW38536   3.133   2.583   0.032  0.2319 -0.0194 -0.2608
 9026SOL    HW138537   3.121   2.616  17.640 -0.4959  0.0022 -0.1530
 9026SOL    HW238538   3.072   2.509   0.045 -0.6479  0.6741 -0.4392
 9027SOL     OW38539   3.186   3.521  13.772  0.0231  0.2701  0.0514
 9027SOL    HW138540   3.104   3.525  13.721  2.3327  0.6187 -3.6404
 9027SOL    HW238541   3.234   3.464  13.712  0.3950  0.2524  0.3714
 9028SOL     OW38542   3.627   0.271   2.207 -0.0674  0.2042  0.2112
 9028SOL    HW138543   3.660   0.355   2.240  1.1070 -0.5841  1.0575
 9028SOL    HW238544   3.700   0.215   2.233 -0.0180 -0.5762 -1.6371
 9029SOL     OW38545   0.300   2.761   2.421 -0.2343 -0.3077 -0.0347
 9029SOL    HW138546   0.279   2.854   2.412 -3.4042 -0.9716  0.5021
 9029SOL    HW238547   0.354   2.745   2.344 -0.0915 -2.0545  0.4140
 9030SOL     OW38548   1.973   4.367   7.303 -0.8222  0.0631  0.1014
 9030SOL    HW138549   1.934   4.334   7.223 -2.3022  1.2482  0.3151
 9030SOL    HW238550   2.044   4.420   7.266 -1.4778  1.1060  0.3384
 9031SOL     OW38551   3.058   4.427   0.854 -0.3138  0.1461  0.6586
 9031SOL    HW138552   3.000   4.487   0.807  0.3470  0.8672  0.7655
 9031SOL    HW238553   3.147   4.456   0.835  0.2501 -2.0169 -0.0248
 9032SOL     OW38554   1.343   0.032   7.503  0.2885  0.3010  0.1256
 9032SOL    HW138555   1.425   4.720   7.471 -0.2624 -2.1059  1.4152
 9032SOL    HW238556   1.306   0.073   7.424 -0.5381  0.3532  0.5320
 9033SOL     OW38557   4.693   0.824   4.001  0.1787  0.0655  0.6062
 9033SOL    HW138558   4.683   0.919   4.000 -1.1392 -0.0725  0.1868
 9033SOL    HW238559   4.647   0.798   4.081  0.1134  1.2979  0.9793
 9034SOL     OW38560   2.407   1.127   3.692  0.1294  0.3525  0.3458
 9034SOL    HW138561   2.499   1.132   3.668 -0.0804  1.2280 -0.2612
 9034SOL    HW238562   2.370   1.215   3.694  2.7546  1.4147  2.0111
 9035SOL     OW38563   0.528   2.893   7.196 -0.4071 -0.4635  0.3293
 9035SOL    HW138564   0.543   2.973   7.147 -0.9907  0.2014  1.2399
 9035SOL    HW238565   0.479   2.919   7.275  0.1277  0.2013  0.4389
 9036SOL     OW38566   2.802   3.102   4.145  0.0634 -0.1826 -0.0875
 9036SOL    HW138567   2.726   3.050   4.121  1.3111 -2.2747  0.4762
 9036SOL    HW238568   2.804   3.155   4.066  0.7397 -0.9922 -0.6271
 9037SOL     OW38569   1.810   4.470   8.376  0.1412  0.2473  0.1376
 9037SOL    HW138570   1.780   4.406   8.312 -0.3456  0.0780  0.5361
 9037SOL    HW238571   1.767   4.443   8.457 -0.7187  3.9327  0.9176
 9038SOL     OW38572   3.032   4.372  10.271  0.2537  0.2707 -0.5040
 9038SOL    HW138573   2.995   4.356  10.358 -0.7637  2.5147 -0.5405
 9038SOL    HW238574   3.127   4.382  10.284  0.5343  0.4863 -2.6769
 9039SOL     OW38575   0.009   2.328  13.109  0.2552  0.0673  0.3310
 9039SOL    HW138576   4.642   2.306  13.090 -0.4698  0.0804  3.8922
 9039SOL    HW238577   0.045   2.241  13.092  0.9962  0.6372 -1.1061
 9040SOL     OW38578   3.273   3.965   1.043 -0.1101 -0.4420  1.0453
 9040SOL    HW138579   3.226   3.894   1.088  0.9618 -1.2543  0.8908
 9040SOL    HW238580   3.268   4.033   1.110  1.2528  0.4202  0.2572
 9041SOL     OW38581   2.706   0.999   7.711 -0.8479  0.6098  0.3505
 9041SOL    HW138582   2.629   1.044   7.747 -1.6874  0.0451 -0.7655
 9041SOL    HW238583   2.746   0.956   7.787  1.5595  0.1301 -1.1800
 9042SOL     OW38584   1.130   0.959   0.964 -0.2279 -0.1336 -0.0415
 9042SOL    HW138585   1.176   0.875   0.969  0.1186  0.0557 -0.0740
 9042SOL    HW238586   1.194   1.028   0.978  0.6509 -1.0415  0.4196
 9043SOL     OW38587   1.630   2.352   7.151  0.5785  0.2632 -0.4994
 9043SOL    HW138588   1.713   2.312   7.125  1.4183  0.4457  1.8593
 9043SOL    HW238589   1.585   2.273   7.180  0.7388  0.6496  0.8197
 9044SOL     OW38590   4.191   4.599   6.319 -0.0494  0.3636 -0.3629
 9044SOL    HW138591   4.120   4.575   6.379  0.6818 -0.0634  0.3365
 9044SOL    HW238592   4.255   4.533   6.345  0.2207  1.0624  0.7326
 9045SOL     OW38593   2.573   4.032   1.846 -0.3800  0.2189 -0.3271
 9045SOL    HW138594   2.607   4.121   1.839 -1.3177  0.8257  2.5570
 9045SOL    HW238595   2.482   4.041   1.875 -1.1021 -2.8508 -1.6769
 9046SOL     OW38596   1.302   1.248   7.702  0.0892 -0.0118 -0.1869
 9046SOL    HW138597   1.213   1.237   7.667  0.5693  0.1791 -1.4770
 9046SOL    HW238598   1.355   1.200   7.638 -0.8457 -0.1348 -0.8739
 9047SOL     OW38599   3.764   1.102  17.568 -0.0530 -0.3150 -0.3260
 9047SOL    HW138600   3.772   1.114  17.473  2.1814  0.8490  0.0115
 9047SOL    HW238601   3.854   1.077  17.590 -0.0520 -1.3370 -1.4938
 9048SOL     OW38602   1.419   1.860   5.298 -0.2590 -0.0486 -0.3474
 9048SOL    HW138603   1.489   1.926   5.303  0.3177 -0.6824 -0.1167
 9048SOL    HW238604   1.452   1.812   5.222  1.4254 -0.7914  0.8585
 9049SOL     OW38605   0.609   3.230  12.425  0.0864  0.1054  0.4401
 9049SOL    HW138606   0.595   3.229  12.331  0.2874  1.3814  0.3945
 9049SOL    HW238607   0.610   3.322  12.452 -0.6777 -0.0731  1.0597
 9050SOL     OW38608   1.847   1.486   8.486  0.5791 -0.2260  0.4087
 9050SOL    HW138609   1.803   1.549   8.542 -0.3668 -0.6815  0.1737
 9050SOL    HW238610   1.857   1.411   8.544 -0.2395 -0.9090 -0.3429
 9051SOL     OW38611   3.397   0.823   7.730  0.5254 -0.7209 -0.3820
 9051SOL    HW138612   3.302   0.808   7.722  0.4945 -0.8691  0.2329
 9051SOL    HW238613   3.440   0.780   7.657 -1.1167  0.7138 -2.1718
 9052SOL     OW38614   1.282   3.429  11.365 -0.1837  0.3033 -0.2556
 9052SOL    HW138615   1.251   3.421  11.275 -2.4615 -1.5135  0.6665
 9052SOL    HW238616   1.242   3.513  11.386  0.1241  0.2678  0.4775
 9053SOL     OW38617   4.623   1.958   9.246  0.3009 -0.3479 -0.2453
 9053SOL    HW138618   4.676   1.939   9.324  0.8781 -0.9558 -0.7797
 9053SOL    HW238619   4.626   1.880   9.189  0.7603 -1.0468  0.7438
 9054SOL     OW38620   4.593   3.362  12.791  0.3374  0.0774  0.3860
 9054SOL    HW138621   4.530   3.415  12.841  0.9679  1.4997 -0.3178
 9054SOL    HW238622   4.649   3.329  12.861 -1.1627 -0.0865  1.5026
 9055SOL     OW38623   4.420   2.053   4.306  0.2173 -0.1754  0.1584
 9055SOL    HW138624   4.443   1.961   4.291  0.3600  0.0293 -0.9007
 9055SOL    HW238625   4.468   2.091   4.232  0.2825 -0.2927  0.1402
 9056SOL     OW38626   4.072   1.349   1.426 -0.4609  0.1148  0.6312
 9056SOL    HW138627   4.066   1.418   1.492  1.3718 -1.0178  1.9874
 9056SOL    HW238628   4.163   1.320   1.433 -0.6605 -0.1864  1.9896
 9057SOL     OW38629   2.443   4.601   2.843 -0.4043  0.1180  0.3315
 9057SOL    HW138630   2.502   4.542   2.891 -0.8691  0.3124  1.1389
 9057SOL    HW238631   2.451   4.675   2.903 -0.1917 -0.5619  1.1460
 9058SOL     OW38632   1.343   0.354   5.709 -0.7901 -0.0733 -0.0417
 9058SOL    HW138633   1.253   0.371   5.682 -0.0465  0.9076 -1.8849
 9058SOL    HW238634   1.379   0.316   5.630  1.9660  0.4382  0.9578
 9059SOL     OW38635   0.385   3.867  14.993 -1.1278 -0.0569 -0.2891
 9059SOL    HW138636   0.457   3.879  14.930 -0.6239  0.2051  0.3414
 9059SOL    HW238637   0.356   3.958  14.986 -0.8743  0.0953  0.6061
 9060SOL     OW38638   1.602   3.773   9.694 -0.0683  0.2815 -0.8354
 9060SOL    HW138639   1.674   3.756   9.755 -0.5380 -1.1895 -0.6911
 9060SOL    HW238640   1.632   3.853   9.650 -1.8740  0.4924 -1.6501
 9061SOL     OW38641   3.430   1.310  15.203  0.2478 -0.2086 -0.0354
 9061SOL    HW138642   3.390   1.381  15.254 -0.2209 -2.3019  2.5038
 9061SOL    HW238643   3.359   1.257  15.167  0.5602 -1.0158  0.5299
 9062SOL     OW38644   0.343   1.535  17.344  0.4553  0.7798 -0.0114
 9062SOL    HW138645   0.348   1.542  17.249 -1.5273 -0.7052 -0.2266
 9062SOL    HW238646   0.285   1.459  17.353 -1.3971  1.9512 -2.1451
 9063SOL     OW38647   0.613   2.290   6.145 -0.6505 -0.8620 -0.6678
 9063SOL    HW138648   0.652   2.346   6.212 -0.5454  1.4958 -2.6803
 9063SOL    HW238649   0.521   2.315   6.152 -0.3065  0.3711 -0.5555
 9064SOL     OW38650   0.006   3.626  12.775 -0.4463 -0.1761  0.0156
 9064SOL    HW138651   0.054   3.543  12.779 -0.9758 -0.3982  1.4590
 9064SOL    HW238652   0.088   3.676  12.776 -0.4649 -0.1288 -0.7798
 9065SOL     OW38653   1.916   2.489   4.705  0.3802 -0.0951 -0.1460
 9065SOL    HW138654   1.953   2.425   4.765 -0.3909 -0.6240 -0.2352
 9065SOL    HW238655   1.990   2.509   4.647 -0.3153  1.0009 -0.6563
 9066SOL     OW38656   1.766   3.900   7.647 -0.1282  0.1379  0.6484
 9066SOL    HW138657   1.768   3.952   7.727  0.1196  0.7434  0.2428
 9066SOL    HW238658   1.755   3.966   7.579 -0.3555 -0.7796 -0.2161
 9067SOL     OW38659   2.752   1.309  15.279  0.1546  0.1768 -0.8695
 9067SOL    HW138660   2.809   1.237  15.307  0.7057 -0.3262 -3.2812
 9067SOL    HW238661   2.681   1.252  15.247  0.0651  0.3367 -0.9570
 9068SOL     OW38662   0.537   0.522  11.691 -0.4494  0.4720  0.2616
 9068SOL    HW138663   0.518   0.466  11.766 -2.9762  0.1495 -0.6208
 9068SOL    HW238664   0.623   0.490  11.665 -1.4533  0.0648 -2.6117
 9069SOL     OW38665   2.996   2.881   8.332 -0.1206  0.1982  0.6836
 9069SOL    HW138666   2.938   2.815   8.370 -0.6066  1.9906  3.0465
 9069SOL    HW238667   3.053   2.824   8.280  0.2515  0.4703  0.7926
 9070SOL     OW38668   2.431   3.452   2.938 -0.0753  0.1751  0.1914
 9070SOL    HW138669   2.491   3.514   2.897  0.5867 -0.7190 -0.2082
 9070SOL    HW238670   2.402   3.401   2.863 -1.7345  0.1971  0.8312
 9071SOL     OW38671   0.714   2.682   3.313 -0.2466  0.5769 -0.9184
 9071SOL    HW138672   0.782   2.640   3.367 -1.2661  2.5151  1.8544
 9071SOL    HW238673   0.680   2.741   3.380 -0.5924 -1.5608  0.7896
 9072SOL     OW38674   0.760   0.027   3.922 -0.3827 -0.2981  0.0973
 9072SOL    HW138675   0.838   0.076   3.947 -0.1889  0.0334 -1.1667
 9072SOL    HW238676   0.769   0.015   3.828  1.6625  1.1107  0.1200
 9073SOL     OW38677   1.855   1.396  17.484  1.0563  0.1390 -0.4828
 9073SOL    HW138678   1.943   1.359  17.491  0.9246 -0.2070 -0.6547
 9073SOL    HW238679   1.869   1.450  17.562 -1.1357 -0.6539  0.4674
 9074SOL     OW38680   4.337   2.918   6.270 -0.0009 -0.0030  0.4306
 9074SOL    HW138681   4.337   3.009   6.240 -2.0690 -0.6258 -1.4195
 9074SOL    HW238682   4.377   2.936   6.355  0.3865  0.5837  0.1306
 9075SOL     OW38683   3.386   4.318   6.722  0.8132  0.3087  0.1488
 9075SOL    HW138684   3.331   4.373   6.778  1.6977  1.9156 -0.5738
 9075SOL    HW238685   3.452   4.380   6.691  0.2793  1.1063  0.5950
 9076SOL     OW38686   1.692   3.166   6.171 -0.0017  0.0618 -0.0543
 9076SOL    HW138687   1.756   3.124   6.113 -0.3765 -1.8795  0.9335
 9076SOL    HW238688   1.612   3.168   6.118  1.2745 -2.0438 -2.0870
 9077SOL     OW38689   1.289   2.496   5.851  0.0748 -0.3905  0.4627
 9077SOL    HW138690   1.238   2.466   5.927 -0.7421  0.9418  0.4427
 9077SOL    HW238691   1.288   2.427   5.785  0.4885  0.6716 -0.6328
 9078SOL     OW38692   2.036   0.593   0.010  0.4910  0.1001 -0.4014
 9078SOL    HW138693   2.026   0.498   0.003 -1.4676  0.3164 -0.6444
 9078SOL    HW238694   2.124   0.601   0.046  0.3124 -1.6482  0.4287
 9079SOL     OW38695   2.657   1.461   5.676 -0.3350  0.3043  0.3968
 9079SOL    HW138696   2.696   1.467   5.763 -0.1160  0.0015  0.3213
 9079SOL    HW238697   2.562   1.456   5.689 -0.4233 -0.6203 -0.5737
 9080SOL     OW38698   0.595   1.746   4.784  0.4374 -0.7161  0.0645
 9080SOL    HW138699   0.632   1.825   4.746 -1.7456 -0.7439 -2.0997
 9080SOL    HW238700   0.535   1.781   4.850 -0.8097 -2.1195 -0.3132
 9081SOL     OW38701   1.583   2.259   6.005  0.3851 -0.2101 -0.1891
 9081SOL    HW138702   1.635   2.291   5.932 -1.0099  0.7929 -0.7492
 9081SOL    HW238703   1.532   2.339   6.017  1.1427  0.3624 -0.8234
 9082SOL     OW38704   2.314   3.941   7.999  0.1787 -0.0711  0.3270
 9082SOL    HW138705   2.363   3.899   8.069 -2.4223 -2.0227  0.9569
 9082SOL    HW238706   2.251   4.001   8.040 -0.3044 -1.0942  1.0727
 9083SOL     OW38707   1.151   3.004  17.478 -0.4497  0.2942  0.5104
 9083SOL    HW138708   1.240   2.992  17.511 -0.1162  1.2229 -0.0842
 9083SOL    HW238709   1.168   3.056  17.400  0.6894  0.6269  0.9808
 9084SOL     OW38710   1.381   3.751   9.843 -0.2457 -0.5875 -0.2844
 9084SOL    HW138711   1.434   3.760   9.764 -2.7442  1.6288 -1.7160
 9084SOL    HW238712   1.438   3.689   9.889  0.7341 -0.2744 -1.0903
 9085SOL     OW38713   3.204   3.422   7.153 -0.4737 -0.0320 -0.4241
 9085SOL    HW138714   3.111   3.435   7.167 -0.3158 -0.2442  0.8596
 9085SOL    HW238715   3.224   3.504   7.198 -0.7998 -0.0360 -0.2756
 9086SOL     OW38716   1.861   0.456   8.480  0.0465  0.2492 -0.8051
 9086SOL    HW138717   1.806   0.483   8.554  0.2578 -2.5879  0.4078
 9086SOL    HW238718   1.802   0.483   8.409  1.4447  1.8131 -1.3642
 9087SOL     OW38719   3.115   3.271   8.319 -0.4863  0.0403 -0.0764
 9087SOL    HW138720   3.155   3.358   8.327 -2.0279  0.8670 -1.3247
 9087SOL    HW238721   3.034   3.282   8.368  1.1886 -0.0930  2.7020
 9088SOL     OW38722   3.808   4.017   3.860  0.3544  0.1409 -0.6970
 9088SOL    HW138723   3.886   3.967   3.835  0.3799  0.3941 -1.1312
 9088SOL    HW238724   3.748   3.988   3.791 -1.1150 -0.3351  0.7967
 9089SOL     OW38725   2.624   1.867   5.883 -0.2845 -0.2961 -0.5901
 9089SOL    HW138726   2.675   1.840   5.807  1.5693 -0.7346  0.8312
 9089SOL    HW238727   2.626   1.783   5.930 -1.2338  0.5083  0.8617
 9090SOL     OW38728   3.400   3.892  10.186 -0.6482 -0.2472  0.0998
 9090SOL    HW138729   3.488   3.866  10.156 -0.8213  3.8243 -3.9519
 9090SOL    HW238730   3.410   3.895  10.281 -2.6191  2.3441  0.2152
 9091SOL     OW38731   2.987   2.747   7.999 -0.2470  0.3373  0.6092
 9091SOL    HW138732   3.030   2.662   8.004  0.9037  0.9429  0.9375
 9091SOL    HW238733   3.057   2.799   7.960 -0.6436 -1.3988 -2.3780
 9092SOL     OW38734   0.590   3.698   8.587  0.5669 -0.0404 -0.0178
 9092SOL    HW138735   0.551   3.691   8.675  0.1340 -1.2444 -0.3018
 9092SOL    HW238736   0.653   3.626   8.586  0.4419 -0.1179 -1.2445
 9093SOL     OW38737   3.906   3.650   3.066  0.1163 -0.1506  0.2807
 9093SOL    HW138738   3.959   3.714   3.113 -1.4388  0.2850  1.4454
 9093SOL    HW238739   3.833   3.706   3.040 -2.9293 -3.8428  0.8883
 9094SOL     OW38740   3.791   4.649   0.574  0.1349  1.0311  0.4794
 9094SOL    HW138741   3.702   4.625   0.599  0.0694  1.5091  0.7000
 9094SOL    HW238742   3.780   4.722   0.514 -1.9418 -1.1938 -1.8381
 9095SOL     OW38743   0.090   2.352   7.463  0.0491  0.2569  0.2646
 9095SOL    HW138744   0.161   2.414   7.448 -1.6330  2.2694  0.6776
 9095SOL    HW238745   0.102   2.279   7.401 -0.7406  0.5697 -0.2459
 9096SOL     OW38746   1.416   1.746   4.170 -0.0822  0.6634 -0.1482
 9096SOL    HW138747   1.343   1.687   4.190 -0.5482  1.9048  1.8152
 9096SOL    HW238748   1.406   1.792   4.253  3.0639  2.1970 -0.6267
 9097SOL     OW38749   2.904   2.404  10.237 -0.3353 -0.1775  0.5376
 9097SOL    HW138750   2.978   2.449  10.276 -0.7890  1.4014 -0.4144
 9097SOL    HW238751   2.928   2.407  10.145  0.5633  0.7352  0.8069
 9098SOL     OW38752   2.004   3.960   1.866  0.0115 -0.2351 -0.0490
 9098SOL    HW138753   1.924   3.922   1.829 -0.7706  0.3448  1.0708
 9098SOL    HW238754   2.062   3.928   1.796  0.1832  0.1860 -0.1015
 9099SOL     OW38755   2.518   3.065  13.234 -0.0468  0.6437 -0.4617
 9099SOL    HW138756   2.532   3.113  13.315 -1.7902 -2.4189  1.6518
 9099SOL    HW238757   2.543   3.137  13.176  2.1656  0.0633 -0.2174
 9100SOL     OW38758   0.249   2.782   2.784 -0.5616 -0.3055 -0.3497
 9100SOL    HW138759   0.278   2.863   2.826 -0.4789 -1.1230  1.1784
 9100SOL    HW238760   0.286   2.790   2.696 -0.2138  2.4256  0.0423
 9101SOL     OW38761   1.607   4.421   5.231  0.1352 -0.4598  0.0817
 9101SOL    HW138762   1.536   4.357   5.234  1.4426 -1.9412 -0.3920
 9101SOL    HW238763   1.604   4.452   5.322 -1.3010  0.3496 -0.2421
 9102SOL     OW38764   0.916   2.643   4.470  0.0703  1.1007 -0.0921
 9102SOL    HW138765   1.001   2.686   4.461  0.8279 -0.6417 -1.1003
 9102SOL    HW238766   0.859   2.720   4.472 -1.8241 -0.3902  1.9794
 9103SOL     OW38767   2.768   4.060  16.791  0.2520 -0.0772  0.1150
 9103SOL    HW138768   2.733   3.984  16.745 -0.9019 -0.3971  1.5584
 9103SOL    HW238769   2.708   4.126  16.758 -0.8611 -0.7727  0.7807
 9104SOL     OW38770   1.581   2.281   3.788 -0.2049 -0.0782  0.2469
 9104SOL    HW138771   1.507   2.225   3.763  2.0105 -2.1841 -1.6524
 9104SOL    HW238772   1.627   2.214   3.839 -2.5474 -0.8234  1.3753
 9105SOL     OW38773   3.984   0.409  15.206 -0.1008  0.3919 -0.3917
 9105SOL    HW138774   4.068   0.363  15.208 -0.2588  0.0253 -2.0329
 9105SOL    HW238775   3.969   0.383  15.115  0.9843  1.4589 -0.8806
 9106SOL     OW38776   0.578   4.037   5.286  0.2914  0.7820 -0.2965
 9106SOL    HW138777   0.646   4.103   5.277  1.3460 -0.4509 -1.2985
 9106SOL    HW238778   0.613   3.970   5.227  2.4705  0.2283  1.6771
 9107SOL     OW38779   1.567   2.876  11.448 -0.2799  0.4760 -0.7013
 9107SOL    HW138780   1.472   2.862  11.452 -0.1422 -0.4038 -0.4951
 9107SOL    HW238781   1.576   2.913  11.360 -1.3782 -0.7997 -1.3577
 9108SOL     OW38782   3.593   1.023   3.435  0.4657  0.2863  0.2207
 9108SOL    HW138783   3.684   1.034   3.463 -0.1415  1.5965  1.6986
 9108SOL    HW238784   3.599   0.962   3.362  2.6111 -0.4369  0.9925
 9109SOL     OW38785   1.233   3.171  17.271 -0.2220  0.0948 -0.6754
 9109SOL    HW138786   1.284   3.217  17.205  1.6806 -3.1100 -1.4250
 9109SOL    HW238787   1.165   3.235  17.293 -0.8367 -0.8979  0.3012
 9110SOL     OW38788   0.303   1.090  17.373  0.7836 -0.5701 -0.6788
 9110SOL    HW138789   0.346   1.085  17.458 -0.3094  1.3823 -0.0003
 9110SOL    HW238790   0.368   1.062  17.308  1.0851  0.5018 -0.8444
 9111SOL     OW38791   0.590   1.463   4.037  0.2283  0.1203  0.4309
 9111SOL    HW138792   0.540   1.539   4.008 -2.0653 -1.4973  0.0795
 9111SOL    HW238793   0.550   1.406   3.970 -3.0055  1.4850  1.2041
 9112SOL     OW38794   0.476   3.425   4.245 -0.5340  0.2082 -0.1973
 9112SOL    HW138795   0.450   3.355   4.305 -0.9142  1.2620  0.8818
 9112SOL    HW238796   0.472   3.382   4.160  2.9543  1.9224 -1.2329
 9113SOL     OW38797   2.415   4.244   8.776 -0.5516 -0.2389  0.4594
 9113SOL    HW138798   2.323   4.272   8.775 -0.5228 -0.1703 -0.8175
 9113SOL    HW238799   2.460   4.328   8.768 -0.2562 -0.3021  1.5750
 9114SOL     OW38800   4.343   0.513  17.460 -0.3299  0.4207  0.1894
 9114SOL    HW138801   4.438   0.503  17.449 -0.4305  3.2597 -3.2244
 9114SOL    HW238802   4.320   0.463  17.539  2.4139 -0.5475  0.3844
 9115SOL     OW38803   3.747   3.495   1.322  0.3428 -0.1826 -0.3953
 9115SOL    HW138804   3.664   3.492   1.273 -0.3075  1.6126  0.5938
 9115SOL    HW238805   3.729   3.572   1.376 -0.1265 -1.9033  1.8799
 9116SOL     OW38806   1.627   1.205  13.668  0.1233  0.2418 -0.1511
 9116SOL    HW138807   1.681   1.246  13.736  0.4103 -1.7523  0.8279
 9116SOL    HW238808   1.696   1.204  13.603 -0.9193  2.0129 -1.2777
 9117SOL     OW38809   1.908   0.045  15.819  0.0733  0.1563 -0.1914
 9117SOL    HW138810   1.917   4.691  15.874 -0.0607 -0.1552 -0.6118
 9117SOL    HW238811   1.952   0.020  15.738  0.0239  2.1902 -0.8537
 9118SOL     OW38812   1.909   1.140   3.838 -0.3942 -0.1723  0.4860
 9118SOL    HW138813   1.920   1.103   3.750  1.1395 -1.2777  1.1375
 9118SOL    HW238814   1.996   1.113   3.869 -1.0281 -0.0384  2.3834
 9119SOL     OW38815   1.304   2.924   6.793 -0.5846 -0.4065  0.3668
 9119SOL    HW138816   1.272   3.005   6.754 -4.9657 -1.4056  1.8657
 9119SOL    HW238817   1.224   2.900   6.840 -0.6205 -0.2841  0.3685
 9120SOL     OW38818   1.983   4.098   4.963  0.2824  0.1051 -0.3552
 9120SOL    HW138819   2.070   4.117   4.928 -1.2086  0.8459 -3.6290
 9120SOL    HW238820   1.960   4.188   4.986  0.0988 -0.4011  1.4310
 9121SOL     OW38821   0.792   1.550  16.307  0.5434 -0.8086 -0.4553
 9121SOL    HW138822   0.756   1.604  16.237 -0.0481 -2.6275 -1.5317
 9121SOL    HW238823   0.808   1.466  16.266  0.4188 -0.4960 -1.1432
 9122SOL     OW38824   4.017   3.261   6.421  0.2751  0.0676  0.0411
 9122SOL    HW138825   4.091   3.216   6.462  1.0702  1.2501 -0.1141
 9122SOL    HW238826   4.053   3.349   6.415 -0.2509  0.3068  0.4261
 9123SOL     OW38827   1.453   4.002   8.440  0.1061  0.6523 -0.3226
 9123SOL    HW138828   1.532   3.959   8.407 -0.1922  0.5272 -0.8676
 9123SOL    HW238829   1.396   3.927   8.454 -0.3045  1.0909  0.3795
 9124SOL     OW38830   4.054   1.785   5.312  0.1202  0.4992 -0.6703
 9124SOL    HW138831   3.969   1.811   5.276 -0.4262  0.0233  0.2546
 9124SOL    HW238832   4.050   1.836   5.393  3.4474  0.5829 -0.5916
 9125SOL     OW38833   0.506   2.676  15.649 -0.5505 -0.3106 -0.5621
 9125SOL    HW138834   0.594   2.712  15.638 -0.2941 -0.7984 -0.1049
 9125SOL    HW238835   0.475   2.751  15.699  0.1266 -0.4185  0.0256
 9126SOL     OW38836   1.002   0.692   5.293  0.1884 -0.4314 -0.2553
 9126SOL    HW138837   0.975   0.755   5.226  0.1528 -0.2650 -0.0847
 9126SOL    HW238838   0.985   0.616   5.237  1.8008 -0.8998 -0.1079
 9127SOL     OW38839   1.219   0.582   2.140 -0.0803 -0.0224  0.0266
 9127SOL    HW138840   1.150   0.645   2.120  0.9057  1.9787  3.0267
 9127SOL    HW238841   1.209   0.555   2.231  2.2437  0.1983  0.3507
 9128SOL     OW38842   0.006   3.879   1.669 -0.4740 -0.3782 -0.0628
 9128SOL    HW138843   0.038   3.789   1.678 -1.5353 -0.6703  0.8358
 9128SOL    HW238844   0.087   3.928   1.656  0.0362 -1.1062  0.3792
 9129SOL     OW38845   2.089   2.400   2.584 -0.2239 -0.2229 -0.2738
 9129SOL    HW138846   2.162   2.449   2.545 -0.3547  0.7717  0.7001
 9129SOL    HW238847   2.047   2.471   2.633  2.3809 -0.1211  1.8129
 9130SOL     OW38848   1.349   3.043   0.879  0.0267 -0.0105  0.5053
 9130SOL    HW138849   1.399   3.085   0.810 -0.2586  0.5329  0.6307
 9130SOL    HW238850   1.269   3.095   0.875 -0.0454 -0.2916 -1.5582
 9131SOL     OW38851   0.019   2.493  11.069  0.3216  0.9605 -0.2769
 9131SOL    HW138852   4.671   2.454  11.019  1.5937 -0.2238 -1.1776
 9131SOL    HW238853   4.685   2.531  11.135 -0.0401 -1.0228  0.5391
 9132SOL     OW38854   3.069   2.733  11.960 -0.3769 -0.0340  0.4711
 9132SOL    HW138855   3.018   2.722  11.880 -1.6662  1.0469  1.1496
 9132SOL    HW238856   3.024   2.679  12.026 -1.0447  2.6724  2.2274
 9133SOL     OW38857   1.576   0.168   3.923  0.0763 -0.4217  0.0903
 9133SOL    HW138858   1.632   0.191   3.849 -0.8616 -0.5432 -0.6506
 9133SOL    HW238859   1.491   0.165   3.881  1.3267  0.9222 -2.5471
 9134SOL     OW38860   0.408   0.812   8.685 -0.2162 -0.2907 -0.0493
 9134SOL    HW138861   0.410   0.743   8.619  0.8379  0.6729 -1.0302
 9134SOL    HW238862   0.346   0.774   8.747 -1.3255 -3.5375 -3.1287
 9135SOL     OW38863   2.236   1.651  16.313 -0.2466 -0.1836  0.0173
 9135SOL    HW138864   2.228   1.608  16.398  1.2103 -0.2842  0.1066
 9135SOL    HW238865   2.231   1.580  16.249  0.8104 -1.2504  1.1249
 9136SOL     OW38866   0.919   3.641   8.342  0.0558 -0.2638 -0.2969
 9136SOL    HW138867   1.000   3.668   8.385 -0.3076  1.1628 -0.5217
 9136SOL    HW238868   0.862   3.616   8.414  1.5775  0.0344  0.9989
 9137SOL     OW38869   3.389   1.443  10.734  0.5001  0.6045 -0.1976
 9137SOL    HW138870   3.437   1.487  10.804  0.3650 -1.9421  1.5192
 9137SOL    HW238871   3.469   1.397  10.708  0.2108  0.8049 -1.4567
 9138SOL     OW38872   2.873   4.166  12.482 -0.5893 -0.3154  0.2597
 9138SOL    HW138873   2.790   4.190  12.523  0.2499  1.3152  0.9903
 9138SOL    HW238874   2.846   4.175  12.390  1.3222 -0.7898 -0.3622
 9139SOL     OW38875   2.732   1.756   5.653  0.8242 -0.0101  0.0395
 9139SOL    HW138876   2.707   1.678   5.603  0.9703  1.0617 -1.6867
 9139SOL    HW238877   2.749   1.820   5.584 -2.2443 -1.3494 -1.9540
 9140SOL     OW38878   3.124   4.090   6.168  0.2804  0.0270 -1.0010
 9140SOL    HW138879   3.103   3.998   6.153 -1.0500  0.4456 -1.6496
 9140SOL    HW238880   3.218   4.082   6.183  0.0474 -2.7578 -1.0870
 9141SOL     OW38881   1.760   0.855   0.035 -0.1378 -0.0914 -0.2688
 9141SOL    HW138882   1.696   0.926   0.035 -0.7692 -0.6677  0.5781
 9141SOL    HW238883   1.715   0.781  17.691 -0.4225 -1.4058  2.5219
 9142SOL     OW38884   1.098   2.190  15.797 -0.0068  0.3244 -0.0557
 9142SOL    HW138885   1.122   2.225  15.711  0.2536 -2.9584 -1.3110
 9142SOL    HW238886   1.129   2.262  15.853 -0.7819  0.2856  0.4234
 9143SOL     OW38887   2.992   3.766   7.300 -0.1444 -0.2899  0.2632
 9143SOL    HW138888   3.069   3.729   7.257 -0.9025 -0.2085 -1.1475
 9143SOL    HW238889   3.029   3.766   7.388  3.0866  1.2689 -1.1132
 9144SOL     OW38890   3.064   2.717   3.170  0.0326 -0.3510  0.4272
 9144SOL    HW138891   3.130   2.697   3.236 -0.2026 -0.0813  0.7369
 9144SOL    HW238892   3.111   2.698   3.088 -1.8988  0.6345 -0.9008
 9145SOL     OW38893   3.478   4.092  17.665 -0.3481 -1.2763  0.2028
 9145SOL    HW138894   3.482   4.033   0.043  0.9800 -0.7057  0.5888
 9145SOL    HW238895   3.424   4.167  17.691 -0.7149 -1.8101  0.9893
 9146SOL     OW38896   4.375   2.147   8.730  0.1980 -0.6451 -0.0082
 9146SOL    HW138897   4.403   2.193   8.809 -0.6574 -0.7921  0.3877
 9146SOL    HW238898   4.442   2.079   8.741  0.3987 -0.6598 -1.3189
 9147SOL     OW38899   0.333   4.679  16.897  0.3778 -0.1208  0.2307
 9147SOL    HW138900   0.307   4.681  16.989  0.4460 -0.3411  0.2551
 9147SOL    HW238901   0.249   4.648  16.862  0.6522  0.4329 -0.9324
 9148SOL     OW38902   2.402   1.857   2.740  0.5029  0.0258  0.2343
 9148SOL    HW138903   2.445   1.914   2.803 -0.0937 -1.5939  2.0933
 9148SOL    HW238904   2.391   1.905   2.658 -0.3927  1.2131  1.0666
 9149SOL     OW38905   0.042   0.689   2.462 -0.1045  0.2106  0.2407
 9149SOL    HW138906   0.121   0.670   2.514  0.9987 -2.6304 -2.4636
 9149SOL    HW238907   0.070   0.675   2.372 -0.5951  2.8443 -0.3073
 9150SOL     OW38908   4.418   0.692   3.082 -0.3921  0.5047  0.3675
 9150SOL    HW138909   4.506   0.670   3.111 -0.4360 -0.0607  0.0764
 9150SOL    HW238910   4.430   0.661   2.992 -1.3103  1.3951 -0.0644
 9151SOL     OW38911   4.228   3.815  16.715 -0.4194 -0.0654 -0.5783
 9151SOL    HW138912   4.202   3.729  16.681  0.3160 -0.8075  0.7326
 9151SOL    HW238913   4.306   3.836  16.664  0.3608 -3.1172 -0.6468
 9152SOL     OW38914   4.560   2.889   5.914 -0.2887  0.1618 -0.0701
 9152SOL    HW138915   4.465   2.879   5.924 -0.2265 -0.2638  0.0880
 9152SOL    HW238916   4.586   2.799   5.931  2.2910  0.4456 -2.5172
 9153SOL     OW38917   1.839   1.961   6.967  0.2501 -0.2118  0.0138
 9153SOL    HW138918   1.833   1.870   6.998 -0.5431 -0.2437 -0.2344
 9153SOL    HW238919   1.935   1.969   6.967  0.4658 -2.5934 -1.4255
 9154SOL     OW38920   4.569   0.987   4.831  0.5987  0.2614  0.0309
 9154SOL    HW138921   4.540   1.078   4.826  2.4316  0.7727 -1.2711
 9154SOL    HW238922   4.660   0.997   4.803  0.8496  1.3721  1.2717
 9155SOL     OW38923   4.631   3.692   2.249  0.1568  0.0909  0.0210
 9155SOL    HW138924   4.580   3.713   2.327  3.0040  1.5770  1.5137
 9155SOL    HW238925   4.719   3.690   2.288 -0.5067 -2.2152  1.3796
 9156SOL     OW38926   4.125   1.333  16.848 -0.2288  0.2629 -0.3119
 9156SOL    HW138927   4.169   1.358  16.929 -0.4831  1.2997 -0.4853
 9156SOL    HW238928   4.034   1.345  16.878  0.4201 -0.9311  2.1479
 9157SOL     OW38929   3.232   3.711   8.532  0.2078  0.1432  0.1683
 9157SOL    HW138930   3.219   3.722   8.626 -0.9692  0.4985 -0.0399
 9157SOL    HW238931   3.258   3.797   8.500  0.7417 -0.5318 -1.2431
 9158SOL     OW38932   3.226   3.217   5.908  0.4791 -0.0736  0.3538
 9158SOL    HW138933   3.275   3.205   5.827  0.3651  1.1722  0.1058
 9158SOL    HW238934   3.142   3.212   5.862  0.5491  0.7841  0.1434
 9159SOL     OW38935   4.198   4.253   4.682 -0.3081  0.4767 -0.6908
 9159SOL    HW138936   4.169   4.295   4.762  2.5152  0.7572  0.1842
 9159SOL    HW238937   4.288   4.282   4.670 -0.0071  0.2358  1.0178
 9160SOL     OW38938   4.370   0.555   3.548 -0.1103 -0.0807  0.2524
 9160SOL    HW138939   4.448   0.502   3.563 -1.4698 -2.3378 -0.8294
 9160SOL    HW238940   4.345   0.525   3.461  0.3353 -0.9361  0.4231
 9161SOL     OW38941   4.419   3.211   9.235 -0.0858 -0.0990  0.7699
 9161SOL    HW138942   4.410   3.148   9.306  5.2783 -1.1327  0.6029
 9161SOL    HW238943   4.484   3.273   9.270 -0.1792 -0.1218  0.9777
 9162SOL     OW38944   1.669   2.537  10.144  0.4056 -0.1510 -0.2537
 9162SOL    HW138945   1.618   2.580  10.213 -0.4115 -2.1366  0.3878
 9162SOL    HW238946   1.737   2.494  10.196 -0.4168  0.3700  1.2757
 9163SOL     OW38947   2.232   1.590   4.777 -0.2651  0.1796 -0.1296
 9163SOL    HW138948   2.236   1.506   4.732  1.8660 -1.1160  2.4841
 9163SOL    HW238949   2.269   1.659   4.721 -0.9762  0.2415 -0.5301
 9164SOL     OW38950   0.451   3.846   4.336 -0.2323  0.3842  0.5805
 9164SOL    HW138951   0.457   3.928   4.386 -0.7415  0.7021  0.1165
 9164SOL    HW238952   0.487   3.871   4.251  3.4834 -0.0502  2.0507
 9165SOL     OW38953   3.395   3.074   8.502 -0.6355  0.0497  0.5609
 9165SOL    HW138954   3.469   3.090   8.561  0.8413  1.6157 -1.7146
 9165SOL    HW238955   3.366   2.986   8.524  1.2155 -0.6574  0.1332
 9166SOL     OW38956   1.693   2.911  11.695  0.2343  0.2071 -0.9114
 9166SOL    HW138957   1.787   2.904  11.678  0.6247  0.4084  1.2154
 9166SOL    HW238958   1.656   2.884  11.610  0.9324  1.5110 -1.6221
 9167SOL     OW38959   0.039   0.004   8.583  0.6151 -0.1103  0.0281
 9167SOL    HW138960   4.668   0.005   8.594  0.7708  1.2679  1.1646
 9167SOL    HW238961   0.067   4.690   8.667  0.5034 -0.4749 -0.0957
 9168SOL     OW38962   3.505   1.756   6.996 -0.4936  0.4514 -0.2581
 9168SOL    HW138963   3.436   1.750   7.063 -0.2200  0.4446  0.0213
 9168SOL    HW238964   3.493   1.679   6.941 -0.8580 -1.3472  2.3053
 9169SOL     OW38965   0.966   0.734  10.271  0.0567  0.0256  0.1152
 9169SOL    HW138966   1.045   0.724  10.324  0.0274 -0.9847 -0.0335
 9169SOL    HW238967   0.990   0.807  10.214 -2.9741 -1.6709 -3.3810
 9170SOL     OW38968   4.252   3.072   9.891  0.4005  0.2374  0.1009
 9170SOL    HW138969   4.240   3.166   9.874 -0.0183  0.3848  1.1770
 9170SOL    HW238970   4.348   3.072   9.891  0.4096  0.8622  0.8734
 9171SOL     OW38971   2.605   3.491  12.809 -0.5850  0.8491 -0.0767
 9171SOL    HW138972   2.614   3.397  12.798 -0.7111  0.8896 -0.5060
 9171SOL    HW238973   2.617   3.517  12.718  0.5170 -0.8952 -0.4289
 9172SOL     OW38974   0.703   1.717   6.376 -0.2913 -0.5782 -0.1445
 9172SOL    HW138975   0.782   1.757   6.414 -1.4866  0.1839  1.5408
 9172SOL    HW238976   0.687   1.768   6.296 -0.8277 -0.9992 -0.3009
 9173SOL     OW38977   3.697   2.357   2.447  0.5537 -0.6191  0.1597
 9173SOL    HW138978   3.606   2.343   2.420 -0.5784  3.1613  2.1382
 9173SOL    HW238979   3.699   2.418   2.520  0.2786 -0.7338  0.2636
 9174SOL     OW38980   3.469   4.527  15.716  0.5464  0.1065  0.2713
 9174SOL    HW138981   3.514   4.483  15.645  1.3271 -0.7349  1.2797
 9174SOL    HW238982   3.519   4.506  15.795  0.3858 -0.7078  0.1513
 9175SOL     OW38983   3.214   3.894   6.708  0.2032 -0.7244 -0.0179
 9175SOL    HW138984   3.302   3.858   6.714  1.0872  1.4723  0.4866
 9175SOL    HW238985   3.176   3.852   6.631  1.4351 -0.4750 -0.7754
 9176SOL     OW38986   3.923   2.053   9.616 -0.4855  0.0353  0.0969
 9176SOL    HW138987   3.899   1.963   9.639  0.8572 -0.0956  1.0143
 9176SOL    HW238988   3.855   2.077   9.553 -1.1193  0.3663  0.9030
 9177SOL     OW38989   1.409   2.193   7.225  0.6630 -0.4654  0.1984
 9177SOL    HW138990   1.404   2.194   7.129  0.1681  2.4209  0.2701
 9177SOL    HW238991   1.364   2.276   7.240 -0.2614 -0.5196 -2.1810
 9178SOL     OW38992   0.307   0.680  10.455 -0.1545  0.0110 -0.0528
 9178SOL    HW138993   0.222   0.714  10.427 -0.9872 -1.1447  1.0372
 9178SOL    HW238994   0.311   0.704  10.547 -2.5491 -0.3640  0.1693
 9179SOL     OW38995   3.706   4.027   2.485  0.2178  0.8519 -0.3260
 9179SOL    HW138996   3.728   4.097   2.547  1.8997 -0.6983  0.8177
 9179SOL    HW238997   3.763   4.061   2.417  3.5366 -2.0697  1.0318
 9180SOL     OW38998   4.506   0.274   9.122 -0.4075 -0.2731 -0.2608
 9180SOL    HW138999   4.582   0.308   9.074 -0.3362 -0.1188 -0.0371
 9180SOL    HW239000   4.528   0.181   9.112 -1.7434 -0.6851  0.6720
 9181SOL     OW39001   3.189   1.052   2.119 -0.3089  0.5949  0.1516
 9181SOL    HW139002   3.094   1.056   2.109 -0.6029 -3.2872  1.2792
 9181SOL    HW239003   3.207   0.970   2.073  2.1840  1.3449 -0.2205
 9182SOL     OW39004   2.445   0.233  14.584 -0.6684 -0.5061 -0.0182
 9182SOL    HW139005   2.377   0.180  14.624  0.8601  0.2364  3.5082
 9182SOL    HW239006   2.484   0.170  14.523 -1.7258 -0.7967 -0.3889
 9183SOL     OW39007   2.521   1.243   8.486  0.7421 -0.4398 -0.5170
 9183SOL    HW139008   2.577   1.248   8.408 -0.5561  5.0184 -1.1502
 9183SOL    HW239009   2.452   1.296   8.446  0.2228 -1.0280 -0.3889
 9184SOL     OW39010   4.555   4.517   7.404  0.0497  0.3749  0.4473
 9184SOL    HW139011   4.623   4.529   7.337 -0.8521  1.0326 -0.3503
 9184SOL    HW239012   4.582   4.577   7.473  0.5206  0.7224 -0.0344
 9185SOL     OW39013   2.980   4.667   9.264  0.3672 -0.7495  0.5565
 9185SOL    HW139014   2.893   4.696   9.235  1.1836  3.0720  1.9385
 9185SOL    HW239015   3.016   4.662   9.175 -0.4967  1.4946  0.0805
 9186SOL     OW39016   3.769   0.902   4.406  0.4285  0.4552  0.4618
 9186SOL    HW139017   3.816   0.920   4.488 -0.7517  0.1813  1.2134
 9186SOL    HW239018   3.682   0.883   4.443  0.1962 -1.5924 -1.1531
 9187SOL     OW39019   4.429   1.965   5.143  0.0399 -0.4006  0.0993
 9187SOL    HW139020   4.480   2.007   5.212  2.1237 -0.6123 -1.3459
 9187SOL    HW239021   4.445   2.022   5.068 -0.1717 -1.1408 -0.5070
 9188SOL     OW39022   3.489   1.259   4.464  0.0283 -0.1668 -0.4601
 9188SOL    HW139023   3.405   1.259   4.510  1.5634  0.1764  2.2818
 9188SOL    HW239024   3.460   1.236   4.375 -2.4883  1.0845  0.0141
 9189SOL     OW39025   1.341   1.277  16.540  0.8230 -0.1506 -0.1176
 9189SOL    HW139026   1.286   1.353  16.561  0.0109 -0.5807 -0.7287
 9189SOL    HW239027   1.369   1.300  16.452 -2.1496 -1.4935 -1.4186
 9190SOL     OW39028   4.719   0.447   1.405 -0.4060  0.1065 -0.1213
 9190SOL    HW139029   4.701   0.355   1.426 -0.1024 -0.1192 -0.8583
 9190SOL    HW239030   4.647   0.490   1.451 -0.3337 -0.5503  0.6109
 9191SOL     OW39031   2.587   0.501   3.886 -0.2696  0.0332 -0.5508
 9191SOL    HW139032   2.676   0.486   3.917 -0.8744 -0.5769  0.8980
 9191SOL    HW239033   2.542   0.520   3.968  0.8391  1.1720 -0.2121
 9192SOL     OW39034   0.869   2.058  17.274 -0.1204 -0.3304 -0.3528
 9192SOL    HW139035   0.839   1.969  17.255 -0.4726 -0.4782  0.9206
 9192SOL    HW239036   0.955   2.059  17.232  1.3461 -0.6566  2.6343
 9193SOL     OW39037   4.567   1.327  15.320 -0.0075 -0.4127 -0.2978
 9193SOL    HW139038   4.574   1.390  15.392  2.3522 -2.5576  1.3350
 9193SOL    HW239039   4.577   1.385  15.244  1.7077  0.8638  0.9198
 9194SOL     OW39040   1.708   0.807   8.082  0.7847  0.0888  0.2974
 9194SOL    HW139041   1.740   0.768   8.001  1.7615  1.0422  0.2189
 9194SOL    HW239042   1.786   0.848   8.119 -0.8725  3.5806 -0.0279
 9195SOL     OW39043   3.150   3.699   3.887  0.1052  0.2187  0.2230
 9195SOL    HW139044   3.123   3.756   3.816  0.3934  0.6890  0.4904
 9195SOL    HW239045   3.071   3.684   3.939 -1.5258  1.4369 -1.9211
 9196SOL     OW39046   1.713   3.323   4.289 -0.2344 -0.0784  0.1913
 9196SOL    HW139047   1.787   3.267   4.265  0.9687  1.3349  0.6207
 9196SOL    HW239048   1.671   3.316   4.203  3.6491 -0.0247 -1.6764
 9197SOL     OW39049   2.772   4.143   4.851  0.4504  0.0150 -0.4597
 9197SOL    HW139050   2.759   4.231   4.816 -0.5343 -0.7917 -2.0986
 9197SOL    HW239051   2.821   4.094   4.785 -0.8257 -0.8624 -0.7321
 9198SOL     OW39052   3.578   2.223   4.359  0.1788 -0.1926 -0.4807
 9198SOL    HW139053   3.516   2.295   4.373  0.0544 -0.6192  1.1230
 9198SOL    HW239054   3.524   2.156   4.318  1.5219 -0.0267 -2.5066
 9199SOL     OW39055   4.182   3.903   9.786  0.0172  0.2623 -0.2976
 9199SOL    HW139056   4.125   3.828   9.771 -0.3904  0.5418 -0.1547
 9199SOL    HW239057   4.187   3.938   9.697 -0.9783  0.0449 -0.4382
 9200SOL     OW39058   1.798   0.833  14.616 -0.2740 -0.0865 -0.0979
 9200SOL    HW139059   1.775   0.909  14.670 -0.3978 -0.8824  0.9745
 9200SOL    HW239060   1.724   0.773  14.626 -2.8943  3.0255 -0.7334
 9201SOL     OW39061   1.858   2.589   0.857  0.2686  0.3500 -0.2282
 9201SOL    HW139062   1.839   2.624   0.944 -1.4911 -1.5770  0.1709
 9201SOL    HW239063   1.775   2.542   0.843 -0.6831  2.2750 -1.0898
 9202SOL     OW39064   4.680   2.300   8.740  0.2948  0.2030  0.4132
 9202SOL    HW139065   4.601   2.325   8.693  2.0116  1.5222 -1.7742
 9202SOL    HW239066   4.718   2.233   8.682  1.3279  1.1512 -0.0183
 9203SOL     OW39067   3.524   3.306   4.166 -0.1095  0.3249 -0.0670
 9203SOL    HW139068   3.535   3.273   4.255 -0.3269 -0.7129 -0.4208
 9203SOL    HW239069   3.431   3.328   4.158  0.3406  1.9195 -0.9746
 9204SOL     OW39070   1.519   1.920   6.592 -0.1704  0.1895  0.0222
 9204SOL    HW139071   1.532   1.830   6.560 -0.3052  0.6727 -1.4100
 9204SOL    HW239072   1.584   1.970   6.543  1.5359 -0.9749  1.1304
 9205SOL     OW39073   0.993   0.378  14.822 -0.3456  0.0102 -0.1480
 9205SOL    HW139074   0.907   0.389  14.864 -0.0859 -1.5822  0.7932
 9205SOL    HW239075   1.041   0.455  14.854  1.2611 -0.3606 -1.7041
 9206SOL     OW39076   1.381   2.658   6.203  0.1211 -1.0172 -0.0486
 9206SOL    HW139077   1.340   2.580   6.241 -3.0963  1.0080  0.6561
 9206SOL    HW239078   1.312   2.722   6.222  1.6690  0.9500 -1.1150
 9207SOL     OW39079   2.676   2.537   1.743 -0.3208 -0.0509 -0.2927
 9207SOL    HW139080   2.669   2.631   1.726  3.1916  0.5875  1.8639
 9207SOL    HW239081   2.652   2.529   1.835 -1.1297 -2.1498 -0.6975
 9208SOL     OW39082   2.988   3.440  15.279  0.0940  0.2001 -0.0373
 9208SOL    HW139083   3.024   3.454  15.367 -0.9856 -3.3405  0.9436
 9208SOL    HW239084   2.917   3.505  15.279  1.3627  1.5906  2.5140
 9209SOL     OW39085   4.186   4.517   9.729 -0.6710  0.0709  0.1864
 9209SOL    HW139086   4.186   4.438   9.782  1.0904 -0.2595 -0.3197
 9209SOL    HW239087   4.116   4.572   9.765  0.6899  1.2225  1.0776
 9210SOL     OW39088   0.107   3.441   7.931 -0.3065  0.5877 -0.1609
 9210SOL    HW139089   0.013   3.423   7.929 -0.3327  0.8071 -1.3569
 9210SOL    HW239090   0.120   3.459   7.837  0.3399  0.9393 -0.0072
 9211SOL     OW39091   0.128   3.781   9.344 -0.2739 -0.0830 -0.5179
 9211SOL    HW139092   0.223   3.775   9.359 -0.5892  1.6575  2.3635
 9211SOL    HW239093   0.111   3.872   9.368  0.7322  0.3390 -1.3979
 9212SOL     OW39094   0.776   3.068   6.140  0.3259 -0.0640  0.4851
 9212SOL    HW139095   0.718   3.021   6.199  0.3708 -1.0952 -0.2996
 9212SOL    HW239096   0.822   2.998   6.095  0.3087  0.9489 -1.1160
 9213SOL     OW39097   3.029   3.606  12.764  0.0068  0.5382 -0.3983
 9213SOL    HW139098   3.065   3.653  12.688  0.8772  1.4615  0.5967
 9213SOL    HW239099   2.975   3.676  12.801  1.3485  1.0945  0.4685
 9214SOL     OW39100   1.561   2.525   2.240 -0.1895 -0.1807  0.8033
 9214SOL    HW139101   1.575   2.587   2.311 -2.3669  1.2897 -0.0615
 9214SOL    HW239102   1.620   2.568   2.179  1.4343 -4.9709 -1.0075
 9215SOL     OW39103   1.285   3.117  10.604  0.0310 -0.2898  0.1228
 9215SOL    HW139104   1.310   3.026  10.621 -0.2214 -0.3656  0.0807
 9215SOL    HW239105   1.348   3.149  10.540  1.1535 -0.6838  1.0194
 9216SOL     OW39106   0.473   2.970  16.665  0.5150 -0.7643  0.4992
 9216SOL    HW139107   0.468   2.906  16.737 -0.8127  1.3871  2.3017
 9216SOL    HW239108   0.481   3.051  16.715  0.6464  0.6443 -1.8361
 9217SOL     OW39109   2.706   1.188  16.138  0.0760 -0.3315 -0.2472
 9217SOL    HW139110   2.613   1.182  16.119  0.0111  0.1951 -0.1057
 9217SOL    HW239111   2.719   1.265  16.194 -1.2676 -0.9723  0.9458
 9218SOL     OW39112   1.978   1.066   3.492 -0.4553 -0.1711  0.3232
 9218SOL    HW139113   1.959   1.032   3.404  0.8168  4.4038 -1.7438
 9218SOL    HW239114   2.020   1.146   3.462 -1.9303 -0.2192 -1.9009
 9219SOL     OW39115   1.847   3.607   8.329  0.3228  0.1600 -0.2430
 9219SOL    HW139116   1.859   3.659   8.249  0.2752 -2.2874 -1.8399
 9219SOL    HW239117   1.810   3.524   8.301  0.0151  0.5375 -0.9561
 9220SOL     OW39118   1.939   1.756   7.724  0.3873 -0.0646  0.6214
 9220SOL    HW139119   1.975   1.785   7.808 -0.4567 -0.9131  1.2722
 9220SOL    HW239120   1.940   1.662   7.739 -1.5773 -0.2841 -0.6466
 9221SOL     OW39121   2.213   1.381  16.190  0.2613  0.6694 -0.1913
 9221SOL    HW139122   2.157   1.317  16.233  0.5443  1.0387  0.7178
 9221SOL    HW239123   2.255   1.317  16.133 -1.6323 -2.8088  2.3013
 9222SOL     OW39124   0.029   3.223   9.042  0.3435 -0.2070  0.5874
 9222SOL    HW139125   4.714   3.270   8.968  1.6953 -1.2984 -0.8076
 9222SOL    HW239126   4.694   3.147   9.046 -0.1290  0.0745 -0.8150
 9223SOL     OW39127   3.519   4.284   5.987  0.2447 -0.4225 -0.5750
 9223SOL    HW139128   3.592   4.343   6.002  0.0224 -0.5593  0.9968
 9223SOL    HW239129   3.509   4.236   6.069  1.7468 -0.9261 -0.6870
 9224SOL     OW39130   3.437   0.505   7.711  0.2684  0.0923 -0.0315
 9224SOL    HW139131   3.511   0.562   7.690  1.5558 -1.0689  1.3389
 9224SOL    HW239132   3.405   0.463   7.631 -0.4124  1.1155 -0.3020
 9225SOL     OW39133   1.172   2.247  13.067 -0.0544  0.2552 -0.1460
 9225SOL    HW139134   1.096   2.230  13.012  0.0611 -0.2734 -0.1349
 9225SOL    HW239135   1.176   2.176  13.131 -0.9478  2.4396  2.3477
 9226SOL     OW39136   4.489   1.188   7.569  0.1961  0.0486  0.1573
 9226SOL    HW139137   4.471   1.094   7.567 -0.6880  0.2438 -0.6745
 9226SOL    HW239138   4.488   1.203   7.664 -0.8931  0.0027  0.1485
 9227SOL     OW39139   3.065   3.353  13.966 -0.3082 -0.3730  0.0149
 9227SOL    HW139140   3.096   3.435  13.927 -0.3552  1.0686  3.0154
 9227SOL    HW239141   3.114   3.285  13.920 -0.4312 -1.8836  2.1348
 9228SOL     OW39142   0.512   1.691  13.436  0.0768  0.6087  0.0341
 9228SOL    HW139143   0.579   1.650  13.491 -0.8524 -2.7566 -1.3554
 9228SOL    HW239144   0.465   1.742  13.503 -1.2815  0.7493 -1.0352
 9229SOL     OW39145   4.500   2.596  11.174 -0.1149  0.1984  0.3978
 9229SOL    HW139146   4.475   2.546  11.252 -1.2349  1.0047  0.5449
 9229SOL    HW239147   4.471   2.684  11.195  1.9572  0.8754  0.4418
 9230SOL     OW39148   4.620   4.707   6.790 -0.0427  0.0230 -0.2385
 9230SOL    HW139149   4.585   0.038   6.720 -2.2581 -2.5315 -1.1377
 9230SOL    HW239150   4.628   0.044   6.863 -1.3602  0.3689 -0.3967
 9231SOL     OW39151   1.600   0.429   3.699  0.2190  0.2397  0.6233
 9231SOL    HW139152   1.573   0.471   3.617  0.5475  0.2003  0.4925
 9231SOL    HW239153   1.525   0.373   3.719  0.7465 -0.3000  1.0895
 9232SOL     OW39154   2.704   1.511   6.380  0.1360  0.4270  0.8681
 9232SOL    HW139155   2.761   1.528   6.305 -2.2966  1.7028 -0.7355
 9232SOL    HW239156   2.618   1.526   6.340  1.0628  0.3343 -1.1760
 9233SOL     OW39157   1.158   4.199   8.138 -0.2889 -0.2863 -0.4548
 9233SOL    HW139158   1.120   4.270   8.085  0.9662  0.9189  0.2366
 9233SOL    HW239159   1.128   4.214   8.227 -0.5602  1.4456 -0.8363
 9234SOL     OW39160   3.770   1.569  17.094 -0.1996  0.5603 -0.6515
 9234SOL    HW139161   3.741   1.497  17.149 -0.9468  1.1803 -0.2381
 9234SOL    HW239162   3.686   1.601  17.060 -0.2372  1.8714  0.6767
 9235SOL     OW39163   3.829   1.277   8.092  0.3848  0.2780  0.2830
 9235SOL    HW139164   3.911   1.319   8.120  0.1527  1.7115 -1.2100
 9235SOL    HW239165   3.793   1.262   8.179 -2.0504 -0.7053 -0.8951
 9236SOL     OW39166   3.555   0.068  15.742  0.2503  0.7827 -0.4735
 9236SOL    HW139167   3.489   0.126  15.777  1.2771  1.4470  0.3587
 9236SOL    HW239168   3.512   4.713  15.708  2.0070 -0.2249 -0.4049
 9237SOL     OW39169   0.943   4.381   2.671  0.2544 -0.4910 -0.1891
 9237SOL    HW139170   1.003   4.424   2.610 -0.3201 -0.8231 -0.9732
 9237SOL    HW239171   0.884   4.457   2.672  2.7507  1.4654  0.2502
 9238SOL     OW39172   1.760   0.643   7.851  0.4512 -0.3100 -0.1165
 9238SOL    HW139173   1.845   0.608   7.825 -0.3286 -1.5399 -1.0723
 9238SOL    HW239174   1.703   0.566   7.843  1.7869 -0.9045 -4.2017
 9239SOL     OW39175   4.679   0.657   3.790 -0.5590  0.5402 -0.3466
 9239SOL    HW139176   4.687   0.670   3.885 -0.7670  1.2723 -0.4245
 9239SOL    HW239177   4.689   0.747   3.757 -0.5759  1.1321  1.2757
 9240SOL     OW39178   1.713   3.548   9.086 -0.2508  0.1136 -0.2504
 9240SOL    HW139179   1.619   3.544   9.105 -0.2174  0.7210  0.0226
 9240SOL    HW239180   1.725   3.633   9.045 -0.5878  0.5690  0.5923
 9241SOL     OW39181   2.126   1.828   6.569 -0.0929 -0.1851 -0.3178
 9241SOL    HW139182   2.078   1.745   6.564 -0.3655  0.0217 -1.2561
 9241SOL    HW239183   2.069   1.885   6.517 -0.2713 -1.2560 -1.3162
 9242SOL     OW39184   1.334   4.576   7.987 -0.5110  0.3103 -0.4736
 9242SOL    HW139185   1.361   4.491   8.021  0.5323  1.1191  0.7289
 9242SOL    HW239186   1.323   4.625   8.068  1.8390 -0.9767  0.6148
 9243SOL     OW39187   1.275   0.245   8.428  0.4588 -0.0350  0.3095
 9243SOL    HW139188   1.334   0.317   8.405 -0.2777  0.6717  0.6508
 9243SOL    HW239189   1.197   0.253   8.373  0.7851  2.7400  0.2794
 9244SOL     OW39190   2.272   3.498   5.108 -0.4931 -0.1487  0.7071
 9244SOL    HW139191   2.286   3.592   5.095 -1.6272  0.0114  0.6127
 9244SOL    HW239192   2.187   3.512   5.150 -1.8587 -3.2551 -1.0471
 9245SOL     OW39193   2.920   4.449   3.039  0.2403 -0.1370  0.0015
 9245SOL    HW139194   2.895   4.402   2.959  0.5455  0.3766 -0.3999
 9245SOL    HW239195   2.893   4.393   3.112  0.3252 -2.5751 -1.8402
 9246SOL     OW39196   3.745   3.941   4.567  0.1747  0.4719 -0.1210
 9246SOL    HW139197   3.816   3.883   4.538 -0.7339 -2.1349  2.9473
 9246SOL    HW239198   3.746   4.002   4.492  1.6357 -1.8099 -1.9591
 9247SOL     OW39199   1.836   4.535   5.757  0.0948  0.3807 -0.4847
 9247SOL    HW139200   1.848   4.463   5.819  1.6453  0.9316 -0.1296
 9247SOL    HW239201   1.846   4.604   5.822 -1.0046 -0.1984  0.3020
 9248SOL     OW39202   2.837   0.882  15.066  0.3090  0.5133  0.3030
 9248SOL    HW139203   2.901   0.914  15.130 -1.6825  1.9711  1.5409
 9248SOL    HW239204   2.894   0.909  14.994 -0.7830 -1.9256 -1.4684
 9249SOL     OW39205   0.071   1.553   2.531 -0.1788 -0.0317  0.0141
 9249SOL    HW139206   0.074   1.483   2.465  1.3534 -1.5725  1.7250
 9249SOL    HW239207   0.162   1.572   2.553  0.0390 -1.6961  0.5522
 9250SOL     OW39208   2.515   1.811   1.822  0.0780  0.0141 -0.4198
 9250SOL    HW139209   2.568   1.753   1.768 -0.5007  0.0500 -1.0361
 9250SOL    HW239210   2.428   1.775   1.802  0.6438 -1.1924 -0.6659
 9251SOL     OW39211   3.534   2.159  11.370 -0.2870  0.0681  0.2283
 9251SOL    HW139212   3.478   2.228  11.334  0.0323  0.7300  1.0049
 9251SOL    HW239213   3.574   2.205  11.444  0.0245 -0.4296  0.3699
 9252SOL     OW39214   1.447   2.403  15.158 -0.2256  0.0079  0.0857
 9252SOL    HW139215   1.435   2.445  15.073 -0.4547 -0.3558 -0.0633
 9252SOL    HW239216   1.492   2.325  15.127  0.1168  1.1820 -2.3453
 9253SOL     OW39217   4.283   3.438  14.753  0.0273 -0.7868 -0.4470
 9253SOL    HW139218   4.298   3.392  14.836 -0.6389 -0.0013  0.0998
 9253SOL    HW239219   4.210   3.490  14.784  0.3036 -0.6019 -0.1037
 9254SOL     OW39220   2.338   4.417   7.165  0.2319 -0.0015  0.6270
 9254SOL    HW139221   2.285   4.489   7.199 -0.3868  0.2116 -0.7798
 9254SOL    HW239222   2.308   4.344   7.219  0.9827 -1.5715 -1.0544
 9255SOL     OW39223   1.722   1.464   3.216 -0.2669  0.2663 -0.2076
 9255SOL    HW139224   1.734   1.449   3.122  1.0476 -1.4720  0.2394
 9255SOL    HW239225   1.631   1.493   3.219 -0.5969 -0.6021 -1.8505
 9256SOL     OW39226   3.620   2.851   4.614 -0.0080  0.4242 -1.1020
 9256SOL    HW139227   3.563   2.774   4.608  1.8488 -0.9689 -0.7187
 9256SOL    HW239228   3.700   2.814   4.578 -1.3733 -2.2456 -1.3914
 9257SOL     OW39229   4.109   1.495   1.653 -0.8666 -0.0492 -0.2354
 9257SOL    HW139230   4.174   1.480   1.721 -1.9237 -0.2901  0.7245
 9257SOL    HW239231   4.150   1.577   1.624  0.5890 -0.8136 -0.3276
 9258SOL     OW39232   2.066   2.457  15.085  0.1547  1.3001  0.0732
 9258SOL    HW139233   2.146   2.488  15.128  0.1797  1.4039 -0.0458
 9258SOL    HW239234   2.067   2.507  15.003 -0.6111 -1.0720 -1.3941
 9259SOL     OW39235   4.632   1.876  13.733  0.4023  0.0729 -0.1349
 9259SOL    HW139236   4.542   1.846  13.734  0.6438 -0.5573  1.3951
 9259SOL    HW239237   4.662   1.851  13.820 -0.9979  1.7824  0.8432
 9260SOL     OW39238   1.837   1.635   1.338 -0.7579  0.3765 -0.2521
 9260SOL    HW139239   1.914   1.653   1.391 -0.7787 -0.2465 -0.0153
 9260SOL    HW239240   1.870   1.634   1.248  0.8762  0.2371  0.3480
 9261SOL     OW39241   4.714   0.353   1.119 -0.1661 -0.1384  0.8714
 9261SOL    HW139242   0.078   0.331   1.088 -0.2292  0.9849 -0.0720
 9261SOL    HW239243   4.689   0.424   1.061  2.4127 -0.2693 -0.3929
 9262SOL     OW39244   0.925   2.390   0.162  0.2717  0.3370 -0.0429
 9262SOL    HW139245   0.874   2.371   0.241 -0.8352 -1.7969 -1.2657
 9262SOL    HW239246   0.882   2.470   0.133 -2.0334 -0.8186  0.1219
 9263SOL     OW39247   4.358   1.726   3.025  0.0305 -0.5304  0.2450
 9263SOL    HW139248   4.297   1.767   3.087  1.9157 -0.0460  1.7782
 9263SOL    HW239249   4.329   1.755   2.939  0.0478  0.6457  0.6348
 9264SOL     OW39250   0.463   0.167   1.896 -0.3910  0.0153  1.2691
 9264SOL    HW139251   0.508   0.227   1.955 -3.5647  2.9443  0.7577
 9264SOL    HW239252   0.372   0.188   1.917 -1.5818 -1.2497 -2.5580
 9265SOL     OW39253   1.812   1.680   2.117  0.3993  0.5002  0.8225
 9265SOL    HW139254   1.747   1.612   2.099  3.1592 -1.4403 -1.8183
 9265SOL    HW239255   1.890   1.639   2.080 -1.0671 -1.0615 -0.5494
 9266SOL     OW39256   4.078   2.897   0.438 -0.1436 -0.1429  0.4128
 9266SOL    HW139257   4.122   2.812   0.444 -1.2646 -0.7878 -0.3228
 9266SOL    HW239258   4.092   2.932   0.526 -3.3548  3.7673 -0.6234
 9267SOL     OW39259   3.960   1.210   3.059  1.0624  0.1216  0.5041
 9267SOL    HW139260   3.923   1.156   3.129 -3.4204  2.3243 -0.2137
 9267SOL    HW239261   3.983   1.287   3.110  1.3592  0.6428 -0.4185
 9268SOL     OW39262   3.055   2.173   1.118  0.2980 -0.0498 -0.1375
 9268SOL    HW139263   3.040   2.249   1.175 -0.6454  0.6410 -1.3121
 9268SOL    HW239264   3.137   2.201   1.077  1.1887 -1.8036  0.4588
 9269SOL     OW39265   1.032   4.442   4.905  0.8361 -0.3794  0.1141
 9269SOL    HW139266   1.096   4.375   4.880 -1.2949 -2.7222  0.9550
 9269SOL    HW239267   1.056   4.474   4.992  1.8587  0.5649 -0.5127
 9270SOL     OW39268   0.309   0.314   4.051  0.0972 -0.4231  0.1906
 9270SOL    HW139269   0.400   0.320   4.081  1.0051 -1.0140 -2.4338
 9270SOL    HW239270   0.316   0.262   3.971  1.6767 -1.1226  0.7868
 9271SOL     OW39271   1.342   2.290   0.878  0.3384  0.2716 -0.0748
 9271SOL    HW139272   1.395   2.367   0.899  0.3516  0.3607 -0.4365
 9271SOL    HW239273   1.276   2.291   0.947 -0.9220  1.3935 -1.2999
 9272SOL     OW39274   0.879   0.212  10.858 -0.3438 -0.5140 -0.1387
 9272SOL    HW139275   0.857   0.266  10.781 -2.3954  2.3396  2.4273
 9272SOL    HW239276   0.855   0.125  10.828 -1.8796 -0.3699  0.6507
 9273SOL     OW39277   2.149   4.305  11.070 -0.2317  0.4750 -0.1805
 9273SOL    HW139278   2.076   4.315  11.132  0.0963 -2.1642  0.6077
 9273SOL    HW239279   2.158   4.210  11.067  0.5264  0.4931  1.1129
 9274SOL     OW39280   3.800   2.782   3.950 -0.5164 -0.1579 -0.0027
 9274SOL    HW139281   3.804   2.827   4.034 -1.4054  0.1035 -0.1034
 9274SOL    HW239282   3.813   2.691   3.975 -2.2385 -1.0038 -2.1403
 9275SOL     OW39283   0.571   0.824   2.929  0.5520 -0.3096  0.0455
 9275SOL    HW139284   0.527   0.740   2.917  0.4075 -0.1265 -0.6583
 9275SOL    HW239285   0.648   0.808   2.984 -0.7208  0.0058  1.9116
 9276SOL     OW39286   0.109   3.423   4.372  0.3444 -0.1097 -0.2148
 9276SOL    HW139287   0.080   3.361   4.306 -0.1819  0.8480 -0.8860
 9276SOL    HW239288   0.138   3.498   4.321  0.5444 -1.1105 -1.5668
 9277SOL     OW39289   2.545   0.184   5.813  0.3417  0.3385  1.0232
 9277SOL    HW139290   2.454   0.161   5.830  0.2373 -1.7604 -2.3352
 9277SOL    HW239291   2.558   0.233   5.894  0.1060  0.8189  0.7691
 9278SOL     OW39292   0.782   2.389   7.522 -0.0799  0.3659  0.1803
 9278SOL    HW139293   0.720   2.375   7.594  0.6712 -1.5495  0.4585
 9278SOL    HW239294   0.807   2.299   7.499  2.0210  0.8117  0.6761
 9279SOL     OW39295   3.253   2.632   2.687 -0.4811  0.3319  0.0904
 9279SOL    HW139296   3.345   2.608   2.679 -0.8138 -0.8753 -0.1760
 9279SOL    HW239297   3.251   2.726   2.669  1.4322  0.5340  0.9563
 9280SOL     OW39298   2.757   1.344  14.597  0.1657  0.2816 -0.2771
 9280SOL    HW139299   2.777   1.352  14.690 -1.8605  1.2696  0.0667
 9280SOL    HW239300   2.669   1.310  14.611  0.5632  0.0208  1.5391
 9281SOL     OW39301   3.819   3.489   7.499  0.4123 -0.2653 -0.1539
 9281SOL    HW139302   3.740   3.501   7.551  1.3490 -1.7123  1.5836
 9281SOL    HW239303   3.811   3.397   7.475  1.5239 -0.6552  0.9360
 9282SOL     OW39304   2.280   0.005   2.630 -0.6247 -0.5064 -0.1058
 9282SOL    HW139305   2.330   4.675   2.691  0.9093 -0.5926 -1.4514
 9282SOL    HW239306   2.342   0.074   2.607 -0.0297 -0.0698  2.7791
 9283SOL     OW39307   4.172   3.811   0.365 -0.0583  0.0123  0.1059
 9283SOL    HW139308   4.168   3.892   0.416  0.1160  0.8430 -1.2137
 9283SOL    HW239309   4.238   3.762   0.414  1.8508 -0.5081 -2.9539
 9284SOL     OW39310   3.293   0.946   7.257 -0.4771 -0.2530 -0.2487
 9284SOL    HW139311   3.298   1.020   7.196  1.6397  0.9364  1.3779
 9284SOL    HW239312   3.290   0.870   7.199 -0.0209 -1.6171  1.5112
 9285SOL     OW39313   4.553   3.051   3.466  0.1131  0.7626 -0.1837
 9285SOL    HW139314   4.600   3.116   3.518 -0.3306  2.1501 -1.5255
 9285SOL    HW239315   4.621   3.014   3.410  0.6791 -0.0920  1.0657
 9286SOL     OW39316   4.347   4.639   8.959  0.0756  0.3854  0.6642
 9286SOL    HW139317   4.271   4.587   8.934 -0.7874  1.7355  0.5153
 9286SOL    HW239318   4.398   4.559   8.976  0.5928  0.8101  1.0898
 9287SOL     OW39319   2.689   2.827   7.666 -0.0458  0.0802  0.1458
 9287SOL    HW139320   2.754   2.893   7.642 -0.9968  0.5721 -1.1017
 9287SOL    HW239321   2.736   2.749   7.637  0.7414  0.9359 -0.8462
 9288SOL     OW39322   1.477   1.359   7.002 -0.4398 -0.6841  0.5021
 9288SOL    HW139323   1.471   1.294   7.072  0.1511 -1.5721 -0.2659
 9288SOL    HW239324   1.384   1.375   6.989 -0.4732 -0.9063  0.4661
 9289SOL     OW39325   3.841   2.701   8.797 -0.1120  0.3512 -0.4692
 9289SOL    HW139326   3.928   2.740   8.811 -0.1114  1.2322 -2.9290
 9289SOL    HW239327   3.864   2.658   8.715 -0.3744 -0.7129  0.0197
 9290SOL     OW39328   0.589   0.040   8.003  0.1097 -0.0373  0.5339
 9290SOL    HW139329   0.507   4.716   8.013 -1.0223  1.3042 -2.2795
 9290SOL    HW239330   0.559   0.131   7.999 -0.3469 -0.2082 -0.0362
 9291SOL     OW39331   3.900   0.702  13.015  0.2100 -0.2955  0.3952
 9291SOL    HW139332   3.857   0.737  12.938 -1.3120 -0.6906  1.0548
 9291SOL    HW239333   3.830   0.722  13.078 -1.4473 -1.9926 -0.8725
 9292SOL     OW39334   0.889   2.128   5.554  0.4145  0.1627  0.0811
 9292SOL    HW139335   0.842   2.208   5.579  0.1212 -0.1455  0.5141
 9292SOL    HW239336   0.902   2.132   5.460  2.9202 -0.7427  0.3812
 9293SOL     OW39337   1.886   0.511  14.069  0.6052 -0.5428 -0.7830
 9293SOL    HW139338   1.821   0.560  14.019  0.7254  1.4769  1.0401
 9293SOL    HW239339   1.916   0.564  14.142 -0.8122  0.5638 -0.9900
 9294SOL     OW39340   1.844   2.333   6.407 -0.5176 -0.7823 -0.3574
 9294SOL    HW139341   1.767   2.370   6.364 -0.0287  0.9908  0.3053
 9294SOL    HW239342   1.814   2.315   6.496  2.7832  0.3266  1.0044
 9295SOL     OW39343   0.052   4.327   8.829  0.1889  0.5202  0.2786
 9295SOL    HW139344   0.068   4.238   8.860 -0.2439  0.9604  1.7490
 9295SOL    HW239345   0.089   4.326   8.741 -0.3018 -1.0843  0.0989
 9296SOL     OW39346   1.779   1.707   5.040 -0.1118  0.4414 -0.4015
 9296SOL    HW139347   1.800   1.629   5.091  0.1386  0.4642 -0.4693
 9296SOL    HW239348   1.800   1.684   4.949  0.7102 -0.6471  0.0694
 9297SOL     OW39349   0.491   1.296  13.922 -0.1238 -0.0599 -0.3669
 9297SOL    HW139350   0.397   1.312  13.929  0.0962  1.4399 -0.8873
 9297SOL    HW239351   0.491   1.208  13.959 -0.7343  0.3749  0.6616
 9298SOL     OW39352   0.055   2.063   6.768  0.5958 -0.0557  0.6135
 9298SOL    HW139353   0.063   2.038   6.861 -0.1735 -1.5143  0.2941
 9298SOL    HW239354   0.103   2.001   6.713 -0.0045 -0.8337  0.9560
 9299SOL     OW39355   3.979   0.683  13.347  0.3661 -0.0529  0.0311
 9299SOL    HW139356   3.985   0.727  13.432 -0.0010 -0.7224  0.4041
 9299SOL    HW239357   3.971   0.590  13.370 -0.2605 -0.4220 -1.6613
 9300SOL     OW39358   0.699   3.802   3.573  0.3590  0.2393 -0.9242
 9300SOL    HW139359   0.724   3.866   3.641 -0.1063 -0.5274 -0.0283
 9300SOL    HW239360   0.770   3.818   3.511  0.4759  3.6616  0.0494
 9301SOL     OW39361   3.163   1.729   4.493  0.4372 -0.4528  0.1992
 9301SOL    HW139362   3.185   1.756   4.404 -2.6682 -2.0033 -1.0069
 9301SOL    HW239363   3.251   1.729   4.531 -1.1736 -1.1879  3.9322
 9302SOL     OW39364   2.627   1.517   2.494 -0.4299 -0.3016  0.3148
 9302SOL    HW139365   2.544   1.501   2.538  0.7199 -1.4509  2.0319
 9302SOL    HW239366   2.621   1.612   2.483 -2.4461 -0.4137  0.4742
 9303SOL     OW39367   2.636   1.151   6.062  0.5471  0.2107  0.4388
 9303SOL    HW139368   2.682   1.094   6.122  0.0551  1.6988  2.2155
 9303SOL    HW239369   2.553   1.150   6.108 -0.4659 -0.7114 -1.3956
 9304SOL     OW39370   3.158   1.183   5.116 -0.3919  0.2367  0.5940
 9304SOL    HW139371   3.245   1.214   5.089  1.0977 -4.4457  0.0772
 9304SOL    HW239372   3.171   1.108   5.173 -1.9300 -0.5813 -0.1470
 9305SOL     OW39373   2.184   2.584   1.088  0.1715  0.6023  0.5936
 9305SOL    HW139374   2.115   2.634   1.045  0.5250  0.4059 -0.2113
 9305SOL    HW239375   2.167   2.603   1.180 -2.0032  3.5778 -0.4448
 9306SOL     OW39376   2.218   0.111  15.754  0.6204 -0.8915 -0.0651
 9306SOL    HW139377   2.139   0.079  15.710 -1.1003  2.4152  0.6615
 9306SOL    HW239378   2.264   0.027  15.766  4.1038  1.2937  1.7740
 9307SOL     OW39379   2.436   1.827   3.908 -0.4818  0.4078  0.2413
 9307SOL    HW139380   2.435   1.923   3.907  0.7009  0.4230 -1.9650
 9307SOL    HW239381   2.516   1.822   3.856 -0.1453 -2.4770  1.0316
 9308SOL     OW39382   1.245   3.869  17.414  0.1881  0.0122 -0.0447
 9308SOL    HW139383   1.226   3.961  17.434  0.2812 -0.0976  0.5755
 9308SOL    HW239384   1.218   3.871  17.323 -1.4926  1.5814  0.4983
 9309SOL     OW39385   1.271   0.960  10.809 -0.2620 -0.5477  0.5045
 9309SOL    HW139386   1.299   0.886  10.862  3.2488  0.8613  0.6119
 9309SOL    HW239387   1.181   0.975  10.839 -0.8257  0.6796 -1.8216
 9310SOL     OW39388   0.283   0.925   6.150 -0.1766 -0.3661 -0.3201
 9310SOL    HW139389   0.353   0.980   6.115 -0.9948 -0.7616 -2.5500
 9310SOL    HW239390   0.213   0.948   6.089 -1.3528  0.5027  1.3470
 9311SOL     OW39391   3.794   3.419   2.959 -0.9220  0.4986 -0.1560
 9311SOL    HW139392   3.846   3.366   3.019 -0.7397 -2.1235 -2.6171
 9311SOL    HW239393   3.838   3.504   2.964  0.4731 -0.1853 -1.1367
 9312SOL     OW39394   2.454   1.343   8.890  0.0810  0.0674 -0.4062
 9312SOL    HW139395   2.376   1.305   8.850 -0.7967  0.9650  0.4761
 9312SOL    HW239396   2.489   1.269   8.940  0.6266  2.1942  2.3146
 9313SOL     OW39397   4.037   2.376  13.280 -0.1122  0.0907  0.2237
 9313SOL    HW139398   4.064   2.457  13.323 -1.7229  1.5638 -1.5124
 9313SOL    HW239399   4.112   2.357  13.223 -1.5234 -2.4400 -0.8073
 9314SOL     OW39400   1.686   0.680   5.292 -0.4310  0.4111  0.3012
 9314SOL    HW139401   1.748   0.611   5.315 -0.8344 -0.6166 -1.7295
 9314SOL    HW239402   1.605   0.635   5.314  1.3596 -2.9806 -0.0174
 9315SOL     OW39403   3.748   3.862   8.849 -0.2569 -0.2343 -0.2066
 9315SOL    HW139404   3.750   3.936   8.909 -0.4498 -1.8685  1.7924
 9315SOL    HW239405   3.801   3.796   8.893  0.7526  1.1861  0.6939
 9316SOL     OW39406   4.137   3.509  10.096  0.1578  0.2416 -0.3381
 9316SOL    HW139407   4.174   3.591  10.130  0.0734  0.2241 -0.2006
 9316SOL    HW239408   4.063   3.488  10.154  1.9952 -3.0162  0.8582
 9317SOL     OW39409   4.212   3.684   2.915  0.1560 -0.6958 -0.2389
 9317SOL    HW139410   4.202   3.629   2.838 -0.9329  0.4095 -0.8838
 9317SOL    HW239411   4.130   3.667   2.961  1.2689 -0.4125  1.8632
 9318SOL     OW39412   4.664   0.585   8.866  0.0373  0.5318  0.4463
 9318SOL    HW139413   0.023   0.594   8.817  0.4344  3.1609  1.5627
 9318SOL    HW239414   4.606   0.561   8.794  0.3517  3.4360 -0.7827
 9319SOL     OW39415   1.472   4.296   6.341 -0.1159 -0.2068  0.2619
 9319SOL    HW139416   1.518   4.212   6.350  0.4154  0.0299 -0.2071
 9319SOL    HW239417   1.427   4.273   6.260 -1.6404 -0.3214  1.1390
 9320SOL     OW39418   1.736   4.522   0.676 -0.3629 -0.1631  0.4381
 9320SOL    HW139419   1.813   4.498   0.625  0.4003  1.2674  0.9120
 9320SOL    HW239420   1.680   4.530   0.599 -0.2653  0.7632  0.4686
 9321SOL     OW39421   0.857   0.533   4.739  0.0047  0.2722  0.3388
 9321SOL    HW139422   0.817   0.572   4.662  0.0691 -0.5899 -0.1398
 9321SOL    HW239423   0.885   0.447   4.707  0.6472  0.3400  0.7191
 9322SOL     OW39424   2.569   2.000  17.327  0.1069  0.3402  0.1836
 9322SOL    HW139425   2.478   1.979  17.345  0.3697 -0.3839  0.6563
 9322SOL    HW239426   2.567   2.093  17.304  2.0838  0.1914 -0.5771
 9323SOL     OW39427   1.318   3.787   8.575  0.0470  0.3778 -0.4848
 9323SOL    HW139428   1.242   3.735   8.548 -0.5857 -0.1798  2.3119
 9323SOL    HW239429   1.286   3.820   8.659  0.0562 -2.8531  0.8088
 9324SOL     OW39430   1.793   0.582  12.599 -0.0275  0.1427  0.6943
 9324SOL    HW139431   1.764   0.585  12.508  2.2578 -0.1657 -0.0447
 9324SOL    HW239432   1.888   0.597  12.595  0.2511 -1.9578 -0.8116
 9325SOL     OW39433   3.190   4.615   1.194 -0.0487  0.0247 -0.7139
 9325SOL    HW139434   3.146   4.532   1.175  0.9259 -0.4458 -0.9437
 9325SOL    HW239435   3.236   4.615   1.110 -0.4415 -0.8470 -0.9304
 9326SOL     OW39436   2.475   1.231   6.901  0.0402  0.0808  0.4013
 9326SOL    HW139437   2.564   1.251   6.872  0.0623 -2.4803 -1.2543
 9326SOL    HW239438   2.436   1.311   6.865 -0.4061 -0.6141 -0.6444
 9327SOL     OW39439   0.730   2.038   5.208 -0.3405 -0.1539 -0.1185
 9327SOL    HW139440   0.821   2.066   5.216 -0.4281  1.0976 -3.2157
 9327SOL    HW239441   0.682   2.109   5.250  0.7479  0.2612  0.4277
 9328SOL     OW39442   2.368   3.483   8.968  0.0362  0.0366  0.3052
 9328SOL    HW139443   2.382   3.568   8.925 -0.2034 -0.4832 -0.7928
 9328SOL    HW239444   2.419   3.421   8.917 -1.5387  0.5445 -1.8864
 9329SOL     OW39445   0.439   1.406  11.455 -0.2799  0.4642 -0.3242
 9329SOL    HW139446   0.435   1.315  11.485  0.0151  0.2543 -0.9079
 9329SOL    HW239447   0.530   1.427  11.476  0.2664  0.6339 -2.8053
 9330SOL     OW39448   3.337   1.319   3.222  0.5347  0.2310 -0.0361
 9330SOL    HW139449   3.350   1.400   3.172 -1.2643  0.9437  0.6586
 9330SOL    HW239450   3.418   1.316   3.274  0.0737 -0.1503  0.6631
 9331SOL     OW39451   0.224   1.096  13.802 -0.5207  0.6961 -0.0785
 9331SOL    HW139452   0.241   1.093  13.708  1.8906 -0.1523  0.3819
 9331SOL    HW239453   0.272   1.022  13.839  1.3128  1.8076 -0.2258
 9332SOL     OW39454   0.556   0.495   6.676 -0.5195  0.0978 -0.3582
 9332SOL    HW139455   0.585   0.571   6.727 -0.1365 -0.1949 -0.1427
 9332SOL    HW239456   0.583   0.419   6.728 -0.7664 -0.2666 -0.7661
 9333SOL     OW39457   4.002   2.324   2.067 -0.4763  0.0822 -0.1831
 9333SOL    HW139458   3.917   2.291   2.038  0.0893 -1.6427  0.1457
 9333SOL    HW239459   4.048   2.240   2.072  0.6303  0.7444  0.8744
 9334SOL     OW39460   3.383   2.898  16.843  0.0387  0.3076  0.1553
 9334SOL    HW139461   3.397   2.960  16.914  0.3949 -0.9006  1.1574
 9334SOL    HW239462   3.291   2.877  16.826 -0.5187  2.3576  0.7365
 9335SOL     OW39463   2.075   0.968   2.411 -0.5575 -0.2056  0.4125
 9335SOL    HW139464   2.055   0.987   2.320  1.5368 -1.6518 -0.3456
 9335SOL    HW239465   2.166   0.940   2.397 -0.3121  1.4778 -1.3496
 9336SOL     OW39466   2.760   3.038  13.523  0.2372 -0.2288 -0.2134
 9336SOL    HW139467   2.696   3.101  13.492  0.8362 -0.1929 -1.3865
 9336SOL    HW239468   2.699   2.983  13.572 -1.1097  0.7777 -0.7680
 9337SOL     OW39469   2.680   1.385   5.253 -0.2768  0.3419 -0.1407
 9337SOL    HW139470   2.735   1.362   5.178  1.6549 -0.0352  1.4060
 9337SOL    HW239471   2.602   1.391   5.198  0.2771  0.6609 -0.9010
 9338SOL     OW39472   2.362   3.764   5.080  0.3233 -0.2939  0.2301
 9338SOL    HW139473   2.380   3.800   4.993 -0.6086  0.8763  0.5206
 9338SOL    HW239474   2.422   3.817   5.134  1.7909 -0.8088 -0.8888
 9339SOL     OW39475   0.137   0.492   9.221 -0.0070 -0.3897  0.2252
 9339SOL    HW139476   0.127   0.580   9.257 -1.0209  0.3049 -1.7440
 9339SOL    HW239477   0.124   0.438   9.300 -2.2806  1.5456  1.1546
 9340SOL     OW39478   0.344   3.182  12.648 -0.8485 -0.0454  0.2220
 9340SOL    HW139479   0.253   3.159  12.665 -0.4292 -1.0792  1.0506
 9340SOL    HW239480   0.346   3.191  12.553  1.0671 -0.4976  0.2133
 9341SOL     OW39481   0.182   2.919   6.048 -0.1278  0.0752  0.0023
 9341SOL    HW139482   0.237   2.907   6.126  0.8463 -0.5059 -0.7745
 9341SOL    HW239483   0.101   2.925   6.098 -0.6697 -0.5623 -0.8071
 9342SOL     OW39484   0.394   4.455   7.864  0.1785 -1.0010 -0.7360
 9342SOL    HW139485   0.386   4.360   7.873 -1.6498 -0.7972 -0.1669
 9342SOL    HW239486   0.478   4.460   7.818  0.7258  0.7703  0.4278
 9343SOL     OW39487   1.560   4.611   3.474  0.4988  0.3340  0.2362
 9343SOL    HW139488   1.599   4.528   3.446 -3.6647 -1.3940 -0.3743
 9343SOL    HW239489   1.547   4.583   3.564  2.2613  1.1104  0.7368
 9344SOL     OW39490   3.547   2.646   8.291 -0.2119  0.4176  0.7764
 9344SOL    HW139491   3.469   2.590   8.293 -1.0775  1.6329  1.1182
 9344SOL    HW239492   3.565   2.679   8.379  1.9543  1.1423  0.0480
 9345SOL     OW39493   4.476   2.725   9.799  0.5027  0.3970 -0.3071
 9345SOL    HW139494   4.395   2.674   9.798 -0.2189  1.5146  0.0668
 9345SOL    HW239495   4.510   2.710   9.888  0.8705 -0.3280 -0.5709
 9346SOL     OW39496   3.659   3.119   5.697  0.5936  0.6478 -0.3532
 9346SOL    HW139497   3.687   3.068   5.620  4.7397  0.5419  1.2315
 9346SOL    HW239498   3.698   3.064   5.765  1.3523  2.9058  1.0337
 9347SOL     OW39499   0.468   0.422   3.736 -0.3072  0.1633 -0.0226
 9347SOL    HW139500   0.393   0.480   3.741 -0.3307  0.2120 -0.9780
 9347SOL    HW239501   0.498   0.428   3.645  1.9332  2.5814  0.8789
 9348SOL     OW39502   3.545   1.941   5.593  0.3589 -0.0932 -0.6614
 9348SOL    HW139503   3.532   1.848   5.571  0.2767 -0.2836  0.1937
 9348SOL    HW239504   3.568   1.939   5.686  1.9466  1.6424 -1.0290
 9349SOL     OW39505   0.702   2.998  12.874  0.3524  0.1410  0.1634
 9349SOL    HW139506   0.695   2.973  12.966 -0.5714  1.4372  0.4419
 9349SOL    HW239507   0.760   3.074  12.884  0.8832 -0.2084 -0.2715
 9350SOL     OW39508   3.956   3.806  16.844  0.0363 -0.0706  0.0483
 9350SOL    HW139509   4.025   3.871  16.838 -1.6512  1.9425  2.4643
 9350SOL    HW239510   4.012   3.728  16.838  0.0084 -0.0660 -0.2945
 9351SOL     OW39511   3.667   2.150   4.592  0.0444 -0.1707  0.0792
 9351SOL    HW139512   3.627   2.171   4.508  0.0717 -0.9402 -0.1301
 9351SOL    HW239513   3.733   2.218   4.605 -1.9165  1.6425  0.5459
 9352SOL     OW39514   2.255   2.105   8.352  0.1498 -0.5444 -0.4504
 9352SOL    HW139515   2.167   2.113   8.314  0.5529  0.3407 -1.1804
 9352SOL    HW239516   2.248   2.023   8.402  2.8442  0.8433  2.1599
 9353SOL     OW39517   2.563   1.907   6.233 -0.1109 -0.1745  0.4541
 9353SOL    HW139518   2.532   1.996   6.246 -0.3788 -0.1457 -0.4275
 9353SOL    HW239519   2.657   1.916   6.213 -0.1094  0.2148  0.6331
 9354SOL     OW39520   0.891   4.148   7.833  0.2065  0.1106  0.4909
 9354SOL    HW139521   0.944   4.218   7.871  0.7139 -1.0191  1.8736
 9354SOL    HW239522   0.841   4.128   7.912 -0.5356  1.6913  0.4164
 9355SOL     OW39523   0.724   0.654  14.875  0.0053 -0.0991 -0.5718
 9355SOL    HW139524   0.774   0.704  14.940  1.8047 -0.9865 -1.2780
 9355SOL    HW239525   0.746   0.567  14.909  2.0935  0.2649 -0.9599
 9356SOL     OW39526   4.412   2.173   9.583 -0.1452  0.9130 -0.1074
 9356SOL    HW139527   4.502   2.163   9.551  0.6152 -0.8794  2.6726
 9356SOL    HW239528   4.425   2.201   9.673 -1.2340  0.7501  0.1029
 9357SOL     OW39529   2.577   1.032   3.902 -0.4101  0.7403 -0.0585
 9357SOL    HW139530   2.506   1.036   3.838 -0.0827 -0.5024 -0.5116
 9357SOL    HW239531   2.628   0.968   3.851  0.2966  1.0309  0.2850
 9358SOL     OW39532   1.288   2.487   5.333 -0.2340  0.7674 -0.0407
 9358SOL    HW139533   1.236   2.450   5.404 -0.1651  1.9283  0.6137
 9358SOL    HW239534   1.303   2.403   5.289 -0.6726 -0.4037  2.0903
 9359SOL     OW39535   3.500   3.817   1.428 -0.4917  0.3875  0.0149
 9359SOL    HW139536   3.462   3.892   1.474  1.9392  2.0413 -0.6739
 9359SOL    HW239537   3.593   3.831   1.445 -0.9785  3.1568  0.3753
 9360SOL     OW39538   2.341   4.184   8.430 -0.3741  0.1193  0.3915
 9360SOL    HW139539   2.370   4.272   8.454 -2.7824  0.5986  1.5572
 9360SOL    HW239540   2.382   4.177   8.344 -1.9748 -2.0355 -0.1836
 9361SOL     OW39541   2.208   4.338   2.218 -0.0249  0.2092 -0.3087
 9361SOL    HW139542   2.238   4.405   2.156  0.3943  1.0152  0.7731
 9361SOL    HW239543   2.114   4.335   2.199 -0.5257 -0.2043  2.2518
 9362SOL     OW39544   3.233   2.757   0.677 -0.0420  0.0066 -0.1234
 9362SOL    HW139545   3.158   2.788   0.626  0.7228 -1.6064 -2.2356
 9362SOL    HW239546   3.283   2.839   0.670  0.3326 -0.1518  0.7304
 9363SOL     OW39547   4.257   2.222   9.185  0.5265  0.4459 -0.4153
 9363SOL    HW139548   4.178   2.261   9.147 -1.0565 -1.1436  1.2568
 9363SOL    HW239549   4.235   2.226   9.278  2.6749  1.2043  0.0634
 9364SOL     OW39550   1.582   2.741   9.019  0.4051  0.4615  0.1374
 9364SOL    HW139551   1.550   2.827   8.992  1.0564 -0.3697 -3.2604
 9364SOL    HW239552   1.652   2.739   8.953  1.1670 -2.5830  1.0181
 9365SOL     OW39553   1.433   2.643   5.036 -0.3431  0.3507 -0.4122
 9365SOL    HW139554   1.446   2.737   5.053 -2.1281  0.2134  1.6336
 9365SOL    HW239555   1.361   2.624   5.096  0.3307 -1.8998 -0.3279
 9366SOL     OW39556   0.109   2.989   4.143 -0.0738  0.2412  0.5925
 9366SOL    HW139557   0.116   3.036   4.060  0.4600 -0.9510 -0.0538
 9366SOL    HW239558   0.196   2.948   4.141 -0.5601 -0.8421  1.5960
 9367SOL     OW39559   0.266   0.312   3.565  0.0673  0.0807 -0.0789
 9367SOL    HW139560   0.201   0.342   3.501 -0.4679  0.2047  0.5214
 9367SOL    HW239561   0.272   0.393   3.616 -3.1701  0.1203  0.2429
 9368SOL     OW39562   1.709   0.371  17.229 -0.2860 -0.2340 -0.8367
 9368SOL    HW139563   1.653   0.339  17.299  2.2748 -0.8988  0.9236
 9368SOL    HW239564   1.704   0.466  17.245 -0.1853 -0.8524  2.7254
 9369SOL     OW39565   1.177   2.763  15.894  0.0385  0.5612  0.7430
 9369SOL    HW139566   1.219   2.849  15.890  0.8996  0.0980 -0.4115
 9369SOL    HW239567   1.105   2.770  15.956  1.0871  1.7805  1.7993
 9370SOL     OW39568   2.730   0.042   7.535  0.1730  0.0509 -0.3899
 9370SOL    HW139569   2.680   4.700   7.583  0.8512 -1.4661 -1.7557
 9370SOL    HW239570   2.800   0.074   7.592 -0.7199  0.9076  0.2266
 9371SOL     OW39571   1.704   0.809   4.813  0.1051  0.3670  0.3963
 9371SOL    HW139572   1.610   0.793   4.805  0.0855  0.8525 -0.3850
 9371SOL    HW239573   1.698   0.853   4.898 -1.4994  1.2502 -0.1526
 9372SOL     OW39574   0.535   1.378   7.859 -0.2238  0.3401 -0.6681
 9372SOL    HW139575   0.505   1.469   7.852  2.7951  1.4392  0.4860
 9372SOL    HW239576   0.482   1.341   7.929 -0.5560 -2.3143 -2.3103
 9373SOL     OW39577   3.744   2.931   4.169  0.1272 -0.3310  0.2756
 9373SOL    HW139578   3.696   2.963   4.092  1.2288 -2.1483 -1.1747
 9373SOL    HW239579   3.696   2.988   4.229  0.0242  1.4032 -1.4512
 9374SOL     OW39580   2.490   0.416   2.057  0.1267 -0.5873  0.3831
 9374SOL    HW139581   2.513   0.325   2.038 -1.0784 -1.1149  1.4848
 9374SOL    HW239582   2.522   0.426   2.147 -1.3229 -1.5293  1.0009
 9375SOL     OW39583   2.788   2.711   5.528 -0.1284  0.0831 -0.0235
 9375SOL    HW139584   2.695   2.733   5.528 -0.2401 -0.3888  1.1451
 9375SOL    HW239585   2.834   2.795   5.529  0.8645 -0.4450 -0.8597
 9376SOL     OW39586   0.606   3.418   7.072  0.2299 -0.1134 -0.2708
 9376SOL    HW139587   0.514   3.391   7.063 -0.4594  1.6293  1.4801
 9376SOL    HW239588   0.588   3.481   7.142 -0.3339  0.0577 -0.5671
 9377SOL     OW39589   1.986   3.008  13.234 -0.9695 -0.4814  0.3941
 9377SOL    HW139590   2.061   3.056  13.268  1.0147 -1.8190 -2.1158
 9377SOL    HW239591   2.021   2.985  13.148 -0.2441  1.9659  0.0513
 9378SOL     OW39592   4.325   2.434   4.914 -0.6618 -0.2221  0.2626
 9378SOL    HW139593   4.387   2.500   4.945 -2.3285  0.3979  2.2791
 9378SOL    HW239594   4.308   2.469   4.827 -1.5999  0.4367  0.7077
 9379SOL     OW39595   3.993   1.039   8.841  0.0227  0.1670 -0.0665
 9379SOL    HW139596   3.916   0.991   8.872  0.2095 -0.2802 -0.2873
 9379SOL    HW239597   3.952   1.106   8.786 -0.9153  1.5470  2.3065
 9380SOL     OW39598   0.540   1.102   8.121 -0.1749 -0.0239 -0.3261
 9380SOL    HW139599   0.551   1.184   8.169  1.7304 -0.2401 -0.3566
 9380SOL    HW239600   0.476   1.134   8.058  1.2260  0.3279 -1.5919
 9381SOL     OW39601   3.588   4.429  12.977  0.1095 -0.0178 -0.3336
 9381SOL    HW139602   3.652   4.411  12.908  0.2324 -0.3951 -0.1199
 9381SOL    HW239603   3.646   4.432  13.053  1.5519 -0.5255 -1.4192
 9382SOL     OW39604   4.631   0.099   7.025  0.2955  0.2112  0.5499
 9382SOL    HW139605   4.669   0.026   7.075  1.0147  0.8489  0.9191
 9382SOL    HW239606   4.709   0.150   7.006  0.2149 -0.4848 -1.5939
 9383SOL     OW39607   2.343   1.532   7.179  0.4787  0.4898 -0.1866
 9383SOL    HW139608   2.403   1.478   7.228  0.0453  0.1446 -0.0357
 9383SOL    HW239609   2.364   1.625   7.190 -1.0257  0.9506 -1.0757
 9384SOL     OW39610   2.701   1.690   0.681  0.0698 -0.3423  0.1757
 9384SOL    HW139611   2.752   1.678   0.601 -1.0108 -0.9599 -0.4159
 9384SOL    HW239612   2.681   1.600   0.707  1.6170 -1.1303 -1.3414
 9385SOL     OW39613   3.355   4.708  15.435  0.2681 -0.4891  0.2419
 9385SOL    HW139614   3.283   4.663  15.479 -0.3842 -0.7858 -1.1298
 9385SOL    HW239615   3.420   4.644  15.404  2.1656  1.8362 -0.6596
 9386SOL     OW39616   0.440   4.716  12.387 -0.3981 -0.5210 -0.6549
 9386SOL    HW139617   0.432   0.087  12.399 -0.5498 -0.3046 -2.4794
 9386SOL    HW239618   0.421   4.677  12.473  0.4271  0.8098  0.1366
 9387SOL     OW39619   4.697   0.292  12.528  0.6319 -0.0014  0.0593
 9387SOL    HW139620   0.010   0.222  12.474  2.1967  1.6155 -0.9295
 9387SOL    HW239621   4.698   0.237  12.607 -0.7344  0.5716  0.4770
 9388SOL     OW39622   3.034   4.355   9.557 -0.0867 -0.2189  0.3808
 9388SOL    HW139623   3.092   4.369   9.632  1.4893  1.9629 -1.2354
 9388SOL    HW239624   2.972   4.288   9.586 -1.6208  1.5141  1.1147
 9389SOL     OW39625   1.458   3.687   2.884  0.4737  0.9121 -0.3872
 9389SOL    HW139626   1.369   3.654   2.874  0.9550 -1.1641  2.0139
 9389SOL    HW239627   1.441   3.779   2.906 -1.3862  0.1516  1.4749
 9390SOL     OW39628   4.221   2.851   1.024  0.1029  0.2624 -0.5515
 9390SOL    HW139629   4.127   2.834   1.038  0.2953  0.7029  1.2903
 9390SOL    HW239630   4.215   2.934   0.978 -0.1994  0.6564  0.1874
 9391SOL     OW39631   3.567   2.012   4.158  0.1531 -0.0101 -0.1179
 9391SOL    HW139632   3.554   1.956   4.082  0.8138  1.3510 -1.2438
 9391SOL    HW239633   3.608   1.953   4.222  0.7395 -1.5009 -1.8667
 9392SOL     OW39634   1.350   0.876  10.566  0.0707  0.4411 -0.0692
 9392SOL    HW139635   1.267   0.831  10.549  0.8679 -0.8714 -0.4667
 9392SOL    HW239636   1.323   0.921  10.647 -1.7596 -2.1411  0.7576
 9393SOL     OW39637   4.281   2.038   2.374  0.2679 -0.4785  0.9807
 9393SOL    HW139638   4.278   2.087   2.292  0.2980 -0.9905  0.6690
 9393SOL    HW239639   4.374   2.033   2.396 -0.2148 -0.5767  2.9824
 9394SOL     OW39640   0.258   3.310   9.445  0.2454  0.7445 -0.1364
 9394SOL    HW139641   0.216   3.357   9.374  0.8149  1.3642 -0.0621
 9394SOL    HW239642   0.293   3.387   9.490  3.3557  0.8396 -2.8049
 9395SOL     OW39643   3.977   3.168   5.412 -0.2848  0.2690 -0.4914
 9395SOL    HW139644   4.072   3.169   5.404 -0.2535 -3.2847 -0.3879
 9395SOL    HW239645   3.958   3.260   5.428  0.7904  0.5620 -0.9025
 9396SOL     OW39646   4.253   1.470   6.006 -0.1651  0.5213 -0.3818
 9396SOL    HW139647   4.217   1.428   5.928  1.9073 -0.4005 -0.8456
 9396SOL    HW239648   4.291   1.394   6.050 -0.0648  0.5508 -0.4158
 9397SOL     OW39649   1.406   4.283   3.751 -0.0623  0.2069  0.1502
 9397SOL    HW139650   1.435   4.193   3.760 -1.6588 -0.3892 -0.7575
 9397SOL    HW239651   1.329   4.285   3.809  1.4515 -0.7042  2.1633
 9398SOL     OW39652   3.875   4.161   8.849  0.0554  0.2132 -0.4035
 9398SOL    HW139653   3.804   4.179   8.911 -1.0774  1.6461 -2.1024
 9398SOL    HW239654   3.891   4.248   8.814  1.2241 -1.1057 -3.2111
 9399SOL     OW39655   3.188   1.519   2.962 -0.2735 -0.1747 -0.0441
 9399SOL    HW139656   3.265   1.482   2.919 -0.2728 -0.0399 -0.1600
 9399SOL    HW239657   3.180   1.609   2.930  0.7670 -0.6775 -1.7159
 9400SOL     OW39658   1.180   0.531   8.787 -0.3013  0.0799  0.2786
 9400SOL    HW139659   1.216   0.581   8.860 -0.3401  0.1179  0.2714
 9400SOL    HW239660   1.161   0.598   8.721 -0.9995 -0.7827 -0.3907
 9401SOL     OW39661   2.354   2.711   5.264  0.3973 -0.1620  0.0544
 9401SOL    HW139662   2.358   2.670   5.350 -3.1436  1.2418  0.8889
 9401SOL    HW239663   2.347   2.805   5.276  2.1540  0.1568 -1.3739
 9402SOL     OW39664   2.300   3.620   3.405 -0.1236 -0.1447 -0.0952
 9402SOL    HW139665   2.253   3.633   3.323 -0.3906  3.1586  0.5822
 9402SOL    HW239666   2.228   3.613   3.468 -0.4878 -0.9040 -0.5977
 9403SOL     OW39667   2.697   0.843   3.733  0.2462  0.2821 -0.2805
 9403SOL    HW139668   2.772   0.794   3.765 -1.2498 -1.2467  0.8706
 9403SOL    HW239669   2.653   0.766   3.698 -0.5889 -0.0608  1.4948
 9404SOL     OW39670   4.059   3.681   6.533  0.1550  0.4952 -0.0800
 9404SOL    HW139671   4.123   3.748   6.559  0.3874 -0.8841  2.8070
 9404SOL    HW239672   3.980   3.704   6.580 -0.7233 -3.2531  0.2435
 9405SOL     OW39673   3.728   2.869   3.714 -0.2576 -0.1854 -0.3105
 9405SOL    HW139674   3.736   2.784   3.672  0.1554 -0.2920 -0.0151
 9405SOL    HW239675   3.750   2.844   3.804 -1.8820 -3.6993 -0.8927
 9406SOL     OW39676   0.490   3.736   6.187 -0.3958  0.4629 -0.1101
 9406SOL    HW139677   0.461   3.650   6.218  1.1171  0.4020  1.1251
 9406SOL    HW239678   0.550   3.763   6.256  0.2016  3.8068 -1.9335
 9407SOL     OW39679   1.366   3.324  11.987 -0.3292 -0.3612 -0.6549
 9407SOL    HW139680   1.414   3.298  11.908  0.5477  1.2003 -0.6361
 9407SOL    HW239681   1.302   3.254  11.999 -2.2838  1.2105 -1.8353
 9408SOL     OW39682   0.868   2.809   3.627  0.2758 -0.4818  0.3532
 9408SOL    HW139683   0.862   2.904   3.620 -0.7792 -0.7435 -2.3190
 9408SOL    HW239684   0.942   2.787   3.684 -1.8762 -0.6273  3.0928
 9409SOL     OW39685   3.213   3.730  13.224  0.2894 -0.3472 -1.1217
 9409SOL    HW139686   3.241   3.720  13.315  0.1137  1.8143 -0.8149
 9409SOL    HW239687   3.137   3.785  13.246  1.4367  0.2578  1.3297
 9410SOL     OW39688   1.945   3.480   6.554 -0.0898  0.6676  0.2269
 9410SOL    HW139689   1.861   3.458   6.595 -0.9794 -0.3293 -2.1489
 9410SOL    HW239690   1.930   3.415   6.485 -0.3113 -0.1144  0.9995
 9411SOL     OW39691   3.086   1.609   2.060 -0.6662 -0.1129 -0.3270
 9411SOL    HW139692   3.039   1.596   2.142  0.2502 -0.6146  0.1146
 9411SOL    HW239693   3.076   1.704   2.062  0.7808  0.0638 -1.0585
 9412SOL     OW39694   3.876   2.696   2.935 -0.4157 -0.1700 -0.1607
 9412SOL    HW139695   3.822   2.765   2.896 -1.6738 -1.0488  0.0308
 9412SOL    HW239696   3.811   2.626   2.930 -2.2829  1.5714  0.0953
 9413SOL     OW39697   3.988   3.301   2.055 -0.0658 -0.3794  0.2018
 9413SOL    HW139698   4.073   3.260   2.040  0.0970  1.2207 -3.2897
 9413SOL    HW239699   3.972   3.341   1.970 -0.7315 -2.1052 -0.5004
 9414SOL     OW39700   0.735   3.116   2.100 -0.6693  0.6729 -0.5722
 9414SOL    HW139701   0.804   3.087   2.160 -1.3577  2.4172  1.0495
 9414SOL    HW239702   0.659   3.071   2.136  0.0931 -0.1166  0.0597
 9415SOL     OW39703   0.732   2.854   4.409 -0.4747 -0.2041 -0.2540
 9415SOL    HW139704   0.645   2.826   4.380 -0.6748  0.7780 -0.5758
 9415SOL    HW239705   0.714   2.944   4.434  1.7597 -0.4170  2.1273
 9416SOL     OW39706   1.009   2.750   8.309  0.0621 -0.5280  0.0872
 9416SOL    HW139707   1.074   2.713   8.248 -0.7430 -1.4143 -0.2313
 9416SOL    HW239708   0.955   2.674   8.332 -1.7311  0.8787  0.5114
 9417SOL     OW39709   1.079   4.044   8.697 -0.6963  0.5365  0.0421
 9417SOL    HW139710   1.000   4.066   8.746 -1.3496 -0.0877 -0.7258
 9417SOL    HW239711   1.131   3.994   8.760 -0.6028  0.7842  0.1587
 9418SOL     OW39712   0.683   3.633   7.498  0.1730  0.1132 -0.1366
 9418SOL    HW139713   0.662   3.727   7.498 -0.2356  0.0164  1.2252
 9418SOL    HW239714   0.704   3.626   7.591  0.5567  1.0293 -0.1524
 9419SOL     OW39715   2.164   1.504   9.999  0.6922  0.2914 -0.1428
 9419SOL    HW139716   2.166   1.600  10.005 -1.9508  0.5358 -3.3524
 9419SOL    HW239717   2.178   1.473  10.088 -1.9079 -1.6632 -0.4184
 9420SOL     OW39718   0.754   4.494   6.142  0.2105  0.4330  0.4463
 9420SOL    HW139719   0.838   4.540   6.136  1.4063 -1.9048 -0.7775
 9420SOL    HW239720   0.754   4.450   6.057 -1.0907  0.6549  0.3366
 9421SOL     OW39721   1.532   2.632   1.906 -0.3006  0.1568  0.8605
 9421SOL    HW139722   1.562   2.688   1.834  1.0180 -0.0206  1.2779
 9421SOL    HW239723   1.581   2.551   1.899 -0.1955  0.3532 -0.7257
 9422SOL     OW39724   4.173   0.379   3.298  0.7044  0.5103 -0.4748
 9422SOL    HW139725   4.104   0.445   3.294  0.4043  0.0710 -2.5786
 9422SOL    HW239726   4.115   0.308   3.270  1.6252  0.0293 -1.1468
 9423SOL     OW39727   3.514   3.438   8.490  0.0308 -0.1794  0.1052
 9423SOL    HW139728   3.482   3.437   8.580  1.0461  1.2166  0.4820
 9423SOL    HW239729   3.568   3.359   8.495 -0.9099 -0.8236  0.0555
 9424SOL     OW39730   4.318   0.991   2.505 -0.3098 -0.8791  0.2536
 9424SOL    HW139731   4.332   1.039   2.423  0.3328 -1.2515  0.1431
 9424SOL    HW239732   4.258   1.048   2.552 -1.8020 -0.9144 -1.5813
 9425SOL     OW39733   0.824   0.207   6.520 -0.1335  0.1638 -0.7462
 9425SOL    HW139734   0.891   0.167   6.464  0.0790  0.4701 -0.7086
 9425SOL    HW239735   0.745   0.178   6.474 -0.8520 -0.3600  0.8179
 9426SOL     OW39736   2.931   3.448   7.826 -0.2266  0.4856 -0.0065
 9426SOL    HW139737   2.913   3.526   7.878 -1.6342 -0.0804  0.3721
 9426SOL    HW239738   3.024   3.441   7.847 -1.0844 -1.6738  3.1840
 9427SOL     OW39739   4.400   1.510   5.583 -0.5844  0.4456  0.8421
 9427SOL    HW139740   4.360   1.525   5.497 -1.0705 -1.9560  0.6598
 9427SOL    HW239741   4.391   1.415   5.585  1.1888  0.3226  2.8519
 9428SOL     OW39742   2.779   3.528  13.883 -0.2717 -0.0800 -0.4219
 9428SOL    HW139743   2.768   3.579  13.803  1.6425 -0.8532 -1.1691
 9428SOL    HW239744   2.864   3.552  13.919 -1.3423 -0.1652  2.2061
 9429SOL     OW39745   3.129   4.048  17.177 -0.4392  0.4574  0.2846
 9429SOL    HW139746   3.062   4.052  17.108 -2.2782 -0.7418  2.0220
 9429SOL    HW239747   3.086   3.989  17.238  1.6926 -1.4254 -0.0495
 9430SOL     OW39748   1.000   4.684   8.331  0.2635  0.1700 -0.0015
 9430SOL    HW139749   0.965   4.631   8.403  0.4648  0.5245  0.3627
 9430SOL    HW239750   1.096   4.676   8.329  0.2496 -0.0144  0.1117
 9431SOL     OW39751   1.109   1.115   3.913  0.2197 -0.0999  0.2493
 9431SOL    HW139752   1.083   1.096   4.003 -1.0425  2.2325  0.3726
 9431SOL    HW239753   1.203   1.093   3.914  0.2934  0.2072  0.1784
 9432SOL     OW39754   3.483   3.471   9.162  0.4072 -0.2319 -0.4556
 9432SOL    HW139755   3.395   3.465   9.125  0.5100 -0.2746 -0.6931
 9432SOL    HW239756   3.507   3.382   9.190  0.8346  0.2147  0.5903
 9433SOL     OW39757   2.928   4.376  12.864  0.2457 -0.4879 -0.0530
 9433SOL    HW139758   2.935   4.453  12.921 -1.1925  1.2937 -2.3103
 9433SOL    HW239759   2.900   4.411  12.780  0.2068 -0.7415 -0.1452
 9434SOL     OW39760   2.989   4.394   7.637  0.3508 -0.1186 -0.4947
 9434SOL    HW139761   3.051   4.443   7.583  1.7821 -1.8924 -0.4734
 9434SOL    HW239762   2.972   4.454   7.710  1.2124  0.8362 -1.0842
 9435SOL     OW39763   3.343   0.684  11.732 -0.2197 -0.6494 -0.3627
 9435SOL    HW139764   3.249   0.671  11.723  0.1580 -2.0567 -2.1130
 9435SOL    HW239765   3.366   0.605  11.780 -0.9648  0.4179  1.7449
 9436SOL     OW39766   0.631   4.368   1.070 -0.5735 -0.2072  0.6539
 9436SOL    HW139767   0.563   4.312   1.110  0.7042 -1.9774  0.3529
 9436SOL    HW239768   0.711   4.316   1.074  0.0022  0.8424  2.5019
 9437SOL     OW39769   4.326   1.206   6.244  0.1370 -0.7751 -0.0811
 9437SOL    HW139770   4.339   1.121   6.202  0.7457 -0.9002  0.3691
 9437SOL    HW239771   4.237   1.222   6.213  0.8474  0.2518 -1.6516
 9438SOL     OW39772   4.272   3.211   5.445  0.2460  0.4040  0.4476
 9438SOL    HW139773   4.362   3.194   5.417  0.2983  1.3703  0.0327
 9438SOL    HW239774   4.288   3.280   5.510  2.7165  1.5377 -1.3591
 9439SOL     OW39775   0.283   3.341  17.391  0.2274  0.0140  0.1670
 9439SOL    HW139776   0.353   3.397  17.423 -0.3234  1.2479 -0.7940
 9439SOL    HW239777   0.326   3.282  17.329  0.0997  1.0501 -0.8963
 9440SOL     OW39778   4.010   2.292   3.474  0.7143 -0.0009 -0.4961
 9440SOL    HW139779   3.995   2.318   3.564  0.2274 -1.8767 -0.0328
 9440SOL    HW239780   4.009   2.367   3.414 -1.2993  0.2680 -0.0929
 9441SOL     OW39781   3.007   2.767   3.727  0.2123 -0.0201  0.0423
 9441SOL    HW139782   3.015   2.861   3.710 -2.2730  0.5553  2.0470
 9441SOL    HW239783   3.054   2.757   3.810 -0.2043 -0.8637  0.1808
 9442SOL     OW39784   4.647   3.846  12.977  0.0986 -0.8598 -0.0241
 9442SOL    HW139785   4.673   3.918  12.920 -0.3819 -0.7620 -0.1219
 9442SOL    HW239786   4.650   3.770  12.918 -1.6640 -0.9590 -0.0015
 9443SOL     OW39787   3.874   2.784  11.626 -0.4302  0.0165  0.0510
 9443SOL    HW139788   3.895   2.751  11.713 -0.1695  0.1099  0.0237
 9443SOL    HW239789   3.847   2.874  11.642  0.4153  0.2154  0.3169
 9444SOL     OW39790   3.467   2.366   5.148  0.5465  0.0183  0.0989
 9444SOL    HW139791   3.538   2.329   5.094 -0.6504 -1.2520 -0.6109
 9444SOL    HW239792   3.455   2.297   5.213 -0.2207  0.6188  0.5868
 9445SOL     OW39793   1.656   4.449   8.780  0.0831 -0.1395 -0.2364
 9445SOL    HW139794   1.641   4.389   8.853  0.2899  0.0705 -0.0201
 9445SOL    HW239795   1.721   4.405   8.726 -0.9550 -0.5476 -1.1412
 9446SOL     OW39796   0.106   4.415   3.116  0.6151 -0.8865  0.0395
 9446SOL    HW139797   0.011   4.418   3.106  0.7018 -0.8588 -0.7406
 9446SOL    HW239798   0.118   4.483   3.182 -1.3080 -0.9826  0.4914
 9447SOL     OW39799   4.680   3.716  12.000 -0.4996  0.0107  0.2918
 9447SOL    HW139800   0.017   3.734  12.072  1.8881  1.9266 -2.2020
 9447SOL    HW239801   4.713   3.630  11.974 -0.6431 -0.1218  0.5420
 9448SOL     OW39802   4.619   4.016   7.486 -0.0262  0.3525 -0.2026
 9448SOL    HW139803   4.709   3.993   7.510 -0.1654  0.6784  0.6329
 9448SOL    HW239804   4.623   4.109   7.509  1.4525  0.8064 -2.2724
 9449SOL     OW39805   2.087   0.135   8.677 -0.1208  0.2461 -0.4521
 9449SOL    HW139806   1.995   0.110   8.670 -0.2424  0.3438  0.7498
 9449SOL    HW239807   2.086   0.230   8.666  0.8462  0.1346 -1.5290
 9450SOL     OW39808   0.378   2.583   3.523  0.5315 -0.2573 -0.1550
 9450SOL    HW139809   0.463   2.615   3.552  1.5302 -2.1956 -0.9422
 9450SOL    HW239810   0.404   2.513   3.462  0.3934 -1.1599  0.8230
 9451SOL     OW39811   2.074   3.249  10.941  0.0165  0.0250 -0.0284
 9451SOL    HW139812   2.011   3.289  11.002  1.0899  2.1103 -0.2989
 9451SOL    HW239813   2.159   3.281  10.971 -0.0076  0.5590 -0.5232
 9452SOL     OW39814   0.827   3.295  14.028  0.2681  0.3675 -0.1464
 9452SOL    HW139815   0.878   3.369  14.060 -1.4357  1.5395 -0.1875
 9452SOL    HW239816   0.879   3.224  14.066  1.0888  1.0756  0.0588
 9453SOL     OW39817   3.245   2.481   4.449  0.2314 -0.2585  0.4798
 9453SOL    HW139818   3.202   2.505   4.531 -0.1949 -1.0769  0.5046
 9453SOL    HW239819   3.190   2.408   4.421 -0.2829 -0.3392  1.6777
 9454SOL     OW39820   3.665   4.368  10.379  0.5669  0.5571  0.0079
 9454SOL    HW139821   3.682   4.348  10.471  3.3127  2.1984 -0.1495
 9454SOL    HW239822   3.710   4.452  10.372  0.0501  0.9879  1.8559
 9455SOL     OW39823   4.553   2.804   2.178  0.3505  0.4957  0.4569
 9455SOL    HW139824   4.603   2.855   2.113  0.7651 -0.3724  0.0919
 9455SOL    HW239825   4.597   2.813   2.262  0.5405  2.5944  0.1442
 9456SOL     OW39826   3.804   1.145  10.867 -0.0639 -0.4451 -0.4637
 9456SOL    HW139827   3.781   1.108  10.952  0.3903  0.0176 -0.1404
 9456SOL    HW239828   3.892   1.106  10.866 -0.4883 -1.3923 -1.0050
 9457SOL     OW39829   1.314   3.479   1.662 -0.1562  0.1876  0.0677
 9457SOL    HW139830   1.300   3.495   1.755  0.8072  2.5318 -0.2137
 9457SOL    HW239831   1.410   3.471   1.660 -0.2481 -0.6997 -1.1656
 9458SOL     OW39832   0.130   2.757   5.403 -0.3052  0.3342  0.6001
 9458SOL    HW139833   0.055   2.806   5.368  0.6306  0.6305 -1.0122
 9458SOL    HW239834   0.199   2.800   5.353 -0.3621 -4.7673 -3.8732
 9459SOL     OW39835   4.229   0.601   1.765 -0.5977 -0.5260  0.2248
 9459SOL    HW139836   4.276   0.518   1.762  0.4357  0.0372  0.7814
 9459SOL    HW239837   4.175   0.585   1.843 -1.6606  0.5221 -0.2957
 9460SOL     OW39838   4.550   4.271   6.206 -0.3762 -0.5942 -0.2941
 9460SOL    HW139839   4.626   4.305   6.255 -0.6471  0.0049 -0.2898
 9460SOL    HW239840   4.584   4.278   6.117 -1.3077  1.1432 -0.5156
 9461SOL     OW39841   1.215   4.718   6.777  0.1796 -0.3360  0.0667
 9461SOL    HW139842   1.163   0.071   6.754 -0.5277 -0.8215  0.0619
 9461SOL    HW239843   1.270   4.720   6.698 -0.8871  2.0558 -0.6000
 9462SOL     OW39844   4.605   3.733   1.974  0.2505 -0.0805  0.4376
 9462SOL    HW139845   4.633   3.820   1.948 -0.7677 -0.3439 -1.5033
 9462SOL    HW239846   4.595   3.745   2.069 -0.1558 -3.4674  0.8359
 9463SOL     OW39847   3.193   2.422   6.013  0.4274  0.2266 -0.6191
 9463SOL    HW139848   3.200   2.506   6.058  1.1151 -0.1792  0.0079
 9463SOL    HW239849   3.269   2.438   5.958  2.0637 -2.6993  0.8619
 9464SOL     OW39850   0.847   2.790   7.123 -0.2160  0.4430  0.0492
 9464SOL    HW139851   0.774   2.730   7.140 -0.4785  0.5755 -0.6319
 9464SOL    HW239852   0.852   2.841   7.204  3.9136 -1.8057  1.2613
 9465SOL     OW39853   0.731   3.044  16.924 -0.1077 -0.1590 -1.0677
 9465SOL    HW139854   0.708   2.955  16.952  2.1996 -1.1684 -2.3144
 9465SOL    HW239855   0.647   3.088  16.933  0.4425  1.1201 -2.2115
 9466SOL     OW39856   4.130   0.648  14.647 -0.0593  0.2838 -0.3182
 9466SOL    HW139857   4.128   0.627  14.554 -1.1568  0.3873 -0.3256
 9466SOL    HW239858   4.219   0.628  14.673 -0.7695 -3.2667 -0.6335
 9467SOL     OW39859   1.774   4.034   5.369 -0.2143 -0.2120 -0.0264
 9467SOL    HW139860   1.743   3.973   5.436 -0.5329  0.6574  0.6288
 9467SOL    HW239861   1.773   4.123   5.405 -0.6513 -0.4698  0.6038
 9468SOL     OW39862   2.680   3.224  12.723  0.2380  0.1650 -0.4014
 9468SOL    HW139863   2.768   3.248  12.752 -0.3120  3.4221 -1.5080
 9468SOL    HW239864   2.686   3.132  12.751  1.1997 -0.4175 -2.5425
 9469SOL     OW39865   2.234   3.391   7.277 -0.1116 -0.6195 -0.0883
 9469SOL    HW139866   2.295   3.359   7.210 -1.4045 -0.4677 -1.3413
 9469SOL    HW239867   2.179   3.455   7.231 -0.9193  0.9951  3.1095
 9470SOL     OW39868   0.987   0.465   5.148 -0.1349  0.1104 -0.4640
 9470SOL    HW139869   0.911   0.413   5.173  0.3978 -0.3892  0.1222
 9470SOL    HW239870   1.028   0.410   5.082 -0.5088 -2.4644  1.4664
 9471SOL     OW39871   1.582   4.239   9.276  0.1563  0.2040  0.4509
 9471SOL    HW139872   1.626   4.158   9.304 -0.4268 -0.6563 -1.0956
 9471SOL    HW239873   1.640   4.259   9.203  0.0720 -0.2932  0.2429
 9472SOL     OW39874   1.147   0.754   3.918 -0.4435  0.4101  0.0132
 9472SOL    HW139875   1.186   0.833   3.956 -1.9517  0.7974  0.7424
 9472SOL    HW239876   1.061   0.790   3.899 -0.3091  0.2264 -0.9684
 9473SOL     OW39877   1.526   4.372  11.493 -0.0696  0.9236 -0.3593
 9473SOL    HW139878   1.536   4.439  11.425 -0.5850  0.6251 -0.7253
 9473SOL    HW239879   1.431   4.362  11.499 -0.0865  0.8510 -0.7300
 9474SOL     OW39880   3.475   3.011   6.136 -0.2440  0.2116 -0.2971
 9474SOL    HW139881   3.414   2.979   6.070 -0.4116  2.4964 -1.2678
 9474SOL    HW239882   3.521   3.076   6.084 -0.7823 -0.0792 -1.1357
 9475SOL     OW39883   2.851   0.618   4.080 -0.3715  0.3020 -0.6183
 9475SOL    HW139884   2.796   0.692   4.051 -0.5925  1.5216  2.8105
 9475SOL    HW239885   2.827   0.611   4.173  0.7813 -1.1754 -0.4495
 9476SOL     OW39886   2.801   2.005   4.486 -0.3263 -0.0815  0.2033
 9476SOL    HW139887   2.796   1.912   4.507 -2.6532 -0.2489 -1.1169
 9476SOL    HW239888   2.821   2.022   4.394 -1.1917 -0.3909 -0.0420
 9477SOL     OW39889   1.108   2.008   9.387 -0.3213  0.2459 -0.2611
 9477SOL    HW139890   1.191   2.054   9.384  1.8035 -3.6209 -1.7396
 9477SOL    HW239891   1.094   1.987   9.295  0.9743 -3.0160  0.2474
 9478SOL     OW39892   3.720   4.006  16.295 -0.4485 -0.0787  0.0749
 9478SOL    HW139893   3.680   3.930  16.337 -0.7681  0.0088 -0.0686
 9478SOL    HW239894   3.775   4.031  16.370 -1.9472 -1.5304  1.6422
 9479SOL     OW39895   0.664   3.275   6.608  0.4681 -0.5030  0.2373
 9479SOL    HW139896   0.702   3.343   6.551 -1.2564 -1.3579 -1.9419
 9479SOL    HW239897   0.739   3.231   6.649  1.7219  2.2109  0.8057
 9480SOL     OW39898   0.730   1.323   5.686  0.5605 -0.2325 -0.3395
 9480SOL    HW139899   0.778   1.337   5.605 -1.9292  2.8116 -1.3122
 9480SOL    HW239900   0.692   1.411   5.689 -0.4717 -0.7259  1.1448
 9481SOL     OW39901   2.039   1.413   8.244 -0.3618 -0.4392 -0.4357
 9481SOL    HW139902   2.097   1.461   8.303 -0.3456  0.8462 -1.4786
 9481SOL    HW239903   1.957   1.462   8.257  0.2022 -0.2071  2.1507
 9482SOL     OW39904   1.755   0.620  16.723  0.1626  0.3966 -0.2582
 9482SOL    HW139905   1.772   0.527  16.705  0.7137 -0.3493  3.9171
 9482SOL    HW239906   1.738   0.630  16.817  2.4224 -2.0462  0.4243
 9483SOL     OW39907   1.420   1.978   9.873  0.4566 -0.8807 -0.1245
 9483SOL    HW139908   1.348   1.915   9.862  0.3394 -0.8265  0.3450
 9483SOL    HW239909   1.497   1.929   9.846  0.0120 -2.5736  1.6400
 9484SOL     OW39910   2.548   2.071   3.256 -0.4645 -0.8363  0.2009
 9484SOL    HW139911   2.513   2.160   3.267 -1.2348 -1.2829  1.3358
 9484SOL    HW239912   2.642   2.086   3.262 -0.9193  0.9976  2.6260
 9485SOL     OW39913   1.633   1.864  11.773  0.3002  0.8537 -0.4235
 9485SOL    HW139914   1.603   1.953  11.755 -2.0822 -0.1572 -1.4572
 9485SOL    HW239915   1.708   1.859  11.713 -0.7176 -0.3839 -1.6130
 9486SOL     OW39916   3.870   0.512  14.694 -0.2251  0.7599  0.1139
 9486SOL    HW139917   3.958   0.528  14.658 -1.2356 -2.6216 -3.7650
 9486SOL    HW239918   3.899   0.487  14.782 -0.4609 -0.4279 -0.1568
 9487SOL     OW39919   1.846   1.305   6.087  0.3564 -0.4383  0.3785
 9487SOL    HW139920   1.905   1.370   6.047 -0.2468  1.3703  2.4675
 9487SOL    HW239921   1.760   1.325   6.049 -0.2203 -0.0630  1.9003
 9488SOL     OW39922   0.303   2.387   2.693  0.0309  0.3116 -0.3228
 9488SOL    HW139923   0.245   2.420   2.625 -0.5621  0.1295  0.1006
 9488SOL    HW239924   0.385   2.412   2.651 -0.3818  0.9259 -0.7665
 9489SOL     OW39925   0.290   3.571  12.051 -0.6126 -0.0037  0.4449
 9489SOL    HW139926   0.334   3.533  12.128  0.2389  1.4261  0.6557
 9489SOL    HW239927   0.230   3.500  12.028 -1.6884  1.1572 -0.2896
 9490SOL     OW39928   2.862   1.274   4.824 -0.1900  0.1284  0.7698
 9490SOL    HW139929   2.773   1.263   4.858 -0.1453 -0.6041  0.6464
 9490SOL    HW239930   2.901   1.334   4.887  0.0563 -0.3350  1.0573
 9491SOL     OW39931   0.877   0.154   8.731  0.7449 -0.5900 -0.0547
 9491SOL    HW139932   0.875   0.224   8.797 -0.7758  1.9031 -2.7203
 9491SOL    HW239933   0.787   0.122   8.733  1.0757 -1.7512 -3.9714
 9492SOL     OW39934   2.336   1.355  15.349 -0.3781 -0.0010  0.2834
 9492SOL    HW139935   2.375   1.280  15.393  2.9556  1.6162  0.1186
 9492SOL    HW239936   2.376   1.426  15.400 -0.4575 -0.3771  0.8660
 9493SOL     OW39937   4.636   0.902   2.370  0.0051 -0.5668  0.3385
 9493SOL    HW139938   4.702   0.846   2.411  0.0255  1.4557  3.0532
 9493SOL    HW239939   4.685   0.983   2.356  0.6335 -0.7204  1.6625
 9494SOL     OW39940   2.546   4.573   7.618 -0.0371 -0.4604 -0.2873
 9494SOL    HW139941   2.515   4.551   7.705 -1.9741 -0.5020 -0.9810
 9494SOL    HW239942   2.558   4.483   7.588  1.2081 -0.9157  1.6143
 9495SOL     OW39943   2.490   0.773   8.609 -0.7941 -0.5548  0.6760
 9495SOL    HW139944   2.422   0.708   8.593 -1.7311  0.4481  0.5125
 9495SOL    HW239945   2.577   0.740   8.585 -0.6094 -0.9811  1.9743
 9496SOL     OW39946   0.628   2.038   7.977  0.0513  0.0641  0.1959
 9496SOL    HW139947   0.618   2.127   8.011  0.7434  0.1362  0.2234
 9496SOL    HW239948   0.558   2.029   7.912 -2.4035  0.3075  2.8050
 9497SOL     OW39949   4.165   2.824  14.560 -0.6542 -0.3491 -0.1823
 9497SOL    HW139950   4.208   2.909  14.556  2.2167 -1.6120  3.0091
 9497SOL    HW239951   4.236   2.762  14.540 -0.7953 -0.9047  1.0271
 9498SOL     OW39952   3.839   3.794   6.000 -0.4601 -0.1923  0.0085
 9498SOL    HW139953   3.892   3.745   6.063  0.0737  0.1437 -0.1786
 9498SOL    HW239954   3.757   3.745   6.010  0.3563 -2.0632 -2.5463
 9499SOL     OW39955   3.327   4.294   1.153 -0.0341 -0.1722  0.6516
 9499SOL    HW139956   3.246   4.313   1.199  0.6108  0.2386  1.6238
 9499SOL    HW239957   3.322   4.353   1.078  0.0447  0.2711  0.9953
 9500SOL     OW39958   3.094   2.582   4.692  0.4341  0.0278 -0.3793
 9500SOL    HW139959   3.122   2.671   4.715  2.3373 -0.9774  1.2332
 9500SOL    HW239960   3.000   2.584   4.712  0.2219 -0.3149 -1.3490
 9501SOL     OW39961   2.363   4.298   2.613  0.5427 -0.5419  0.6635
 9501SOL    HW139962   2.354   4.219   2.666 -2.9359 -1.1441 -0.8076
 9501SOL    HW239963   2.310   4.350   2.672  1.0895  2.1925 -1.2469
 9502SOL     OW39964   1.215   0.268   3.366 -0.6986 -0.1121  0.4785
 9502SOL    HW139965   1.175   0.197   3.415 -2.0758  2.4984  3.0601
 9502SOL    HW239966   1.307   0.246   3.383 -0.5481  0.0639 -0.0913
 9503SOL     OW39967   2.881   2.130  12.641  0.0121 -0.6063 -0.3513
 9503SOL    HW139968   2.897   2.038  12.663  1.0225 -0.3533 -0.0463
 9503SOL    HW239969   2.804   2.129  12.585 -0.8389 -1.6432  0.8386
 9504SOL     OW39970   0.187   4.366  14.500  0.3311 -0.7265 -0.4169
 9504SOL    HW139971   0.136   4.444  14.522 -1.1635 -1.4609 -1.2659
 9504SOL    HW239972   0.265   4.415  14.473 -0.6342  0.7805 -0.4712
 9505SOL     OW39973   3.634   2.452   2.133  0.1894 -0.4607  0.2986
 9505SOL    HW139974   3.576   2.424   2.062 -0.8810  0.3007  0.8592
 9505SOL    HW239975   3.613   2.394   2.206  2.1339  0.9855  1.9926
 9506SOL     OW39976   4.501   0.350   8.303 -0.0170 -0.0886 -0.1961
 9506SOL    HW139977   4.513   0.443   8.323 -2.6380  0.2034 -0.0560
 9506SOL    HW239978   4.427   0.329   8.359 -0.8621  0.0172 -1.2720
 9507SOL     OW39979   3.837   1.836   5.139 -0.1898 -0.0750 -0.0343
 9507SOL    HW139980   3.835   1.931   5.130  1.5435 -0.0850 -0.3496
 9507SOL    HW239981   3.791   1.806   5.060 -0.7831 -2.0125  1.0218
 9508SOL     OW39982   0.169   0.108  15.135 -0.2341  0.0221  0.1819
 9508SOL    HW139983   0.140   0.082  15.222  1.1450 -0.1153  0.6060
 9508SOL    HW239984   0.164   0.203  15.147 -0.4685 -0.1064  1.1152
 9509SOL     OW39985   0.187   1.972   4.995  0.1978 -0.0272  0.3719
 9509SOL    HW139986   0.211   1.882   5.019 -1.4177 -1.0227 -1.7500
 9509SOL    HW239987   0.160   2.002   5.082  1.2946  2.4372 -0.1337
 9510SOL     OW39988   0.478   3.306   1.402  0.2087  0.1302 -0.2955
 9510SOL    HW139989   0.533   3.329   1.477 -1.2131  0.9624  0.4863
 9510SOL    HW239990   0.546   3.315   1.335 -0.3102 -1.7734 -1.0811
 9511SOL     OW39991   2.307   3.397  13.513 -0.5673  0.0741  0.5721
 9511SOL    HW139992   2.303   3.449  13.433 -1.4703 -0.1741  0.4567
 9511SOL    HW239993   2.224   3.414  13.556  0.4168 -0.7097  2.7674
 9512SOL     OW39994   2.323   1.042   5.749  0.1288  0.0145  0.2649
 9512SOL    HW139995   2.286   1.077   5.668  2.8166  0.8320 -0.5953
 9512SOL    HW239996   2.403   1.094   5.752 -0.6187  1.0539  2.1331
 9513SOL     OW39997   3.077   0.406   3.220  0.2878  0.7553  0.0189
 9513SOL    HW139998   3.129   0.376   3.294  2.5676  1.8854 -1.1574
 9513SOL    HW239999   3.138   0.393   3.148  0.2397  0.4340  0.0358
 9514SOL     OW40000   0.350   4.001   6.201 -0.5358 -0.7276 -0.3550
 9514SOL    HW140001   0.365   3.906   6.201 -0.0239 -0.6432 -1.4302
 9514SOL    HW240002   0.292   4.011   6.277  0.5882 -1.2092  0.5724
 9515SOL     OW40003   4.282   1.057  16.266 -0.0216 -0.3800  0.1907
 9515SOL    HW140004   4.306   1.066  16.174  3.0368  0.2018  1.0330
 9515SOL    HW240005   4.197   1.013  16.263  1.4454 -3.1687 -0.4589
 9516SOL     OW40006   0.742   0.994   6.186  0.7715 -0.3735  0.1099
 9516SOL    HW140007   0.790   1.075   6.170 -1.2442  0.5915 -1.0594
 9516SOL    HW240008   0.807   0.926   6.203 -0.5749 -2.4895 -3.0138
 9517SOL     OW40009   3.303   3.461   0.324 -0.3099  1.2774 -0.5368
 9517SOL    HW140010   3.279   3.400   0.394 -0.7077  1.4465 -0.5230
 9517SOL    HW240011   3.338   3.407   0.253  1.8273  1.6385  0.2359
 9518SOL     OW40012   3.111   0.136   8.515  0.0459  0.1129 -0.6184
 9518SOL    HW140013   3.187   0.193   8.503  0.9336 -1.2398 -1.4396
 9518SOL    HW240014   3.058   0.154   8.437  0.7480 -1.4687 -1.4576
 9519SOL     OW40015   3.636   3.424  17.191  0.4989  0.1238  0.0345
 9519SOL    HW140016   3.642   3.515  17.218 -0.5818  0.5464 -1.1794
 9519SOL    HW240017   3.545   3.398  17.208  0.6171 -1.7258 -2.2414
 9520SOL     OW40018   4.602   0.108  11.982 -0.4111  0.2410 -0.0046
 9520SOL    HW140019   4.583   0.023  11.943  0.5707 -0.3407  0.7679
 9520SOL    HW240020   4.515   0.143  11.996  0.9071  4.4694 -2.4324
 9521SOL     OW40021   4.412   0.360   7.599  0.1176  0.3324  0.2092
 9521SOL    HW140022   4.465   0.437   7.581  1.7501 -0.6857  0.7146
 9521SOL    HW240023   4.472   0.295   7.563 -0.4745 -0.1125  0.0211
 9522SOL     OW40024   0.236   1.667   6.227 -0.5686  0.2914  0.5688
 9522SOL    HW140025   0.261   1.610   6.154 -0.3880  1.1360 -0.0351
 9522SOL    HW240026   0.316   1.719   6.239 -0.9068  0.6034  1.4468
 9523SOL     OW40027   3.739   2.312  13.430  0.4889  0.1981  0.2372
 9523SOL    HW140028   3.792   2.300  13.509 -0.8678 -0.8061  0.9954
 9523SOL    HW240029   3.697   2.394  13.455 -1.4769 -1.5307  2.5649
 9524SOL     OW40030   0.970   1.106   5.339 -0.3686 -0.3277  0.0498
 9524SOL    HW140031   1.020   1.179   5.375  0.2840 -0.0825 -1.3740
 9524SOL    HW240032   0.947   1.137   5.251 -1.0690  0.3656  0.4784
 9525SOL     OW40033   4.679   3.075   5.148  0.4425  0.1419  0.3758
 9525SOL    HW140034   0.029   3.090   5.207 -0.2672 -0.3174  1.3940
 9525SOL    HW240035   4.627   3.014   5.201 -0.3281  0.1088 -0.4276
 9526SOL     OW40036   2.801   2.542   4.484 -0.2833 -0.0342  0.3834
 9526SOL    HW140037   2.783   2.537   4.390  2.8168 -0.1722 -0.2000
 9526SOL    HW240038   2.845   2.461   4.506 -1.8147 -1.1028 -0.4279
 9527SOL     OW40039   1.191   1.329   9.102 -0.2916  0.8395 -0.4439
 9527SOL    HW140040   1.137   1.405   9.077  0.4177  1.7429  0.7402
 9527SOL    HW240041   1.132   1.254   9.098 -0.1646  0.8827 -2.8705
 9528SOL     OW40042   1.487   3.545   8.046 -0.1913 -0.4631 -0.5178
 9528SOL    HW140043   1.418   3.489   8.010 -0.2718 -0.1430 -0.8544
 9528SOL    HW240044   1.457   3.566   8.134 -0.2038 -3.0641  0.0954
 9529SOL     OW40045   2.883   3.056   6.471  0.2938  0.2254  0.0739
 9529SOL    HW140046   2.820   2.989   6.499 -0.5196  0.4074 -1.3397
 9529SOL    HW240047   2.871   3.114   6.546 -0.0822 -0.8864  0.8814
 9530SOL     OW40048   2.673   3.879   3.286  0.5793  0.0388  0.3889
 9530SOL    HW140049   2.697   3.928   3.207 -0.5470 -0.4167 -0.2441
 9530SOL    HW240050   2.643   3.943   3.351 -0.9463 -2.0845  1.7953
 9531SOL     OW40051   0.789   3.313   4.587  0.5122  0.2340  0.1959
 9531SOL    HW140052   0.828   3.232   4.618 -2.3078 -1.9996 -2.0112
 9531SOL    HW240053   0.859   3.373   4.560 -0.0907  1.7794  2.0873
 9532SOL     OW40054   2.241   0.938   8.258 -0.1943  0.0822  0.0150
 9532SOL    HW140055   2.259   1.021   8.301  1.2907  0.6088 -1.6749
 9532SOL    HW240056   2.330   0.903   8.263 -0.6151 -0.9250  0.4867
 9533SOL     OW40057   0.192   2.561  11.459  0.2340 -0.2033 -0.5282
 9533SOL    HW140058   0.107   2.604  11.466  0.3261  0.2128 -1.9160
 9533SOL    HW240059   0.217   2.574  11.551 -0.9073 -0.1393 -0.2294
 9534SOL     OW40060   4.111   3.586   5.092 -0.3993 -0.6987  0.1584
 9534SOL    HW140061   4.182   3.592   5.156 -0.3573 -0.3245  0.0790
 9534SOL    HW240062   4.128   3.656   5.030 -0.7591 -1.2776 -0.5872
 9535SOL     OW40063   3.358   3.681   0.931  0.6393 -0.1321 -0.0830
 9535SOL    HW140064   3.279   3.627   0.929  1.3584 -1.1835 -0.3125
 9535SOL    HW240065   3.344   3.757   0.875 -2.9875 -0.1955  0.7191
 9536SOL     OW40066   1.771   1.962  17.220 -0.0694 -0.8000  0.5521
 9536SOL    HW140067   1.814   1.936  17.139  0.0253  0.2999  0.2624
 9536SOL    HW240068   1.685   1.987  17.185 -1.6745 -2.1293  3.4605
 9537SOL     OW40069   2.859   4.194   6.870 -0.3973  0.4156 -0.4199
 9537SOL    HW140070   2.945   4.193   6.829  0.3297  0.9898  1.0898
 9537SOL    HW240071   2.861   4.111   6.919  1.6726 -0.4897 -2.0312
 9538SOL     OW40072   0.731   4.517   4.090  0.0100 -0.0300  0.4028
 9538SOL    HW140073   0.726   4.562   4.174 -0.3715  2.4631 -0.9823
 9538SOL    HW240074   0.737   4.589   4.027  0.7444 -0.4146  0.0313
 9539SOL     OW40075   1.369   4.208   6.090 -0.1095 -0.2671  0.5948
 9539SOL    HW140076   1.334   4.261   6.019 -0.6075 -2.3469 -0.7060
 9539SOL    HW240077   1.407   4.136   6.040 -0.7959 -0.8182  0.8728
 9540SOL     OW40078   0.063   1.488   8.020  0.2274  0.5410 -0.1942
 9540SOL    HW140079   0.139   1.432   8.033 -1.0467 -0.5134  2.6672
 9540SOL    HW240080   0.054   1.475   7.926  0.4765  0.0992 -0.1544
 9541SOL     OW40081   2.049   1.300  14.645 -0.0345 -0.3578 -0.2067
 9541SOL    HW140082   2.013   1.215  14.670 -1.2279  0.2594  0.1951
 9541SOL    HW240083   2.111   1.273  14.577  0.9403 -1.2109  1.0336
 9542SOL     OW40084   2.823   1.221   3.200  0.2894 -0.0085 -0.1047
 9542SOL    HW140085   2.760   1.276   3.247 -0.0482 -0.7626  0.3384
 9542SOL    HW240086   2.888   1.289   3.185 -1.1924  1.1341 -1.3267
 9543SOL     OW40087   0.325   0.759  17.180  0.4722  0.0009 -0.4357
 9543SOL    HW140088   0.378   0.838  17.189 -0.9374  1.0564 -1.3175
 9543SOL    HW240089   0.362   0.723  17.100  0.0873 -0.4831 -0.3965
 9544SOL     OW40090   1.121   3.441  10.053 -0.3399  0.0668  0.2884
 9544SOL    HW140091   1.110   3.359  10.004 -2.0505  0.9736 -0.8654
 9544SOL    HW240092   1.215   3.454  10.043 -0.6397  0.9007 -1.4933
 9545SOL     OW40093   4.222   3.484   2.423 -0.4368  0.2250 -0.3274
 9545SOL    HW140094   4.288   3.554   2.421 -1.9748  1.7179  0.9361
 9545SOL    HW240095   4.277   3.414   2.458 -4.4332 -2.2323  1.0035
 9546SOL     OW40096   2.348   2.577  10.507 -0.1794  0.1507 -0.0446
 9546SOL    HW140097   2.284   2.525  10.458  0.4530  0.9235 -1.6626
 9546SOL    HW240098   2.293   2.653  10.529  1.1712  1.6066 -1.7424
 9547SOL     OW40099   0.696   3.814   2.811 -0.4664  0.0460  0.1677
 9547SOL    HW140100   0.699   3.730   2.856  0.6777  0.4070  0.7691
 9547SOL    HW240101   0.607   3.792   2.784  0.8052 -0.2105 -3.8077
 9548SOL     OW40102   2.016   1.128   2.758  0.9150  0.3376  0.5538
 9548SOL    HW140103   2.050   1.187   2.691 -0.1968  1.1895  0.7502
 9548SOL    HW240104   2.043   1.043   2.723 -1.3704 -0.4778  0.7636
 9549SOL     OW40105   3.463   1.233   7.270  0.1920 -0.0563 -0.5532
 9549SOL    HW140106   3.524   1.300   7.302  0.2894 -1.2148  1.6991
 9549SOL    HW240107   3.483   1.161   7.330 -1.0435 -0.7987 -1.0136
 9550SOL     OW40108   4.130   0.844   0.104 -0.2044  0.1083 -0.1396
 9550SOL    HW140109   4.108   0.765   0.054  0.2672 -0.3105  0.3048
 9550SOL    HW240110   4.221   0.829   0.130 -0.9060 -2.7090  0.6888
 9551SOL     OW40111   2.283   3.317   4.073 -0.2248  0.3531 -0.4634
 9551SOL    HW140112   2.276   3.411   4.054 -2.5188  0.3297  0.2518
 9551SOL    HW240113   2.226   3.286   4.003  0.0138  1.2944 -1.0721
 9552SOL     OW40114   1.668   1.518   1.517  0.3923 -0.2802 -0.0992
 9552SOL    HW140115   1.714   1.435   1.520  1.8671  0.5633  0.5813
 9552SOL    HW240116   1.725   1.570   1.460  0.7934 -1.6479 -0.9324
 9553SOL     OW40117   1.831   3.115   5.370  0.5662  0.4284  0.6596
 9553SOL    HW140118   1.885   3.135   5.294  0.4917 -0.6769  0.3259
 9553SOL    HW240119   1.889   3.135   5.444 -0.4991 -0.2751  1.6791
 9554SOL     OW40120   4.247   0.068   4.320  0.6643  0.4319 -0.3805
 9554SOL    HW140121   4.272   0.082   4.229 -0.2068 -0.8272 -0.8129
 9554SOL    HW240122   4.158   0.033   4.316  0.3272  0.9629  2.7515
 9555SOL     OW40123   4.237   2.990   3.800  0.6303 -0.0147 -0.0866
 9555SOL    HW140124   4.210   2.990   3.891 -0.8945 -3.6343 -0.5634
 9555SOL    HW240125   4.158   3.001   3.748 -0.4822 -0.0948  1.6104
 9556SOL     OW40126   3.075   0.083   3.829 -0.2598 -0.6035 -0.1276
 9556SOL    HW140127   3.164   0.058   3.804 -0.3661 -2.0148  0.9179
 9556SOL    HW240128   3.038   4.720   3.843 -0.0115 -0.6116  0.4645
 9557SOL     OW40129   3.564   0.667   0.704  0.4706 -0.0326 -0.4837
 9557SOL    HW140130   3.514   0.617   0.768  0.8335  0.9105  0.5371
 9557SOL    HW240131   3.508   0.686   0.629 -2.1226  2.0247  2.0115
 9558SOL     OW40132   3.718   0.209   0.874  0.0890  0.0558  0.0409
 9558SOL    HW140133   3.777   0.246   0.809 -1.7764  0.6137 -1.3117
 9558SOL    HW240134   3.712   0.295   0.918 -1.9621  0.5303 -1.2155
 9559SOL     OW40135   4.224   1.716  11.523  0.1850 -0.6332  0.6487
 9559SOL    HW140136   4.241   1.667  11.603  0.6544  0.2956  1.1109
 9559SOL    HW240137   4.263   1.650  11.466 -0.4860  2.2244 -3.1775
 9560SOL     OW40138   0.998   2.748   5.403 -0.2014  0.6818  0.0545
 9560SOL    HW140139   1.042   2.741   5.488 -1.3376  2.0320  0.7462
 9560SOL    HW240140   1.066   2.788   5.348  2.1900  0.2471  2.7291
 9561SOL     OW40141   0.793   3.086   0.943  0.4122 -0.1084  0.0206
 9561SOL    HW140142   0.708   3.067   0.983  0.7925 -1.3614  0.2234
 9561SOL    HW240143   0.780   3.177   0.917  0.2191 -0.2458 -0.3781
 9562SOL     OW40144   4.198   1.387   4.462 -0.1342  0.3851 -0.1206
 9562SOL    HW140145   4.108   1.385   4.495 -0.9295 -1.3901 -2.4883
 9562SOL    HW240146   4.224   1.296   4.467  1.6762  0.8210 -1.8294
 9563SOL     OW40147   3.068   1.928   5.120 -0.2840  0.2863 -0.4251
 9563SOL    HW140148   3.036   1.885   5.040 -1.1539 -2.3300  1.2985
 9563SOL    HW240149   3.125   1.996   5.085  0.4667 -0.4482 -0.6381
 9564SOL     OW40150   3.473   2.941   0.586 -0.2161 -0.0005 -0.6386
 9564SOL    HW140151   3.520   2.887   0.649 -0.7985 -0.3652 -0.5121
 9564SOL    HW240152   3.549   2.956   0.530  0.4425  0.6447  0.4166
 9565SOL     OW40153   0.032   2.115   3.382  0.1357  0.2235  0.4507
 9565SOL    HW140154   4.697   2.190   3.383 -0.1564 -0.0425  2.3950
 9565SOL    HW240155   4.696   2.044   3.404  1.6665 -1.5217 -1.0128
   4.72371   4.72371  17.69660
